Title
44502
    1GLY      N    1   2.975   5.456   3.211  0.2322 -0.4454  1.4901
    1GLY    HT1    2   2.886   5.408   3.188  1.0145 -0.6712 -1.5949
    1GLY    HT2    3   3.048   5.401   3.162 -2.0624 -0.7573 -1.9192
    1GLY    HT3    4   2.978   5.552   3.171 -2.1191 -0.1310  1.9132
    1GLY     CA    5   2.998   5.480   3.356 -0.0786  0.1163 -0.3062
    1GLY    HA1    6   2.901   5.512   3.391  0.2700  1.8750 -0.8730
    1GLY    HA2    7   3.082   5.546   3.374 -1.5914  2.2735 -0.8119
    1GLY      C    8   3.036   5.351   3.427 -0.1748 -0.0786 -0.0943
    1GLY      O    9   3.046   5.251   3.364 -0.1414 -0.0288  0.1074
    2PRO      N   10   3.054   5.353   3.566 -0.0966  0.5342 -0.2564
    2PRO     CD   11   3.031   5.471   3.656  0.3720 -0.2271  0.7032
    2PRO    HD1   12   2.928   5.511   3.639  0.2914 -0.9460 -0.6128
    2PRO    HD2   13   3.103   5.554   3.641  0.4767 -0.2508  1.0749
    2PRO     CA   14   3.089   5.234   3.647  0.0179 -0.1189  0.9464
    2PRO     HA   15   3.173   5.180   3.606 -1.9168 -2.6611  0.0469
    2PRO     CB   16   3.113   5.284   3.786  0.0032 -0.4012 -0.7303
    2PRO    HB1   17   3.221   5.307   3.793  0.1083 -0.2693 -2.4915
    2PRO    HB2   18   3.080   5.212   3.865  0.2840  1.0734  0.7981
    2PRO     CG   19   3.041   5.418   3.800 -0.9057  0.2818 -0.3502
    2PRO    HG1   20   2.946   5.400   3.854 -0.0252 -1.6541  0.6536
    2PRO    HG2   21   3.101   5.487   3.863  0.8337 -0.5332 -1.0293
    2PRO      C   22   2.974   5.141   3.645 -0.1081  0.3635  0.0215
    2PRO      O   23   2.862   5.190   3.663 -0.2146 -0.1385 -0.4430
    3GLY      N   24   2.987   5.007   3.631 -0.0753  0.3614  0.1038
    3GLY     HN   25   3.076   4.973   3.603 -0.2010 -1.6387  1.8763
    3GLY     CA   26   2.877   4.915   3.642 -0.1048 -0.2361  0.2296
    3GLY    HA1   27   2.907   4.817   3.608 -0.9179 -0.8847  1.3681
    3GLY    HA2   28   2.804   4.959   3.576 -0.4174  2.5632  2.2500
    3GLY      C   29   2.832   4.906   3.787 -0.0320 -0.2119  0.5890
    3GLY      O   30   2.709   4.889   3.800 -0.0431 -0.6250  0.4247
    4ASN      N   31   2.919   4.909   3.887  0.3133  0.6531  0.0382
    4ASN     HN   32   3.015   4.934   3.873  0.9781 -2.5974 -2.6337
    4ASN     CA   33   2.885   4.905   4.029 -0.3401 -0.4202 -0.3584
    4ASN     HA   34   2.784   4.868   4.040 -0.2481 -0.5403  0.0931
    4ASN     CB   35   2.988   4.809   4.106 -0.9201  0.1928  0.0439
    4ASN    HB1   36   3.090   4.852   4.121  0.2798 -1.2457 -2.9742
    4ASN    HB2   37   3.014   4.714   4.054  1.5330  0.7080  0.1649
    4ASN     CG   38   2.926   4.775   4.241 -0.0904 -0.6138 -0.1728
    4ASN    OD1   39   2.822   4.819   4.279  0.1635 -0.0434  0.4308
    4ASN    ND2   40   3.005   4.698   4.319 -0.1835 -0.2599 -0.4796
    4ASN   HD21   41   2.975   4.681   4.413  5.3398 -2.3094  1.3073
    4ASN   HD22   42   3.082   4.651   4.276 -1.4239 -2.2322 -0.6403
    4ASN      C   43   2.897   5.044   4.085  0.1789 -0.5355  0.4060
    4ASN      O   44   3.003   5.103   4.098 -0.0962  0.0610  0.2247
    5PRO      N   45   2.793   5.112   4.128  0.8006 -0.8692 -0.2943
    5PRO     CD   46   2.653   5.086   4.101 -1.1400  0.2949  0.0261
    5PRO    HD1   47   2.636   4.984   4.143  0.3706 -0.1278 -0.3119
    5PRO    HD2   48   2.646   5.075   3.991 -1.0644 -3.1048  0.2477
    5PRO     CA   49   2.811   5.244   4.200  0.6218  0.3324  1.0151
    5PRO     HA   50   2.880   5.310   4.150 -0.6075  1.5211  0.8349
    5PRO     CB   51   2.670   5.304   4.194  0.8602  0.5623 -0.0757
    5PRO    HB1   52   2.649   5.366   4.105  0.6753  0.4387 -0.1187
    5PRO    HB2   53   2.650   5.361   4.287  1.7043 -0.1479  0.5555
    5PRO     CG   54   2.566   5.187   4.175 -0.4187 -0.0403 -0.0792
    5PRO    HG1   55   2.535   5.160   4.279  1.4474  0.7409  0.7173
    5PRO    HG2   56   2.474   5.220   4.121 -0.0659 -1.6431 -1.7379
    5PRO      C   57   2.858   5.233   4.349  0.6890 -0.1261  0.0409
    5PRO      O   58   2.908   5.331   4.409  0.3193  0.4348  0.1587
    6GLY      N   59   2.824   5.121   4.411 -1.1428 -0.3499 -0.6718
    6GLY     HN   60   2.788   5.046   4.355  1.0677 -1.5067 -0.6338
    6GLY     CA   61   2.852   5.082   4.550  0.1814  0.2585 -0.3105
    6GLY    HA1   62   2.815   4.981   4.560  1.4141 -0.0881  1.0871
    6GLY    HA2   63   2.792   5.144   4.615  0.1142 -1.9954  1.9366
    6GLY      C   64   2.992   5.078   4.608 -0.3009 -0.4278  0.7300
    6GLY      O   65   3.084   5.106   4.531  0.4861  0.0778  0.2760
    7PRO      N   66   3.008   5.039   4.733  0.0014  0.0942  0.3431
    7PRO     CD   67   2.902   5.025   4.831  0.6795 -0.0545 -0.0545
    7PRO    HD1   68   2.826   4.948   4.803 -0.4950  1.7033 -2.0395
    7PRO    HD2   69   2.847   5.121   4.842 -1.1099 -1.1079  0.6322
    7PRO     CA   70   3.138   5.039   4.793 -0.1135  0.3823 -0.5455
    7PRO     HA   71   3.194   5.124   4.758  1.0858  0.5809  1.6836
    7PRO     CB   72   3.116   5.036   4.939  0.1788  1.1116  0.0854
    7PRO    HB1   73   3.114   5.142   4.973 -3.0793  0.2479  3.1860
    7PRO    HB2   74   3.187   4.986   5.008 -1.3791 -0.8312  0.3687
    7PRO     CG   75   2.977   4.977   4.956 -0.0282  0.5234  0.7593
    7PRO    HG1   76   2.979   4.866   4.957  1.8869  0.5394  0.7528
    7PRO    HG2   77   2.931   5.020   5.047 -2.6824 -1.7640  0.6285
    7PRO      C   78   3.222   4.918   4.748  0.5766 -0.3403 -0.0013
    7PRO      O   79   3.342   4.923   4.750  0.3480 -0.3985 -0.0176
    8GLY      N   80   3.153   4.808   4.705 -0.0921 -0.3857  0.7981
    8GLY     HN   81   3.056   4.803   4.729  0.4504 -2.4815  2.8214
    8GLY     CA   82   3.210   4.686   4.658 -0.0421 -0.0435 -0.1094
    8GLY    HA1   83   3.128   4.627   4.619 -2.0505  2.1482  0.5810
    8GLY    HA2   84   3.265   4.639   4.738  1.1439  1.9658  0.3247
    8GLY      C   85   3.309   4.703   4.550  0.3681  0.4372 -0.3665
    8GLY      O   86   3.341   4.810   4.507  0.0992  0.3527  0.4684
    9ASN      N   87   3.368   4.585   4.506 -0.2520 -0.2336 -0.2905
    9ASN     HN   88   3.346   4.493   4.538 -0.0729 -0.4167 -0.6922
    9ASN     CA   89   3.458   4.586   4.389 -0.1253  0.0357  0.3088
    9ASN     HA   90   3.522   4.668   4.421  0.2928 -0.0312 -0.3336
    9ASN     CB   91   3.545   4.456   4.368  0.4894 -0.2727 -0.2646
    9ASN    HB1   92   3.613   4.465   4.281 -2.9699  0.1734 -3.1807
    9ASN    HB2   93   3.480   4.367   4.349 -1.6012  0.8202  1.3129
    9ASN     CG   94   3.633   4.432   4.492  1.0408 -1.1220 -0.5048
    9ASN    OD1   95   3.672   4.523   4.566  0.4297 -0.2579  0.0411
    9ASN    ND2   96   3.679   4.307   4.499  0.0128 -0.3326  0.1162
    9ASN   HD21   97   3.741   4.285   4.575  0.0256  0.0652  0.2233
    9ASN   HD22   98   3.651   4.239   4.431 -1.0090  0.1775  0.0073
    9ASN      C   99   3.382   4.622   4.258 -0.5765  0.9289  0.2197
    9ASN      O  100   3.260   4.594   4.252 -0.6271 -0.7436  0.2198
   10PRO      N  101   3.441   4.687   4.157  0.5198  0.2612 -0.4585
   10PRO     CD  102   3.577   4.733   4.177  0.2280 -0.3721 -0.1188
   10PRO    HD1  103   3.656   4.660   4.149 -0.5229 -1.6727  1.0079
   10PRO    HD2  104   3.593   4.779   4.277 -0.4065  1.2108 -0.7218
   10PRO     CA  105   3.393   4.723   4.025 -0.0170  0.2254  0.2631
   10PRO     HA  106   3.326   4.805   4.043 -2.1260 -1.6536  1.4489
   10PRO     CB  107   3.512   4.764   3.943  0.2847  0.1895 -0.4746
   10PRO    HB1  108   3.487   4.849   3.876 -0.3710  0.2081 -0.2100
   10PRO    HB2  109   3.572   4.679   3.906 -1.5092 -1.7092  0.7549
   10PRO     CG  110   3.594   4.838   4.059  1.0333  0.6116 -0.2800
   10PRO    HG1  111   3.698   4.864   4.031  0.6987  2.7154  0.2701
   10PRO    HG2  112   3.537   4.928   4.090 -0.6780 -1.1745  2.2117
   10PRO      C  113   3.302   4.614   3.955 -0.0944 -0.0339 -0.3670
   10PRO      O  114   3.327   4.493   3.952  0.5163 -0.4332 -0.4618
   11GLY      N  115   3.189   4.653   3.889 -0.4689 -0.5365 -0.1874
   11GLY     HN  116   3.170   4.751   3.885  1.7360 -0.0816 -0.8586
   11GLY     CA  117   3.102   4.559   3.813  0.1802  0.3632 -0.2231
   11GLY    HA1  118   3.013   4.619   3.805 -0.2173 -0.2711 -0.7811
   11GLY    HA2  119   3.082   4.467   3.866 -3.3805  0.1192 -1.6832
   11GLY      C  120   3.157   4.531   3.672  0.3458 -0.4232  0.2329
   11GLY      O  121   3.271   4.568   3.637 -1.3521 -0.6304 -0.4645
   12PRO      N  122   3.068   4.468   3.593  0.3507 -0.4631  0.7343
   12PRO     CD  123   2.939   4.429   3.640 -0.0616  0.2398 -0.0813
   12PRO    HD1  124   2.880   4.516   3.677  0.7394  0.5579  0.4812
   12PRO    HD2  125   2.938   4.377   3.738 -1.6711 -0.8154 -0.6344
   12PRO     CA  126   3.085   4.447   3.444  0.3711 -0.2380  1.2253
   12PRO     HA  127   3.150   4.362   3.426 -1.8650 -1.7431 -0.3501
   12PRO     CB  128   2.934   4.424   3.406  0.4119  0.3361  0.3020
   12PRO    HB1  129   2.921   4.356   3.319 -0.4612  1.4199 -0.4298
   12PRO    HB2  130   2.884   4.520   3.383 -0.8268 -0.5026 -0.6286
   12PRO     CG  131   2.875   4.355   3.528 -0.6552 -0.6342 -0.1543
   12PRO    HG1  132   2.764   4.358   3.521 -0.6107  1.3909 -0.6392
   12PRO    HG2  133   2.911   4.250   3.525  0.1756 -0.3351 -2.8028
   12PRO      C  134   3.153   4.561   3.371  0.7008  0.1552 -0.0062
   12PRO      O  135   3.126   4.678   3.385 -0.0871  0.2953  0.0760
   13GLY      N  136   3.244   4.526   3.282 -0.2180  0.2160  0.0696
   13GLY     HN  137   3.258   4.428   3.273  0.2646  0.3828 -1.1656
   13GLY     CA  138   3.335   4.613   3.210  0.1188  0.4187 -0.3703
   13GLY    HA1  139   3.262   4.671   3.155 -3.1053 -1.0941  2.0144
   13GLY    HA2  140   3.396   4.553   3.144 -0.1404 -1.0313  0.6648
   13GLY      C  141   3.427   4.698   3.295 -0.4666  1.2503  0.2550
   13GLY      O  142   3.453   4.670   3.409 -0.3871  0.6298 -0.2178
   14ASN      N  143   3.485   4.800   3.229  0.0981 -0.2533 -0.2243
   14ASN     HN  144   3.447   4.828   3.140  0.8118 -0.8446 -0.7260
   14ASN     CA  145   3.586   4.887   3.286 -0.0053 -0.4064  0.1837
   14ASN     HA  146   3.663   4.820   3.321 -0.8763 -1.0215  0.9470
   14ASN     CB  147   3.630   4.988   3.185 -0.4751  0.2039  0.4169
   14ASN    HB1  148   3.718   5.043   3.225 -0.5474  0.9644 -0.4302
   14ASN    HB2  149   3.550   5.061   3.161 -0.3398 -0.4822 -2.5431
   14ASN     CG  150   3.678   4.927   3.053  0.0385 -0.4150 -0.3239
   14ASN    OD1  151   3.709   4.811   3.041 -0.5858 -0.2724  0.5894
   14ASN    ND2  152   3.708   5.017   2.957 -0.1104 -0.1002 -0.4163
   14ASN   HD21  153   3.739   4.978   2.871  0.5935 -2.9380  0.9982
   14ASN   HD22  154   3.663   5.107   2.957 -1.1419 -0.5869  0.8142
   14ASN      C  155   3.543   4.962   3.408  0.0200  0.2656  0.5442
   14ASN      O  156   3.423   4.982   3.429  0.1671  0.4953 -0.0098
   15PRO      N  157   3.626   4.987   3.504  0.3523 -0.9181 -0.4419
   15PRO     CD  158   3.773   4.966   3.499 -0.5837  0.1708 -0.4470
   15PRO    HD1  159   3.821   5.010   3.410  2.3722  0.4359  1.1400
   15PRO    HD2  160   3.788   4.856   3.494 -0.8265  0.1879 -1.9645
   15PRO     CA  161   3.580   5.062   3.628  0.3528  0.4622 -0.3108
   15PRO     HA  162   3.494   5.015   3.672 -0.3608  0.4375 -1.6815
   15PRO     CB  163   3.707   5.054   3.713 -0.0674  0.4950  0.1652
   15PRO    HB1  164   3.712   4.959   3.770 -0.0759 -0.4549 -1.3525
   15PRO    HB2  165   3.727   5.141   3.779  2.5737 -0.5198  0.8431
   15PRO     CG  166   3.826   5.033   3.622  0.3998  0.3932  0.6164
   15PRO    HG1  167   3.874   5.126   3.583 -0.4720  0.7316  0.3402
   15PRO    HG2  168   3.908   4.983   3.677  0.4419  0.1256  0.3118
   15PRO      C  169   3.536   5.212   3.603  0.0906  0.0270 -0.8138
   15PRO    OT1  170   3.584   5.274   3.509  0.1980  0.6179 -0.2546
   15PRO    OT2  171   3.489   5.262   3.707 -0.7280 -0.3633  0.0832
   16SOD    SOD  172   3.310   3.864   4.822  0.1215 -0.0930  0.2404
   17SOD    SOD  173   5.629   4.665   1.404  0.0618  0.0446 -0.3493
   18SOD    SOD  174   0.829   7.075   6.111  0.2724 -0.0330  0.2342
   19SOD    SOD  175   6.331   6.856   2.437 -0.0905  0.1557 -0.1299
   20SOD    SOD  176   3.596   3.889   3.311  0.2632  0.1085  0.4618
   21SOD    SOD  177   1.005   6.780   0.810  0.0635 -0.2571 -0.0298
   22SOD    SOD  178   0.639   3.126   2.694  0.0222  0.6749 -0.1964
   23SOD    SOD  179   2.715   3.578   0.366  0.3465  0.1107  0.3128
   24SOD    SOD  180   8.219   6.170   1.838  0.2928  0.2155 -0.2714
   25SOD    SOD  181   1.348   0.075   4.838  0.1187  0.2279 -0.1782
   26SOD    SOD  182   1.554   2.549   0.345  0.3094  0.2008  0.0488
   27SOD    SOD  183   2.243   7.650   5.583 -0.0868  0.0712  0.2677
   28SOD    SOD  184   7.050   6.741   1.025 -0.0420 -0.0728  0.4138
   29SOD    SOD  185   0.170   2.056   5.565 -0.2722  0.1907  0.2885
   30SOD    SOD  186   4.606   6.964   5.252 -0.5128 -0.1649 -0.4154
   31SOD    SOD  187   1.554   0.646   5.669 -0.1916 -0.1557 -0.0968
   32SOD    SOD  188   6.687   6.462   5.085  0.1292  0.2072  0.1685
   33SOD    SOD  189   0.548   3.402   4.914 -0.3484  0.2146 -0.1512
   34SOD    SOD  190   2.355   3.920   6.172 -0.3872 -0.1027  0.2935
   35SOD    SOD  191   5.627   5.271   4.828  0.3624  0.0495 -0.1128
   36SOD    SOD  192   3.263   6.888   2.447  0.2980 -0.4382 -0.0886
   37SOD    SOD  193   6.575   1.890   0.192 -0.6664 -0.3637 -0.1243
   38SOD    SOD  194   1.927   4.968   0.747 -0.0875 -0.2987  0.3060
   39SOD    SOD  195   7.216   0.510   4.392 -0.2071  0.5897 -0.3555
   40SOD    SOD  196   0.865   6.733   1.186  0.0793 -0.1658  0.0407
   41SOD    SOD  197   4.105   6.618   2.498 -0.3655  0.7006  0.3168
   42SOD    SOD  198   2.514   5.143   2.701 -0.1020 -0.1088  0.0426
   43SOD    SOD  199   5.073   4.018   0.192  0.4995 -0.6432  0.1758
   44SOD    SOD  200   3.316   2.020   5.915 -0.1175 -0.4989  0.0312
   45SOD    SOD  201   0.157   3.487   1.761 -0.0147  0.3380  0.2932
   46SOD    SOD  202   7.261   6.445   5.321 -0.4167 -0.1118  0.5329
   47SOD    SOD  203   5.776   3.199   5.121  0.0655  0.1467  0.6264
   48SOD    SOD  204   1.027   4.100   1.828  0.1661  0.0917 -0.2376
   49SOD    SOD  205   4.418   7.299   4.601 -0.0899  0.2706 -0.8330
   50SOD    SOD  206   7.317   4.010   3.059  0.4812 -0.2481 -0.1164
   51SOD    SOD  207   2.039   5.963   3.674  0.1286  0.4957  0.1662
   52SOD    SOD  208   3.716   4.856   5.112 -0.1936 -0.2954 -0.2888
   53SOD    SOD  209   4.012   0.916   4.375 -0.2381 -0.0481  0.0813
   54SOD    SOD  210   6.334   3.130   1.894  0.1433 -0.1683  0.3370
   55SOD    SOD  211   6.146   7.316   0.390  0.0779 -0.2716  0.2221
   56SOD    SOD  212   3.820   1.000   0.490  0.7433 -0.1321  0.4813
   57SOD    SOD  213   6.551   1.221   1.149  0.0631  0.2377 -0.0152
   58CLA    CLA  214   1.062   0.908   0.697  0.1756 -0.4246  0.1660
   59CLA    CLA  215   3.412   6.038   5.593  0.2667  0.6363  0.1777
   60CLA    CLA  216   5.760   3.622   5.832 -0.0849 -0.1224  0.3154
   61CLA    CLA  217   1.936   5.234   3.386  0.0141 -0.1885  0.0288
   62CLA    CLA  218   0.607   6.527   0.827  0.1238  0.2789 -0.1138
   63CLA    CLA  219   4.145   2.846   3.784  0.2306  0.0171 -0.0226
   64CLA    CLA  220   5.985   6.770   4.286 -0.1446  0.1606 -0.3002
   65CLA    CLA  221   1.017   4.946   5.904  0.2139 -0.0376  0.0943
   66CLA    CLA  222   5.053   0.231   6.504  0.4556  0.1632 -0.3068
   67CLA    CLA  223   0.079   3.923   3.369 -0.1757  0.3052  0.6250
   68CLA    CLA  224   7.111   3.769   3.428 -0.3338 -0.4208 -0.3108
   69CLA    CLA  225   6.146   4.195   2.728  0.2872  0.0375  0.1589
   70CLA    CLA  226   2.097   6.923   5.477 -0.0756  0.2949 -0.2805
   71CLA    CLA  227   3.438   4.575   0.501  0.0717 -0.3735 -0.0935
   72CLA    CLA  228   0.451   7.274   0.359 -0.0889 -0.0333  0.2542
   73CLA    CLA  229   1.156   0.123   1.290 -0.4659 -0.0019 -0.3090
   74CLA    CLA  230   6.206   7.271   6.728  0.2121  0.0128  0.3695
   75CLA    CLA  231   3.637   2.306   4.460 -0.3886 -0.2118 -0.0509
   76CLA    CLA  232   7.766   6.923   0.586 -0.1385 -0.2302 -0.2827
   77CLA    CLA  233   5.379   4.654   1.533  0.0724  0.2086 -0.0196
   78CLA    CLA  234   5.934   7.131   2.242 -0.1173 -0.2624  0.5211
   79CLA    CLA  235   0.162   2.111   4.822  0.2198 -0.0596  0.1267
   80CLA    CLA  236   1.406   6.329   2.898  0.1773  0.1314 -0.0347
   81CLA    CLA  237   0.976   3.831   2.403  0.0792 -0.1029  0.2286
   82CLA    CLA  238   6.037   5.025   5.082  0.3663  0.0437 -0.3363
   83CLA    CLA  239   6.467   2.659   5.542  0.6372  0.1794  0.1016
   84CLA    CLA  240   4.795   7.377   5.972 -0.0956 -0.3713  0.0617
   85CLA    CLA  241   8.065   3.647   3.142  0.0168  0.1165  0.0459
   86CLA    CLA  242   0.400   2.251   6.751 -0.1102  0.1487 -0.2402
   87CLA    CLA  243   3.271   6.666   2.013 -0.2534  0.3277  0.0114
   88CLA    CLA  244   2.734   3.050   3.566  0.2378  0.1068  0.4361
   89CLA    CLA  245   8.169   2.930   2.073  0.6151 -0.0145  0.0754
   90CLA    CLA  246   3.248   2.307   2.285  0.3375 -0.0357  0.0346
   91CLA    CLA  247   6.369   2.157   1.759 -0.2752  0.2316 -0.0974
   92CLA    CLA  248   6.397   7.204   5.004 -0.5685 -0.2933 -0.0548
   93CLA    CLA  249   2.729   1.861   6.318 -0.1594 -0.1038 -0.0889
   94CLA    CLA  250   4.468   5.683   6.454 -0.0887  0.0860 -0.1053
   95CLA    CLA  251   7.328   5.241   1.499  0.1808  0.1830  0.0340
   96CLA    CLA  252   1.284   0.837   4.987 -0.2799 -0.3187 -0.0060
   97CLA    CLA  253   5.875   3.095   0.939  0.1161 -0.0480 -0.6452
   98CLA    CLA  254   4.980   4.195   2.728 -0.0742 -0.1638 -0.2083
   99CLA    CLA  255   0.318   7.142   6.295 -0.0052  0.4143 -0.0248
  100TIP3   OH2  256   7.859   4.941   0.866 -0.2557  0.3723 -0.0079
  100TIP3    H1  257   7.930   5.002   0.887  0.4691 -0.0186 -1.2285
  100TIP3    H2  258   7.811   4.982   0.794  0.1291 -0.3902 -0.7176
  101TIP3   OH2  259   8.214   7.315   1.135 -0.3241  0.4995  0.2562
  101TIP3    H1  260   8.266   7.291   1.059 -1.5309  1.7036 -1.0099
  101TIP3    H2  261   8.127   7.281   1.116 -0.3695 -0.2334  1.6709
  102TIP3   OH2  262   5.925   2.969   5.776  0.2171  0.2733  0.0319
  102TIP3    H1  263   5.860   2.952   5.844 -0.2798  1.0879 -0.2254
  102TIP3    H2  264   5.996   2.908   5.794 -0.0781  0.2253  1.0586
  103TIP3   OH2  265   6.747   4.008   6.243  0.5135 -0.3051  0.3488
  103TIP3    H1  266   6.657   3.979   6.233 -0.1814  1.8257 -0.2409
  103TIP3    H2  267   6.789   3.984   6.160 -0.1195  0.5065 -0.2376
  104TIP3   OH2  268   6.239   6.136   0.389  0.3715  0.2435  0.2994
  104TIP3    H1  269   6.334   6.146   0.380  0.3200  0.6428  0.1905
  104TIP3    H2  270   6.202   6.206   0.335  0.0629  2.0655  2.6948
  105TIP3   OH2  271   5.676   7.433   4.157 -0.5012  0.4193  0.6458
  105TIP3    H1  272   5.681   7.338   4.141 -0.5498  0.4112  0.6800
  105TIP3    H2  273   5.742   7.450   4.223 -0.7186  0.3562  0.8833
  106TIP3   OH2  274   1.160   7.126   4.165 -0.0414  0.2224  0.4420
  106TIP3    H1  275   1.225   7.055   4.170  1.7413  1.7169 -0.2038
  106TIP3    H2  276   1.174   7.165   4.079 -2.5497 -0.0058 -0.1419
  107TIP3   OH2  277   2.795   0.678   2.906 -0.1986 -0.7236  0.4658
  107TIP3    H1  278   2.797   0.754   2.964 -0.7854 -1.0030  0.8589
  107TIP3    H2  279   2.781   0.604   2.964  0.8698 -1.1982  0.1372
  108TIP3   OH2  280   0.327   6.761   6.358  0.4281 -0.5934  0.3084
  108TIP3    H1  281   0.287   6.811   6.429  1.8412 -0.3535  0.9708
  108TIP3    H2  282   0.346   6.676   6.397  1.2747 -0.4375  0.2586
  109TIP3   OH2  283   1.570   0.199   4.132  0.3848  0.0162 -0.3840
  109TIP3    H1  284   1.512   0.274   4.124  1.2871  0.6680 -1.1332
  109TIP3    H2  285   1.643   0.219   4.072  2.1986  0.0150  1.6917
  110TIP3   OH2  286   3.694   7.244   1.847  0.8252 -0.5969 -0.0322
  110TIP3    H1  287   3.608   7.286   1.853  0.9385 -0.4841  1.0210
  110TIP3    H2  288   3.708   7.206   1.933  1.7053 -0.8807 -0.2892
  111TIP3   OH2  289   4.446   3.930   1.675 -0.5321  0.7279  0.5387
  111TIP3    H1  290   4.362   3.884   1.673 -0.0610 -0.1238 -0.2196
  111TIP3    H2  291   4.495   3.886   1.745 -0.0144 -0.0706 -0.3067
  112TIP3   OH2  292   8.205   1.546   1.282 -0.1666 -0.6813  0.1077
  112TIP3    H1  293   8.208   1.451   1.270 -0.0493 -0.6817  0.1364
  112TIP3    H2  294   8.230   1.581   1.196 -2.0255 -0.6546 -0.4569
  113TIP3   OH2  295   4.136   6.981   2.978  0.0108  0.4391 -0.1073
  113TIP3    H1  296   4.200   6.916   3.009 -0.7240  0.0043  0.5318
  113TIP3    H2  297   4.130   7.044   3.049 -0.6999  0.1648  0.0780
  114TIP3   OH2  298   4.025   2.211   4.183  0.4143 -0.4377 -0.3126
  114TIP3    H1  299   4.045   2.237   4.093  0.3523 -0.5914 -0.3714
  114TIP3    H2  300   4.110   2.200   4.224  0.4414 -0.1899 -0.3013
  115TIP3   OH2  301   2.266   4.237   2.124  0.0785 -0.1159  0.4606
  115TIP3    H1  302   2.306   4.154   2.148 -1.9748 -1.1142  0.7189
  115TIP3    H2  303   2.239   4.225   2.032  0.3603  0.5143  0.2903
  116TIP3   OH2  304   6.294   4.032   0.085 -0.2904  0.1575  0.2991
  116TIP3    H1  305   6.276   4.126   0.083 -3.9015 -0.3597  1.2481
  116TIP3    H2  306   6.390   4.025   0.083  0.0989  3.7395 -1.5802
  117TIP3   OH2  307   5.095   6.453   2.349  0.0413  0.4817 -0.2507
  117TIP3    H1  308   5.178   6.486   2.384 -0.5660  1.6270  0.1426
  117TIP3    H2  309   5.037   6.529   2.348 -0.7630 -0.1236 -1.2885
  118TIP3   OH2  310   7.737   2.915   5.011 -0.1055  0.6762 -0.3091
  118TIP3    H1  311   7.652   2.960   5.011  0.2180  1.2906  0.2406
  118TIP3    H2  312   7.793   2.969   4.955  0.2471  0.9019  0.2514
  119TIP3   OH2  313   8.102   1.477   4.655  0.0679 -0.1920  0.1307
  119TIP3    H1  314   8.017   1.443   4.686 -0.3183  0.4038 -0.2570
  119TIP3    H2  315   8.142   1.515   4.733 -0.5362  0.5559  0.0914
  120TIP3   OH2  316   1.121   4.382   4.451 -0.5695  0.1355 -0.1150
  120TIP3    H1  317   1.191   4.332   4.492 -2.6415 -3.9976 -1.0882
  120TIP3    H2  318   1.068   4.414   4.524  0.4917  0.4609  0.5323
  121TIP3   OH2  319   4.112   2.135   4.942  0.3035 -0.3980 -0.4234
  121TIP3    H1  320   4.018   2.127   4.958  0.3348  0.8641  0.5761
  121TIP3    H2  321   4.130   2.073   4.872 -1.2443 -0.7771 -0.5183
  122TIP3   OH2  322   7.067   0.040   0.432 -0.3336 -0.2279 -0.4036
  122TIP3    H1  323   7.126  -0.027   0.466 -1.0322  0.3378  2.2232
  122TIP3    H2  324   7.054   0.018   0.340  1.2395 -2.3374 -0.1770
  123TIP3   OH2  325   1.563   3.775   5.484  0.0123 -0.2698  0.3808
  123TIP3    H1  326   1.517   3.692   5.498  1.1439 -0.9418  0.2243
  123TIP3    H2  327   1.653   3.758   5.510  0.3836  0.7628 -0.1455
  124TIP3   OH2  328   6.269   2.649   6.696 -1.0526 -0.4711  0.1434
  124TIP3    H1  329   6.214   2.716   6.655 -1.3083 -0.6507  0.1926
  124TIP3    H2  330   6.244   2.567   6.652  2.0174 -0.0396 -2.7640
  125TIP3   OH2  331   0.768   7.724   1.847 -0.2792 -0.1576  0.4882
  125TIP3    H1  332   0.683   7.740   1.805 -1.0275 -0.2553  1.9063
  125TIP3    H2  333   0.819   7.803   1.829  0.2066 -0.9670 -2.3025
  126TIP3   OH2  334   7.969   4.705   6.318  1.1255  0.4522 -0.5911
  126TIP3    H1  335   7.934   4.681   6.403  0.6150 -1.2303 -1.2252
  126TIP3    H2  336   8.064   4.703   6.329  1.0624  0.2872 -0.0683
  127TIP3   OH2  337   4.099   1.211   0.168 -0.3583  0.1148  0.3584
  127TIP3    H1  338   4.124   1.302   0.181  1.5844 -0.6276  2.6513
  127TIP3    H2  339   4.074   1.205   0.076 -1.7298  3.1742  0.4373
  128TIP3   OH2  340   6.202   4.817   3.570  0.2841 -0.1969  0.2640
  128TIP3    H1  341   6.220   4.739   3.622 -0.4847 -0.9447 -0.5712
  128TIP3    H2  342   6.275   4.822   3.509 -0.3590 -1.0736 -0.6052
  129TIP3   OH2  343   4.748   4.602   2.192 -0.3850  0.5279  0.0859
  129TIP3    H1  344   4.687   4.599   2.119  0.1725 -1.4524 -0.3723
  129TIP3    H2  345   4.758   4.510   2.219  1.7458  0.8625  0.6585
  130TIP3   OH2  346   4.816   3.415   1.429  1.1094 -0.7988 -0.5705
  130TIP3    H1  347   4.734   3.419   1.479  0.9281  1.7643 -0.9612
  130TIP3    H2  348   4.788   3.394   1.340  0.8488  0.2328 -0.7360
  131TIP3   OH2  349   4.416   0.883   4.241  0.2076  0.2912  0.8718
  131TIP3    H1  350   4.430   0.865   4.148 -1.5123 -2.3436  0.9906
  131TIP3    H2  351   4.405   0.978   4.246  0.2051  0.4945 -1.6248
  132TIP3   OH2  352   4.625   2.894   3.736 -0.4965  0.0062  0.0253
  132TIP3    H1  353   4.691   2.896   3.805  0.1255 -0.3173 -0.5488
  132TIP3    H2  354   4.588   2.982   3.736 -1.4355 -0.3549  1.6460
  133TIP3   OH2  355   7.076   0.323   5.355 -0.5206 -0.2444 -0.4412
  133TIP3    H1  356   6.984   0.300   5.342 -0.2634  0.3169 -4.0637
  133TIP3    H2  357   7.119   0.239   5.370 -1.2506 -0.8237 -1.4708
  134TIP3   OH2  358   6.894   4.732   5.663  0.1748  0.5024 -0.2853
  134TIP3    H1  359   6.840   4.655   5.683 -0.3667  0.7292 -0.8197
  134TIP3    H2  360   6.947   4.705   5.588  1.3943  0.0195  0.7232
  135TIP3   OH2  361   3.321   3.455   3.980 -0.4326 -0.3061  0.0306
  135TIP3    H1  362   3.338   3.409   3.898  3.2368 -0.9225  0.9687
  135TIP3    H2  363   3.288   3.386   4.039 -1.1400 -0.2873 -0.3284
  136TIP3   OH2  364   2.132   7.121   6.158 -0.4456  0.2949  0.0775
  136TIP3    H1  365   2.140   7.031   6.188  1.3878  0.9759  1.8872
  136TIP3    H2  366   2.078   7.164   6.224  1.0912  1.1447  0.8187
  137TIP3   OH2  367   7.809   2.195   3.889 -0.1234  0.2001 -0.2263
  137TIP3    H1  368   7.801   2.156   3.802 -0.7331  1.1975 -0.6387
  137TIP3    H2  369   7.755   2.140   3.945 -1.1488  0.5573 -0.8410
  138TIP3   OH2  370   1.834   1.513   5.871 -0.1908 -0.2651 -0.3031
  138TIP3    H1  371   1.872   1.528   5.784 -1.5075  1.8543 -0.5856
  138TIP3    H2  372   1.901   1.543   5.932 -0.3034  0.8703 -0.7068
  139TIP3   OH2  373   4.209   5.058   3.050 -0.3121 -0.1741 -0.2287
  139TIP3    H1  374   4.191   4.968   3.077 -0.7523 -0.4538 -1.4057
  139TIP3    H2  375   4.289   5.052   2.997 -0.4334  0.1046 -0.4468
  140TIP3   OH2  376   2.711   3.508   4.148 -0.0216 -0.2777  0.0973
  140TIP3    H1  377   2.765   3.447   4.097  0.1975 -2.2347  2.4688
  140TIP3    H2  378   2.622   3.495   4.115  0.1071 -1.5171  0.1595
  141TIP3   OH2  379   1.324   0.346   4.084  0.0880  0.3620 -0.8172
  141TIP3    H1  380   1.250   0.293   4.115  0.6503  0.0407  0.0102
  141TIP3    H2  381   1.284   0.414   4.030 -0.9566  1.0049  0.6989
  142TIP3   OH2  382   5.818   1.311   2.066 -0.0449  0.1069 -0.1539
  142TIP3    H1  383   5.726   1.335   2.057  0.3482  2.7097  1.5897
  142TIP3    H2  384   5.818   1.215   2.073 -2.7652  0.1216  1.0830
  143TIP3   OH2  385   2.294   0.417   3.272 -0.1127 -0.0171  0.1136
  143TIP3    H1  386   2.282   0.458   3.186 -0.3848 -0.7236 -0.1860
  143TIP3    H2  387   2.339   0.484   3.323 -0.7572  0.7545 -0.2993
  144TIP3   OH2  388   1.608   4.747   5.353  0.0659 -0.4772 -0.1867
  144TIP3    H1  389   1.579   4.667   5.396 -2.3232  1.2703  1.7195
  144TIP3    H2  390   1.536   4.772   5.296  0.8304  0.2949 -0.8533
  145TIP3   OH2  391   1.027   5.852   1.203 -0.2689 -0.5338  0.4800
  145TIP3    H1  392   1.117   5.844   1.237 -0.3391  0.6842  1.0089
  145TIP3    H2  393   1.004   5.943   1.219 -0.8146 -0.2635 -1.6630
  146TIP3   OH2  394   3.401   3.953   4.135 -0.4091  0.4351  0.0378
  146TIP3    H1  395   3.313   3.972   4.167 -0.9722  0.0839 -1.2325
  146TIP3    H2  396   3.398   3.978   4.042 -0.0405 -2.1806 -0.7480
  147TIP3   OH2  397   6.559   5.408   0.468  0.1289  0.0996  0.0562
  147TIP3    H1  398   6.608   5.477   0.512 -3.2359  2.0355  1.1441
  147TIP3    H2  399   6.565   5.332   0.526 -0.8601  1.3475  1.8719
  148TIP3   OH2  400   6.346   6.891   1.509  0.0212  0.1240 -0.4937
  148TIP3    H1  401   6.434   6.906   1.475 -0.0444 -0.5894 -0.9781
  148TIP3    H2  402   6.302   6.976   1.498  0.0959 -0.0019 -1.8862
  149TIP3   OH2  403   0.427   6.754   4.538  0.7191  0.1479  0.0926
  149TIP3    H1  404   0.460   6.774   4.625  1.3050  0.4997 -0.2004
  149TIP3    H2  405   0.370   6.678   4.550 -0.9496  1.4900  1.1205
  150TIP3   OH2  406   5.627   3.047   6.653  0.1254 -0.0478  0.1568
  150TIP3    H1  407   5.649   3.132   6.690 -0.7035  1.4160 -2.5121
  150TIP3    H2  408   5.698   3.027   6.592 -0.3465 -0.6294 -0.2229
  151TIP3   OH2  409   1.460   5.578   2.429 -0.2954  0.4402  0.0947
  151TIP3    H1  410   1.527   5.533   2.480 -0.2422  0.3517 -0.0493
  151TIP3    H2  411   1.420   5.640   2.489  0.0945  0.6805  0.1136
  152TIP3   OH2  412   7.260   4.289   5.051  0.6218  0.7742  0.6237
  152TIP3    H1  413   7.194   4.340   5.099  0.3061 -0.0515  1.0802
  152TIP3    H2  414   7.336   4.286   5.109  1.3389  2.2916 -0.1736
  153TIP3   OH2  415   5.702   1.930   6.205  0.4299 -0.0663  0.0118
  153TIP3    H1  416   5.678   1.923   6.298 -1.6978 -0.7682 -0.5347
  153TIP3    H2  417   5.797   1.946   6.206  0.3839  0.4407  2.3042
  154TIP3   OH2  418   3.689   2.033   2.119  0.2352 -0.2686 -0.3864
  154TIP3    H1  419   3.653   2.059   2.204  1.2889 -0.1608  0.0467
  154TIP3    H2  420   3.772   1.990   2.141 -0.2346 -1.6997 -1.2503
  155TIP3   OH2  421   2.311   7.662   6.063 -0.0218  0.3762 -0.5430
  155TIP3    H1  422   2.330   7.741   6.114 -0.5741 -0.1537  0.5294
  155TIP3    H2  423   2.257   7.609   6.122 -0.1956 -0.5172 -1.4879
  156TIP3   OH2  424   6.750   4.399   0.137  0.1706 -0.4618 -0.2065
  156TIP3    H1  425   6.699   4.478   0.115  0.7277 -0.0658 -0.0993
  156TIP3    H2  426   6.839   4.420   0.111 -0.0603 -1.9994 -2.5011
  157TIP3   OH2  427   3.411   2.938   4.433  0.3905  0.4735 -0.2067
  157TIP3    H1  428   3.466   2.943   4.354  1.0649 -1.4459  0.0799
  157TIP3    H2  429   3.469   2.903   4.500 -0.9258 -0.7629  0.3463
  158TIP3   OH2  430   2.952   6.180   0.759 -0.6519 -0.2619 -0.2956
  158TIP3    H1  431   2.891   6.239   0.804  0.6266 -0.0573  1.2729
  158TIP3    H2  432   2.949   6.207   0.667 -2.5424  0.0391 -0.1826
  159TIP3   OH2  433   4.813   4.386   5.393  0.3875  0.0815 -0.7111
  159TIP3    H1  434   4.898   4.350   5.418  0.7694  0.7523 -1.0060
  159TIP3    H2  435   4.797   4.350   5.305  1.4220  1.6567 -1.6072
  160TIP3   OH2  436   7.299   3.342   1.680  0.7603 -0.1108 -0.7503
  160TIP3    H1  437   7.355   3.276   1.720 -0.5478 -0.6564  0.2453
  160TIP3    H2  438   7.321   3.423   1.726  0.6864 -0.3304 -0.3261
  161TIP3   OH2  439   4.950   1.581   4.030  0.0690  0.2932 -0.5134
  161TIP3    H1  440   5.011   1.591   3.957  2.1707  0.2942  1.1371
  161TIP3    H2  441   4.972   1.654   4.089 -0.6741 -0.4293  0.6924
  162TIP3   OH2  442   1.361   2.513   3.255  0.0379 -0.1317 -0.2631
  162TIP3    H1  443   1.302   2.519   3.330  0.6147 -1.2615  0.3050
  162TIP3    H2  444   1.448   2.513   3.293  0.3327 -3.2197 -0.6558
  163TIP3   OH2  445   6.036   2.016   4.714  0.3504 -0.1830  0.2459
  163TIP3    H1  446   6.112   2.063   4.749 -0.3375  1.4767 -0.3882
  163TIP3    H2  447   6.048   2.019   4.619 -1.4502  1.8540  0.0178
  164TIP3   OH2  448   7.510   2.835   4.775 -0.2253  0.0059  0.0337
  164TIP3    H1  449   7.506   2.746   4.741 -1.1457 -0.4941  1.3545
  164TIP3    H2  450   7.601   2.862   4.762  0.2078 -1.3400  0.1340
  165TIP3   OH2  451   1.035   0.118   1.754  0.1857 -0.7402 -0.4417
  165TIP3    H1  452   1.099   0.055   1.720  0.4071 -0.4609 -0.5478
  165TIP3    H2  453   0.953   0.068   1.761  0.6937 -1.4443  0.8723
  166TIP3   OH2  454   5.309   7.329   3.849 -0.8080 -0.1240  0.0575
  166TIP3    H1  455   5.391   7.319   3.801 -1.8398 -3.9350 -1.3304
  166TIP3    H2  456   5.242   7.333   3.780 -1.9403  1.1599  1.1816
  167TIP3   OH2  457   5.452   7.483   1.510  0.1769 -0.2328  0.0030
  167TIP3    H1  458   5.527   7.490   1.452  0.7501  0.9927  0.8671
  167TIP3    H2  459   5.454   7.392   1.541 -1.4340 -1.6506 -3.5098
  168TIP3   OH2  460   4.574   7.117   1.477  0.1972  0.5956  0.0636
  168TIP3    H1  461   4.622   7.160   1.548  2.1194 -1.4634  0.1411
  168TIP3    H2  462   4.635   7.120   1.403 -0.5738  0.0905 -0.5989
  169TIP3   OH2  463   1.108   5.286   6.231  0.8285  0.3666 -0.4200
  169TIP3    H1  464   1.016   5.276   6.258  1.1203 -0.9876  0.1722
  169TIP3    H2  465   1.147   5.341   6.300  0.2073  2.0581 -1.3496
  170TIP3   OH2  466   4.999   7.245   0.832  0.1339  0.0098  0.1566
  170TIP3    H1  467   4.939   7.230   0.905  1.0166 -2.3890  0.4670
  170TIP3    H2  468   5.087   7.236   0.870  0.8109  3.0875 -0.3546
  171TIP3   OH2  469   1.452   3.990   5.346 -0.5464  0.0924 -0.6243
  171TIP3    H1  470   1.479   3.917   5.402  1.0727  2.6130  2.1603
  171TIP3    H2  471   1.371   4.021   5.385  0.2990  1.5273  0.0661
  172TIP3   OH2  472   4.784   1.356   1.950 -0.5881  0.3320  0.1470
  172TIP3    H1  473   4.853   1.290   1.940  0.4029  1.1521  1.1949
  172TIP3    H2  474   4.795   1.414   1.876 -1.1227 -0.3513 -0.4887
  173TIP3   OH2  475   5.020   1.825   4.148  0.2160  0.2628  0.4413
  173TIP3    H1  476   5.028   1.857   4.238  0.6440 -0.2155  0.5810
  173TIP3    H2  477   5.099   1.857   4.104  0.4934 -0.3266  0.5009
  174TIP3   OH2  478   5.932   3.817   0.729 -0.3331 -0.0757  0.2709
  174TIP3    H1  479   5.895   3.742   0.682  0.5361  0.2890 -1.0438
  174TIP3    H2  480   6.019   3.829   0.691 -0.7147  2.0353 -0.0425
  175TIP3   OH2  481   0.836   1.532   0.446  0.1264 -0.7814 -0.4336
  175TIP3    H1  482   0.873   1.619   0.464 -0.5787 -0.0706 -2.1686
  175TIP3    H2  483   0.748   1.535   0.485  0.9890 -1.6683  1.7200
  176TIP3   OH2  484   1.167   5.413   0.347 -0.1182  0.2656  0.0250
  176TIP3    H1  485   1.086   5.372   0.316 -0.1912  0.7102 -0.3849
  176TIP3    H2  486   1.236   5.351   0.322 -0.3925 -0.4658  1.0343
  177TIP3   OH2  487   7.897   2.444   2.174  0.4355  0.2954  0.1958
  177TIP3    H1  488   7.809   2.413   2.194  0.1683 -1.1081 -2.5729
  177TIP3    H2  489   7.886   2.537   2.154 -0.5068  0.0779 -0.3896
  178TIP3   OH2  490   4.287   3.976   0.874  0.7397 -0.4984 -0.2843
  178TIP3    H1  491   4.358   3.972   0.939 -0.4742  0.7713  1.1934
  178TIP3    H2  492   4.286   4.068   0.846 -0.2634 -0.5211 -0.3497
  179TIP3   OH2  493   7.877   4.144   2.787  0.3702  0.2091  0.0569
  179TIP3    H1  494   7.858   4.148   2.881  0.7096  0.8798  0.1052
  179TIP3    H2  495   7.810   4.200   2.747 -0.2020 -0.6289 -0.1749
  180TIP3   OH2  496   0.416   3.505   5.350  0.1678  0.4534 -0.2683
  180TIP3    H1  497   0.487   3.479   5.408  0.5123  0.5179 -0.6564
  180TIP3    H2  498   0.337   3.476   5.395  0.4719 -0.1822 -0.1184
  181TIP3   OH2  499   3.253   6.804   1.739 -0.1262 -0.1445  0.4171
  181TIP3    H1  500   3.240   6.761   1.824 -1.5262  1.5968  1.1672
  181TIP3    H2  501   3.271   6.733   1.678 -1.8658 -1.7519  1.6692
  182TIP3   OH2  502   4.224   2.706   0.676 -0.1059  0.7693  0.1432
  182TIP3    H1  503   4.173   2.630   0.706  0.7743  0.8131  1.8850
  182TIP3    H2  504   4.239   2.758   0.756  3.3608  0.3338 -0.0630
  183TIP3   OH2  505   0.607   5.844   5.765 -0.5469 -0.2161  0.0492
  183TIP3    H1  506   0.679   5.808   5.713  1.1366  2.0797  0.6266
  183TIP3    H2  507   0.600   5.935   5.736 -1.8292  0.1894  1.4833
  184TIP3   OH2  508   2.551   1.633   5.233 -0.2953 -0.1629  0.1133
  184TIP3    H1  509   2.514   1.699   5.175  0.3483  0.1260  0.0212
  184TIP3    H2  510   2.506   1.552   5.208  0.0827 -0.0799 -0.9138
  185TIP3   OH2  511   0.146   5.459   1.410  0.4280 -0.0107  0.2534
  185TIP3    H1  512   0.226   5.464   1.356 -0.9671  0.0841 -1.9525
  185TIP3    H2  513   0.156   5.378   1.460  1.7883 -0.1349 -0.1802
  186TIP3   OH2  514   4.042   2.252   0.344  0.0917  0.4387 -0.6931
  186TIP3    H1  515   4.066   2.260   0.252  0.6055  0.5593 -0.5497
  186TIP3    H2  516   4.031   2.343   0.374 -2.1915  0.3918 -1.1717
  187TIP3   OH2  517   2.943   4.497   1.902 -0.2208  0.1058 -0.1068
  187TIP3    H1  518   2.965   4.498   1.809  0.2573 -0.3939 -0.0104
  187TIP3    H2  519   3.025   4.520   1.946 -0.6808  1.3167  0.1680
  188TIP3   OH2  520   6.884   3.399   4.203 -0.2471 -0.2627 -1.0533
  188TIP3    H1  521   6.913   3.484   4.235 -1.1491  0.1156 -1.2082
  188TIP3    H2  522   6.855   3.352   4.281  0.0142 -0.3287 -0.9974
  189TIP3   OH2  523   1.826   0.304   2.415 -0.4796 -0.9864 -0.5425
  189TIP3    H1  524   1.769   0.301   2.338  0.9944 -1.2072 -1.6793
  189TIP3    H2  525   1.796   0.379   2.465 -0.1570  0.4816 -2.4504
  190TIP3   OH2  526   7.723   2.080   3.234 -0.6462  0.5546  0.1368
  190TIP3    H1  527   7.777   2.158   3.221 -1.3191  1.1419  0.8258
  190TIP3    H2  528   7.775   2.024   3.292  0.4502 -0.1595 -1.4411
  191TIP3   OH2  529   8.275   5.708   3.771 -0.1284 -0.0931 -0.5209
  191TIP3    H1  530   8.300   5.730   3.681  2.6526 -2.2864 -0.4166
  191TIP3    H2  531   8.277   5.792   3.818  2.9381  0.5487 -1.5857
  192TIP3   OH2  532   0.847   4.085   4.985 -0.3233 -0.1274 -0.4739
  192TIP3    H1  533   0.863   4.109   4.893 -2.0589 -0.3552 -0.8597
  192TIP3    H2  534   0.935   4.070   5.021  0.5049  1.5755 -1.6367
  193TIP3   OH2  535   4.290   6.496   1.419 -0.1620  0.1884  0.3420
  193TIP3    H1  536   4.272   6.411   1.459 -0.4023  0.2183  0.3032
  193TIP3    H2  537   4.343   6.475   1.342  0.2585  0.1281  0.6455
  194TIP3   OH2  538   1.255   6.278   1.186 -0.0804 -0.9970 -0.1412
  194TIP3    H1  539   1.305   6.357   1.206  0.3282 -1.3194  0.1162
  194TIP3    H2  540   1.246   6.280   1.091  0.3095 -0.8661 -0.1799
  195TIP3   OH2  541   1.384   0.050   3.111 -0.5709 -0.5392 -0.0572
  195TIP3    H1  542   1.472   0.035   3.145 -0.3413 -2.2450 -1.2532
  195TIP3    H2  543   1.340   0.102   3.178  1.9793  2.2801 -0.3802
  196TIP3   OH2  544   6.933   3.009   1.661 -0.0195 -0.6848 -0.2927
  196TIP3    H1  545   6.898   2.976   1.578  0.5972 -0.8804 -0.4761
  196TIP3    H2  546   6.857   3.010   1.719 -1.2746  2.5834 -1.7284
  197TIP3   OH2  547   6.703   3.306   3.269 -0.1409  0.1355  0.0722
  197TIP3    H1  548   6.779   3.309   3.327  1.2561  2.3572 -1.6635
  197TIP3    H2  549   6.707   3.220   3.228  0.5912 -0.3202  1.0854
  198TIP3   OH2  550   0.970   0.828   6.458 -0.6425  0.0587  0.1995
  198TIP3    H1  551   0.946   0.842   6.549  0.4849 -0.4411  0.5983
  198TIP3    H2  552   0.933   0.743   6.435 -4.7081  1.9773 -1.2249
  199TIP3   OH2  553   1.839   2.771   6.042  0.8570 -0.0432  0.5873
  199TIP3    H1  554   1.814   2.818   5.963 -0.3649  0.3350  1.1751
  199TIP3    H2  555   1.831   2.679   6.019 -2.6895 -0.0004  1.1356
  200TIP3   OH2  556   6.300   7.004   6.174 -0.2738  0.0739 -0.2101
  200TIP3    H1  557   6.367   7.047   6.120  1.3241 -3.0945 -1.0259
  200TIP3    H2  558   6.218   7.047   6.150  0.7278  0.4487 -3.3951
  201TIP3   OH2  559   4.942   5.357   2.117 -0.2222 -0.2750 -0.2173
  201TIP3    H1  560   4.938   5.444   2.078  0.6157  0.1805  0.6548
  201TIP3    H2  561   4.937   5.373   2.212 -1.1148 -1.2552 -0.0834
  202TIP3   OH2  562   6.861   3.703   0.867 -0.0910 -0.2811 -0.1055
  202TIP3    H1  563   6.769   3.726   0.880 -1.1304 -2.7778 -2.1716
  202TIP3    H2  564   6.897   3.777   0.817 -1.9086 -0.7096 -2.1677
  203TIP3   OH2  565   3.997   3.931   3.506  0.3505  0.1768 -0.2934
  203TIP3    H1  566   3.903   3.916   3.520  0.4613 -0.9217 -0.6253
  203TIP3    H2  567   4.040   3.863   3.559  0.9489  0.5432 -0.3037
  204TIP3   OH2  568   3.548   5.536   6.413  0.4253  0.2088 -0.1246
  204TIP3    H1  569   3.574   5.546   6.504 -3.2052  0.4103  1.0722
  204TIP3    H2  570   3.453   5.520   6.417 -0.0076  0.8890 -3.8954
  205TIP3   OH2  571   3.067   4.302   0.743 -0.5147 -0.4423  0.6219
  205TIP3    H1  572   3.147   4.296   0.692  1.3912  0.4593  3.2626
  205TIP3    H2  573   3.032   4.389   0.723  0.0918 -0.1833  0.6769
  206TIP3   OH2  574   5.702   1.870   6.493 -0.1518 -0.1639 -0.1187
  206TIP3    H1  575   5.725   1.877   6.585 -0.7259 -1.9472  0.2122
  206TIP3    H2  576   5.747   1.791   6.463  0.0210  0.3905 -1.3721
  207TIP3   OH2  577   7.099   3.893   0.237  0.2224 -0.1327 -0.1029
  207TIP3    H1  578   7.023   3.943   0.208  1.1165  1.2094 -0.1816
  207TIP3    H2  579   7.134   3.854   0.157  0.7617  0.8759 -0.3738
  208TIP3   OH2  580   5.994   3.150   1.508 -0.1712 -0.2566 -0.2402
  208TIP3    H1  581   6.005   3.055   1.505  0.3308 -0.1731 -1.1224
  208TIP3    H2  582   5.947   3.172   1.428 -0.2925  0.2466 -0.0369
  209TIP3   OH2  583   7.820   1.564   2.320  0.2624 -1.0874  0.4096
  209TIP3    H1  584   7.802   1.658   2.318  0.6474 -0.9773  1.3997
  209TIP3    H2  585   7.915   1.558   2.314  0.2558 -1.4002  0.6022
  210TIP3   OH2  586   4.333   5.517   3.845  1.0782  0.3691  0.3010
  210TIP3    H1  587   4.301   5.580   3.910 -0.4892 -0.0018 -0.0714
  210TIP3    H2  588   4.257   5.499   3.790  1.5010 -1.8092  0.3575
  211TIP3   OH2  589   1.001   2.836   3.747 -0.4990  0.6616 -0.1616
  211TIP3    H1  590   1.064   2.828   3.675 -1.5523  0.9869 -1.1341
  211TIP3    H2  591   0.956   2.919   3.731 -0.2890  1.0690  1.2604
  212TIP3   OH2  592   6.321   3.758   1.794 -0.1773  0.5753  0.3731
  212TIP3    H1  593   6.287   3.688   1.850 -0.2522  1.3163  1.2907
  212TIP3    H2  594   6.252   3.772   1.729  0.2456 -0.8268 -0.4107
  213TIP3   OH2  595   8.298   2.422   6.344  0.0139 -0.2721  0.1635
  213TIP3    H1  596   8.362   2.404   6.412 -0.5846  1.3540  1.2298
  213TIP3    H2  597   8.216   2.435   6.392 -0.5786  0.1675 -0.9291
  214TIP3   OH2  598   5.856   7.723   2.083 -0.0449  0.7898  0.0170
  214TIP3    H1  599   5.786   7.722   2.017  0.0593 -0.8820 -0.0942
  214TIP3    H2  600   5.937   7.727   2.032  0.0071  0.6211  0.0883
  215TIP3   OH2  601   4.996   0.491   6.307  0.2531 -0.1807 -0.7787
  215TIP3    H1  602   5.031   0.415   6.353  0.8650  0.4786 -0.1144
  215TIP3    H2  603   5.038   0.489   6.221  1.0600 -0.0340 -0.3962
  216TIP3   OH2  604   0.533   2.874   3.687  0.1291  1.0361 -0.2715
  216TIP3    H1  605   0.524   2.857   3.593 -0.7275  0.9230 -0.1710
  216TIP3    H2  606   0.491   2.959   3.700 -0.0007  0.9216  0.0561
  217TIP3   OH2  607   3.178   7.557   2.771 -0.2643 -0.3391 -0.2642
  217TIP3    H1  608   3.196   7.650   2.785  0.4660 -0.1054 -2.3799
  217TIP3    H2  609   3.143   7.527   2.854  0.2019  1.6501  0.7237
  218TIP3   OH2  610   2.582   3.131   6.488  0.4266 -0.2972  0.2519
  218TIP3    H1  611   2.533   3.131   6.405 -0.6812 -0.3496  0.8862
  218TIP3    H2  612   2.634   3.211   6.485  0.1489 -0.1312 -0.3581
  219TIP3   OH2  613   7.285   7.672   1.293 -0.1671 -0.3217 -0.1666
  219TIP3    H1  614   7.265   7.746   1.235  1.0415  0.4419  0.3651
  219TIP3    H2  615   7.325   7.607   1.235  1.1002  0.4681 -0.2101
  220TIP3   OH2  616   2.696   4.510   3.194  0.7314 -0.4613  0.1097
  220TIP3    H1  617   2.631   4.529   3.125 -0.6443  2.1756  1.9528
  220TIP3    H2  618   2.651   4.449   3.252  0.6117 -0.0932  0.4052
  221TIP3   OH2  619   6.084   1.465   4.702 -0.0610 -0.5903  0.6050
  221TIP3    H1  620   6.072   1.555   4.732  0.6478  0.2570 -1.4567
  221TIP3    H2  621   6.169   1.466   4.657 -0.1856 -2.2229  0.2729
  222TIP3   OH2  622   0.490   5.644   5.948 -0.0956 -0.2794  0.0398
  222TIP3    H1  623   0.469   5.730   5.986 -1.7711 -0.8349  0.4476
  222TIP3    H2  624   0.574   5.658   5.905 -0.7869  1.8633 -0.7857
  223TIP3   OH2  625   4.331   6.448   6.150  0.3232 -0.2827 -0.6198
  223TIP3    H1  626   4.380   6.376   6.111  0.4407  0.0661 -1.1274
  223TIP3    H2  627   4.257   6.406   6.194  0.9671 -0.8036  0.0042
  224TIP3   OH2  628   6.904   2.962   4.526  0.0503 -0.6617 -0.3592
  224TIP3    H1  629   6.879   3.035   4.470 -1.7318  1.3560  2.7551
  224TIP3    H2  630   6.835   2.897   4.513 -0.1548 -0.3718 -0.7520
  225TIP3   OH2  631   3.082   0.638   1.246  0.4698 -0.2635 -0.0948
  225TIP3    H1  632   3.003   0.595   1.279  0.4945 -0.3880 -0.1919
  225TIP3    H2  633   3.106   0.701   1.313 -0.9561  1.3522 -1.0050
  226TIP3   OH2  634   5.715   0.085   2.653  0.1436  0.2361 -0.4361
  226TIP3    H1  635   5.719   0.025   2.579 -0.4333  0.0010 -0.2829
  226TIP3    H2  636   5.806   0.104   2.673  0.3387 -0.5546 -0.5192
  227TIP3   OH2  637   2.062   7.711   1.820  0.0908  0.5083  0.8597
  227TIP3    H1  638   2.123   7.730   1.891  1.3693 -1.4826  0.3785
  227TIP3    H2  639   2.073   7.617   1.803 -1.5338  0.5452 -0.7195
  228TIP3   OH2  640   1.429   5.194   1.850 -0.2529 -0.1764 -0.0325
  228TIP3    H1  641   1.443   5.246   1.929 -0.3863  0.9314 -0.7210
  228TIP3    H2  642   1.367   5.126   1.877  1.1125 -0.9730  1.2793
  229TIP3   OH2  643   5.811   3.407   5.216 -0.5048 -0.2956  0.8211
  229TIP3    H1  644   5.768   3.406   5.302 -2.5634  0.8748 -0.1194
  229TIP3    H2  645   5.863   3.488   5.216 -2.6618  1.1581  0.0429
  230TIP3   OH2  646   0.433   6.521   6.498  0.2881  0.2222 -0.0338
  230TIP3    H1  647   0.367   6.542   6.565 -1.2089  2.0060 -1.9303
  230TIP3    H2  648   0.507   6.487   6.548 -1.2897  0.0292  2.3885
  231TIP3   OH2  649   3.231   0.110   6.714 -0.3256 -0.3335 -0.3770
  231TIP3    H1  650   3.236   0.177   6.646  1.7315 -1.9646 -1.9600
  231TIP3    H2  651   3.318   0.111   6.755 -0.3106 -1.8503 -0.3044
  232TIP3   OH2  652   6.944   4.828   0.876 -0.6550 -0.2287 -0.2628
  232TIP3    H1  653   6.878   4.795   0.814 -1.9025  2.2541 -0.3660
  232TIP3    H2  654   7.013   4.864   0.821 -1.0837  0.6827 -0.2161
  233TIP3   OH2  655   2.647   2.107   6.543 -0.0234 -0.3435  0.5674
  233TIP3    H1  656   2.553   2.093   6.551 -0.3483  0.2181 -1.7149
  233TIP3    H2  657   2.673   2.058   6.465  0.7598  2.7314 -1.2681
  234TIP3   OH2  658   1.857   1.006   5.064  0.2249 -0.4005  0.3549
  234TIP3    H1  659   1.919   0.973   4.999 -0.3516 -0.1617 -0.3290
  234TIP3    H2  660   1.774   1.014   5.016 -0.1234  0.1232  1.0263
  235TIP3   OH2  661   2.508   6.687   2.018  0.0866  0.2632 -0.2632
  235TIP3    H1  662   2.417   6.704   2.042 -0.0038 -1.1512  0.5235
  235TIP3    H2  663   2.502   6.622   1.948  0.4660  1.4820 -1.4643
  236TIP3   OH2  664   5.228   3.421   3.366 -0.7698  0.0010  0.4163
  236TIP3    H1  665   5.252   3.333   3.397  0.4426 -0.0309 -0.5362
  236TIP3    H2  666   5.252   3.478   3.439 -0.4580 -0.3462  0.5946
  237TIP3   OH2  667   0.729   4.178   2.506  0.3115 -0.2574  0.3197
  237TIP3    H1  668   0.819   4.178   2.538 -0.2914  0.0571  2.1637
  237TIP3    H2  669   0.677   4.152   2.582 -1.2064  0.2276 -0.5128
  238TIP3   OH2  670   8.292   0.996   2.614 -0.7801 -0.4150 -0.2036
  238TIP3    H1  671   8.221   0.936   2.593  0.1096 -2.3292  1.7941
  238TIP3    H2  672   8.281   1.014   2.708  0.3568  0.6397 -0.2408
  239TIP3   OH2  673   2.167   4.354   6.026 -0.9014  0.2236 -0.1103
  239TIP3    H1  674   2.260   4.334   6.036 -0.4350  2.3406  0.2868
  239TIP3    H2  675   2.149   4.338   5.934 -0.2102 -0.4513 -0.1381
  240TIP3   OH2  676   6.596   7.102   2.687  0.0087  0.6442 -0.0481
  240TIP3    H1  677   6.550   7.080   2.768  1.7830 -0.2757  0.7613
  240TIP3    H2  678   6.679   7.141   2.716  0.4106  0.8766 -1.4366
  241TIP3   OH2  679   3.637   0.500   3.806  0.1821  0.5757 -0.1582
  241TIP3    H1  680   3.630   0.582   3.757 -0.7864  0.2325 -0.6283
  241TIP3    H2  681   3.706   0.452   3.761 -0.9253  0.1217 -1.4563
  242TIP3   OH2  682   1.971   4.647   6.148  0.0921  0.0945  0.0124
  242TIP3    H1  683   1.946   4.738   6.159 -1.0883 -0.3012  0.7221
  242TIP3    H2  684   2.033   4.630   6.219  1.3397  0.6673 -0.8855
  243TIP3   OH2  685   0.154   3.978   1.257  0.1609 -0.9032  0.1767
  243TIP3    H1  686   0.087   4.036   1.294  0.1994 -0.5464 -0.3041
  243TIP3    H2  687   0.233   3.998   1.307  0.0334 -0.9617  0.4039
  244TIP3   OH2  688   6.534   7.681   1.300 -0.2643 -0.0994  0.3748
  244TIP3    H1  689   6.582   7.763   1.313  0.1321 -0.2720  0.0236
  244TIP3    H2  690   6.509   7.682   1.207  0.9461 -1.0104  0.0200
  245TIP3   OH2  691   5.997   2.778   6.128  0.1998  0.5012  0.1530
  245TIP3    H1  692   5.986   2.827   6.047 -1.1953  1.8917  1.1290
  245TIP3    H2  693   5.913   2.733   6.140  1.1788 -1.6039 -0.3257
  246TIP3   OH2  694   4.695   0.434   2.145  0.3420 -0.4574  0.5871
  246TIP3    H1  695   4.657   0.416   2.230  1.0856 -0.7675  0.8617
  246TIP3    H2  696   4.767   0.495   2.163  0.2242 -0.1789  0.1292
  247TIP3   OH2  697   2.596   7.267   6.713  0.0613  0.0308  0.2339
  247TIP3    H1  698   2.619   7.198   6.775 -0.4445 -0.3205  0.0380
  247TIP3    H2  699   2.501   7.264   6.709 -0.1167  1.9352  1.5829
  248TIP3   OH2  700   2.104   4.582   4.536 -0.4255  0.5382  0.4496
  248TIP3    H1  701   2.024   4.573   4.484  0.3023 -3.1845 -0.3582
  248TIP3    H2  702   2.084   4.539   4.619  0.3072  0.8354  0.7902
  249TIP3   OH2  703   7.596   5.673   2.658  0.3009  0.8983  0.2695
  249TIP3    H1  704   7.582   5.619   2.581  0.0344  0.8105  0.3797
  249TIP3    H2  705   7.512   5.673   2.704  0.6049  0.5224  0.8290
  250TIP3   OH2  706   5.709   2.699   1.352 -0.2826  0.2481 -0.3667
  250TIP3    H1  707   5.788   2.695   1.405  0.4183 -1.2333 -1.4735
  250TIP3    H2  708   5.703   2.791   1.325  0.8700  0.4463 -0.0026
  251TIP3   OH2  709   2.222   4.721   3.954 -0.1950  0.0875 -0.1210
  251TIP3    H1  710   2.315   4.743   3.959 -0.4821  1.3713 -0.1079
  251TIP3    H2  711   2.198   4.739   3.863 -0.8242  1.4781  0.3009
  252TIP3   OH2  712   3.952   1.689   6.351 -0.4502 -0.2343  0.1748
  252TIP3    H1  713   3.978   1.671   6.261 -1.8926 -0.6851 -0.1775
  252TIP3    H2  714   3.864   1.652   6.359 -0.2815 -0.3746  1.8291
  253TIP3   OH2  715   5.645   4.908   0.978  0.6492  0.2984 -0.0085
  253TIP3    H1  716   5.568   4.963   0.965 -0.6155 -1.5275 -0.6177
  253TIP3    H2  717   5.698   4.922   0.900  0.2564  0.5067 -0.2390
  254TIP3   OH2  718   6.551   4.091   3.682  0.1584  0.5618  0.0310
  254TIP3    H1  719   6.551   4.158   3.750 -0.5650  1.5661 -0.9402
  254TIP3    H2  720   6.633   4.104   3.634 -0.7392  1.8909 -1.2182
  255TIP3   OH2  721   8.001   1.391   6.536  0.6507  0.5670  0.2871
  255TIP3    H1  722   7.912   1.384   6.568  0.6280  0.2160  0.1542
  255TIP3    H2  723   8.055   1.355   6.606  0.7088  0.9844  0.4607
  256TIP3   OH2  724   3.153   2.710   3.660  0.7499  0.3512 -0.4908
  256TIP3    H1  725   3.088   2.780   3.654  0.0354 -0.3661 -1.0614
  256TIP3    H2  726   3.148   2.664   3.577  3.2097  1.3336 -1.2834
  257TIP3   OH2  727   5.888   7.354   6.302 -0.6310  0.0646  0.5478
  257TIP3    H1  728   5.914   7.349   6.210 -0.9147 -0.6044  0.4932
  257TIP3    H2  729   5.970   7.368   6.349 -0.4718  0.3118  0.2013
  258TIP3   OH2  730   3.800   4.178   0.985 -0.4993 -0.6777 -0.5001
  258TIP3    H1  731   3.812   4.087   1.013 -2.7879 -0.5635  1.1072
  258TIP3    H2  732   3.737   4.214   1.047 -0.7082  1.6118 -1.9367
  259TIP3   OH2  733   7.903   1.655   6.001 -0.3751 -0.1253  0.0786
  259TIP3    H1  734   7.848   1.733   6.009  0.3617  0.3891  0.2223
  259TIP3    H2  735   7.984   1.687   5.963 -0.0665 -0.8334  0.1218
  260TIP3   OH2  736   7.490   5.225   5.343 -0.1433  0.2406 -0.6839
  260TIP3    H1  737   7.400   5.245   5.367  0.4147  0.0125  1.8067
  260TIP3    H2  738   7.483   5.140   5.297 -1.1865  0.2675 -0.6093
  261TIP3   OH2  739   0.907   2.741   1.328 -0.5206  0.4546 -0.0126
  261TIP3    H1  740   0.905   2.815   1.389 -1.9229  0.1041  0.4137
  261TIP3    H2  741   0.934   2.666   1.382 -0.9592  0.3008 -0.0020
  262TIP3   OH2  742   0.728   7.086   4.624  0.2900 -0.7794  0.6933
  262TIP3    H1  743   0.703   7.167   4.668  1.7427 -0.6594  1.3893
  262TIP3    H2  744   0.819   7.072   4.650  0.7063 -1.5821 -1.0059
  263TIP3   OH2  745   7.583   3.417   3.519 -0.1437  0.2852 -0.0690
  263TIP3    H1  746   7.592   3.437   3.426  3.3378  2.5925  0.5859
  263TIP3    H2  747   7.665   3.374   3.543 -1.8015 -2.2213  1.6165
  264TIP3   OH2  748   0.752   0.750   6.212 -0.2803  0.3136  0.1367
  264TIP3    H1  749   0.713   0.688   6.274  0.6938 -0.4026  0.0528
  264TIP3    H2  750   0.701   0.830   6.223 -1.5400 -0.4859  0.2794
  265TIP3   OH2  751   3.944   6.372   4.826  0.7546 -0.0956 -0.1253
  265TIP3    H1  752   4.020   6.426   4.805 -0.2792  1.8271  0.8678
  265TIP3    H2  753   3.930   6.385   4.920 -0.7582 -0.4694 -0.2713
  266TIP3   OH2  754   4.599   6.711   3.095  0.1284 -0.0528  0.3740
  266TIP3    H1  755   4.618   6.626   3.057  1.4182 -0.9200  2.7160
  266TIP3    H2  756   4.674   6.765   3.070  1.1518 -0.7226  1.8187
  267TIP3   OH2  757   4.171   7.308   0.623 -0.4083 -0.0421  0.1542
  267TIP3    H1  758   4.150   7.265   0.705 -2.4625 -0.8093 -0.7022
  267TIP3    H2  759   4.224   7.244   0.575 -1.3387 -0.6244 -0.1122
  268TIP3   OH2  760   2.502   2.809   6.684 -0.0837 -0.4862 -0.2782
  268TIP3    H1  761   2.528   2.717   6.673  1.2237 -0.0818 -0.8258
  268TIP3    H2  762   2.460   2.832   6.601  3.2260  0.4907 -1.8788
  269TIP3   OH2  763   3.246   1.243   5.213 -0.0450  0.1257  0.0774
  269TIP3    H1  764   3.200   1.326   5.199 -0.2816  0.0341  0.3032
  269TIP3    H2  765   3.244   1.230   5.308  1.1551  0.5240  0.1808
  270TIP3   OH2  766   1.872   7.474   3.109  0.3881 -0.4278 -0.3127
  270TIP3    H1  767   1.793   7.432   3.074  1.0309  0.3259 -2.8736
  270TIP3    H2  768   1.841   7.521   3.187 -1.8646  0.3858 -1.6121
  271TIP3   OH2  769   5.321   7.060   6.174 -0.0383 -0.2848  0.3387
  271TIP3    H1  770   5.304   7.095   6.261  1.7351  1.0296  0.2005
  271TIP3    H2  771   5.322   7.137   6.117 -2.4036 -1.2185 -1.1167
  272TIP3   OH2  772   7.845   2.553   2.561 -0.3286  0.2309 -0.0628
  272TIP3    H1  773   7.793   2.493   2.614 -1.2310  1.1301  0.0969
  272TIP3    H2  774   7.935   2.521   2.569 -0.5349 -0.0097  1.5171
  273TIP3   OH2  775   6.344   5.273   4.581 -0.7235  0.6889  0.1456
  273TIP3    H1  776   6.377   5.199   4.531 -0.7893  0.6675  0.1339
  273TIP3    H2  777   6.353   5.247   4.673  0.4009  1.1538  0.1774
  274TIP3   OH2  778   3.387   6.537   4.515 -0.2626  0.3419  0.2769
  274TIP3    H1  779   3.465   6.591   4.531 -0.2401  0.2510  0.4814
  274TIP3    H2  780   3.373   6.543   4.421  0.0133  0.3329  0.2326
  275TIP3   OH2  781   2.475   6.266   4.846 -0.3137 -0.4357 -0.2416
  275TIP3    H1  782   2.464   6.177   4.813 -0.2412  0.2137 -2.1542
  275TIP3    H2  783   2.414   6.319   4.795  0.1543  0.7232  0.3436
  276TIP3   OH2  784   7.906   5.741   4.145  0.0200 -0.6157  0.6873
  276TIP3    H1  785   7.932   5.649   4.149 -0.5562 -1.0207 -2.3772
  276TIP3    H2  786   7.924   5.767   4.055 -1.7125  1.6972  0.9155
  277TIP3   OH2  787   3.056   1.058   0.620 -0.2014  0.4069  0.1944
  277TIP3    H1  788   3.065   1.053   0.715  0.3962 -0.3012  0.1097
  277TIP3    H2  789   3.108   0.985   0.587  0.0549  0.9826 -0.7062
  278TIP3   OH2  790   2.436   3.580   3.425 -0.6982  0.4148  0.0356
  278TIP3    H1  791   2.454   3.496   3.382 -0.8355 -0.2102  1.1823
  278TIP3    H2  792   2.363   3.562   3.484  1.3745  0.4926  2.7627
  279TIP3   OH2  793   5.985   3.459   5.663 -0.4041 -0.6340 -0.0292
  279TIP3    H1  794   5.945   3.394   5.605  0.3801 -1.0065 -0.1633
  279TIP3    H2  795   5.911   3.493   5.715 -0.9588 -0.9951 -0.5638
  280TIP3   OH2  796   5.951   1.762   0.927 -0.1756 -0.6040 -0.6394
  280TIP3    H1  797   6.017   1.831   0.934 -0.6847 -0.0416 -1.1730
  280TIP3    H2  798   5.954   1.735   0.835 -1.1743 -0.0581 -0.8466
  281TIP3   OH2  799   1.944   6.245   2.661 -0.3189  0.1448  0.1995
  281TIP3    H1  800   1.870   6.219   2.605  0.5409 -0.7482 -0.5765
  281TIP3    H2  801   1.951   6.174   2.725  2.2920 -2.0026 -2.1725
  282TIP3   OH2  802   2.815   2.870   1.158  0.1417  0.4419  0.4588
  282TIP3    H1  803   2.885   2.805   1.158  0.6166  0.9458  0.2034
  282TIP3    H2  804   2.797   2.886   1.250 -1.8072 -1.9682  0.6202
  283TIP3   OH2  805   4.582   0.166   5.798 -0.2966  0.3496 -0.0168
  283TIP3    H1  806   4.618   0.149   5.711  1.4756  0.7538  0.5870
  283TIP3    H2  807   4.645   0.128   5.858 -1.4086  0.2202  1.1155
  284TIP3   OH2  808   1.511   1.189   4.281  0.0406  0.7272 -0.2892
  284TIP3    H1  809   1.600   1.225   4.284  0.6680 -0.7862  0.2548
  284TIP3    H2  810   1.465   1.233   4.353  1.0193 -0.1209  0.8868
  285TIP3   OH2  811   0.270   5.675   6.126 -0.0054 -0.6467  0.2877
  285TIP3    H1  812   0.262   5.721   6.043  2.8589  0.2445  0.3896
  285TIP3    H2  813   0.275   5.745   6.192 -0.7820 -1.2967  1.0599
  286TIP3   OH2  814   6.139   0.943   1.796 -0.0823 -0.0960 -0.1916
  286TIP3    H1  815   6.227   0.976   1.775  0.6989 -1.7163  0.3214
  286TIP3    H2  816   6.109   0.902   1.715  0.5540 -1.3733  0.1813
  287TIP3   OH2  817   2.814   0.344   6.049 -0.6764 -0.2800  0.3303
  287TIP3    H1  818   2.831   0.425   6.000 -0.2697 -0.4659  0.1575
  287TIP3    H2  819   2.837   0.367   6.140  0.0756 -0.3899  0.1742
  288TIP3   OH2  820   5.805   2.203   5.542 -0.4555 -0.0095  0.4862
  288TIP3    H1  821   5.778   2.112   5.536 -0.3920  0.0500 -1.4228
  288TIP3    H2  822   5.748   2.249   5.479  1.6704  0.6849 -1.0301
  289TIP3   OH2  823   6.115   5.581   0.053 -0.2605  0.1462  0.3253
  289TIP3    H1  824   6.191   5.632   0.081 -0.8360  0.0218  2.2283
  289TIP3    H2  825   6.113   5.591  -0.042  2.1982  0.0555  0.2091
  290TIP3   OH2  826   4.109   7.164   6.162  0.2324  0.2591  0.2896
  290TIP3    H1  827   4.055   7.242   6.152 -0.2782  0.1024  1.6044
  290TIP3    H2  828   4.053   7.102   6.209  0.7966 -0.7321 -0.3116
  291TIP3   OH2  829   7.649   3.299   1.488  0.4727 -0.2572  0.2464
  291TIP3    H1  830   7.558   3.303   1.518  0.4896 -2.5762  0.8589
  291TIP3    H2  831   7.655   3.365   1.419 -1.3543  0.7128  0.9393
  292TIP3   OH2  832   3.573   0.353   2.972 -0.7725 -0.8897 -0.4576
  292TIP3    H1  833   3.630   0.408   2.919 -0.1059  0.3101  1.3948
  292TIP3    H2  834   3.628   0.280   3.000  0.2251  0.6783  1.9896
  293TIP3   OH2  835   6.187   4.837   5.281  0.5417  0.2423 -0.3023
  293TIP3    H1  836   6.255   4.784   5.239 -0.9232 -0.5815 -1.7384
  293TIP3    H2  837   6.174   4.910   5.221  0.1597  0.4051 -0.0214
  294TIP3   OH2  838   7.172   0.107   1.957 -0.1387 -0.0032 -0.2219
  294TIP3    H1  839   7.206   0.044   2.020  0.0048 -0.2471 -0.5355
  294TIP3    H2  840   7.132   0.175   2.010  2.0591  1.0227  0.2293
  295TIP3   OH2  841   3.869   7.537   3.281  0.1707  0.2168  0.8303
  295TIP3    H1  842   3.814   7.460   3.294  0.2544 -0.1698 -0.9263
  295TIP3    H2  843   3.832   7.582   3.206  1.8847  0.2603 -0.0442
  296TIP3   OH2  844   7.127   0.690   1.994 -0.1594 -0.2810  0.7581
  296TIP3    H1  845   7.052   0.678   1.934  1.0987 -0.3787 -0.8730
  296TIP3    H2  846   7.199   0.644   1.951  1.5366  2.0804  0.9074
  297TIP3   OH2  847   7.647   5.474   5.203  0.1756  0.0873 -0.1383
  297TIP3    H1  848   7.734   5.506   5.178  0.6177 -0.6451  0.4263
  297TIP3    H2  849   7.662   5.424   5.283 -0.0034 -3.7544 -2.2852
  298TIP3   OH2  850   1.134   2.648   3.459  0.4447 -0.5330 -0.5682
  298TIP3    H1  851   1.121   2.735   3.498 -0.7926 -0.2982 -1.4503
  298TIP3    H2  852   1.192   2.603   3.520  0.0571  0.4667  0.5713
  299TIP3   OH2  853   5.144   7.519   4.171  0.4056  0.0138  0.3127
  299TIP3    H1  854   5.231   7.484   4.189 -0.2964 -1.3998  1.1366
  299TIP3    H2  855   5.124   7.492   4.082  0.6116 -0.0625  0.2902
  300TIP3   OH2  856   6.117   7.314   5.098  0.3945  0.1443 -0.1016
  300TIP3    H1  857   6.196   7.260   5.091  0.8147  0.7185  0.1009
  300TIP3    H2  858   6.149   7.400   5.126 -0.3776  0.1923  0.6609
  301TIP3   OH2  859   2.723   3.754   5.932  0.0198  0.2177 -0.0899
  301TIP3    H1  860   2.818   3.742   5.925  0.1119  1.4265 -1.4230
  301TIP3    H2  861   2.701   3.815   5.861 -1.5863  0.8758  0.9017
  302TIP3   OH2  862   1.105   1.278   2.946 -0.6967  0.0627 -0.5125
  302TIP3    H1  863   1.077   1.368   2.926 -0.2646  0.1591 -0.6886
  302TIP3    H2  864   1.191   1.288   2.986 -1.0486 -0.2143  0.3331
  303TIP3   OH2  865   3.859   3.530   1.610 -0.0302 -0.1654 -0.4298
  303TIP3    H1  866   3.811   3.609   1.633  1.0415  1.8824 -4.2085
  303TIP3    H2  867   3.792   3.468   1.580 -0.6792  1.0064 -1.5002
  304TIP3   OH2  868   5.228   5.664   2.048  0.7759  0.3642 -0.3604
  304TIP3    H1  869   5.165   5.721   2.091  0.9500  0.6344 -0.4624
  304TIP3    H2  870   5.299   5.654   2.111  0.4008 -0.3582 -0.0375
  305TIP3   OH2  871   2.741   3.666   5.549  0.5419 -0.0918 -0.3900
  305TIP3    H1  872   2.761   3.577   5.580  1.8956  0.8645  1.7298
  305TIP3    H2  873   2.663   3.656   5.494  1.1668 -2.6912 -0.9295
  306TIP3   OH2  874   5.174   5.145   5.502 -0.8700 -0.0276  0.2265
  306TIP3    H1  875   5.154   5.078   5.437  0.5038 -0.6997  0.4456
  306TIP3    H2  876   5.187   5.225   5.451 -0.2755 -0.4426 -0.2855
  307TIP3   OH2  877   4.218   7.367   5.638 -0.7022  0.2423 -0.0046
  307TIP3    H1  878   4.215   7.455   5.676 -0.2038  0.4031 -0.3170
  307TIP3    H2  879   4.237   7.309   5.711  2.3498  0.7637 -0.2615
  308TIP3   OH2  880   1.518   5.018   2.133 -0.5070 -0.4237  0.0491
  308TIP3    H1  881   1.445   5.017   2.071  1.4747  0.6423 -2.5223
  308TIP3    H2  882   1.539   5.111   2.143 -0.4900 -0.6009  2.0717
  309TIP3   OH2  883   3.176   2.747   4.067 -0.0510  0.1877  0.5109
  309TIP3    H1  884   3.177   2.737   4.162 -0.5067 -0.1692  0.4870
  309TIP3    H2  885   3.229   2.674   4.035  0.6769  0.7171  0.5190
  310TIP3   OH2  886   3.681   2.466   5.833 -0.5065  0.3077  0.1959
  310TIP3    H1  887   3.740   2.540   5.821 -0.0185 -0.4740 -3.8451
  310TIP3    H2  888   3.739   2.391   5.845 -0.8195  0.0557  0.1431
  311TIP3   OH2  889   6.989   0.825   4.731  0.0998 -0.0985 -0.6245
  311TIP3    H1  890   6.953   0.752   4.781 -1.4226  0.7374 -0.4397
  311TIP3    H2  891   6.948   0.903   4.769  0.6362  0.7401 -1.7086
  312TIP3   OH2  892   6.729   0.186   1.827  0.9662  0.0069 -0.0928
  312TIP3    H1  893   6.764   0.272   1.804  1.1292  0.1189  0.5555
  312TIP3    H2  894   6.658   0.205   1.889  2.0402 -0.3945  1.3135
  313TIP3   OH2  895   4.248   7.560   5.433 -0.1995 -0.3771  0.3213
  313TIP3    H1  896   4.233   7.482   5.487 -1.1264  0.0797  0.7544
  313TIP3    H2  897   4.173   7.616   5.451  0.8993  1.0271  0.7364
  314TIP3   OH2  898   2.121   1.231   5.710 -0.2863 -0.4321  0.0134
  314TIP3    H1  899   2.051   1.243   5.645  0.1136 -0.9065 -0.5211
  314TIP3    H2  900   2.152   1.320   5.729 -0.2547 -0.3010 -0.6266
  315TIP3   OH2  901   4.858   0.311   2.689  0.1714  0.2337 -0.0399
  315TIP3    H1  902   4.867   0.243   2.755 -1.0990  1.1950  1.1926
  315TIP3    H2  903   4.785   0.364   2.719 -1.4176 -0.0844 -2.9615
  316TIP3   OH2  904   0.906   0.471   3.083  0.2012 -0.0642 -0.2670
  316TIP3    H1  905   0.868   0.412   3.019  0.5671 -0.8935  0.2657
  316TIP3    H2  906   0.983   0.508   3.040 -0.2193  0.2972 -0.7203
  317TIP3   OH2  907   3.554   2.906   1.854 -0.2925 -0.0060  0.7976
  317TIP3    H1  908   3.618   2.838   1.874 -1.1162 -0.4131  2.1146
  317TIP3    H2  909   3.503   2.916   1.934 -0.8322  1.4664  0.3053
  318TIP3   OH2  910   6.776   2.351   3.015 -0.1020 -0.6804 -0.1462
  318TIP3    H1  911   6.745   2.290   2.948  0.9230 -0.6407 -0.6754
  318TIP3    H2  912   6.789   2.296   3.093  1.3418 -1.2878 -0.7674
  319TIP3   OH2  913   6.281   6.381   2.433  0.7772  0.3811 -0.3974
  319TIP3    H1  914   6.271   6.415   2.522 -1.0236 -0.7684 -0.0969
  319TIP3    H2  915   6.375   6.370   2.422  1.0266  0.3540  1.4567
  320TIP3   OH2  916   2.949   2.166   0.075  0.0355  0.4297  0.3302
  320TIP3    H1  917   2.904   2.221   0.010  0.8064  0.9640  0.2283
  320TIP3    H2  918   2.946   2.078   0.038 -1.0588  0.4259  0.4067
  321TIP3   OH2  919   4.547   1.666   2.117  0.0206  0.2091 -0.0884
  321TIP3    H1  920   4.634   1.642   2.149 -0.4852 -0.0747  1.1159
  321TIP3    H2  921   4.560   1.683   2.024  0.8404 -2.5784 -0.5796
  322TIP3   OH2  922   6.573   0.913   2.771  0.0089 -0.3281 -0.6081
  322TIP3    H1  923   6.600   0.997   2.810  0.4042 -1.2692  1.2537
  322TIP3    H2  924   6.613   0.847   2.827  0.1550 -1.7837 -2.3747
  323TIP3   OH2  925   1.996   0.333   4.759  0.2798 -0.2055  0.3646
  323TIP3    H1  926   1.951   0.314   4.677  0.0682  1.7894 -0.0203
  323TIP3    H2  927   2.041   0.251   4.781  1.0158 -0.5579 -2.1555
  324TIP3   OH2  928   1.804   1.144   4.133  0.1338 -0.7215  0.1517
  324TIP3    H1  929   1.768   1.061   4.102  1.4022 -0.2905 -2.9160
  324TIP3    H2  930   1.899   1.128   4.138  0.1985 -0.0161  1.5798
  325TIP3   OH2  931   4.816   1.387   2.934  0.0980 -0.3513 -0.2233
  325TIP3    H1  932   4.834   1.376   2.841  0.6283 -0.2646 -0.1338
  325TIP3    H2  933   4.749   1.455   2.939 -0.1134 -0.5357 -0.5532
  326TIP3   OH2  934   0.463   3.876   5.794  0.2938 -0.6770 -0.4668
  326TIP3    H1  935   0.424   3.855   5.709 -0.5542  1.2702 -0.6291
  326TIP3    H2  936   0.434   3.966   5.812  0.6666 -0.9287  1.7630
  327TIP3   OH2  937   7.385   1.211   3.552  0.3360  0.2728  0.1752
  327TIP3    H1  938   7.480   1.210   3.540  0.3934  1.1885  0.5217
  327TIP3    H2  939   7.373   1.210   3.647 -0.0086  0.0329  0.1297
  328TIP3   OH2  940   3.244   0.047   0.117 -0.2987  0.0015 -0.9366
  328TIP3    H1  941   3.218  -0.045   0.121  0.5287 -0.2659 -1.3733
  328TIP3    H2  942   3.164   0.096   0.136 -0.2109 -0.8169  2.0577
  329TIP3   OH2  943   5.666   1.455   4.866  0.3524 -0.2165  0.6096
  329TIP3    H1  944   5.632   1.373   4.828 -1.4498  0.0767  1.4926
  329TIP3    H2  945   5.672   1.437   4.960 -2.0307  1.2327  1.1258
  330TIP3   OH2  946   5.328   4.171   5.332  0.4785 -0.0091 -0.1918
  330TIP3    H1  947   5.239   4.203   5.342  0.5955 -0.0106  1.1003
  330TIP3    H2  948   5.319   4.076   5.319  0.2113  0.2696 -2.3990
  331TIP3   OH2  949   3.746   2.933   5.227 -0.5112  0.0234  0.3264
  331TIP3    H1  950   3.812   3.000   5.209 -0.3349 -0.6012 -1.6216
  331TIP3    H2  951   3.664   2.970   5.195 -1.0172  0.5001  2.0669
  332TIP3   OH2  952   0.782   2.827   0.457 -0.4130  0.3695 -0.2735
  332TIP3    H1  953   0.765   2.804   0.366 -1.8239  0.9320 -0.1761
  332TIP3    H2  954   0.702   2.802   0.503  1.3086 -2.6468  1.3644
  333TIP3   OH2  955   0.890   6.713   4.042 -0.7521  0.4615  0.4875
  333TIP3    H1  956   0.920   6.766   4.116  0.8553  0.5933 -0.2166
  333TIP3    H2  957   0.833   6.771   3.992  1.7809  1.9810 -0.8349
  334TIP3   OH2  958   6.582   4.735   2.149 -0.1696  0.0966  0.0099
  334TIP3    H1  959   6.549   4.814   2.192  0.3416 -0.0545  0.6956
  334TIP3    H2  960   6.513   4.670   2.161  0.3305 -0.2025  1.3850
  335TIP3   OH2  961   7.231   3.239   4.733  0.1768  0.2345  0.0912
  335TIP3    H1  962   7.308   3.182   4.729 -0.4670 -0.5707 -1.2269
  335TIP3    H2  963   7.216   3.251   4.827  0.5967 -1.4134  0.4005
  336TIP3   OH2  964   6.666   2.900   5.767  0.1974  0.1266 -0.2221
  336TIP3    H1  965   6.747   2.943   5.739  0.6492 -0.1367  0.6539
  336TIP3    H2  966   6.695   2.817   5.805 -0.3065  0.8200  1.7903
  337TIP3   OH2  967   0.463   4.757   3.801  0.3648  0.0086 -0.0602
  337TIP3    H1  968   0.449   4.665   3.822 -0.6615  0.0382 -0.5524
  337TIP3    H2  969   0.464   4.801   3.886  0.6868 -0.4303  0.1662
  338TIP3   OH2  970   7.848   6.722   2.087  0.5806  0.2839  0.0321
  338TIP3    H1  971   7.814   6.796   2.138  0.9714  1.7154 -1.6893
  338TIP3    H2  972   7.774   6.692   2.035  0.9249  0.8353 -0.7974
  339TIP3   OH2  973   6.373   6.742   2.656  0.0037  0.4661  0.2223
  339TIP3    H1  974   6.298   6.730   2.713 -0.0210 -1.9864 -0.2396
  339TIP3    H2  975   6.449   6.730   2.713 -0.0176 -0.9453 -0.0086
  340TIP3   OH2  976   5.838   1.283   6.086  0.2008 -0.0136 -0.3883
  340TIP3    H1  977   5.887   1.223   6.142  0.2153  1.2822  1.0444
  340TIP3    H2  978   5.750   1.285   6.124  0.8598  2.7827  1.1941
  341TIP3   OH2  979   0.090   3.278   4.509 -0.6516  0.4322  0.2345
  341TIP3    H1  980   0.161   3.342   4.516  0.3113 -0.6031  0.1677
  341TIP3    H2  981   0.134   3.193   4.507 -1.8533 -0.1963 -0.6467
  342TIP3   OH2  982   3.263   4.866   2.300  0.2021 -0.0384  0.8413
  342TIP3    H1  983   3.206   4.790   2.313  1.0067 -0.9538 -0.7356
  342TIP3    H2  984   3.204   4.934   2.268 -0.1774 -0.7182  0.0491
  343TIP3   OH2  985   6.002   4.951   2.726 -0.6541  0.3180  0.6408
  343TIP3    H1  986   5.968   5.021   2.670 -0.9708  0.8694  1.4989
  343TIP3    H2  987   6.030   4.883   2.664 -1.1216  0.8431 -0.1806
  344TIP3   OH2  988   8.249   6.696   6.316  0.0775 -0.1948 -0.3068
  344TIP3    H1  989   8.283   6.781   6.289 -1.2713  0.5150  0.1470
  344TIP3    H2  990   8.190   6.670   6.246 -1.9781  0.7763  0.9581
  345TIP3   OH2  991   0.238   4.552   6.482 -0.5383 -0.0900  0.0762
  345TIP3    H1  992   0.334   4.546   6.483 -0.5018 -0.1152  2.3487
  345TIP3    H2  993   0.209   4.465   6.454  0.0329  0.4877 -2.6402
  346TIP3   OH2  994   4.848   3.437   3.820  0.1856 -0.2703 -0.2652
  346TIP3    H1  995   4.823   3.380   3.893  1.1966 -2.1959 -1.3571
  346TIP3    H2  996   4.768   3.443   3.767 -0.4060  0.7236  0.6974
  347TIP3   OH2  997   2.339   6.443   5.769  0.0026  0.0067  0.1467
  347TIP3    H1  998   2.348   6.394   5.852 -0.7050 -0.9590 -0.3222
  347TIP3    H2  999   2.312   6.530   5.796 -0.1263 -0.2690  0.9468
  348TIP3   OH2 1000   2.623   2.048   0.739  0.5933  0.2133 -0.2257
  348TIP3    H1 1001   2.697   1.994   0.710  0.0125  0.3606 -2.1085
  348TIP3    H2 1002   2.663   2.130   0.767  1.0726  1.7719 -4.6872
  349TIP3   OH2 1003   5.122   4.719   0.738  0.0267 -0.5612 -0.1187
  349TIP3    H1 1004   5.109   4.762   0.653  2.1845 -0.6597 -0.5490
  349TIP3    H2 1005   5.138   4.791   0.799  0.6632 -0.5813 -0.2518
  350TIP3   OH2 1006   0.310   1.185   6.485 -0.2279 -0.1680  0.0572
  350TIP3    H1 1007   0.402   1.208   6.496 -0.1631 -0.7823  0.9727
  350TIP3    H2 1008   0.277   1.246   6.419  0.8131  0.0987 -0.2297
  351TIP3   OH2 1009   3.068   5.877   4.119 -0.6371 -0.3715  0.3890
  351TIP3    H1 1010   3.083   5.835   4.204 -2.6303 -1.0589  0.4532
  351TIP3    H2 1011   3.123   5.956   4.121  1.2561 -1.6389  1.2871
  352TIP3   OH2 1012   7.073   0.846   5.956 -0.3695 -0.0737  0.8849
  352TIP3    H1 1013   7.147   0.793   5.984 -0.7318 -0.6684  0.7421
  352TIP3    H2 1014   7.100   0.882   5.871  0.7189  1.7197  1.9277
  353TIP3   OH2 1015   0.878   7.002   4.114  0.3433 -0.0140  0.1407
  353TIP3    H1 1016   0.951   7.063   4.122  0.0951  0.3017  0.0195
  353TIP3    H2 1017   0.816   7.030   4.181 -0.5009  0.9014 -0.9936
  354TIP3   OH2 1018   4.420   2.135   2.047  0.4620 -0.3321  0.2695
  354TIP3    H1 1019   4.451   2.082   2.120  0.4063  0.9999  1.2947
  354TIP3    H2 1020   4.327   2.114   2.040  1.0062 -2.5835 -1.3090
  355TIP3   OH2 1021   6.991   3.668   4.348  0.2052  0.0218 -0.2877
  355TIP3    H1 1022   6.978   3.722   4.427  2.3043  1.8659 -1.1032
  355TIP3    H2 1023   7.050   3.598   4.377 -0.5463 -0.4221  0.1999
  356TIP3   OH2 1024   4.665   1.822   5.120 -0.3494 -0.0012 -0.0605
  356TIP3    H1 1025   4.581   1.802   5.163 -1.7309  1.8850 -1.6844
  356TIP3    H2 1026   4.708   1.737   5.112 -3.0853 -1.4465 -1.0940
  357TIP3   OH2 1027   7.775   0.940   2.387 -0.5151 -0.1264  0.1171
  357TIP3    H1 1028   7.783   0.961   2.479  0.1033  0.3735 -0.0453
  357TIP3    H2 1029   7.690   0.896   2.379 -1.0834  0.8439  0.7281
  358TIP3   OH2 1030   1.644   6.556   3.358  0.0031  0.7375 -0.2871
  358TIP3    H1 1031   1.658   6.560   3.264 -1.1802  0.4407 -0.4979
  358TIP3    H2 1032   1.660   6.465   3.382  1.2244  1.0032 -0.0216
  359TIP3   OH2 1033   2.934   6.961   5.665 -0.1745 -0.5042 -0.7369
  359TIP3    H1 1034   2.955   6.921   5.750  0.8756 -1.3545 -1.3629
  359TIP3    H2 1035   2.851   6.921   5.639 -0.1617 -0.7404 -0.4181
  360TIP3   OH2 1036   3.544   2.853   0.106  0.2423 -0.2741 -0.0330
  360TIP3    H1 1037   3.449   2.843   0.109  0.1916  0.1783 -0.0331
  360TIP3    H2 1038   3.559   2.930   0.051  0.5858 -0.0755  0.3273
  361TIP3   OH2 1039   7.987   7.632   6.141  0.3409 -0.4945 -0.2193
  361TIP3    H1 1040   8.076   7.599   6.158 -0.8040 -3.1785  1.1369
  361TIP3    H2 1041   7.959   7.585   6.063 -0.0120  0.1752 -0.5049
  362TIP3   OH2 1042   1.940   1.967   4.357 -0.3042 -0.0787 -0.1219
  362TIP3    H1 1043   1.902   1.901   4.298 -0.6177 -0.7260  0.7787
  362TIP3    H2 1044   2.022   1.991   4.316  0.7874 -2.4781  0.4576
  363TIP3   OH2 1045   3.058   1.643   0.737  0.7401  0.2947 -0.1654
  363TIP3    H1 1046   3.063   1.571   0.673  0.7666  0.8750 -0.8271
  363TIP3    H2 1047   3.129   1.702   0.713  0.4870  0.7328  0.1415
  364TIP3   OH2 1048   6.712   5.742   5.153 -0.8901 -0.1827  0.2064
  364TIP3    H1 1049   6.727   5.834   5.133 -1.2873 -0.1322  0.1440
  364TIP3    H2 1050   6.628   5.721   5.112 -0.2213 -0.9007 -0.8568
  365TIP3   OH2 1051   5.634   7.481   6.361 -0.1834 -0.1132  0.3010
  365TIP3    H1 1052   5.620   7.558   6.306  2.2889  0.6707  0.6657
  365TIP3    H2 1053   5.676   7.417   6.304  0.7119  0.0235  0.7893
  366TIP3   OH2 1054   3.979   3.438   0.522  0.2159 -0.1758 -0.6150
  366TIP3    H1 1055   3.903   3.468   0.472 -0.1940 -1.0117 -0.5187
  366TIP3    H2 1056   4.043   3.509   0.514 -0.4329  0.3755 -1.0115
  367TIP3   OH2 1057   2.011   6.340   2.208 -0.2208 -0.5282  0.1593
  367TIP3    H1 1058   1.949   6.275   2.176  0.8996 -2.0781  0.9843
  367TIP3    H2 1059   1.971   6.374   2.288 -0.1072 -1.3992  0.5974
  368TIP3   OH2 1060   1.733   7.301   5.342 -0.7408 -0.0506 -0.1407
  368TIP3    H1 1061   1.674   7.235   5.305 -0.2404 -0.9393  0.6142
  368TIP3    H2 1062   1.819   7.259   5.344 -0.9691 -0.6385  3.2815
  369TIP3   OH2 1063   6.142   2.433   6.408  0.1882 -0.2499  0.4976
  369TIP3    H1 1064   6.115   2.396   6.324  1.5118  0.2945 -0.1965
  369TIP3    H2 1065   6.065   2.482   6.438 -1.1189 -2.3827  0.7907
  370TIP3   OH2 1066   7.224   7.645   4.271 -0.1715 -0.3751 -0.6442
  370TIP3    H1 1067   7.146   7.618   4.320 -0.7484 -0.4354 -1.5706
  370TIP3    H2 1068   7.288   7.667   4.338 -0.9726 -0.3728  0.1369
  371TIP3   OH2 1069   1.968   6.411   4.619 -0.3399 -0.1547  0.0401
  371TIP3    H1 1070   1.923   6.356   4.554  0.7732 -2.0283  0.7761
  371TIP3    H2 1071   2.061   6.396   4.603 -0.0322 -0.4872  1.9107
  372TIP3   OH2 1072   1.328   6.620   0.986  0.3037 -0.0363 -0.1990
  372TIP3    H1 1073   1.307   6.688   1.050 -0.9058  0.4138 -1.0314
  372TIP3    H2 1074   1.405   6.652   0.941 -0.5529  1.0650 -0.9349
  373TIP3   OH2 1075   2.375   4.590   2.669 -0.0395  0.2352 -0.2710
  373TIP3    H1 1076   2.371   4.498   2.643  0.5178 -0.9671  3.2780
  373TIP3    H2 1077   2.319   4.595   2.747 -0.3399  3.0226 -0.5639
  374TIP3   OH2 1078   3.922   6.062   0.397  0.3913  0.1524 -0.2066
  374TIP3    H1 1079   3.921   6.097   0.486  0.6563 -0.1547 -0.0797
  374TIP3    H2 1080   3.894   6.135   0.342  0.3163  0.3713  0.1192
  375TIP3   OH2 1081   3.309   0.590   6.585  0.4259  0.0966  0.5407
  375TIP3    H1 1082   3.329   0.591   6.679 -0.8606 -0.1615  0.8341
  375TIP3    H2 1083   3.336   0.676   6.554 -0.1438  0.5970  1.3807
  376TIP3   OH2 1084   7.802   0.809   3.682 -0.0463  0.5485 -0.0898
  376TIP3    H1 1085   7.882   0.857   3.660  0.5277  0.5995  1.9483
  376TIP3    H2 1086   7.734   0.849   3.628  0.9969  1.5829 -0.6746
  377TIP3   OH2 1087   0.631   6.229   4.592  0.0169  0.5048 -0.3081
  377TIP3    H1 1088   0.657   6.209   4.502  1.1648  1.2502 -0.1708
  377TIP3    H2 1089   0.714   6.233   4.640 -0.5627  0.3776  0.7283
  378TIP3   OH2 1090   3.384   7.482   5.671  0.4489 -0.6293  0.1262
  378TIP3    H1 1091   3.364   7.511   5.582  0.3760 -1.0753 -0.0079
  378TIP3    H2 1092   3.478   7.470   5.673  0.6458  0.7832  0.5473
  379TIP3   OH2 1093   7.880   2.450   3.806  0.3519  0.0275  0.0068
  379TIP3    H1 1094   7.898   2.509   3.878 -1.1286  0.5305 -0.0001
  379TIP3    H2 1095   7.872   2.363   3.846  1.3036  0.0145  0.1831
  380TIP3   OH2 1096   0.455   7.249   3.197 -0.1129  0.0954  0.3507
  380TIP3    H1 1097   0.456   7.337   3.236 -0.7390  0.7413 -1.0268
  380TIP3    H2 1098   0.450   7.190   3.272  0.1188  1.2357  1.2997
  381TIP3   OH2 1099   8.032   5.110   4.229 -0.2727 -0.2669 -0.4811
  381TIP3    H1 1100   8.082   5.089   4.150 -1.0118 -0.4005 -0.9194
  381TIP3    H2 1101   7.960   5.164   4.197  0.6074  1.5149  0.3838
  382TIP3   OH2 1102   5.723   6.566   2.697  0.0425 -1.0785 -0.0289
  382TIP3    H1 1103   5.628   6.556   2.696 -0.0726 -0.1702  0.1073
  382TIP3    H2 1104   5.757   6.477   2.700 -0.8188 -1.3939  0.9506
  383TIP3   OH2 1105   3.921   5.165   3.988 -1.0089 -0.1565 -0.0731
  383TIP3    H1 1106   3.939   5.071   3.999  0.6096  0.1255  0.0287
  383TIP3    H2 1107   3.998   5.208   4.024 -0.8882  1.1581 -1.7637
  384TIP3   OH2 1108   5.050   2.717   2.851 -0.4069 -0.3300  0.0234
  384TIP3    H1 1109   5.084   2.629   2.868  0.6037  0.0965  0.2567
  384TIP3    H2 1110   4.981   2.729   2.916 -0.8607 -1.1151 -0.2960
  385TIP3   OH2 1111   1.413   7.559   2.706  0.4051  0.2230 -0.2626
  385TIP3    H1 1112   1.376   7.625   2.765 -0.4894 -0.9936  0.5952
  385TIP3    H2 1113   1.508   7.565   2.720  0.1917 -0.4159  1.7550
  386TIP3   OH2 1114   3.458   4.613   5.962  0.2391  0.3033  0.4609
  386TIP3    H1 1115   3.404   4.665   6.022  3.3550  5.4483 -0.5087
  386TIP3    H2 1116   3.532   4.585   6.015  0.4117  0.1795  0.1560
  387TIP3   OH2 1117   1.780   1.847   3.208 -0.5094  0.0354 -0.1457
  387TIP3    H1 1118   1.703   1.847   3.264 -0.9698  2.6449 -0.6342
  387TIP3    H2 1119   1.769   1.924   3.152  2.6186  0.7535  0.0123
  388TIP3   OH2 1120   0.988   0.260   1.506  0.1975  0.3078  0.3843
  388TIP3    H1 1121   1.066   0.245   1.452 -0.2158 -0.4807 -0.0058
  388TIP3    H2 1122   1.014   0.231   1.594  1.4392  3.1607  1.0673
  389TIP3   OH2 1123   3.371   4.064   1.918  0.4114  0.3086  0.0480
  389TIP3    H1 1124   3.360   4.112   2.000 -0.2976 -0.0717  0.1845
  389TIP3    H2 1125   3.446   4.007   1.933  0.8576  0.8935  0.1075
  390TIP3   OH2 1126   1.362   0.050   5.611 -0.6312  0.5288 -0.2991
  390TIP3    H1 1127   1.401   0.107   5.678 -0.2115  1.5045 -1.3279
  390TIP3    H2 1128   1.351   0.108   5.535  0.2648 -0.8757 -1.5533
  391TIP3   OH2 1129   0.286   4.399   4.106  0.1715  1.1901  0.6920
  391TIP3    H1 1130   0.231   4.374   4.180 -0.5660  1.6876  0.3185
  391TIP3    H2 1131   0.283   4.323   4.047  0.2975  1.0174  0.9077
  392TIP3   OH2 1132   0.504   7.265   6.595  0.1758  0.3086 -0.3655
  392TIP3    H1 1133   0.515   7.319   6.517 -1.4023  1.7972  0.3721
  392TIP3    H2 1134   0.421   7.294   6.633  0.5793 -0.8221  1.5172
  393TIP3   OH2 1135   2.175   1.597   3.147  0.0758 -0.1636 -0.1186
  393TIP3    H1 1136   2.195   1.672   3.090 -1.8138 -0.1018 -0.7590
  393TIP3    H2 1137   2.250   1.592   3.206  0.6261  1.7620 -0.5660
  394TIP3   OH2 1138   1.989   0.487   0.857 -0.7961 -0.0115  0.1558
  394TIP3    H1 1139   1.980   0.421   0.789  2.0557 -0.6793  0.3085
  394TIP3    H2 1140   1.971   0.570   0.813 -3.9890 -0.7193 -0.1442
  395TIP3   OH2 1141   5.067   0.275   6.086  0.2774 -0.2108  0.7402
  395TIP3    H1 1142   5.130   0.217   6.128  0.4439 -0.6359 -0.0725
  395TIP3    H2 1143   5.069   0.250   5.994  1.2848  1.9410  0.1207
  396TIP3   OH2 1144   2.168   1.769   2.060  0.2375 -0.3673 -0.0207
  396TIP3    H1 1145   2.148   1.814   2.142  1.5038 -0.7219  0.5067
  396TIP3    H2 1146   2.182   1.839   1.996 -0.7747 -0.0921  0.0405
  397TIP3   OH2 1147   0.215   5.472   4.407 -0.5349  0.3170  0.4461
  397TIP3    H1 1148   0.140   5.483   4.465 -2.2974  0.7126 -1.7891
  397TIP3    H2 1149   0.285   5.523   4.448 -1.6136  0.4031  2.2880
  398TIP3   OH2 1150   6.214   2.873   4.481 -0.2306 -0.4170 -0.4628
  398TIP3    H1 1151   6.227   2.867   4.576 -1.2498 -0.1217 -0.3014
  398TIP3    H2 1152   6.172   2.958   4.468 -1.2737 -1.0138 -1.0469
  399TIP3   OH2 1153   5.571   0.757   5.900  0.9703 -0.0717  0.1398
  399TIP3    H1 1154   5.644   0.807   5.936  0.6124 -0.2254  1.0984
  399TIP3    H2 1155   5.612   0.676   5.869  1.1148 -0.5095  1.4081
  400TIP3   OH2 1156   4.529   3.842   1.925  0.0183 -0.1784  0.1566
  400TIP3    H1 1157   4.596   3.779   1.901 -0.2072  0.0413 -1.1030
  400TIP3    H2 1158   4.567   3.889   2.000  1.3138  0.0068 -0.5807
  401TIP3   OH2 1159   6.557   3.447   2.910  0.3323 -0.2195  0.3302
  401TIP3    H1 1160   6.566   3.473   3.002  0.7725  0.6953  0.0446
  401TIP3    H2 1161   6.639   3.475   2.869 -0.8219  1.6843 -0.8497
  402TIP3   OH2 1162   2.464   6.928   0.802 -0.6617 -0.0969  0.9743
  402TIP3    H1 1163   2.403   6.855   0.812  0.5048 -1.0435  1.4697
  402TIP3    H2 1164   2.526   6.917   0.874  2.1330 -1.2156 -1.3933
  403TIP3   OH2 1165   5.148   0.084   2.667  0.0025 -0.0468  0.1424
  403TIP3    H1 1166   5.222   0.055   2.614  0.7890 -1.3796  1.8459
  403TIP3    H2 1167   5.189   0.123   2.745 -1.0915  0.0907  0.6656
  404TIP3   OH2 1168   6.572   1.807   6.384  0.1014 -0.9121  0.4716
  404TIP3    H1 1169   6.479   1.794   6.402 -0.4767  1.3839 -0.5093
  404TIP3    H2 1170   6.586   1.900   6.402  1.8755 -0.9072 -0.7884
  405TIP3   OH2 1171   2.912   5.514   6.297  0.4761 -0.2939 -0.2264
  405TIP3    H1 1172   2.849   5.570   6.251  1.4029  0.8932 -0.1165
  405TIP3    H2 1173   2.860   5.468   6.363 -0.6357 -0.9886 -1.5470
  406TIP3   OH2 1174   3.251   0.496   3.767  0.0331  0.5583 -0.2896
  406TIP3    H1 1175   3.290   0.547   3.838 -0.2431  0.4568 -0.0622
  406TIP3    H2 1176   3.188   0.556   3.726  0.7817  0.8873 -0.9757
  407TIP3   OH2 1177   1.510   2.413   6.464 -0.1499 -0.2675  0.3620
  407TIP3    H1 1178   1.424   2.452   6.447 -0.9960 -1.9531  0.5487
  407TIP3    H2 1179   1.518   2.413   6.559  0.5216  0.7931  0.3198
  408TIP3   OH2 1180   0.430   0.607   0.223  0.1167  0.2479  0.2016
  408TIP3    H1 1181   0.409   0.683   0.169 -0.6979  0.0516  0.2190
  408TIP3    H2 1182   0.432   0.534   0.162  0.6578  0.2403  0.2224
  409TIP3   OH2 1183   3.051   7.723   2.418 -0.1321 -0.0023 -0.4648
  409TIP3    H1 1184   3.081   7.643   2.374 -1.6632  0.2643 -2.0875
  409TIP3    H2 1185   3.119   7.788   2.399 -0.4495 -0.0715 -1.9384
  410TIP3   OH2 1186   1.476   1.777   3.342 -0.2473  0.0094  0.0329
  410TIP3    H1 1187   1.435   1.782   3.256 -2.1685  0.1832  0.9026
  410TIP3    H2 1188   1.446   1.693   3.378 -0.1470  0.3228  0.8644
  411TIP3   OH2 1189   1.169   0.495   3.936 -0.0008  0.3682  0.1198
  411TIP3    H1 1190   1.145   0.582   3.969 -1.8843  0.0509 -0.3133
  411TIP3    H2 1191   1.115   0.483   3.858 -1.0661 -1.8702  1.1200
  412TIP3   OH2 1192   8.176   2.236   3.307 -0.3324  0.2726  0.3482
  412TIP3    H1 1193   8.176   2.152   3.261 -0.0475  0.9992 -1.0068
  412TIP3    H2 1194   8.263   2.241   3.347  0.0670  0.4240 -0.5205
  413TIP3   OH2 1195   3.848   7.278   5.804 -0.1972 -0.0506 -0.4451
  413TIP3    H1 1196   3.942   7.268   5.791 -0.0101  1.2466 -0.2297
  413TIP3    H2 1197   3.815   7.189   5.809  0.9016 -0.5272 -1.3406
  414TIP3   OH2 1198   3.557   6.793   4.683 -0.5155  0.0981  0.1773
  414TIP3    H1 1199   3.603   6.781   4.600  3.1123  1.6637  1.7385
  414TIP3    H2 1200   3.562   6.708   4.727  0.1445  0.0048 -0.0712
  415TIP3   OH2 1201   7.056   5.152   0.719  0.0573  0.5094 -0.2481
  415TIP3    H1 1202   7.087   5.065   0.695  0.0554  0.5884 -0.5518
  415TIP3    H2 1203   7.135   5.200   0.745  0.1904  0.6916 -0.9621
  416TIP3   OH2 1204   4.035   0.364   2.129  0.0729 -0.4713 -0.0104
  416TIP3    H1 1205   4.118   0.332   2.093  0.6423 -0.9371  1.6448
  416TIP3    H2 1206   3.984   0.285   2.147 -0.7463 -0.1936 -0.9415
  417TIP3   OH2 1207   3.737   1.091   5.167  0.3226  0.3000 -0.3363
  417TIP3    H1 1208   3.807   1.026   5.165  0.8120  0.8142 -0.2399
  417TIP3    H2 1209   3.781   1.172   5.191 -0.4312  0.4784  0.4685
  418TIP3   OH2 1210   2.298   0.712   5.485  0.6326 -0.0728  0.8384
  418TIP3    H1 1211   2.216   0.714   5.435  0.6211  3.6214  0.7182
  418TIP3    H2 1212   2.270   0.706   5.576  0.0114  2.4928  0.8992
  419TIP3   OH2 1213   7.372   6.621   0.694 -0.0568 -0.0053 -0.5396
  419TIP3    H1 1214   7.424   6.641   0.616 -0.8677 -1.3841 -1.4837
  419TIP3    H2 1215   7.302   6.685   0.693  0.1129  0.1774 -0.7723
  420TIP3   OH2 1216   0.078   0.434   1.190  0.1749  0.6469 -0.1226
  420TIP3    H1 1217   0.086   0.476   1.276  0.8012  1.0582 -0.3807
  420TIP3    H2 1218   0.031   0.498   1.137 -0.7828  0.1314  0.0855
  421TIP3   OH2 1219   7.809   2.592   5.761 -1.1256 -0.0193  0.5804
  421TIP3    H1 1220   7.723   2.558   5.783 -1.5770  0.8454  0.2220
  421TIP3    H2 1221   7.796   2.636   5.677 -1.1809  3.0667  2.0372
  422TIP3   OH2 1222   3.344   6.973   0.178  0.5493  0.4171  0.0698
  422TIP3    H1 1223   3.320   7.005   0.091 -1.0397 -3.1100 -0.9936
  422TIP3    H2 1224   3.270   6.995   0.234  1.1071  1.7493  0.3179
  423TIP3   OH2 1225   4.216   1.921   4.173  0.0367 -0.3100 -0.1337
  423TIP3    H1 1226   4.229   1.945   4.081  1.2684  0.3768  0.2014
  423TIP3    H2 1227   4.292   1.957   4.219  0.5616 -2.5287  0.8482
  424TIP3   OH2 1228   6.037   4.726   0.874 -0.1420 -0.7250 -0.4591
  424TIP3    H1 1229   6.113   4.671   0.894 -0.6003 -0.8605  1.0379
  424TIP3    H2 1230   5.962   4.668   0.885 -0.4861 -0.4902 -1.5587
  425TIP3   OH2 1231   5.980   6.581   2.572  0.3675 -0.5179  0.4465
  425TIP3    H1 1232   6.031   6.513   2.616  1.7567 -1.1359 -1.9617
  425TIP3    H2 1233   5.893   6.574   2.612  1.3838 -1.3054  2.7209
  426TIP3   OH2 1234   7.246   5.043   2.225  0.4759 -0.4505  0.2497
  426TIP3    H1 1235   7.183   5.061   2.295  1.0787 -3.1073  1.6284
  426TIP3    H2 1236   7.204   4.975   2.173  1.1402 -0.3873 -0.3840
  427TIP3   OH2 1237   7.752   1.064   5.575  0.4688 -0.4776 -0.2828
  427TIP3    H1 1238   7.812   1.003   5.617 -0.1267 -0.9743 -0.1459
  427TIP3    H2 1239   7.669   1.017   5.569 -0.1188  0.4573  0.2051
  428TIP3   OH2 1240   0.411   7.632   6.724  0.7784 -0.3353 -0.1433
  428TIP3    H1 1241   0.431   7.660   6.634  2.1709  2.0100  0.8062
  428TIP3    H2 1242   0.402   7.714   6.773  1.8717 -1.5484  2.2395
  429TIP3   OH2 1243   7.352   2.996   4.438 -0.5161  0.1909  0.2181
  429TIP3    H1 1244   7.309   3.068   4.391  0.9196  2.2430  1.8134
  429TIP3    H2 1245   7.336   3.016   4.530  0.6809 -1.0539  0.7251
  430TIP3   OH2 1246   4.738   4.335   2.282 -0.2592 -0.2788 -0.1034
  430TIP3    H1 1247   4.807   4.310   2.343 -1.5217  1.0078  1.9562
  430TIP3    H2 1248   4.666   4.274   2.300 -0.0401 -1.0764 -1.6635
  431TIP3   OH2 1249   6.901   7.763   5.240 -0.5689  0.0616  0.0956
  431TIP3    H1 1250   6.957   7.727   5.170 -0.5469  0.5339 -0.1361
  431TIP3    H2 1251   6.939   7.849   5.258 -0.3281 -0.2238  0.9801
  432TIP3   OH2 1252   7.629   5.324   1.881  0.1651  0.1461 -0.3364
  432TIP3    H1 1253   7.555   5.291   1.932  1.4707  0.7042  2.0624
  432TIP3    H2 1254   7.669   5.246   1.843 -0.2856 -0.4051  0.2920
  433TIP3   OH2 1255   5.060   4.982   1.928 -0.1953  0.0450 -0.2536
  433TIP3    H1 1256   5.040   5.060   1.876 -1.7251 -0.3961 -0.3485
  433TIP3    H2 1257   5.115   4.929   1.870  0.2178  0.6939 -0.4729
  434TIP3   OH2 1258   4.713   6.216   4.219 -0.2668  0.3784 -0.0821
  434TIP3    H1 1259   4.712   6.150   4.288 -0.6075 -0.8630 -1.2218
  434TIP3    H2 1260   4.802   6.251   4.220 -0.3026  0.4768  1.0488
  435TIP3   OH2 1261   2.126   3.977   6.219  0.1726 -0.3521  0.2386
  435TIP3    H1 1262   2.085   4.042   6.162 -0.7699 -0.8773  0.2960
  435TIP3    H2 1263   2.108   4.008   6.308 -0.4846 -0.8002  0.2693
  436TIP3   OH2 1264   5.226   5.436   0.739  0.4088  0.2858  0.0191
  436TIP3    H1 1265   5.304   5.388   0.769 -0.8435 -1.5233  0.5701
  436TIP3    H2 1266   5.160   5.419   0.805 -0.1569  2.8180  0.1927
  437TIP3   OH2 1267   7.916   1.650   1.146  0.1963 -0.1746  0.3113
  437TIP3    H1 1268   7.938   1.665   1.054  0.5990  0.1961  0.4613
  437TIP3    H2 1269   7.940   1.559   1.161 -2.3922 -1.1094 -0.6420
  438TIP3   OH2 1270   8.191   3.084   0.396  0.6333 -0.1385  0.3368
  438TIP3    H1 1271   8.191   2.994   0.428 -0.6205 -0.0595  0.6323
  438TIP3    H2 1272   8.171   3.137   0.474  2.2114  0.4913  0.3500
  439TIP3   OH2 1273   4.322   5.400   5.641 -0.3442  0.0294  0.0272
  439TIP3    H1 1274   4.343   5.445   5.723 -0.5693  0.0105  0.0969
  439TIP3    H2 1275   4.229   5.419   5.626 -0.5555 -0.7451  0.2753
  440TIP3   OH2 1276   7.414   2.387   1.909 -0.4887  0.0792 -0.0816
  440TIP3    H1 1277   7.340   2.330   1.928 -1.5485  1.1419 -0.8745
  440TIP3    H2 1278   7.407   2.459   1.971  0.5144 -0.3227  0.5359
  441TIP3   OH2 1279   6.562   6.502   4.817 -0.0385  0.9250 -0.2794
  441TIP3    H1 1280   6.472   6.482   4.842 -0.6576  2.8523 -0.7616
  441TIP3    H2 1281   6.559   6.514   4.722  0.9325  0.1015 -0.4256
  442TIP3   OH2 1282   5.756   3.943   2.528 -0.7575 -0.1576 -0.5624
  442TIP3    H1 1283   5.748   4.010   2.460  0.5322 -0.6733 -1.2690
  442TIP3    H2 1284   5.849   3.945   2.552 -0.1952 -2.9567 -2.0191
  443TIP3   OH2 1285   4.337   3.920   5.135  0.3927  0.4514 -0.3068
  443TIP3    H1 1286   4.276   3.847   5.146 -0.1463  0.8854 -0.3521
  443TIP3    H2 1287   4.316   3.979   5.207  0.5620  0.7399 -0.4948
  444TIP3   OH2 1288   1.963   5.887   4.409 -0.0435 -0.2227  0.2858
  444TIP3    H1 1289   1.891   5.869   4.348 -0.8302  2.4330  0.2878
  444TIP3    H2 1290   2.040   5.892   4.353 -0.3551 -0.2419 -0.1536
  445TIP3   OH2 1291   6.770   6.604   3.344  0.0470  0.1340 -0.4974
  445TIP3    H1 1292   6.676   6.590   3.339 -0.0139  0.3852 -0.0406
  445TIP3    H2 1293   6.804   6.562   3.265 -0.3494 -0.7270 -0.2210
  446TIP3   OH2 1294   8.114   5.835   3.306  0.0077 -0.2800  0.2770
  446TIP3    H1 1295   8.149   5.833   3.217  1.2352 -1.2900  0.7576
  446TIP3    H2 1296   8.047   5.903   3.303  2.0951  1.8916 -0.6425
  447TIP3   OH2 1297   3.689   1.003   2.081  0.1324 -0.0728  0.1438
  447TIP3    H1 1298   3.725   1.088   2.106 -1.0490  0.6116 -0.4357
  447TIP3    H2 1299   3.659   0.964   2.163  1.7994 -0.5105  0.5966
  448TIP3   OH2 1300   1.649   7.063   5.535 -0.3568  0.0042  0.3548
  448TIP3    H1 1301   1.696   7.005   5.595  2.9810  1.8518 -0.2169
  448TIP3    H2 1302   1.682   7.039   5.448 -2.8366 -0.6122 -0.5020
  449TIP3   OH2 1303   3.622   2.332   0.505 -0.2447 -0.3011  0.2885
  449TIP3    H1 1304   3.681   2.382   0.449 -1.8266 -0.0839 -1.2849
  449TIP3    H2 1305   3.561   2.290   0.445 -2.7065  0.7770  1.8087
  450TIP3   OH2 1306   4.033   1.471   1.810 -0.3111 -0.7019 -0.1530
  450TIP3    H1 1307   4.124   1.475   1.840 -0.2161  0.9813 -0.5879
  450TIP3    H2 1308   4.034   1.513   1.724 -1.1999 -2.3029 -0.9865
  451TIP3   OH2 1309   6.211   6.976   2.617 -0.0310  0.7087 -0.1091
  451TIP3    H1 1310   6.207   7.072   2.623  0.0463  0.6360  2.8850
  451TIP3    H2 1311   6.124   6.946   2.644  0.9382 -0.0065  2.6275
  452TIP3   OH2 1312   1.605   5.339   0.305  0.0914  0.5447  0.3279
  452TIP3    H1 1313   1.557   5.296   0.375 -0.7982  1.4260  0.2898
  452TIP3    H2 1314   1.551   5.324   0.227  0.5899  0.3711  0.0158
  453TIP3   OH2 1315   7.466   5.759   4.503 -0.6073 -0.7907 -0.2915
  453TIP3    H1 1316   7.393   5.733   4.448 -2.1729 -0.2329  1.4062
  453TIP3    H2 1317   7.518   5.679   4.514 -0.6263 -1.0643 -1.9455
  454TIP3   OH2 1318   7.225   7.394   3.234 -0.4764 -0.2988 -0.3461
  454TIP3    H1 1319   7.251   7.378   3.325  1.6868  1.1849 -0.6251
  454TIP3    H2 1320   7.130   7.399   3.237 -0.4703 -0.5546  1.7812
  455TIP3   OH2 1321   2.750   2.668   3.718 -0.8916  0.0937  0.2746
  455TIP3    H1 1322   2.763   2.589   3.666 -1.4205  0.3005 -0.1771
  455TIP3    H2 1323   2.815   2.661   3.788  0.3863  0.1860 -0.8432
  456TIP3   OH2 1324   1.416   1.711   6.025  0.2412 -0.4870 -0.3279
  456TIP3    H1 1325   1.327   1.738   6.003 -0.4038 -2.0425  0.2148
  456TIP3    H2 1326   1.441   1.768   6.098  0.2477  0.8894 -1.3716
  457TIP3   OH2 1327   7.592   4.115   6.427  0.0024  0.4470  0.2280
  457TIP3    H1 1328   7.613   4.193   6.478 -0.3364  0.4767  0.3240
  457TIP3    H2 1329   7.615   4.042   6.485 -1.7513  0.4702  1.0280
  458TIP3   OH2 1330   3.306   2.594   6.233  0.2196  0.2723  0.3673
  458TIP3    H1 1331   3.346   2.555   6.155  1.3146 -0.3899  1.2266
  458TIP3    H2 1332   3.293   2.686   6.209 -0.6454 -0.1833 -1.0239
  459TIP3   OH2 1333   3.374   2.623   2.028  0.4454  0.1127 -0.0362
  459TIP3    H1 1334   3.352   2.605   1.937  1.0242 -0.2637 -0.1047
  459TIP3    H2 1335   3.452   2.571   2.045  0.2474  0.0417  0.7257
  460TIP3   OH2 1336   4.758   3.259   5.125  0.2935 -0.6940 -0.8136
  460TIP3    H1 1337   4.792   3.197   5.189  0.9250  0.2744 -0.1819
  460TIP3    H2 1338   4.683   3.300   5.168  0.3122 -0.5063 -0.9578
  461TIP3   OH2 1339   7.703   1.793   3.446  0.1420 -0.2136  0.2560
  461TIP3    H1 1340   7.715   1.879   3.485 -1.8523  0.5990 -0.7393
  461TIP3    H2 1341   7.745   1.732   3.506  1.3859  1.4205  1.1013
  462TIP3   OH2 1342   5.872   5.649   1.097 -0.1561 -0.5138 -0.3235
  462TIP3    H1 1343   5.856   5.641   1.191  1.7792  1.5501  0.2655
  462TIP3    H2 1344   5.947   5.591   1.081  1.7600  1.6611  0.1982
  463TIP3   OH2 1345   7.779   1.408   6.685  0.0497 -0.5238  0.0596
  463TIP3    H1 1346   7.780   1.381   6.777 -0.4143 -0.8876 -0.0345
  463TIP3    H2 1347   7.763   1.502   6.688  1.2337 -0.3133  0.3803
  464TIP3   OH2 1348   1.650   0.295   2.220 -0.0228 -0.1155  0.2428
  464TIP3    H1 1349   1.563   0.279   2.256 -0.0252  0.7774  0.6458
  464TIP3    H2 1350   1.636   0.300   2.125 -0.0017 -2.5743  0.0216
  465TIP3   OH2 1351   2.166   4.055   2.809 -0.0240  0.0577  0.5831
  465TIP3    H1 1352   2.255   4.067   2.843  0.5826  0.7852 -1.1615
  465TIP3    H2 1353   2.178   4.014   2.723 -1.4096 -0.2285  0.5014
  466TIP3   OH2 1354   1.508   2.865   3.286  0.1913 -0.5100 -0.1707
  466TIP3    H1 1355   1.483   2.898   3.372 -0.1186  0.5069 -0.6367
  466TIP3    H2 1356   1.507   2.942   3.230 -1.4481 -1.4475 -1.5061
  467TIP3   OH2 1357   5.056   4.675   2.090  0.2173 -0.2416 -0.1265
  467TIP3    H1 1358   5.108   4.730   2.149  0.1657  0.4906 -0.7513
  467TIP3    H2 1359   4.988   4.637   2.147 -0.3405  1.1041  0.1600
  468TIP3   OH2 1360   5.334   6.923   2.392 -0.2992 -0.5497 -0.2295
  468TIP3    H1 1361   5.417   6.970   2.402 -0.3537 -0.1553 -1.5725
  468TIP3    H2 1362   5.268   6.982   2.430 -0.0505 -0.5986  0.2839
  469TIP3   OH2 1363   1.613   5.409   4.003 -0.4313  0.1181 -0.4844
  469TIP3    H1 1364   1.636   5.456   4.083 -1.0132  2.7355 -1.7245
  469TIP3    H2 1365   1.595   5.319   4.032 -0.6339  0.9496  2.3046
  470TIP3   OH2 1366   3.537   3.418   5.425 -0.4955 -0.4992  0.2783
  470TIP3    H1 1367   3.456   3.385   5.465 -0.6764  0.0303  0.3611
  470TIP3    H2 1368   3.546   3.366   5.345 -2.6080  1.4479 -1.3720
  471TIP3   OH2 1369   3.635   3.435   1.300 -0.0824 -0.2336  0.4353
  471TIP3    H1 1370   3.568   3.381   1.257 -0.0869  0.2451 -0.1797
  471TIP3    H2 1371   3.674   3.378   1.365 -0.8025 -0.6552  0.5086
  472TIP3   OH2 1372   1.899   7.409   0.554  0.1944 -0.5129 -0.0893
  472TIP3    H1 1373   1.827   7.467   0.531 -1.4742 -1.4479  2.3907
  472TIP3    H2 1374   1.954   7.461   0.613 -0.8284 -1.0961  1.4331
  473TIP3   OH2 1375   2.051   0.291   6.455 -0.2074 -0.0393 -0.5109
  473TIP3    H1 1376   2.072   0.346   6.380 -1.3065 -1.4243 -1.9018
  473TIP3    H2 1377   2.071   0.345   6.531  0.0634  1.7492 -1.7987
  474TIP3   OH2 1378   0.646   3.575   1.743  0.1956  0.2009 -0.4903
  474TIP3    H1 1379   0.724   3.626   1.723  0.3669  0.8370  1.5376
  474TIP3    H2 1380   0.666   3.533   1.827 -1.4438 -0.0061 -0.1731
  475TIP3   OH2 1381   8.206   6.571   2.110  0.1715  0.1394 -0.1089
  475TIP3    H1 1382   8.150   6.575   2.032  0.1606  0.8704 -0.0705
  475TIP3    H2 1383   8.208   6.661   2.143  0.6092 -0.0608  0.4314
  476TIP3   OH2 1384   4.316   5.081   2.374 -0.3327 -0.2047 -0.2105
  476TIP3    H1 1385   4.222   5.097   2.383 -0.2826 -0.0569  0.0610
  476TIP3    H2 1386   4.338   5.116   2.288 -0.8572 -1.8301 -1.0413
  477TIP3   OH2 1387   3.999   6.793   3.983  0.1355  0.9640 -0.2132
  477TIP3    H1 1388   4.007   6.874   3.933 -1.1119  1.2474  0.0180
  477TIP3    H2 1389   4.000   6.724   3.916  0.9365  1.1699 -0.4281
  478TIP3   OH2 1390   4.705   4.411   3.466 -0.2655  0.7043  0.1623
  478TIP3    H1 1391   4.633   4.427   3.404 -0.5985  0.0309  0.3693
  478TIP3    H2 1392   4.694   4.320   3.492  2.4107 -0.4417 -2.1133
  479TIP3   OH2 1393   5.754   0.512   0.347  0.2918 -0.2873  0.2315
  479TIP3    H1 1394   5.714   0.449   0.288  0.4826  0.9390 -1.2678
  479TIP3    H2 1395   5.848   0.499   0.335  0.3475  0.8196 -0.7541
  480TIP3   OH2 1396   3.325   6.235   6.538 -0.4415 -0.2142 -0.3141
  480TIP3    H1 1397   3.332   6.140   6.540 -1.7760 -0.3569 -0.9928
  480TIP3    H2 1398   3.314   6.256   6.445  1.4974  0.7667 -0.3725
  481TIP3   OH2 1399   2.983   0.598   3.393 -0.3554  0.1695  0.2278
  481TIP3    H1 1400   3.035   0.637   3.463  1.2823 -1.5207  0.0345
  481TIP3    H2 1401   3.041   0.598   3.317 -0.8531 -1.1210 -0.1818
  482TIP3   OH2 1402   2.451   6.823   0.356 -0.3197 -0.3417  0.2647
  482TIP3    H1 1403   2.514   6.849   0.423 -1.1820 -0.4563  1.1415
  482TIP3    H2 1404   2.426   6.734   0.381 -1.9458  0.2365  0.8200
  483TIP3   OH2 1405   2.854   2.940   6.214  0.1088 -0.0132 -0.0775
  483TIP3    H1 1406   2.924   2.918   6.153 -0.2317  1.2813 -0.9780
  483TIP3    H2 1407   2.899   2.965   6.295  0.6952  0.7856 -0.6387
  484TIP3   OH2 1408   6.417   5.467   5.444 -0.6156 -0.2365  0.2297
  484TIP3    H1 1409   6.485   5.531   5.467 -2.7306  1.9724  0.7863
  484TIP3    H2 1410   6.371   5.450   5.527 -0.1797 -2.4563  0.0652
  485TIP3   OH2 1411   0.124   6.508   5.252 -0.0605  0.8397  0.6225
  485TIP3    H1 1412   0.050   6.529   5.309 -0.7400  0.0487  0.0545
  485TIP3    H2 1413   0.170   6.438   5.298 -2.3649 -2.0459 -1.1100
  486TIP3   OH2 1414   1.598   3.109   0.776  0.3048 -0.1471 -0.2920
  486TIP3    H1 1415   1.649   3.166   0.718 -0.3562 -0.3996 -1.1373
  486TIP3    H2 1416   1.519   3.088   0.727 -0.3583 -0.2311  0.7761
  487TIP3   OH2 1417   4.061   5.368   2.355  0.1816 -0.6699 -0.0973
  487TIP3    H1 1418   4.149   5.379   2.392  0.3181 -0.0124 -0.6018
  487TIP3    H2 1419   4.012   5.323   2.424  0.2800  0.9959  1.1077
  488TIP3   OH2 1420   4.768   4.020   5.206  1.1670 -0.2811  0.4410
  488TIP3    H1 1421   4.692   4.042   5.260 -0.1736 -1.0670 -1.0284
  488TIP3    H2 1422   4.799   4.105   5.173 -0.9554 -0.0676 -1.2904
  489TIP3   OH2 1423   5.551   7.384   4.936 -0.8218 -0.2019  0.0333
  489TIP3    H1 1424   5.478   7.430   4.895 -0.1042  0.7390 -0.2390
  489TIP3    H2 1425   5.556   7.421   5.025 -1.3533 -1.0636  0.4407
  490TIP3   OH2 1426   6.349   1.491   4.619  0.1266 -0.4574 -0.4777
  490TIP3    H1 1427   6.433   1.467   4.657  0.6245  1.4785 -0.2645
  490TIP3    H2 1428   6.370   1.519   4.530 -0.3582 -0.3422 -0.5599
  491TIP3   OH2 1429   4.063   2.107   1.960 -0.3303 -0.0341  0.1792
  491TIP3    H1 1430   4.087   2.017   1.978  2.3496  0.7933  1.2831
  491TIP3    H2 1431   4.028   2.140   2.043  0.0748  0.3193  0.2138
  492TIP3   OH2 1432   3.321   4.296   4.597  0.0312 -0.5016  0.7420
  492TIP3    H1 1433   3.262   4.262   4.664 -2.7828 -0.5809 -1.6154
  492TIP3    H2 1434   3.365   4.218   4.562  1.1894 -0.5021  2.0864
  493TIP3   OH2 1435   6.766   6.915   5.141 -0.0750 -0.1952  0.0806
  493TIP3    H1 1436   6.704   6.915   5.068  0.1536 -0.6875 -0.1151
  493TIP3    H2 1437   6.808   7.001   5.137  1.2890 -0.8960 -1.5306
  494TIP3   OH2 1438   4.077   7.104   1.968 -0.0578  0.4222 -0.4374
  494TIP3    H1 1439   4.094   7.198   1.974  0.3547  0.4889 -2.0239
  494TIP3    H2 1440   4.007   7.097   1.903  0.7148 -0.4114 -1.2190
  495TIP3   OH2 1441   1.904   7.451   3.842 -0.6110 -0.4072  0.2230
  495TIP3    H1 1442   1.929   7.397   3.767 -1.1232 -0.7592  0.2967
  495TIP3    H2 1443   1.808   7.446   3.844 -0.6730  0.5303  0.2152
  496TIP3   OH2 1444   5.606   2.751   0.363  0.4488  0.0127  0.0224
  496TIP3    H1 1445   5.525   2.720   0.322  0.4181  0.6823 -0.4414
  496TIP3    H2 1446   5.636   2.677   0.416 -1.8464  0.5999  2.2943
  497TIP3   OH2 1447   1.164   1.444   3.695 -0.9555  0.3868  0.4296
  497TIP3    H1 1448   1.242   1.401   3.731 -1.3524 -0.4471  0.3064
  497TIP3    H2 1449   1.140   1.510   3.761  1.8022  3.0684 -0.9827
  498TIP3   OH2 1450   2.233   0.274   4.457 -0.0597 -0.1769  0.8609
  498TIP3    H1 1451   2.140   0.289   4.473 -0.2814 -0.8758  0.2661
  498TIP3    H2 1452   2.254   0.332   4.384 -0.5328 -1.5013 -0.3667
  499TIP3   OH2 1453   5.399   0.743   0.190  0.1588  0.4515 -0.2762
  499TIP3    H1 1454   5.390   0.774   0.100 -1.3030 -1.1157 -0.7115
  499TIP3    H2 1455   5.313   0.710   0.213 -0.1618  2.8477  2.5357
  500TIP3   OH2 1456   0.424   0.015   4.800 -0.1306 -0.1139 -0.0103
  500TIP3    H1 1457   0.337  -0.011   4.828 -0.4050 -0.7502 -1.3616
  500TIP3    H2 1458   0.441   0.097   4.846  0.3773 -2.0753  3.6912
  501TIP3   OH2 1459   2.698   0.406   6.639 -0.3576  0.0946 -0.2083
  501TIP3    H1 1460   2.723   0.460   6.714  0.5866 -0.0052 -0.4348
  501TIP3    H2 1461   2.778   0.358   6.616 -0.2102  1.1635 -2.1520
  502TIP3   OH2 1462   6.355   2.488   0.552 -0.1048  0.1117  0.4032
  502TIP3    H1 1463   6.357   2.452   0.463 -0.1211  0.1313  0.3950
  502TIP3    H2 1464   6.268   2.462   0.585 -0.3568  0.6627  0.1844
  503TIP3   OH2 1465   6.205   3.031   6.079  0.2311 -0.0812  0.0743
  503TIP3    H1 1466   6.158   3.069   6.152 -0.7038  0.4655 -0.7826
  503TIP3    H2 1467   6.297   3.028   6.107  0.0210  0.9568  0.9046
  504TIP3   OH2 1468   0.186   1.319   6.267 -0.2684 -0.0586 -1.1214
  504TIP3    H1 1469   0.210   1.369   6.188 -0.1773  0.0164 -1.0469
  504TIP3    H2 1470   0.092   1.308   6.260 -0.2468 -0.1380 -1.2916
  505TIP3   OH2 1471   3.018   7.565   2.999 -0.5506 -0.2034 -0.1151
  505TIP3    H1 1472   2.965   7.641   2.978  1.0906  1.3851  1.1736
  505TIP3    H2 1473   2.957   7.491   2.998 -2.5346  1.3614  0.2195
  506TIP3   OH2 1474   5.063   5.997   0.120  0.0824 -0.1622  0.5955
  506TIP3    H1 1475   5.143   6.014   0.071  0.8521 -0.5315  1.7055
  506TIP3    H2 1476   5.028   6.085   0.139  0.1422 -0.0047  0.0033
  507TIP3   OH2 1477   1.237   3.712   1.322 -0.4080 -0.7030  0.0274
  507TIP3    H1 1478   1.315   3.714   1.378 -1.4592 -1.1336  1.5519
  507TIP3    H2 1479   1.272   3.706   1.233  1.3072 -0.1256  0.6296
  508TIP3   OH2 1480   7.123   7.256   4.961 -0.2244  0.0011  0.0066
  508TIP3    H1 1481   7.159   7.345   4.968 -0.7536  0.4330 -1.9593
  508TIP3    H2 1482   7.142   7.231   4.870 -2.0342 -1.0229 -0.1212
  509TIP3   OH2 1483   2.286   7.167   2.068  0.3479 -0.2898 -0.0271
  509TIP3    H1 1484   2.356   7.224   2.036 -0.3918  0.8174  0.2326
  509TIP3    H2 1485   2.231   7.225   2.121  0.3674 -1.5906  1.4809
  510TIP3   OH2 1486   7.500   5.266   1.249 -0.3554  0.0406 -0.3880
  510TIP3    H1 1487   7.441   5.269   1.325  1.4775 -0.0204  1.1222
  510TIP3    H2 1488   7.525   5.357   1.234 -1.6117  0.1961 -1.7166
  511TIP3   OH2 1489   0.470   0.605   4.395 -0.2940  0.4170 -0.5902
  511TIP3    H1 1490   0.451   0.563   4.312 -0.7649  0.7317 -0.6479
  511TIP3    H2 1491   0.524   0.542   4.443 -0.1566  0.1688 -1.0654
  512TIP3   OH2 1492   1.149   0.590   2.950  0.2797  0.0437  0.4992
  512TIP3    H1 1493   1.236   0.549   2.941 -0.4160 -1.6463  1.0559
  512TIP3    H2 1494   1.131   0.627   2.864  1.4200  0.1440  0.2863
  513TIP3   OH2 1495   2.030   6.730   0.860 -0.2691  0.0498 -0.0740
  513TIP3    H1 1496   2.015   6.804   0.801  2.6107  2.2382  1.6311
  513TIP3    H2 1497   2.112   6.692   0.830  0.1123 -0.1534  1.1550
  514TIP3   OH2 1498   3.238   6.575   6.701 -0.1132 -0.7423  0.0979
  514TIP3    H1 1499   3.229   6.483   6.728 -1.8605  0.2721  3.5629
  514TIP3    H2 1500   3.332   6.588   6.691  0.1411 -3.0107 -1.2217
  515TIP3   OH2 1501   2.550   5.947   4.233 -0.5989  0.0349 -0.6393
  515TIP3    H1 1502   2.622   5.966   4.294 -0.5600 -0.0150 -0.6693
  515TIP3    H2 1503   2.505   6.031   4.223  0.2099  0.3888 -1.5989
  516TIP3   OH2 1504   4.322   5.114   0.625  0.1190 -0.2925  0.2965
  516TIP3    H1 1505   4.361   5.061   0.695 -0.2467 -1.3471 -0.2774
  516TIP3    H2 1506   4.235   5.076   0.613  0.1194 -0.0082 -0.6196
  517TIP3   OH2 1507   5.397   6.058   4.417 -0.0202  0.6475  0.2570
  517TIP3    H1 1508   5.383   6.151   4.430  1.2463  0.5696  2.5544
  517TIP3    H2 1509   5.491   6.045   4.428 -0.1155 -0.8636 -0.3897
  518TIP3   OH2 1510   0.866   3.389   4.491  0.0947  0.0860  0.4229
  518TIP3    H1 1511   0.881   3.411   4.583  1.9467 -0.2050  0.2147
  518TIP3    H2 1512   0.860   3.293   4.490 -0.5012  0.1201  0.3042
  519TIP3   OH2 1513   5.894   3.220   1.294 -0.0144 -0.3494  0.1159
  519TIP3    H1 1514   5.921   3.291   1.236  0.9813 -0.6646  0.1743
  519TIP3    H2 1515   5.870   3.149   1.234  0.4645 -0.4785  0.0689
  520TIP3   OH2 1516   4.988   2.367   1.431 -0.1442  0.5599  0.1863
  520TIP3    H1 1517   5.007   2.460   1.444  0.0491  0.6442 -0.6447
  520TIP3    H2 1518   4.893   2.360   1.444 -0.0289  0.7080  1.1479
  521TIP3   OH2 1519   4.146   4.327   1.860 -0.2806  0.0662 -0.4815
  521TIP3    H1 1520   4.236   4.318   1.893 -0.2748 -1.1147 -0.7729
  521TIP3    H2 1521   4.130   4.421   1.861  0.3869  0.1995  1.1046
  522TIP3   OH2 1522   7.904   6.527   2.629 -0.0471  0.0426 -0.4447
  522TIP3    H1 1523   7.853   6.476   2.566  1.6706  0.4760 -2.2961
  522TIP3    H2 1524   7.930   6.605   2.581  1.0258  0.5850  0.9473
  523TIP3   OH2 1525   4.190   3.299   0.209 -0.5578  1.1452 -0.3670
  523TIP3    H1 1526   4.196   3.267   0.299 -0.1068 -1.1906 -1.1480
  523TIP3    H2 1527   4.155   3.387   0.217  2.2981  2.2154  2.2847
  524TIP3   OH2 1528   1.466   4.507   1.196  0.4492 -0.1977  0.2292
  524TIP3    H1 1529   1.375   4.505   1.225  0.3126  0.7847 -0.0882
  524TIP3    H2 1530   1.467   4.571   1.124  1.2961 -0.5513 -0.0863
  525TIP3   OH2 1531   6.903   6.497   5.519 -0.1347 -0.4897  0.5976
  525TIP3    H1 1532   6.873   6.584   5.493 -0.5573 -1.0983 -1.0365
  525TIP3    H2 1533   6.997   6.508   5.533 -0.4792  0.6563  2.4418
  526TIP3   OH2 1534   5.219   3.745   4.348  0.3054 -0.6222 -0.2958
  526TIP3    H1 1535   5.248   3.657   4.371  0.0927 -0.3302  1.1488
  526TIP3    H2 1536   5.299   3.797   4.345  0.1503 -0.0654  2.5864
  527TIP3   OH2 1537   3.751   1.952   5.809 -0.2214 -0.8238 -0.3733
  527TIP3    H1 1538   3.763   1.933   5.902 -2.0408  0.1366  0.1129
  527TIP3    H2 1539   3.657   1.938   5.794 -0.0407 -0.5414 -1.9686
  528TIP3   OH2 1540   3.363   0.393   0.345 -0.3906 -0.1225  0.3161
  528TIP3    H1 1541   3.434   0.401   0.282 -0.8113 -0.1985 -0.1773
  528TIP3    H2 1542   3.363   0.300   0.370  2.5161  0.5483  3.7130
  529TIP3   OH2 1543   5.067   3.380   5.341 -0.1510  0.0074 -0.3643
  529TIP3    H1 1544   4.995   3.425   5.385  0.0433  0.8878 -0.9178
  529TIP3    H2 1545   5.074   3.296   5.386 -0.5504  0.5161  0.6907
  530TIP3   OH2 1546   5.024   4.566   6.081  0.2922  0.7484  0.4863
  530TIP3    H1 1547   5.025   4.553   5.986  0.6128 -1.0338  0.6961
  530TIP3    H2 1548   5.064   4.652   6.093 -1.2182  1.7410 -1.0529
  531TIP3   OH2 1549   7.504   7.198   1.707 -0.0046  0.3440  0.0228
  531TIP3    H1 1550   7.505   7.287   1.743  2.1442  0.7783 -0.9414
  531TIP3    H2 1551   7.588   7.160   1.735  0.3845 -0.3642 -1.9380
  532TIP3   OH2 1552   1.207   3.447   2.597 -0.0421  0.5302  0.0161
  532TIP3    H1 1553   1.299   3.443   2.626 -0.2403  1.4173  0.8242
  532TIP3    H2 1554   1.173   3.527   2.637 -1.6786 -0.6964  1.2299
  533TIP3   OH2 1555   2.276   7.227   1.564  0.1630  0.2572  0.2869
  533TIP3    H1 1556   2.362   7.189   1.547  0.0571  0.3250 -0.4185
  533TIP3    H2 1557   2.221   7.153   1.588  0.5028  0.2591  1.1133
  534TIP3   OH2 1558   3.935   2.297   3.198 -0.0825  1.0703 -0.0045
  534TIP3    H1 1559   3.883   2.375   3.217 -0.1629  1.1909 -0.7025
  534TIP3    H2 1560   3.912   2.274   3.108  0.1044  0.3684  0.1206
  535TIP3   OH2 1561   2.153   1.301   3.851 -0.1189  0.2207 -0.6804
  535TIP3    H1 1562   2.075   1.314   3.797  0.1752  0.0893 -1.1336
  535TIP3    H2 1563   2.183   1.213   3.830 -2.4264 -1.6706  2.7957
  536TIP3   OH2 1564   2.262   2.998   4.412  0.1156 -0.3940 -0.2348
  536TIP3    H1 1565   2.199   2.934   4.380  0.3531 -0.2254 -1.0787
  536TIP3    H2 1566   2.243   3.077   4.361 -0.3904  0.3203  1.0247
  537TIP3   OH2 1567   4.909   0.030   0.802  0.1895  0.3670  0.2355
  537TIP3    H1 1568   4.931   0.077   0.883  3.0333 -0.5812  0.1142
  537TIP3    H2 1569   4.865   0.095   0.748 -0.5174  1.4254  1.9825
  538TIP3   OH2 1570   4.267   0.348   6.548  0.1038 -0.2555  0.6948
  538TIP3    H1 1571   4.354   0.368   6.513  0.2083  1.5494  1.8626
  538TIP3    H2 1572   4.209   0.352   6.472  0.9670 -1.2053 -0.0436
  539TIP3   OH2 1573   5.338   1.149   2.106  0.3596  0.3249  0.0799
  539TIP3    H1 1574   5.348   1.119   2.015  0.5602  0.0593  0.1866
  539TIP3    H2 1575   5.309   1.071   2.153  0.2331  0.4687  0.2403
  540TIP3   OH2 1576   7.155   0.474   2.706 -0.6430 -0.0192  0.0870
  540TIP3    H1 1577   7.121   0.561   2.726  0.5675  0.6966 -0.8408
  540TIP3    H2 1578   7.079   0.426   2.673 -1.0557  1.1246 -0.7156
  541TIP3   OH2 1579   3.007   3.618   2.222 -0.4162 -0.2249  0.5989
  541TIP3    H1 1580   2.995   3.657   2.135 -0.6698  0.0235  0.7469
  541TIP3    H2 1581   3.054   3.685   2.272 -1.2891  0.0968  1.0046
  542TIP3   OH2 1582   0.187   3.148   3.563 -0.1151 -0.2212  0.1188
  542TIP3    H1 1583   0.130   3.226   3.560  1.5053  1.0545  0.7597
  542TIP3    H2 1584   0.246   3.158   3.488 -0.3765 -1.2509 -0.2350
  543TIP3   OH2 1585   7.605   7.077   0.361 -0.0147 -0.0997  0.5219
  543TIP3    H1 1586   7.646   7.020   0.426  0.2544  0.7182  1.0777
  543TIP3    H2 1587   7.574   7.153   0.411 -1.2650 -0.2052 -0.0499
  544TIP3   OH2 1588   0.766   2.998   1.941 -0.4690 -0.4712  0.2009
  544TIP3    H1 1589   0.813   3.072   1.904  0.1155  0.1988  2.1397
  544TIP3    H2 1590   0.678   3.005   1.904  0.4716 -0.8611 -2.3018
  545TIP3   OH2 1591   5.800   2.788   3.661 -0.0416 -0.4368  0.1660
  545TIP3    H1 1592   5.785   2.710   3.606  0.6559  1.3653 -2.8399
  545TIP3    H2 1593   5.716   2.834   3.661  0.2999  0.2064 -0.5251
  546TIP3   OH2 1594   7.462   3.159   6.253 -0.4627 -0.2361  0.5459
  546TIP3    H1 1595   7.437   3.072   6.224  1.3631 -0.4543 -0.5562
  546TIP3    H2 1596   7.556   3.152   6.270  0.0625  1.8629 -1.0870
  547TIP3   OH2 1597   2.764   1.936   5.891  0.1638 -0.1223 -0.1530
  547TIP3    H1 1598   2.766   1.849   5.930 -0.2920 -0.2813 -0.4669
  547TIP3    H2 1599   2.698   1.929   5.821 -0.2761  0.6124  0.1714
  548TIP3   OH2 1600   3.072   1.036   2.919 -0.2919  0.1266 -0.3907
  548TIP3    H1 1601   3.095   1.123   2.887  0.6006  0.6103  1.4275
  548TIP3    H2 1602   2.982   1.023   2.889  0.0543  1.0113 -1.9690
  549TIP3   OH2 1603   1.418   4.882   5.970 -0.6588  0.3801  0.0329
  549TIP3    H1 1604   1.361   4.938   6.024  0.5463  1.3334  0.3711
  549TIP3    H2 1605   1.481   4.846   6.033 -1.0709 -0.9344 -0.2807
  550TIP3   OH2 1606   4.725   4.954   4.668 -0.4896  0.0746  0.2507
  550TIP3    H1 1607   4.819   4.970   4.657 -0.6365  0.3801 -0.6080
  550TIP3    H2 1608   4.683   5.018   4.610 -1.1770 -1.1972 -0.6842
  551TIP3   OH2 1609   3.650   1.943   0.472  0.4710  0.5523  0.2296
  551TIP3    H1 1610   3.596   2.022   0.471 -0.1425  0.1441  0.3362
  551TIP3    H2 1611   3.698   1.947   0.555 -3.5110 -1.7551  2.9618
  552TIP3   OH2 1612   0.164   5.269   1.728  0.1913 -0.7915  0.0276
  552TIP3    H1 1613   0.160   5.176   1.706  3.0493 -1.0139  0.0419
  552TIP3    H2 1614   0.186   5.270   1.821 -1.9205 -0.0214  0.5562
  553TIP3   OH2 1615   5.642   4.469   1.784  0.4329  0.4395  0.0521
  553TIP3    H1 1616   5.571   4.406   1.773  0.2364  0.3461  1.6721
  553TIP3    H2 1617   5.716   4.432   1.735  0.8101 -1.8666  2.1760
  554TIP3   OH2 1618   6.329   0.870   1.097 -0.6865 -0.3386  0.0603
  554TIP3    H1 1619   6.298   0.847   1.185  1.6813  0.0547  1.0723
  554TIP3    H2 1620   6.418   0.836   1.094 -0.7190 -0.3469 -2.2300
  555TIP3   OH2 1621   7.116   6.439   2.845 -0.4846  0.3454  0.3685
  555TIP3    H1 1622   7.161   6.458   2.762  2.7837 -0.3559  1.8350
  555TIP3    H2 1623   7.138   6.513   2.902  0.2320 -0.7887  1.6224
  556TIP3   OH2 1624   2.709   0.207   2.840  0.3691 -0.0815 -0.1996
  556TIP3    H1 1625   2.715   0.126   2.890  1.4236  1.0618  1.6828
  556TIP3    H2 1626   2.722   0.181   2.749  1.0113 -1.9612  0.3899
  557TIP3   OH2 1627   1.683   0.741   6.681  0.3818  0.1494 -0.7297
  557TIP3    H1 1628   1.767   0.716   6.721  0.5502  2.4016  0.4718
  557TIP3    H2 1629   1.640   0.658   6.663  1.6090 -1.0465  1.3981
  558TIP3   OH2 1630   3.599   3.185   5.172  0.8938  0.2313  0.2685
  558TIP3    H1 1631   3.584   3.146   5.086  2.3733 -0.2012  0.1743
  558TIP3    H2 1632   3.524   3.158   5.225  0.2677  0.0031 -0.7145
  559TIP3   OH2 1633   2.446   4.286   0.169 -0.3401 -0.0169 -0.4207
  559TIP3    H1 1634   2.498   4.335   0.233  0.4546  0.8162 -1.6607
  559TIP3    H2 1635   2.500   4.211   0.146  0.1656  0.6268 -1.4001
  560TIP3   OH2 1636   6.038   5.847   4.970 -0.7596 -0.0619  0.5822
  560TIP3    H1 1637   5.952   5.807   4.980 -0.6853 -0.1409  0.9111
  560TIP3    H2 1638   6.056   5.842   4.876 -1.2266  0.1931  0.4784
  561TIP3   OH2 1639   1.360   6.115   2.119  0.1910 -0.6315  0.1532
  561TIP3    H1 1640   1.423   6.174   2.160  0.0959  0.6788 -1.4987
  561TIP3    H2 1641   1.413   6.055   2.067  0.1741 -0.7325  0.2518
  562TIP3   OH2 1642   7.642   1.772   4.051 -0.1042 -0.2380 -0.2312
  562TIP3    H1 1643   7.641   1.718   3.972  0.1359 -0.1396 -0.3025
  562TIP3    H2 1644   7.641   1.709   4.123 -0.3702 -0.3270 -0.3138
  563TIP3   OH2 1645   2.763   1.090   2.315  0.0205 -0.0278 -0.3539
  563TIP3    H1 1646   2.698   1.044   2.261  0.3751  0.2413 -1.0199
  563TIP3    H2 1647   2.768   1.038   2.395 -0.7509 -0.2542 -0.4447
  564TIP3   OH2 1648   5.323   3.614   5.823  0.2159  0.2594 -0.1553
  564TIP3    H1 1649   5.368   3.697   5.834  0.3435 -0.1340  3.7308
  564TIP3    H2 1650   5.393   3.552   5.799  0.7454  0.6338  0.4104
  565TIP3   OH2 1651   1.324   5.592   3.805 -0.2981  0.2310 -0.6162
  565TIP3    H1 1652   1.329   5.550   3.719  0.1382  0.0611 -0.5109
  565TIP3    H2 1653   1.313   5.520   3.866  1.0322  0.1940 -0.3782
  566TIP3   OH2 1654   3.886   4.907   4.706  0.0754  0.1414  0.1320
  566TIP3    H1 1655   3.807   4.857   4.685  0.8708 -2.1742  2.0658
  566TIP3    H2 1656   3.870   4.942   4.793  0.6472  0.9157 -0.0607
  567TIP3   OH2 1657   0.186   2.014   1.537  0.0390  0.0879 -0.3484
  567TIP3    H1 1658   0.219   2.093   1.580  0.0567  0.4259 -0.9666
  567TIP3    H2 1659   0.161   2.043   1.449 -1.1940 -0.3182 -0.1536
  568TIP3   OH2 1660   4.389   1.103   6.679 -0.6876  0.3663 -0.1893
  568TIP3    H1 1661   4.364   1.024   6.631 -1.2017  0.8844 -0.7911
  568TIP3    H2 1662   4.359   1.087   6.769  2.0933 -1.4748  0.5234
  569TIP3   OH2 1663   4.255   5.292   6.557  0.2617 -0.4203  0.3924
  569TIP3    H1 1664   4.325   5.245   6.602  0.2710 -0.5550  0.2395
  569TIP3    H2 1665   4.235   5.366   6.614  1.5724  0.4862 -0.2793
  570TIP3   OH2 1666   5.324   1.811   6.363  0.3269  0.2712  0.3854
  570TIP3    H1 1667   5.259   1.881   6.363  0.7845  0.7053  0.9617
  570TIP3    H2 1668   5.349   1.802   6.270 -3.1825 -2.4450 -0.5000
  571TIP3   OH2 1669   5.254   4.859   1.727  0.2136 -0.5613 -0.3322
  571TIP3    H1 1670   5.333   4.874   1.779 -0.6991  0.6163  0.7591
  571TIP3    H2 1671   5.281   4.795   1.661  2.5701  1.0642 -1.0799
  572TIP3   OH2 1672   1.637   3.487   2.780 -0.1469  0.7691 -0.3356
  572TIP3    H1 1673   1.601   3.576   2.787 -0.9525  0.4078  0.2506
  572TIP3    H2 1674   1.730   3.500   2.763  0.0609  1.7415  1.3315
  573TIP3   OH2 1675   7.116   4.612   3.852 -0.4816  0.3492  0.1398
  573TIP3    H1 1676   7.123   4.600   3.757  0.2584  0.7646  0.1312
  573TIP3    H2 1677   7.048   4.550   3.879  1.0813 -1.6769 -0.3131
  574TIP3   OH2 1678   4.392   3.631   5.670 -0.3843 -0.3921  0.4927
  574TIP3    H1 1679   4.369   3.575   5.745 -0.1833 -0.9268  0.1631
  574TIP3    H2 1680   4.372   3.578   5.593 -1.0169  0.3246  0.1483
  575TIP3   OH2 1681   4.087   2.536   0.403  0.4302  0.0995 -0.6194
  575TIP3    H1 1682   4.041   2.569   0.326  0.8620 -0.7120 -1.2393
  575TIP3    H2 1683   4.167   2.590   0.409 -0.3614  1.2315  0.2177
  576TIP3   OH2 1684   1.152   4.890   4.785 -0.7897  0.4991 -0.0205
  576TIP3    H1 1685   1.066   4.896   4.826 -1.1527  0.1376 -0.7113
  576TIP3    H2 1686   1.210   4.860   4.855 -1.4251 -0.2485  0.2000
  577TIP3   OH2 1687   8.047   0.298   5.396  0.0151  0.4278  0.0114
  577TIP3    H1 1688   8.016   0.218   5.353  0.2194  0.2774  0.1398
  577TIP3    H2 1689   7.974   0.325   5.450  0.2906 -0.2353  0.7406
  578TIP3   OH2 1690   1.872   5.574   6.369 -0.1604  0.5097 -0.0558
  578TIP3    H1 1691   1.809   5.503   6.379 -0.1750  0.6312  0.8048
  578TIP3    H2 1692   1.944   5.536   6.319 -0.8712  0.3453 -0.9692
  579TIP3   OH2 1693   2.332   0.036   0.493 -0.0710 -0.5005 -0.1664
  579TIP3    H1 1694   2.278  -0.038   0.520 -0.6022 -0.1193 -0.1590
  579TIP3    H2 1695   2.420   0.014   0.523 -0.4055 -0.6725  0.7518
  580TIP3   OH2 1696   0.473   6.636   3.191  0.9115  0.4187 -0.0529
  580TIP3    H1 1697   0.552   6.586   3.212  1.5855  1.6431  0.4813
  580TIP3    H2 1698   0.412   6.571   3.157  2.1401 -0.5707 -0.4751
  581TIP3   OH2 1699   4.942   6.422   0.365 -0.0542  0.5073 -0.1474
  581TIP3    H1 1700   5.016   6.475   0.335  0.6819 -0.7753 -0.6598
  581TIP3    H2 1701   4.970   6.388   0.450  0.2715 -0.5781 -0.6731
  582TIP3   OH2 1702   0.040   3.496   2.679  0.0321  0.1676  0.0970
  582TIP3    H1 1703   0.133   3.495   2.705 -0.0097 -1.4196  0.3014
  582TIP3    H2 1704  -0.008   3.494   2.762 -0.2580  2.6506  0.0563
  583TIP3   OH2 1705   2.323   2.509   5.992  0.0219 -0.1806 -0.1179
  583TIP3    H1 1706   2.411   2.528   6.026 -1.0135  0.7229  2.2618
  583TIP3    H2 1707   2.297   2.429   6.037 -0.5089 -0.2928 -0.6068
  584TIP3   OH2 1708   7.546   1.562   6.223 -0.8357  0.0389  0.5303
  584TIP3    H1 1709   7.507   1.650   6.219 -2.3531 -0.6500 -2.4674
  584TIP3    H2 1710   7.620   1.566   6.163 -0.0499 -0.4158  1.4348
  585TIP3   OH2 1711   7.508   5.047   2.580 -0.5666  0.1843  0.1387
  585TIP3    H1 1712   7.510   5.069   2.673  0.0829  0.6464  0.0234
  585TIP3    H2 1713   7.600   5.045   2.554 -0.6545 -1.4554 -0.1529
  586TIP3   OH2 1714   2.596   0.582   6.182  0.3456 -0.4286  0.1506
  586TIP3    H1 1715   2.654   0.631   6.241 -0.1511 -0.4881  0.6980
  586TIP3    H2 1716   2.638   0.589   6.096  0.2543  1.0021  0.2055
  587TIP3   OH2 1717   0.416   7.765   2.309 -0.0893  0.2522 -0.5008
  587TIP3    H1 1718   0.501   7.730   2.284 -0.2958 -1.1406  0.6563
  587TIP3    H2 1719   0.429   7.860   2.309  0.3659  0.3405 -4.0968
  588TIP3   OH2 1720   5.284   7.328   6.102  0.1591  0.1462 -0.3314
  588TIP3    H1 1721   5.237   7.351   6.021  1.1036  0.7386 -0.7162
  588TIP3    H2 1722   5.214   7.316   6.167 -0.6346 -0.5947 -1.2864
  589TIP3   OH2 1723   5.501   6.975   2.844  0.1431  0.1999 -0.1611
  589TIP3    H1 1724   5.470   6.920   2.915 -0.8312  1.4772  0.4260
  589TIP3    H2 1725   5.562   6.919   2.795  0.3631 -0.8825  1.3073
  590TIP3   OH2 1726   1.932   0.076   5.696  0.0959  0.6069 -0.0771
  590TIP3    H1 1727   1.978   0.017   5.757 -1.5131  0.3619  0.9683
  590TIP3    H2 1728   1.979   0.066   5.613  1.8031  0.2574  0.8834
  591TIP3   OH2 1729   7.476   2.921   0.755  0.2014  0.9202 -0.2368
  591TIP3    H1 1730   7.478   2.917   0.850  0.2474  0.4883 -0.2507
  591TIP3    H2 1731   7.389   2.955   0.734 -0.5195 -0.7231 -0.0719
  592TIP3   OH2 1732   7.352   3.901   3.557 -0.6263 -0.0234 -0.7611
  592TIP3    H1 1733   7.274   3.862   3.519 -0.9756  0.1262 -0.2069
  592TIP3    H2 1734   7.413   3.828   3.568 -1.1715 -0.3652  0.0112
  593TIP3   OH2 1735   6.226   7.018   2.287 -0.1275 -0.7962 -0.0107
  593TIP3    H1 1736   6.270   7.045   2.206  0.2430  1.5326  0.8766
  593TIP3    H2 1737   6.140   7.059   2.283 -0.8015 -2.1625 -0.0057
  594TIP3   OH2 1738   4.394   1.988   4.580  0.4183  0.2096 -0.3227
  594TIP3    H1 1739   4.412   2.041   4.503  2.4234  1.3976  0.8601
  594TIP3    H2 1740   4.479   1.950   4.603  0.2823  1.2642  2.2476
  595TIP3   OH2 1741   2.219   0.368   5.057 -0.0108  0.2384 -0.1018
  595TIP3    H1 1742   2.142   0.406   5.015 -1.4947 -2.1264  0.3033
  595TIP3    H2 1743   2.224   0.411   5.142 -1.3309 -0.0778  0.1521
  596TIP3   OH2 1744   2.643   4.107   2.556  0.1078  0.5899 -0.0937
  596TIP3    H1 1745   2.662   4.151   2.474  0.2106 -3.0055 -2.1831
  596TIP3    H2 1746   2.562   4.058   2.539 -0.5649  0.6831  2.3982
  597TIP3   OH2 1747   8.124   2.935   6.416  0.1694  0.4284 -0.2034
  597TIP3    H1 1748   8.209   2.893   6.405 -0.6834 -1.7958  0.9790
  597TIP3    H2 1749   8.087   2.938   6.328 -0.4450 -3.1144 -0.2051
  598TIP3   OH2 1750   4.152   5.971   4.205 -0.4227 -0.4132 -0.8747
  598TIP3    H1 1751   4.225   6.031   4.220  2.3183 -3.2326 -1.5785
  598TIP3    H2 1752   4.098   5.978   4.283  1.5746  0.6515  0.5060
  599TIP3   OH2 1753   3.792   2.769   5.867  0.1278 -0.3299  0.7189
  599TIP3    H1 1754   3.735   2.758   5.943 -1.3987  0.4122 -0.2572
  599TIP3    H2 1755   3.757   2.847   5.823 -0.2368 -1.7900 -1.7428
  600TIP3   OH2 1756   0.434   1.120   5.198  0.5968  0.1099  0.1128
  600TIP3    H1 1757   0.372   1.077   5.140  0.0164 -0.8472  1.3850
  600TIP3    H2 1758   0.501   1.156   5.140  0.1963 -1.0427 -1.1114
  601TIP3   OH2 1759   5.118   0.896   2.405 -0.0488 -0.2674 -0.4381
  601TIP3    H1 1760   5.149   0.824   2.459 -0.6337 -0.6100 -0.5460
  601TIP3    H2 1761   5.189   0.960   2.406 -0.1295 -0.1679  0.9077
  602TIP3   OH2 1762   4.133   1.288   6.683 -0.4107  0.2757 -0.1454
  602TIP3    H1 1763   4.214   1.239   6.694 -0.9635 -0.6719 -0.1835
  602TIP3    H2 1764   4.143   1.332   6.598 -0.3369 -0.6365 -0.6203
  603TIP3   OH2 1765   4.242   6.500   5.674  0.1509  0.2783  0.0633
  603TIP3    H1 1766   4.231   6.419   5.724  0.1085  0.4837  0.3913
  603TIP3    H2 1767   4.155   6.521   5.641  0.3405 -0.3506 -0.8806
  604TIP3   OH2 1768   7.449   1.382   0.318  1.0085 -0.9392 -0.4636
  604TIP3    H1 1769   7.486   1.453   0.266 -2.6626  1.8437  0.3348
  604TIP3    H2 1770   7.469   1.405   0.409 -1.0691 -0.2515 -0.1302
  605TIP3   OH2 1771   1.750   3.338   2.473 -0.5338 -0.0700  0.1915
  605TIP3    H1 1772   1.823   3.368   2.526  0.5400 -1.6343 -0.3261
  605TIP3    H2 1773   1.775   3.359   2.383 -0.7023 -0.6436  0.0074
  606TIP3   OH2 1774   5.084   0.509   4.423 -0.2889  0.3973  0.3144
  606TIP3    H1 1775   5.176   0.513   4.449  0.1445 -0.0895 -1.0729
  606TIP3    H2 1776   5.045   0.590   4.457  1.1592  1.6921 -0.9862
  607TIP3   OH2 1777   2.490   5.323   3.403 -0.3626  0.2435  0.3661
  607TIP3    H1 1778   2.536   5.315   3.486 -0.1898  0.1655  0.2632
  607TIP3    H2 1779   2.442   5.406   3.411 -1.9426 -0.7135  1.3137
  608TIP3   OH2 1780   0.673   1.576   2.725  0.0677 -0.3735 -0.1988
  608TIP3    H1 1781   0.697   1.651   2.670  0.2298 -1.6322 -1.9266
  608TIP3    H2 1782   0.589   1.601   2.763  0.9121  1.3698  0.6733
  609TIP3   OH2 1783   0.261   1.551   1.921  0.2310 -0.4482  0.5760
  609TIP3    H1 1784   0.342   1.602   1.916 -0.4561  0.6147 -0.3458
  609TIP3    H2 1785   0.197   1.604   1.874 -0.8447 -1.5807  0.7127
  610TIP3   OH2 1786   4.100   7.644   5.002 -0.1221 -0.3945 -0.2708
  610TIP3    H1 1787   4.032   7.667   5.064  1.8313 -1.5513  2.5441
  610TIP3    H2 1788   4.083   7.552   4.981  1.0920 -1.0221  1.3133
  611TIP3   OH2 1789   7.547   7.283   6.178  0.4670 -0.2599 -0.3188
  611TIP3    H1 1790   7.462   7.239   6.168 -0.4674  1.0065  1.5889
  611TIP3    H2 1791   7.579   7.254   6.263  2.6230 -1.7076 -1.5359
  612TIP3   OH2 1792   0.119   0.022   0.926 -0.0026  0.2495  0.7662
  612TIP3    H1 1793   0.214   0.029   0.933 -0.0660  0.1779  1.9762
  612TIP3    H2 1794   0.093   0.097   0.873  0.7130  0.3802  0.5902
  613TIP3   OH2 1795   8.093   3.049   0.664  0.1834  0.1307 -0.0433
  613TIP3    H1 1796   8.042   3.130   0.663 -0.8367 -0.4734  0.8990
  613TIP3    H2 1797   8.027   2.980   0.670  1.0399 -0.7794 -0.8438
  614TIP3   OH2 1798   8.083   7.073   5.876 -0.4303 -0.0842  0.4207
  614TIP3    H1 1799   8.176   7.075   5.853 -0.5278 -1.9834 -0.2390
  614TIP3    H2 1800   8.037   7.072   5.792 -0.8883 -3.1965  0.6007
  615TIP3   OH2 1801   2.042   0.656   5.308  0.1351  0.4396 -0.0623
  615TIP3    H1 1802   1.963   0.641   5.361 -0.1356  0.4571 -0.4567
  615TIP3    H2 1803   2.009   0.668   5.219  0.7065 -1.4043 -0.5804
  616TIP3   OH2 1804   4.413   3.154   1.658 -0.1286  0.1108 -0.2221
  616TIP3    H1 1805   4.477   3.158   1.587  0.0079 -2.2247 -0.3073
  616TIP3    H2 1806   4.328   3.160   1.615 -0.0208 -0.0740 -0.4639
  617TIP3   OH2 1807   7.072   4.432   3.066  0.2786  0.0755  0.8749
  617TIP3    H1 1808   6.979   4.414   3.054 -0.3136  2.0862  2.0414
  617TIP3    H2 1809   7.115   4.349   3.048 -1.6340 -0.6391 -0.7619
  618TIP3   OH2 1810   0.788   1.737   2.503  0.0040 -0.0938  0.0344
  618TIP3    H1 1811   0.766   1.830   2.493  0.9141  0.0083 -1.2348
  618TIP3    H2 1812   0.883   1.734   2.490  0.0382 -1.1669  0.4499
  619TIP3   OH2 1813   1.171   6.392   4.172  0.5444 -0.0923 -0.1012
  619TIP3    H1 1814   1.202   6.387   4.263 -0.4054  1.3139  0.3387
  619TIP3    H2 1815   1.249   6.416   4.122  1.0563 -0.7767  0.3548
  620TIP3   OH2 1816   5.668   2.622   0.638 -0.1710  0.9347  0.1500
  620TIP3    H1 1817   5.631   2.693   0.691 -0.6679  0.3340  0.6244
  620TIP3    H2 1818   5.592   2.584   0.593 -0.1611 -0.3120  1.1309
  621TIP3   OH2 1819   3.481   1.683   4.578 -0.1426 -0.4413  0.0691
  621TIP3    H1 1820   3.404   1.707   4.526 -0.4546 -0.7442  0.3923
  621TIP3    H2 1821   3.515   1.604   4.536  0.5705  0.2219 -0.6649
  622TIP3   OH2 1822   4.487   0.262   1.048  0.6633 -0.1150  0.2236
  622TIP3    H1 1823   4.555   0.209   1.090  1.1429 -0.4792 -0.9504
  622TIP3    H2 1824   4.405   0.232   1.088  0.7968 -2.5610 -1.1075
  623TIP3   OH2 1825   3.737   3.025   6.192  0.1886  0.3215  0.1869
  623TIP3    H1 1826   3.673   2.963   6.156  0.3115  0.3599 -0.1017
  623TIP3    H2 1827   3.716   3.108   6.150  1.6796 -0.0748 -1.4870
  624TIP3   OH2 1828   6.579   7.280   3.279  0.0866 -0.6651 -0.4399
  624TIP3    H1 1829   6.609   7.356   3.229 -0.3050 -0.5692 -0.5369
  624TIP3    H2 1830   6.647   7.265   3.344 -0.1335  0.1596 -0.0102
  625TIP3   OH2 1831   2.551   4.037   3.970  0.4012 -0.2153  0.1274
  625TIP3    H1 1832   2.608   3.967   4.002  0.3301 -0.7956 -0.9794
  625TIP3    H2 1833   2.476   3.992   3.932  0.5995  0.4257 -1.0701
  626TIP3   OH2 1834   5.131   6.487   2.726  0.3471  0.0419 -0.0245
  626TIP3    H1 1835   5.225   6.492   2.743  0.3057  0.1285  0.1863
  626TIP3    H2 1836   5.107   6.398   2.754  0.3521  0.0480 -0.0010
  627TIP3   OH2 1837   5.813   1.361   2.719 -0.3484  0.1094 -0.2641
  627TIP3    H1 1838   5.873   1.288   2.705  0.7781  0.2108  3.1931
  627TIP3    H2 1839   5.726   1.321   2.718  0.2690 -1.4466  2.0258
  628TIP3   OH2 1840   3.118   7.540   4.821 -0.2582  0.0619  0.0992
  628TIP3    H1 1841   3.178   7.576   4.888  0.2264 -0.2898 -0.1422
  628TIP3    H2 1842   3.031   7.547   4.861  0.0149 -0.0437  0.7282
  629TIP3   OH2 1843   0.816   4.042   0.030  0.6280 -0.0896  0.0966
  629TIP3    H1 1844   0.756   4.006   0.095  0.3761 -0.8509 -0.5331
  629TIP3    H2 1845   0.831   4.132   0.058 -0.4097 -0.0394  0.5531
  630TIP3   OH2 1846   4.188   6.740   0.469  0.4516 -0.9171 -0.2071
  630TIP3    H1 1847   4.272   6.776   0.439  0.3675 -1.2939 -0.9223
  630TIP3    H2 1848   4.122   6.794   0.425  0.2923 -0.0166  1.0779
  631TIP3   OH2 1849   7.976   2.949   3.941 -0.3130 -0.2117 -0.0791
  631TIP3    H1 1850   7.969   3.027   3.997 -0.5037  1.1073 -1.8770
  631TIP3    H2 1851   7.886   2.917   3.933 -0.3298 -0.2046  0.0706
  632TIP3   OH2 1852   2.484   1.143   1.834 -0.8450 -0.7327 -0.0123
  632TIP3    H1 1853   2.461   1.068   1.779 -1.4396 -1.8341  1.6655
  632TIP3    H2 1854   2.462   1.115   1.923  2.7071 -0.1682  1.2290
  633TIP3   OH2 1855   1.282   6.601   1.698 -0.2888 -0.0013 -0.4658
  633TIP3    H1 1856   1.290   6.518   1.651  0.1668  0.1430 -0.6421
  633TIP3    H2 1857   1.298   6.668   1.632 -2.2305  0.3061 -0.7044
  634TIP3   OH2 1858   6.765   5.373   6.786 -0.5178  0.1050 -0.8731
  634TIP3    H1 1859   6.829   5.352   6.718  0.2265  3.1673 -1.2754
  634TIP3    H2 1860   6.681   5.377   6.739 -0.0285  2.0715 -1.6786
  635TIP3   OH2 1861   5.956   7.649   3.463  0.4102  0.0659  0.2386
  635TIP3    H1 1862   5.915   7.677   3.381  0.8421  1.0442  0.3404
  635TIP3    H2 1863   6.020   7.583   3.437  0.0650 -0.1237 -0.1314
  636TIP3   OH2 1864   1.822   5.060   5.037  0.5922 -0.3695 -0.2914
  636TIP3    H1 1865   1.854   5.124   4.973 -0.4981 -0.6629 -1.1728
  636TIP3    H2 1866   1.740   5.028   4.998 -0.5896  0.1098  1.6728
  637TIP3   OH2 1867   0.910   2.513   2.038  0.1483 -0.6380 -0.6274
  637TIP3    H1 1868   0.842   2.496   1.974 -0.8862 -1.1294  0.5674
  637TIP3    H2 1869   0.915   2.433   2.091  0.8908 -0.2139 -0.0255
  638TIP3   OH2 1870   6.492   1.816   5.446 -0.0865 -0.4506  0.4331
  638TIP3    H1 1871   6.504   1.729   5.485  0.0079 -0.4392  0.4297
  638TIP3    H2 1872   6.475   1.874   5.520  0.9883 -0.2681  0.5455
  639TIP3   OH2 1873   5.166   5.711   3.038 -0.2819 -0.1511  0.0416
  639TIP3    H1 1874   5.164   5.743   3.128  0.2404 -1.5982  0.5990
  639TIP3    H2 1875   5.075   5.710   3.011 -0.5080 -0.2715  0.7823
  640TIP3   OH2 1876   0.980   1.626   3.197  0.2125  0.3905  0.3598
  640TIP3    H1 1877   0.957   1.533   3.195 -0.3206  0.4848 -3.1664
  640TIP3    H2 1878   0.903   1.668   3.236 -1.1215 -0.3532 -1.3291
  641TIP3   OH2 1879   2.456   3.116   1.119  0.4099 -0.2667 -0.2069
  641TIP3    H1 1880   2.501   3.200   1.124 -0.2155  0.1032 -0.6609
  641TIP3    H2 1881   2.366   3.136   1.144  0.0996 -0.6682 -0.9626
  642TIP3   OH2 1882   8.149   5.107   1.715 -0.1221  0.7037  0.0673
  642TIP3    H1 1883   8.244   5.094   1.722  0.1061  2.2232  0.1595
  642TIP3    H2 1884   8.140   5.193   1.675 -1.4803 -0.1305 -1.4946
  643TIP3   OH2 1885   2.753   4.457   4.247 -0.6522 -0.4402 -0.1258
  643TIP3    H1 1886   2.770   4.539   4.200  1.3331 -1.2007 -0.8077
  643TIP3    H2 1887   2.802   4.391   4.199 -1.6131 -1.9285  0.8543
  644TIP3   OH2 1888   6.360   3.068   2.973 -0.2033  0.4799  0.0590
  644TIP3    H1 1889   6.301   3.063   3.049  1.9332  3.1831  2.1213
  644TIP3    H2 1890   6.386   2.977   2.957 -1.3949 -0.2751  1.9841
  645TIP3   OH2 1891   7.295   1.176   2.905 -0.3936  0.5776 -0.1602
  645TIP3    H1 1892   7.250   1.122   2.840  0.3772 -0.4708  0.1424
  645TIP3    H2 1893   7.388   1.163   2.886 -0.1729  2.8091 -0.8654
  646TIP3   OH2 1894   2.107   5.557   0.735 -0.2166 -0.4829  0.0676
  646TIP3    H1 1895   2.151   5.638   0.759 -0.3594 -0.4087  0.0791
  646TIP3    H2 1896   2.017   5.583   0.715 -0.5146 -0.7681  0.9830
  647TIP3   OH2 1897   2.969   6.604   2.019 -0.5776 -0.5228 -0.0523
  647TIP3    H1 1898   3.060   6.626   1.998 -0.4642 -0.5174  0.4251
  647TIP3    H2 1899   2.917   6.673   1.978 -0.2565  0.4046  1.0618
  648TIP3   OH2 1900   0.751   1.498   6.478 -0.3833 -0.0564 -0.5580
  648TIP3    H1 1901   0.805   1.543   6.412  0.9183  0.1243  0.5764
  648TIP3    H2 1902   0.796   1.515   6.561 -1.4147 -1.1363  0.2569
  649TIP3   OH2 1903   7.169   5.855   5.015 -0.2202 -0.5803 -0.2625
  649TIP3    H1 1904   7.137   5.905   5.090  2.9091  2.9612 -0.9755
  649TIP3    H2 1905   7.123   5.892   4.940  1.1685  0.4319 -0.6578
  650TIP3   OH2 1906   0.145   7.453   3.389 -0.1605  0.0156 -0.1574
  650TIP3    H1 1907   0.091   7.387   3.347  0.0851 -2.2741  2.8112
  650TIP3    H2 1908   0.088   7.492   3.456  0.9219 -0.3387  1.0237
  651TIP3   OH2 1909   3.739   5.303   1.105 -0.0118  0.3915  0.2086
  651TIP3    H1 1910   3.729   5.363   1.031  1.2718 -0.0385 -0.3417
  651TIP3    H2 1911   3.824   5.262   1.091  0.2463  0.2762  1.9175
  652TIP3   OH2 1912   7.475   5.065   0.135  0.2442  0.0189 -0.5318
  652TIP3    H1 1913   7.556   5.102   0.168  0.0383  2.1244 -2.1879
  652TIP3    H2 1914   7.495   5.036   0.046 -0.8350  0.6920 -1.0149
  653TIP3   OH2 1915   6.631   1.071   1.926  0.4562 -0.2607 -0.1891
  653TIP3    H1 1916   6.714   1.118   1.919  1.5803 -2.0371  0.4260
  653TIP3    H2 1917   6.622   1.053   2.020 -0.6453 -0.0889 -0.2442
  654TIP3   OH2 1918   6.557   6.482   1.271 -0.6895 -0.1280 -0.0077
  654TIP3    H1 1919   6.639   6.531   1.278  1.0788 -2.5789 -1.8774
  654TIP3    H2 1920   6.584   6.392   1.256 -3.6859 -0.7154 -3.1285
  655TIP3   OH2 1921   4.785   3.393   2.041  0.0585  0.4661 -0.7788
  655TIP3    H1 1922   4.855   3.346   2.085 -0.4712  1.1133  0.8657
  655TIP3    H2 1923   4.713   3.331   2.036 -0.2480  0.7103  0.3224
  656TIP3   OH2 1924   7.236   5.442   3.607 -0.2002 -0.4028  0.1905
  656TIP3    H1 1925   7.149   5.401   3.607 -0.1402 -0.5308  0.2356
  656TIP3    H2 1926   7.261   5.442   3.514 -0.1900 -0.4914  0.1930
  657TIP3   OH2 1927   2.112   6.579   1.585  0.5675 -0.0410  0.5078
  657TIP3    H1 1928   2.149   6.652   1.636  2.1233 -0.0202 -0.5638
  657TIP3    H2 1929   2.160   6.502   1.617 -0.1448 -0.4040  0.7168
  658TIP3   OH2 1930   4.172   4.800   3.112 -0.3483  0.2191  0.0958
  658TIP3    H1 1931   4.109   4.750   3.060  0.2142  0.8964 -1.2680
  658TIP3    H2 1932   4.137   4.798   3.201 -1.5068 -0.6762 -0.3664
  659TIP3   OH2 1933   0.820   3.244   1.870 -0.0350  0.5016 -0.3465
  659TIP3    H1 1934   0.854   3.315   1.924  3.2278 -2.2152  1.6116
  659TIP3    H2 1935   0.855   3.261   1.783  1.9257  0.6755  0.4183
  660TIP3   OH2 1936   2.149   4.384   0.514  0.0695  0.1003 -0.3033
  660TIP3    H1 1937   2.139   4.349   0.426 -1.8293 -0.6517  0.1562
  660TIP3    H2 1938   2.221   4.333   0.553  0.2327 -0.2648 -1.0747
  661TIP3   OH2 1939   8.167   4.779   6.739 -0.0664 -0.0558  0.0968
  661TIP3    H1 1940   8.120   4.857   6.708  0.7744  0.2129 -0.5363
  661TIP3    H2 1941   8.244   4.774   6.683 -0.0443 -1.2859  0.2094
  662TIP3   OH2 1942   6.082   5.881   4.689  0.2251  0.0798  0.0769
  662TIP3    H1 1943   5.992   5.872   4.659  0.3274  1.8102 -0.8873
  662TIP3    H2 1944   6.132   5.822   4.633 -0.3775 -1.6619  1.2801
  663TIP3   OH2 1945   5.460   0.778   5.166 -0.9901  0.1722 -1.0535
  663TIP3    H1 1946   5.528   0.774   5.098 -1.1111 -1.0713 -1.1179
  663TIP3    H2 1947   5.463   0.693   5.208 -0.6447  1.0629  0.8074
  664TIP3   OH2 1948   3.159   6.807   3.814 -0.3711  0.3070  0.2394
  664TIP3    H1 1949   3.066   6.827   3.823 -0.2379  0.3445  1.6908
  664TIP3    H2 1950   3.176   6.814   3.720 -1.8050  0.3962 -0.0309
  665TIP3   OH2 1951   6.612   2.525   6.515  0.2245  0.1265 -0.2987
  665TIP3    H1 1952   6.581   2.587   6.581  1.3272  0.6120 -0.2182
  665TIP3    H2 1953   6.535   2.509   6.460 -0.9962 -0.9773  1.5816
  666TIP3   OH2 1954   7.601   5.434   1.639 -0.4296  0.2824  0.1089
  666TIP3    H1 1955   7.524   5.381   1.617  1.5337 -2.7085 -0.0733
  666TIP3    H2 1956   7.616   5.416   1.732 -1.0573  2.4775  0.6905
  667TIP3   OH2 1957   6.409   2.231   3.222 -0.4290 -0.0608  0.7419
  667TIP3    H1 1958   6.386   2.141   3.198 -2.1235 -0.1461  2.4704
  667TIP3    H2 1959   6.398   2.280   3.140 -0.7201 -1.2064  0.0660
  668TIP3   OH2 1960   0.076   5.899   0.300 -0.0516  0.2033 -0.2037
  668TIP3    H1 1961   0.095   5.906   0.207 -1.9537 -0.1940 -0.6441
  668TIP3    H2 1962   0.126   5.971   0.340 -0.6767  1.5271 -1.7456
  669TIP3   OH2 1963   3.431   5.421   2.750 -0.4740 -0.1536  0.1207
  669TIP3    H1 1964   3.477   5.410   2.667 -0.6595 -0.3019  0.0381
  669TIP3    H2 1965   3.414   5.515   2.755 -0.8848 -0.2062 -0.2373
  670TIP3   OH2 1966   2.263   6.970   1.035 -0.2362 -0.2861 -0.2918
  670TIP3    H1 1967   2.168   6.981   1.038 -0.3976 -1.5331 -0.1780
  670TIP3    H2 1968   2.291   6.976   1.126 -0.2825 -0.5426 -0.2614
  671TIP3   OH2 1969   2.091   4.441   2.201  0.6417  0.0267  0.5220
  671TIP3    H1 1970   2.065   4.466   2.113  1.8905  1.0686  0.4205
  671TIP3    H2 1971   2.163   4.380   2.189  0.8565  0.2179  0.8209
  672TIP3   OH2 1972   8.015   0.113   0.730  0.9567  0.4298  0.0188
  672TIP3    H1 1973   7.941   0.150   0.778  1.2427  2.6592 -1.1194
  672TIP3    H2 1974   7.989   0.119   0.638  1.3902 -1.4924 -0.2597
  673TIP3   OH2 1975   6.499   3.593   1.586 -0.4591 -0.4393  0.4812
  673TIP3    H1 1976   6.588   3.563   1.606 -0.2032  0.2090  0.3433
  673TIP3    H2 1977   6.511   3.679   1.545 -1.2093  0.2317  1.6175
  674TIP3   OH2 1978   1.518   0.909   0.577  0.2077 -1.0990 -0.8197
  674TIP3    H1 1979   1.490   0.995   0.548 -2.6463 -1.5965  0.1523
  674TIP3    H2 1980   1.610   0.921   0.603 -0.1113  1.6331 -0.6873
  675TIP3   OH2 1981   7.721   2.577   0.621 -0.2791 -0.2050  0.2475
  675TIP3    H1 1982   7.707   2.621   0.705  1.4103  0.5686  0.1727
  675TIP3    H2 1983   7.734   2.485   0.643 -2.1622 -0.4344  0.5720
  676TIP3   OH2 1984   6.129   4.537   0.498  0.1600 -0.2461 -0.1360
  676TIP3    H1 1985   6.073   4.493   0.434  1.0089 -1.7159  0.0799
  676TIP3    H2 1986   6.166   4.466   0.551  0.2579  0.8597  1.3510
  677TIP3   OH2 1987   6.680   6.244   4.600  0.2342 -0.2459  0.2132
  677TIP3    H1 1988   6.766   6.219   4.566 -0.1785  0.8732 -1.8131
  677TIP3    H2 1989   6.660   6.177   4.666  2.3502 -0.8976  0.2656
  678TIP3   OH2 1990   7.860   0.640   2.656  0.2425 -0.1642 -0.1358
  678TIP3    H1 1991   7.944   0.593   2.656  1.0459  1.2024 -0.9712
  678TIP3    H2 1992   7.799   0.579   2.697  1.4120 -1.6004 -0.4201
  679TIP3   OH2 1993   7.171   6.392   0.635 -0.1533 -0.1899 -0.0722
  679TIP3    H1 1994   7.238   6.460   0.632 -0.1241 -0.2326 -0.3677
  679TIP3    H2 1995   7.219   6.309   0.632 -0.1992 -0.2239  0.0963
  680TIP3   OH2 1996   2.100   2.252   1.748 -0.2271  0.2458 -0.6873
  680TIP3    H1 1997   2.139   2.302   1.820 -0.2449  0.1162 -0.5885
  680TIP3    H2 1998   2.172   2.238   1.687 -0.1185  0.0078 -0.5064
  681TIP3   OH2 1999   1.254   7.705   1.939  0.1499  0.2776 -0.2599
  681TIP3    H1 2000   1.349   7.719   1.933 -0.1970  3.0368 -0.8220
  681TIP3    H2 2001   1.220   7.741   1.857 -1.3791 -1.0486 -0.2434
  682TIP3   OH2 2002   4.968   7.781   4.489  0.2572 -0.3465  0.0257
  682TIP3    H1 2003   4.886   7.823   4.462  0.8429  1.3325  0.7531
  682TIP3    H2 2004   5.022   7.782   4.410 -0.1274 -0.7535 -0.2490
  683TIP3   OH2 2005   2.886   1.398   6.385 -0.3186  0.1297  0.4094
  683TIP3    H1 2006   2.816   1.347   6.344  1.1494 -0.7768 -1.0803
  683TIP3    H2 2007   2.843   1.443   6.459 -2.4811 -0.2479 -0.5442
  684TIP3   OH2 2008   4.906   3.855   5.967 -0.1946 -0.2957  0.5364
  684TIP3    H1 2009   4.894   3.776   5.914  1.7253 -1.4508  1.7348
  684TIP3    H2 2010   4.818   3.894   5.971 -0.7794 -1.1850 -1.8392
  685TIP3   OH2 2011   2.803   6.367   0.996 -0.2649  0.1609  0.0446
  685TIP3    H1 2012   2.743   6.433   0.960 -1.0682 -1.2315 -1.3411
  685TIP3    H2 2013   2.884   6.415   1.014  0.1531  1.1143 -3.5260
  686TIP3   OH2 2014   1.669   4.438   5.159  0.2769 -0.2894  0.0916
  686TIP3    H1 2015   1.695   4.348   5.138 -1.3043 -0.6941 -0.2983
  686TIP3    H2 2016   1.611   4.429   5.235  0.1329  0.4117  0.0725
  687TIP3   OH2 2017   5.205   4.327   2.922  0.3585 -0.3867 -0.5932
  687TIP3    H1 2018   5.279   4.317   2.863 -0.3827 -2.7916 -1.2311
  687TIP3    H2 2019   5.131   4.291   2.875 -1.0875  1.1232  0.3812
  688TIP3   OH2 2020   3.028   1.502   1.768  0.5060  0.2188 -0.1810
  688TIP3    H1 2021   3.107   1.452   1.789 -0.6777 -1.0719  1.5207
  688TIP3    H2 2022   3.004   1.544   1.851 -1.0974 -0.1827 -0.3980
  689TIP3   OH2 2023   2.062   2.846   4.063 -0.8855 -0.2127 -0.0345
  689TIP3    H1 2024   2.048   2.940   4.061 -2.5414 -0.4455 -0.7539
  689TIP3    H2 2025   2.083   2.827   4.155 -0.2718  0.8838  0.0565
  690TIP3   OH2 2026   3.075   4.669   6.495  0.1645  0.3616 -0.0533
  690TIP3    H1 2027   3.130   4.742   6.467 -0.7126  1.1922  0.3536
  690TIP3    H2 2028   3.091   4.600   6.430 -1.2221  1.9458 -2.2156
  691TIP3   OH2 2029   3.761   0.097   1.201 -0.0285 -0.1926  0.0417
  691TIP3    H1 2030   3.695   0.032   1.223  0.7556 -1.0752 -0.1827
  691TIP3    H2 2031   3.832   0.048   1.160  0.1465  0.9183 -1.0762
  692TIP3   OH2 2032   7.625   0.204   1.225 -0.7783  0.5210 -0.5075
  692TIP3    H1 2033   7.633   0.123   1.175 -1.3665  0.6475 -0.8193
  692TIP3    H2 2034   7.710   0.215   1.268 -1.2545 -1.1949  0.9775
  693TIP3   OH2 2035   3.950   0.558   1.332  0.2169 -0.4326  0.3302
  693TIP3    H1 2036   3.976   0.472   1.298 -0.0114 -0.5932  0.5498
  693TIP3    H2 2037   3.969   0.553   1.426  1.0690  0.0941  0.1899
  694TIP3   OH2 2038   2.145   5.489   6.321  0.0689  0.2382  0.5937
  694TIP3    H1 2039   2.185   5.441   6.249  0.2628  0.5117  0.5168
  694TIP3    H2 2040   2.178   5.578   6.311 -0.0313  0.3120  0.9268
  695TIP3   OH2 2041   1.442   3.650   3.148  0.4617 -0.3992  0.3723
  695TIP3    H1 2042   1.461   3.693   3.065 -1.2578 -0.5274 -0.1098
  695TIP3    H2 2043   1.525   3.653   3.196  1.1815  0.6652 -0.8913
  696TIP3   OH2 2044   0.630   4.113   2.761  0.5430 -0.1152  0.0904
  696TIP3    H1 2045   0.580   4.066   2.828  1.5525 -1.0845  0.1921
  696TIP3    H2 2046   0.721   4.108   2.791  0.7399  1.4788 -0.1745
  697TIP3   OH2 2047   4.853   3.687   2.209  0.6800 -0.0226  0.1062
  697TIP3    H1 2048   4.913   3.615   2.189  1.4663  0.2659  1.2802
  697TIP3    H2 2049   4.911   3.759   2.236 -0.1828  0.2783  1.2140
  698TIP3   OH2 2050   2.652   7.410   0.242  0.3939 -0.3699  0.0622
  698TIP3    H1 2051   2.662   7.319   0.213 -2.1162 -0.5068 -0.6735
  698TIP3    H2 2052   2.563   7.413   0.279  0.3338  1.8197 -0.1613
  699TIP3   OH2 2053   6.885   0.266   4.737 -0.3051 -0.2528  0.0689
  699TIP3    H1 2054   6.908   0.203   4.805  0.7856  0.4124  0.3262
  699TIP3    H2 2055   6.827   0.329   4.780 -0.6848 -0.5684  0.0308
  700TIP3   OH2 2056   6.576   0.940   2.206  0.6604 -0.3555  0.3013
  700TIP3    H1 2057   6.483   0.955   2.186  1.0048  0.6738 -0.6204
  700TIP3    H2 2058   6.585   0.968   2.297  0.1474 -0.0649  0.2694
  701TIP3   OH2 2059   7.172   2.967   3.493  0.3920 -0.0345  0.0345
  701TIP3    H1 2060   7.147   3.007   3.409  1.0047 -0.3481 -0.3074
  701TIP3    H2 2061   7.211   2.883   3.468  2.8477  0.9271  0.4545
  702TIP3   OH2 2062   7.295   3.906   1.457  0.4032  0.4700 -0.2340
  702TIP3    H1 2063   7.294   3.928   1.550  0.8776  1.2893 -0.4127
  702TIP3    H2 2064   7.386   3.922   1.430  0.2507  0.3122 -0.8547
  703TIP3   OH2 2065   6.663   6.410   3.795 -0.6368  0.3166  0.0351
  703TIP3    H1 2066   6.641   6.351   3.723  0.5293 -0.0039 -0.0739
  703TIP3    H2 2067   6.590   6.400   3.856 -0.4165 -1.3572  0.0831
  704TIP3   OH2 2068   3.427   1.503   2.953 -0.6721  0.1909 -0.1269
  704TIP3    H1 2069   3.464   1.459   3.030  0.7994  0.2893 -0.7373
  704TIP3    H2 2070   3.336   1.475   2.951 -0.4114 -0.8293  0.9301
  705TIP3   OH2 2071   7.572   4.733   1.742 -0.4465  0.3306  0.0288
  705TIP3    H1 2072   7.630   4.772   1.806 -1.1834  0.3812  0.6763
  705TIP3    H2 2073   7.630   4.688   1.681  0.3434  1.5030 -0.1046
  706TIP3   OH2 2074   3.018   4.952   2.484 -0.8559  0.5133 -0.1813
  706TIP3    H1 2075   2.951   4.966   2.417 -0.9182  1.6529  0.1101
  706TIP3    H2 2076   2.969   4.930   2.563 -0.7628 -1.6755 -0.6433
  707TIP3   OH2 2077   7.945   7.564   3.638 -0.1065 -0.0683 -0.5904
  707TIP3    H1 2078   7.891   7.512   3.578  0.2323  0.0968 -1.0418
  707TIP3    H2 2079   7.900   7.649   3.643  0.5442  0.3553 -1.6213
  708TIP3   OH2 2080   7.294   6.276   0.261  0.3463 -0.5811  0.5837
  708TIP3    H1 2081   7.267   6.366   0.281 -2.1407 -1.2958  0.6992
  708TIP3    H2 2082   7.386   6.273   0.289  0.3186  1.7262  1.1852
  709TIP3   OH2 2083   6.166   1.281   5.965  0.8387 -0.2655  0.3258
  709TIP3    H1 2084   6.157   1.279   6.061 -0.7539 -1.6004  0.1772
  709TIP3    H2 2085   6.127   1.365   5.940  2.6795  0.8353  0.9230
  710TIP3   OH2 2086   1.714   0.534   2.506 -0.5487 -0.0869 -0.3929
  710TIP3    H1 2087   1.620   0.520   2.494 -0.5569 -1.7676  1.0974
  710TIP3    H2 2088   1.720   0.620   2.549 -1.3642  0.1811 -0.7950
  711TIP3   OH2 2089   7.736   0.073   5.280  0.1579  0.1609  0.6069
  711TIP3    H1 2090   7.683  -0.006   5.294 -0.1199  0.4903  1.4922
  711TIP3    H2 2091   7.823   0.050   5.313  0.0841  0.2204  0.8412
  712TIP3   OH2 2092   7.889   4.103   4.716 -0.1570 -0.2191 -0.0969
  712TIP3    H1 2093   7.873   4.015   4.681  1.8164 -1.1803  1.1883
  712TIP3    H2 2094   7.867   4.095   4.809 -1.1088  1.0087 -0.2040
  713TIP3   OH2 2095   7.459   6.851   6.581 -0.0341  0.1842  0.1224
  713TIP3    H1 2096   7.479   6.944   6.583 -0.1505  0.2056  0.3130
  713TIP3    H2 2097   7.474   6.820   6.670 -3.5056  0.7877  1.0528
  714TIP3   OH2 2098   3.245   6.799   3.561  0.2227 -0.1937  0.1394
  714TIP3    H1 2099   3.192   6.862   3.513 -1.1209 -0.5022  1.1789
  714TIP3    H2 2100   3.281   6.741   3.493 -1.7002 -0.6749 -0.5317
  715TIP3   OH2 2101   0.067   2.159   6.162 -0.5640 -0.1302 -0.3361
  715TIP3    H1 2102   0.126   2.118   6.225 -0.0697 -0.2701 -0.8800
  715TIP3    H2 2103  -0.014   2.175   6.211 -0.9314 -2.1324 -0.2006
  716TIP3   OH2 2104   7.958   6.795   1.750 -0.4537  0.2965  0.2554
  716TIP3    H1 2105   7.970   6.890   1.753 -0.4255  0.3311 -0.6338
  716TIP3    H2 2106   7.986   6.770   1.662 -0.6332 -0.5145  0.4186
  717TIP3   OH2 2107   2.206   2.091   5.298  0.2756 -0.6266 -0.4003
  717TIP3    H1 2108   2.256   2.026   5.347  0.2653 -0.4996 -0.2208
  717TIP3    H2 2109   2.115   2.061   5.303  0.3008 -0.7245 -0.5177
  718TIP3   OH2 2110   4.009   6.108   5.485 -0.2585 -0.3551  0.0364
  718TIP3    H1 2111   3.926   6.060   5.492  0.1595 -1.3245 -1.1816
  718TIP3    H2 2112   4.064   6.052   5.430  0.3946  1.3707 -1.1426
  719TIP3   OH2 2113   1.797   4.637   2.453 -0.0892  0.2551  0.2268
  719TIP3    H1 2114   1.817   4.583   2.530 -0.5576  1.5311  1.2835
  719TIP3    H2 2115   1.714   4.679   2.474  0.7014  2.0801 -0.1676
  720TIP3   OH2 2116   3.416   5.478   1.039 -0.2737  0.2050  0.3569
  720TIP3    H1 2117   3.407   5.564   1.080 -0.2477  0.4665 -0.1781
  720TIP3    H2 2118   3.442   5.420   1.111 -2.3599  0.2001  1.1824
  721TIP3   OH2 2119   1.935   1.219   0.119 -0.3936  0.0750 -0.3863
  721TIP3    H1 2120   1.965   1.279   0.187 -1.5628 -1.0356  1.1809
  721TIP3    H2 2121   2.007   1.157   0.108 -0.7475 -0.5735  0.8785
  722TIP3   OH2 2122   3.459   2.262   4.090  0.2032 -0.1960 -0.1268
  722TIP3    H1 2123   3.454   2.197   4.020 -0.9312 -0.0043 -0.2514
  722TIP3    H2 2124   3.552   2.283   4.097  0.6058 -1.9129  0.0093
  723TIP3   OH2 2125   2.683   0.623   6.450  0.7611 -0.2525 -0.3822
  723TIP3    H1 2126   2.725   0.568   6.516  0.2758 -1.6281 -1.1618
  723TIP3    H2 2127   2.730   0.706   6.454  2.8009 -1.3505 -0.4577
  724TIP3   OH2 2128   0.205   3.880   6.275 -0.0404  0.3258  0.5103
  724TIP3    H1 2129   0.205   3.973   6.249 -1.3266  0.4541  0.9212
  724TIP3    H2 2130   0.124   3.845   6.238  0.5366 -0.7093  0.1761
  725TIP3   OH2 2131   5.666   2.267   3.544  0.5803  0.1242  0.5258
  725TIP3    H1 2132   5.604   2.299   3.479  1.5457  2.3818  0.6426
  725TIP3    H2 2133   5.623   2.190   3.582  0.7473 -2.6054 -4.0347
  726TIP3   OH2 2134   7.802   6.137   1.117  0.0501  0.1300  0.1682
  726TIP3    H1 2135   7.738   6.067   1.129 -0.6677  0.7305 -0.0727
  726TIP3    H2 2136   7.813   6.143   1.022 -0.2502  0.6440  0.1594
  727TIP3   OH2 2137   4.537   0.813   1.069 -0.1307  0.2449  0.2904
  727TIP3    H1 2138   4.537   0.718   1.078  0.6949  0.1898 -0.2304
  727TIP3    H2 2139   4.599   0.843   1.135  0.9506  0.2910 -0.7254
  728TIP3   OH2 2140   3.994   6.792   0.979 -0.2244  0.1405 -0.1550
  728TIP3    H1 2141   3.998   6.797   0.884 -1.3970  0.3451 -0.2058
  728TIP3    H2 2142   4.074   6.745   1.004 -0.2002 -0.4480 -1.2828
  729TIP3   OH2 2143   8.125   2.345   2.280  0.1431  0.0432  0.6903
  729TIP3    H1 2144   8.162   2.293   2.209  0.8637  0.0482  1.0622
  729TIP3    H2 2145   8.035   2.364   2.251  0.7747  1.0384 -0.7588
  730TIP3   OH2 2146   3.653   4.223   5.789 -0.2289  0.5005  0.0251
  730TIP3    H1 2147   3.703   4.146   5.814 -0.4203  1.0973  2.4438
  730TIP3    H2 2148   3.715   4.296   5.797 -0.6414  0.8634 -0.0242
  731TIP3   OH2 2149   0.947   2.282   3.449  0.0559  0.0389 -0.0949
  731TIP3    H1 2150   0.983   2.279   3.537 -2.0111 -1.1999  0.7840
  731TIP3    H2 2151   0.887   2.357   3.450  0.1147  0.0944 -0.4898
  732TIP3   OH2 2152   7.024   0.173   6.433  0.4876  0.7547 -0.5794
  732TIP3    H1 2153   7.006   0.251   6.380  0.3664  0.8813 -0.3558
  732TIP3    H2 2154   6.938   0.137   6.452  0.3788  1.7662  1.1006
  733TIP3   OH2 2155   3.650   4.992   1.384 -0.2626 -0.0285  0.3161
  733TIP3    H1 2156   3.709   4.965   1.312  0.6809 -1.1668  1.4523
  733TIP3    H2 2157   3.595   4.915   1.399 -0.3615  0.1557  0.9029
  734TIP3   OH2 2158   8.300   4.107   5.859  0.1589  0.0343  0.3550
  734TIP3    H1 2159   8.206   4.120   5.859 -0.0117 -1.0513  0.9489
  734TIP3    H2 2160   8.329   4.142   5.775 -0.9902 -1.0030 -0.5180
  735TIP3   OH2 2161   1.351   6.773   2.696 -0.4352  0.6595  0.1109
  735TIP3    H1 2162   1.356   6.864   2.666 -1.3030  0.2722 -1.3584
  735TIP3    H2 2163   1.300   6.729   2.628 -1.5501 -0.5696  1.6695
  736TIP3   OH2 2164   5.024   7.348   4.434 -0.2540  0.0596  0.3042
  736TIP3    H1 2165   5.012   7.363   4.341  0.1237 -0.5501  0.1525
  736TIP3    H2 2166   5.112   7.311   4.442  0.4768  1.8484  1.0978
  737TIP3   OH2 2167   6.544   1.187   5.939 -0.6653  0.2809  0.4086
  737TIP3    H1 2168   6.627   1.167   5.982 -0.4864 -0.3949 -0.2260
  737TIP3    H2 2169   6.569   1.234   5.859 -0.8444 -0.4006 -0.0612
  738TIP3   OH2 2170   6.473   7.532   1.528  0.2819  0.3819 -0.5080
  738TIP3    H1 2171   6.532   7.563   1.460 -0.9493  0.2422 -1.6795
  738TIP3    H2 2172   6.390   7.515   1.483 -0.5637  0.2322  1.0148
  739TIP3   OH2 2173   5.813   0.594   2.606 -0.2054 -0.1340 -0.3655
  739TIP3    H1 2174   5.881   0.599   2.673  1.2211  1.5808 -1.8220
  739TIP3    H2 2175   5.777   0.506   2.614  0.3300 -0.2052  2.1923
  740TIP3   OH2 2176   2.863   0.170   5.309  0.0344  0.1608 -0.0281
  740TIP3    H1 2177   2.853   0.089   5.359 -1.3087 -0.2573 -0.9160
  740TIP3    H2 2178   2.789   0.224   5.335 -0.1706  0.3029 -0.8658
  741TIP3   OH2 2179   6.078   5.744   3.433  0.3235  0.5255  0.3538
  741TIP3    H1 2180   6.087   5.835   3.461 -1.6881  0.0985  2.8557
  741TIP3    H2 2181   6.144   5.697   3.483 -0.3610  0.3352  1.1173
  742TIP3   OH2 2182   4.041   0.707   6.598  0.3802 -0.2841 -0.0658
  742TIP3    H1 2183   3.964   0.716   6.655  1.1558  1.0258  0.8466
  742TIP3    H2 2184   4.034   0.780   6.537  0.9988 -0.0340  0.1569
  743TIP3   OH2 2185   0.816   3.820   3.323  0.1133 -0.2951  0.6333
  743TIP3    H1 2186   0.894   3.772   3.348 -0.4471 -1.4017  0.3114
  743TIP3    H2 2187   0.847   3.889   3.264  0.8939 -0.4047  0.9113
  744TIP3   OH2 2188   5.479   5.036   4.432  0.2560  0.1629  0.1630
  744TIP3    H1 2189   5.408   4.974   4.411 -0.6320  0.9313  0.8047
  744TIP3    H2 2190   5.480   5.097   4.359 -1.1813  1.3792  1.0884
  745TIP3   OH2 2191   3.443   4.207   3.108 -0.5021  0.1527 -0.2635
  745TIP3    H1 2192   3.470   4.213   3.016  0.3109  0.9381  0.0095
  745TIP3    H2 2193   3.524   4.222   3.157 -0.8388 -0.7026  0.5932
  746TIP3   OH2 2194   5.460   7.589   1.081 -0.2969 -0.0424 -0.3843
  746TIP3    H1 2195   5.449   7.635   1.164  0.8388 -1.1077  0.3905
  746TIP3    H2 2196   5.372   7.583   1.045 -0.5562  2.3519 -0.3347
  747TIP3   OH2 2197   2.640   1.572   0.128  0.3645 -0.3155  0.0928
  747TIP3    H1 2198   2.614   1.653   0.173  1.1255 -0.1679  0.2806
  747TIP3    H2 2199   2.656   1.509   0.199 -1.9972 -1.2190 -0.0907
  748TIP3   OH2 2200   0.271   4.141   3.577 -0.1744 -0.1579 -0.3015
  748TIP3    H1 2201   0.235   4.155   3.489 -0.9357 -2.3343 -0.3944
  748TIP3    H2 2202   0.288   4.047   3.582 -0.6442 -0.1926  2.0486
  749TIP3   OH2 2203   8.235   5.087   1.316 -0.1653 -0.6877  0.1322
  749TIP3    H1 2204   8.161   5.146   1.333  0.4671  0.1085  0.1715
  749TIP3    H2 2205   8.296   5.139   1.264  0.8119 -1.0147  0.9185
  750TIP3   OH2 2206   7.565   1.948   1.567  0.2033 -0.3357 -0.4966
  750TIP3    H1 2207   7.563   1.993   1.652  2.1401 -0.4875 -0.3203
  750TIP3    H2 2208   7.653   1.910   1.563  0.1486 -0.3194 -2.5923
  751TIP3   OH2 2209   5.348   1.602   0.775 -0.1845 -0.0630  0.0264
  751TIP3    H1 2210   5.258   1.573   0.759 -1.2349  2.7779  0.1849
  751TIP3    H2 2211   5.403   1.533   0.739 -2.4225 -0.2918 -3.4285
  752TIP3   OH2 2212   7.431   0.391   6.281 -0.0940  0.1695  0.8072
  752TIP3    H1 2213   7.404   0.366   6.193 -1.2845 -0.1303  1.2330
  752TIP3    H2 2214   7.351   0.423   6.323  0.3869  0.0323  1.8702
  753TIP3   OH2 2215   5.003   5.456   0.957 -0.1028 -0.5941  0.1626
  753TIP3    H1 2216   5.028   5.482   1.046  0.7086 -0.5518 -0.0611
  753TIP3    H2 2217   4.956   5.374   0.968  0.2601 -0.7496  0.6066
  754TIP3   OH2 2218   3.553   5.867   6.712 -0.4860 -0.2298  0.7009
  754TIP3    H1 2219   3.562   5.943   6.769  1.9186  0.1464 -0.0423
  754TIP3    H2 2220   3.597   5.796   6.759  0.9517 -0.0758 -0.3423
  755TIP3   OH2 2221   1.507   7.588   6.207 -0.1414  0.0096  0.3105
  755TIP3    H1 2222   1.594   7.560   6.177  0.4729  0.6682  1.3985
  755TIP3    H2 2223   1.494   7.544   6.290 -1.7748 -1.6909 -0.7729
  756TIP3   OH2 2224   4.298   0.659   1.460  0.1957 -0.8865  0.3441
  756TIP3    H1 2225   4.319   0.593   1.526  0.8553 -0.3433  0.7023
  756TIP3    H2 2226   4.213   0.694   1.487  0.7836 -0.1682  1.3393
  757TIP3   OH2 2227   1.244   3.186   1.220 -0.3281 -0.1336 -0.1475
  757TIP3    H1 2228   1.287   3.262   1.180  0.7771 -0.4510  0.3938
  757TIP3    H2 2229   1.314   3.123   1.231 -1.1819 -1.1305 -0.3123
  758TIP3   OH2 2230   1.215   2.326   5.889  0.4492  0.6710 -0.2610
  758TIP3    H1 2231   1.163   2.273   5.829  0.3478  1.6296 -1.0511
  758TIP3    H2 2232   1.276   2.373   5.833  1.4660  0.3661  0.5577
  759TIP3   OH2 2233   5.189   3.673   3.016  0.0596 -0.2948 -0.3762
  759TIP3    H1 2234   5.225   3.747   3.063 -0.9325 -0.5624  0.8679
  759TIP3    H2 2235   5.240   3.598   3.047 -0.2626 -0.4002 -0.0929
  760TIP3   OH2 2236   5.143   3.551   4.083 -0.0721 -0.4569 -0.1888
  760TIP3    H1 2237   5.155   3.490   4.155  0.3995  0.2043  0.3012
  760TIP3    H2 2238   5.139   3.495   4.005 -0.5746 -1.1721  0.3312
  761TIP3   OH2 2239   3.000   6.663   0.476 -0.3796 -0.3870  0.2472
  761TIP3    H1 2240   3.063   6.593   0.457  1.2222  0.6711  1.4545
  761TIP3    H2 2241   2.958   6.635   0.558 -0.2697 -0.2971  0.3348
  762TIP3   OH2 2242   6.499   0.720   5.712  0.0829  0.2045 -0.6218
  762TIP3    H1 2243   6.540   0.665   5.779 -0.7500 -0.7385 -0.8581
  762TIP3    H2 2244   6.568   0.779   5.684  0.3851  0.8132  1.2663
  763TIP3   OH2 2245   6.663   1.280   2.513 -0.2707  0.2637  0.7254
  763TIP3    H1 2246   6.740   1.305   2.566  1.2830 -0.0673 -1.2501
  763TIP3    H2 2247   6.633   1.362   2.475  1.7896 -0.0575 -1.8404
  764TIP3   OH2 2248   5.136   1.448   4.258  0.2887  0.1239  0.2140
  764TIP3    H1 2249   5.047   1.427   4.230  0.8697 -0.8313 -1.0736
  764TIP3    H2 2250   5.182   1.471   4.176  1.5426 -0.7063  0.6461
  765TIP3   OH2 2251   2.628   3.175   3.825 -0.5508  0.3763 -0.0121
  765TIP3    H1 2252   2.660   3.146   3.740 -0.7895  0.9715 -0.3142
  765TIP3    H2 2253   2.705   3.178   3.881 -0.5330 -0.9231  0.0658
  766TIP3   OH2 2254   6.611   1.643   4.163 -0.0426  0.0167  0.4214
  766TIP3    H1 2255   6.640   1.678   4.078  0.0389  1.1615  0.9046
  766TIP3    H2 2256   6.643   1.706   4.227  0.3775 -1.1269  1.3642
  767TIP3   OH2 2257   2.454   2.257   3.137  0.1171 -0.1640  0.1126
  767TIP3    H1 2258   2.452   2.162   3.151 -0.4429 -0.2025 -0.2227
  767TIP3    H2 2259   2.437   2.268   3.043 -0.6299  0.3018  0.2932
  768TIP3   OH2 2260   1.220   5.980   4.791  0.5245 -0.3227  0.2205
  768TIP3    H1 2261   1.141   5.934   4.763  0.1958  1.0926 -1.3645
  768TIP3    H2 2262   1.291   5.941   4.739  0.6848 -0.8068  0.7968
  769TIP3   OH2 2263   1.635   3.772   2.230  0.5379  0.1840 -0.3505
  769TIP3    H1 2264   1.716   3.825   2.229  0.0646  0.9175 -0.7399
  769TIP3    H2 2265   1.644   3.717   2.308  0.0938  2.3692  1.3781
  770TIP3   OH2 2266   5.347   7.561   4.787  0.3082  0.2878  0.2242
  770TIP3    H1 2267   5.261   7.551   4.747  0.8376 -0.6635 -0.7191
  770TIP3    H2 2268   5.402   7.597   4.718 -0.2193  5.1758  1.9588
  771TIP3   OH2 2269   0.319   5.875   2.109  0.2700 -0.6002 -0.1341
  771TIP3    H1 2270   0.311   5.806   2.042 -1.4691 -0.8116  0.2375
  771TIP3    H2 2271   0.228   5.896   2.132  0.8224 -0.2321  1.8719
  772TIP3   OH2 2272   7.353   1.042   3.136 -0.2796 -0.8904 -0.7881
  772TIP3    H1 2273   7.306   1.064   3.216  1.0983  1.3055 -0.4740
  772TIP3    H2 2274   7.330   1.112   3.075  1.9859 -0.0881 -0.8138
  773TIP3   OH2 2275   0.282   4.672   3.187  0.0261  0.1138  0.9355
  773TIP3    H1 2276   0.241   4.663   3.274 -0.8058  0.5891  0.6007
  773TIP3    H2 2277   0.231   4.614   3.131  1.3793 -1.2152  1.0049
  774TIP3   OH2 2278   5.208   6.115   2.613 -0.1426  0.8547 -0.2020
  774TIP3    H1 2279   5.160   6.092   2.693  0.9471  1.4279  0.6376
  774TIP3    H2 2280   5.217   6.032   2.567  1.6594 -0.0629  1.6334
  775TIP3   OH2 2281   2.741   6.093   5.188  0.3165 -0.3520  0.1084
  775TIP3    H1 2282   2.658   6.117   5.229  0.9225  2.6245 -0.2312
  775TIP3    H2 2283   2.762   6.007   5.225 -1.5792  0.0181  2.2113
  776TIP3   OH2 2284   1.150   7.492   6.561  0.8987 -0.1789  0.3910
  776TIP3    H1 2285   1.173   7.403   6.535  0.6275 -0.2638  0.4406
  776TIP3    H2 2286   1.055   7.491   6.570  1.1253 -0.7340  3.5030
  777TIP3   OH2 2287   5.022   5.895   0.403 -0.0892 -0.0399 -0.3458
  777TIP3    H1 2288   5.033   5.909   0.309 -2.2230 -0.2794 -0.6885
  777TIP3    H2 2289   4.938   5.935   0.423  1.2035  1.7629  1.9096
  778TIP3   OH2 2290   3.962   1.647   6.754  0.1866  0.2192 -0.5131
  778TIP3    H1 2291   4.030   1.642   6.687  1.1629  1.5441  0.3201
  778TIP3    H2 2292   3.979   1.730   6.799 -1.5688  0.2543  0.1719
  779TIP3   OH2 2293   6.764   4.612   1.025 -0.3525  0.3832  0.1958
  779TIP3    H1 2294   6.816   4.664   0.964 -0.3636  0.7235  0.4714
  779TIP3    H2 2295   6.793   4.641   1.111  0.7039 -1.1208  0.3828
  780TIP3   OH2 2296   7.354   2.762   5.376 -0.2044 -0.0350 -0.3131
  780TIP3    H1 2297   7.359   2.726   5.287 -0.5409  1.2335 -0.8755
  780TIP3    H2 2298   7.264   2.742   5.405  0.7832 -3.2151  1.0403
  781TIP3   OH2 2299   0.776   0.708   2.965 -0.2106  0.0651  0.2648
  781TIP3    H1 2300   0.697   0.753   2.995 -1.9151 -1.9272 -0.9769
  781TIP3    H2 2301   0.794   0.644   3.034 -0.7855 -0.6945 -0.2720
  782TIP3   OH2 2302   1.229   3.952   0.443 -0.6996 -0.2048 -0.3989
  782TIP3    H1 2303   1.297   4.009   0.406  0.5185 -1.0560  0.4232
  782TIP3    H2 2304   1.155   4.010   0.459  0.3180  1.0528 -0.0592
  783TIP3   OH2 2305   7.611   4.639   4.676 -0.0373  0.0191 -0.4348
  783TIP3    H1 2306   7.699   4.650   4.640  0.0154  2.0264  0.1734
  783TIP3    H2 2307   7.558   4.705   4.632 -0.5711  0.7416  1.2013
  784TIP3   OH2 2308   6.586   6.951   4.945  0.2462 -0.3204  0.1906
  784TIP3    H1 2309   6.524   7.024   4.950 -1.2370 -1.6084  2.9956
  784TIP3    H2 2310   6.573   6.915   4.857 -1.6689  0.5882  0.0445
  785TIP3   OH2 2311   5.556   1.231   6.643 -0.6272  0.5086 -0.8365
  785TIP3    H1 2312   5.589   1.233   6.554  1.9333  0.6277  0.0464
  785TIP3    H2 2313   5.550   1.138   6.666  0.4249  0.4980 -0.5678
  786TIP3   OH2 2314   4.443   7.652   6.280 -0.3853  0.1436  0.0212
  786TIP3    H1 2315   4.478   7.624   6.195 -1.4672  0.9431 -0.7275
  786TIP3    H2 2316   4.401   7.574   6.315 -3.0248  0.5753 -1.8545
  787TIP3   OH2 2317   6.334   4.368   4.114  0.0306  0.0229 -0.6561
  787TIP3    H1 2318   6.351   4.314   4.190 -0.9336  0.3986 -0.1527
  787TIP3    H2 2319   6.392   4.444   4.124  1.8567 -1.1669 -1.6950
  788TIP3   OH2 2320   1.001   3.767   0.174  0.3671 -0.3614 -0.2743
  788TIP3    H1 2321   1.028   3.831   0.108 -2.2549 -1.7162 -2.9120
  788TIP3    H2 2322   0.940   3.816   0.230 -0.2912 -0.0716 -1.2106
  789TIP3   OH2 2323   3.936   2.049   3.627  0.1482  0.0916  0.5245
  789TIP3    H1 2324   3.902   2.131   3.591  0.1946  0.4405  1.2562
  789TIP3    H2 2325   3.861   1.989   3.626  0.7353 -0.7603 -2.5353
  790TIP3   OH2 2326   6.645   1.584   3.423  0.9573  0.1585 -0.3886
  790TIP3    H1 2327   6.620   1.527   3.351  0.2154  0.5509 -0.4474
  790TIP3    H2 2328   6.630   1.673   3.390 -0.1858  0.3247  0.5249
  791TIP3   OH2 2329   5.815   6.612   6.076  0.9861 -0.1809  0.2465
  791TIP3    H1 2330   5.889   6.596   6.019  1.8072 -0.4252  1.3409
  791TIP3    H2 2331   5.850   6.601   6.165 -0.5821 -1.3454  0.7686
  792TIP3   OH2 2332   2.210   6.748   4.436  0.3183  0.1311  0.2549
  792TIP3    H1 2333   2.141   6.812   4.454  0.0373 -0.1167  0.0677
  792TIP3    H2 2334   2.291   6.799   4.437  0.2526  0.2583  1.5501
  793TIP3   OH2 2335   2.136   7.587   0.268  0.1137 -0.6855  0.1622
  793TIP3    H1 2336   2.216   7.542   0.296 -0.5284 -0.7769  1.9364
  793TIP3    H2 2337   2.097   7.527   0.204  1.2458 -0.8101 -0.4523
  794TIP3   OH2 2338   0.257   5.646   1.899 -0.5501  0.1116  0.1921
  794TIP3    H1 2339   0.209   5.635   1.817  2.1430  2.6523 -1.9744
  794TIP3    H2 2340   0.341   5.602   1.884 -0.0629  0.5077  1.6071
  795TIP3   OH2 2341   2.258   2.376   3.832 -0.0251 -0.2986 -0.1129
  795TIP3    H1 2342   2.278   2.446   3.770 -1.0422  2.3467  2.3236
  795TIP3    H2 2343   2.164   2.361   3.822 -0.1105 -0.1715  0.4246
  796TIP3   OH2 2344   4.771   7.210   4.907 -0.5003 -0.6155 -0.4624
  796TIP3    H1 2345   4.829   7.194   4.981 -1.3018 -0.3787  0.2197
  796TIP3    H2 2346   4.747   7.123   4.876 -2.3005 -0.7669  1.2449
  797TIP3   OH2 2347   0.830   6.762   5.875  0.1674  0.0338  0.4736
  797TIP3    H1 2348   0.803   6.822   5.805  0.9047  1.7938  1.6372
  797TIP3    H2 2349   0.919   6.735   5.850 -0.0052 -0.2430  0.1570
  798TIP3   OH2 2350   5.987   3.101   4.341  0.4648  0.0761 -0.6282
  798TIP3    H1 2351   6.073   3.087   4.301  0.3534  1.3207 -1.3483
  798TIP3    H2 2352   5.925   3.065   4.277  0.4617 -1.9586  0.4350
  799TIP3   OH2 2353   1.368   0.576   6.503 -0.1430  0.0050  0.7631
  799TIP3    H1 2354   1.314   0.504   6.470 -1.3996 -0.5518  3.7334
  799TIP3    H2 2355   1.308   0.651   6.507 -0.2992 -0.1721  2.4640
  800TIP3   OH2 2356   4.832   2.848   2.335  0.4581 -0.2975  0.4233
  800TIP3    H1 2357   4.795   2.874   2.420 -0.4923 -1.1236  0.2857
  800TIP3    H2 2358   4.837   2.929   2.285 -1.2155 -0.1408  0.4541
  801TIP3   OH2 2359   4.033   3.683   5.943  0.1919 -0.4402 -0.3328
  801TIP3    H1 2360   4.025   3.731   5.861 -0.5846  1.0432  0.5653
  801TIP3    H2 2361   4.028   3.590   5.918  0.1512 -0.0199 -1.9561
  802TIP3   OH2 2362   0.516   2.859   2.710 -0.0827  0.0948 -0.4123
  802TIP3    H1 2363   0.534   2.782   2.763 -0.1623  1.0563  1.0714
  802TIP3    H2 2364   0.485   2.925   2.773 -0.6635  1.1230 -1.7286
  803TIP3   OH2 2365   1.607   4.667   4.979 -0.4177  0.0188 -0.0363
  803TIP3    H1 2366   1.617   4.591   4.922  1.4786  0.0323  0.2033
  803TIP3    H2 2367   1.610   4.631   5.067 -3.4002 -0.0086  0.1512
  804TIP3   OH2 2368   1.505   3.720   3.500  0.3209  0.5547 -0.3937
  804TIP3    H1 2369   1.560   3.669   3.560  0.6601  1.0923 -0.2425
  804TIP3    H2 2370   1.557   3.798   3.481 -0.8317  1.5882  0.5740
  805TIP3   OH2 2371   2.823   5.925   3.164 -0.6046  0.0210  0.0071
  805TIP3    H1 2372   2.836   5.834   3.190  2.1805  0.4842  0.5274
  805TIP3    H2 2373   2.782   5.966   3.240 -0.6907 -0.5158  0.2575
  806TIP3   OH2 2374   2.647   3.903   2.041 -0.2063 -0.5441  0.3336
  806TIP3    H1 2375   2.612   3.814   2.045 -3.5440  0.6692  0.9865
  806TIP3    H2 2376   2.640   3.928   1.949  0.1574 -0.7460  0.2514
  807TIP3   OH2 2377   6.748   5.968   0.850 -0.1699  0.0968 -0.1496
  807TIP3    H1 2378   6.800   5.889   0.865  0.2825  0.5598  0.8334
  807TIP3    H2 2379   6.663   5.948   0.888 -0.4638 -0.3619 -1.0228
  808TIP3   OH2 2380   7.014   2.486   2.406  0.5048  0.3810  0.2956
  808TIP3    H1 2381   7.033   2.566   2.357  0.0497  0.0706 -0.3942
  808TIP3    H2 2382   7.066   2.418   2.363  0.8624  0.2913  0.8580
  809TIP3   OH2 2383   5.510   0.157   0.575 -0.3266 -0.1291 -0.3282
  809TIP3    H1 2384   5.493   0.100   0.650  1.0552 -0.9085 -0.5681
  809TIP3    H2 2385   5.424   0.183   0.544 -0.9405 -0.4054  1.0603
  810TIP3   OH2 2386   4.379   5.617   0.282 -0.0246 -0.4355 -0.3231
  810TIP3    H1 2387   4.411   5.706   0.265  1.9261 -1.0818 -0.1931
  810TIP3    H2 2388   4.331   5.625   0.364 -2.3922  1.0338 -1.7063
  811TIP3   OH2 2389   6.685   2.340   3.958  0.0074  0.2952  0.6663
  811TIP3    H1 2390   6.693   2.434   3.976 -1.0175  0.6075 -0.3841
  811TIP3    H2 2391   6.775   2.308   3.953  0.6521  2.1883 -3.7099
  812TIP3   OH2 2392   1.206   0.313   5.801 -0.2769  0.3626  0.2720
  812TIP3    H1 2393   1.128   0.258   5.807  0.3935 -1.0221 -2.2752
  812TIP3    H2 2394   1.255   0.293   5.880 -0.5290 -2.0187 -0.1065
  813TIP3   OH2 2395   2.954   0.851   6.254 -0.2058 -0.6150 -0.1808
  813TIP3    H1 2396   2.945   0.835   6.348 -2.4942  0.8252 -0.0870
  813TIP3    H2 2397   2.949   0.946   6.245  0.0329 -0.7271 -1.7638
  814TIP3   OH2 2398   1.877   2.477   5.389  0.5083 -0.1407  0.3030
  814TIP3    H1 2399   1.815   2.436   5.449 -0.2383  1.5219  0.7333
  814TIP3    H2 2400   1.900   2.560   5.431 -0.5257  1.3883 -1.9219
  815TIP3   OH2 2401   2.247   3.379   2.681 -0.0258  0.7001  0.1308
  815TIP3    H1 2402   2.192   3.376   2.759 -0.6590 -0.4140 -0.3419
  815TIP3    H2 2403   2.336   3.372   2.715 -0.2895  0.2942  0.7684
  816TIP3   OH2 2404   4.894   6.535   3.597 -0.0543  0.9348 -0.2746
  816TIP3    H1 2405   4.875   6.441   3.591 -0.1325  0.9637 -0.5047
  816TIP3    H2 2406   4.833   6.568   3.663 -0.7075  0.9969 -0.8926
  817TIP3   OH2 2407   8.210   1.182   6.186  0.2729  0.2303 -0.4689
  817TIP3    H1 2408   8.136   1.130   6.218  0.8559  0.3077  1.0946
  817TIP3    H2 2409   8.181   1.273   6.196  0.1531  0.2428 -0.9317
  818TIP3   OH2 2410   4.809   0.247   0.144  0.2507  0.2664 -0.2313
  818TIP3    H1 2411   4.801   0.162   0.186 -0.8610  0.7880  0.6586
  818TIP3    H2 2412   4.742   0.301   0.186  0.0948  1.2306 -1.6490
  819TIP3   OH2 2413   7.471   0.219   2.310  0.3391 -0.3828 -0.6888
  819TIP3    H1 2414   7.522   0.271   2.372 -2.6527  2.0595 -0.0440
  819TIP3    H2 2415   7.447   0.281   2.241 -0.2001 -1.9141 -1.9321
  820TIP3   OH2 2416   6.063   0.059   2.431 -0.0480 -0.2874 -0.4459
  820TIP3    H1 2417   6.016   0.104   2.501 -0.4669  0.4297 -1.1687
  820TIP3    H2 2418   6.080   0.127   2.366 -0.1993 -1.0609 -1.3145
  821TIP3   OH2 2419   6.418   1.021   4.669 -0.1849  0.6960  0.4800
  821TIP3    H1 2420   6.371   1.085   4.616  0.5513  0.4934 -0.4428
  821TIP3    H2 2421   6.505   1.015   4.629  0.2689  0.2530  1.4808
  822TIP3   OH2 2422   0.729   4.698   5.564  0.6497 -0.4760 -0.2589
  822TIP3    H1 2423   0.802   4.741   5.519 -0.5590  1.5892 -0.3901
  822TIP3    H2 2424   0.666   4.679   5.495  0.6690 -1.4434 -0.0251
  823TIP3   OH2 2425   1.254   1.995   4.765  0.0800  0.1746 -0.0072
  823TIP3    H1 2426   1.276   1.952   4.847  1.8321  1.5108  0.2996
  823TIP3    H2 2427   1.162   2.020   4.774 -0.1216 -0.8507  0.9874
  824TIP3   OH2 2428   6.114   3.533   1.841 -0.7781 -0.2111 -0.1692
  824TIP3    H1 2429   6.080   3.508   1.755 -1.6532  1.2915 -0.2897
  824TIP3    H2 2430   6.126   3.450   1.887 -0.6648 -1.0130 -1.5922
  825TIP3   OH2 2431   1.195   1.876   0.435  0.3763 -0.3997  0.0459
  825TIP3    H1 2432   1.240   1.791   0.443  0.4464 -0.1636  3.5043
  825TIP3    H2 2433   1.258   1.940   0.466 -0.0168  0.8868 -1.6309
  826TIP3   OH2 2434   7.366   2.802   3.831 -0.3249 -0.3507 -0.2676
  826TIP3    H1 2435   7.390   2.893   3.814 -0.1053 -0.2202  0.6518
  826TIP3    H2 2436   7.382   2.791   3.925  0.3039 -1.5403 -0.4961
  827TIP3   OH2 2437   0.336   0.695   1.531  0.3394  0.0356  0.2538
  827TIP3    H1 2438   0.390   0.667   1.606  0.1260 -0.0700  0.3687
  827TIP3    H2 2439   0.399   0.709   1.460  0.5659  0.3461  0.5139
  828TIP3   OH2 2440   0.589   7.758   6.050  0.2407 -0.0387  0.1044
  828TIP3    H1 2441   0.503   7.717   6.062 -0.0233  0.0117 -1.4018
  828TIP3    H2 2442   0.610   7.795   6.136 -2.0305  1.4088  0.1495
  829TIP3   OH2 2443   0.344   2.580   2.562  0.0648  0.2120 -0.5113
  829TIP3    H1 2444   0.392   2.561   2.482  0.7541 -0.2676  0.0091
  829TIP3    H2 2445   0.411   2.584   2.631 -0.8413 -3.6970  0.8366
  830TIP3   OH2 2446   1.878   7.432   2.497  0.2460  0.4676 -0.9703
  830TIP3    H1 2447   1.916   7.519   2.495  1.1966  0.0723 -0.7589
  830TIP3    H2 2448   1.833   7.423   2.413  0.2873  1.0944 -1.0644
  831TIP3   OH2 2449   6.975   6.592   4.463  0.2427  0.4323  0.5627
  831TIP3    H1 2450   7.004   6.551   4.545  1.3303  0.5096  0.2301
  831TIP3    H2 2451   6.910   6.657   4.491 -0.1939 -0.2709  1.2566
  832TIP3   OH2 2452   2.805   0.863   5.297 -0.2389  0.5339 -0.0765
  832TIP3    H1 2453   2.744   0.791   5.316  0.4378  0.4892  2.1391
  832TIP3    H2 2454   2.889   0.819   5.281 -0.5447  0.6502 -2.3220
  833TIP3   OH2 2455   0.893   0.511   5.347  0.1044 -0.0672 -1.1412
  833TIP3    H1 2456   0.859   0.435   5.299  0.0709  0.0923 -1.3750
  833TIP3    H2 2457   0.856   0.502   5.435 -4.1507  2.2946 -2.3927
  834TIP3   OH2 2458   4.125   5.311   3.809 -0.1785  0.2509 -0.0497
  834TIP3    H1 2459   4.079   5.370   3.870 -2.3574 -0.3944 -0.9473
  834TIP3    H2 2460   4.144   5.233   3.861 -0.0038  0.5669  0.3663
  835TIP3   OH2 2461   5.877   2.448   3.651 -0.0481 -0.0213 -0.1648
  835TIP3    H1 2462   5.909   2.465   3.740  0.9863 -0.9942 -0.3264
  835TIP3    H2 2463   5.796   2.399   3.664 -0.9178  1.4613  0.2420
  836TIP3   OH2 2464   2.909   4.513   0.278 -0.0918 -0.2411  0.6536
  836TIP3    H1 2465   2.974   4.511   0.348 -0.2090 -0.0890  0.7666
  836TIP3    H2 2466   2.947   4.459   0.209 -0.2541 -0.9209  1.0839
  837TIP3   OH2 2467   5.765   2.879   6.005 -0.1247 -0.2229 -0.0135
  837TIP3    H1 2468   5.784   2.970   6.030 -0.1503  0.1203 -1.1772
  837TIP3    H2 2469   5.738   2.837   6.087  0.5077  0.6457  0.6728
  838TIP3   OH2 2470   6.645   7.567   1.784  0.3773 -0.3207 -0.7834
  838TIP3    H1 2471   6.602   7.609   1.710  0.1028  0.6430 -0.1035
  838TIP3    H2 2472   6.738   7.567   1.762  0.3931  0.7291 -0.7827
  839TIP3   OH2 2473   1.842   3.822   4.193 -0.0533 -0.1217  0.3247
  839TIP3    H1 2474   1.884   3.838   4.109 -1.0435  1.1306  0.0207
  839TIP3    H2 2475   1.761   3.775   4.171 -0.0705 -0.2354  0.6225
  840TIP3   OH2 2476   0.280   2.343   1.106 -0.4646  0.3427  0.0681
  840TIP3    H1 2477   0.247   2.412   1.163 -1.1165 -0.0334  0.1458
  840TIP3    H2 2478   0.272   2.380   1.017  0.2151  0.7854  0.1782
  841TIP3   OH2 2479   7.149   6.607   5.515 -0.0917  0.4542  0.1753
  841TIP3    H1 2480   7.149   6.693   5.472  0.0888  0.8428  0.9387
  841TIP3    H2 2481   7.211   6.617   5.588 -0.7546 -0.0522  0.8135
  842TIP3   OH2 2482   8.244   1.635   1.012 -0.0174  0.5849  0.2392
  842TIP3    H1 2483   8.156   1.607   0.985 -0.2528  0.8188  0.7483
  842TIP3    H2 2484   8.242   1.730   1.005  0.6513  0.5263 -1.0862
  843TIP3   OH2 2485   3.441   0.133   1.404 -0.0372 -0.1516 -0.2322
  843TIP3    H1 2486   3.512   0.076   1.430 -0.9594 -1.0404  0.4300
  843TIP3    H2 2487   3.383   0.137   1.480 -1.0968 -0.1062 -1.0023
  844TIP3   OH2 2488   1.639   4.217   2.514  0.0672 -0.6321 -0.5385
  844TIP3    H1 2489   1.595   4.218   2.429 -1.3201  0.5724  0.1455
  844TIP3    H2 2490   1.731   4.233   2.493 -0.3819  0.5513 -1.7519
  845TIP3   OH2 2491   1.736   2.728   4.242 -0.1068  0.1360 -0.3289
  845TIP3    H1 2492   1.794   2.671   4.190 -0.5296  0.8742 -1.6587
  845TIP3    H2 2493   1.721   2.680   4.323  1.5037 -0.5558 -0.3983
  846TIP3   OH2 2494   7.035   1.347   0.763  0.2831  0.0164  0.2452
  846TIP3    H1 2495   7.032   1.438   0.735 -0.7602 -0.3218 -0.8172
  846TIP3    H2 2496   7.119   1.315   0.729 -0.2104  0.0721 -1.0522
  847TIP3   OH2 2497   4.050   1.388   0.658 -0.1397  0.2577  0.0519
  847TIP3    H1 2498   4.068   1.343   0.741  1.2402  0.9436  0.1616
  847TIP3    H2 2499   3.976   1.445   0.678  0.3315  0.6033  0.9151
  848TIP3   OH2 2500   6.487   0.105   2.965  0.2439  0.3298  0.2640
  848TIP3    H1 2501   6.534   0.128   2.885  1.5868 -0.0702  0.9080
  848TIP3    H2 2502   6.405   0.154   2.961 -0.1613 -0.4348 -1.8127
  849TIP3   OH2 2503   4.920   0.094   4.670  0.4985  0.4111  0.5964
  849TIP3    H1 2504   4.850   0.088   4.735  0.0412  1.6085  0.2454
  849TIP3    H2 2505   4.903   0.022   4.609 -0.4952  0.7401  0.4643
  850TIP3   OH2 2506   2.460   2.262   1.062  0.2159  0.1087  0.3309
  850TIP3    H1 2507   2.492   2.212   1.138  1.1900 -1.4790 -1.0526
  850TIP3    H2 2508   2.400   2.203   1.018 -0.5515  1.1236 -0.0256
  851TIP3   OH2 2509   1.637   5.855   6.357  0.4929  0.4679  0.0660
  851TIP3    H1 2510   1.590   5.810   6.287  1.2556 -1.2363  0.5987
  851TIP3    H2 2511   1.572   5.913   6.396 -0.3855  0.2406 -0.9888
  852TIP3   OH2 2512   8.256   0.952   6.423 -0.1037 -0.1688 -0.3357
  852TIP3    H1 2513   8.255   0.995   6.337 -1.0160  0.9463  0.2071
  852TIP3    H2 2514   8.346   0.961   6.453  1.0777 -3.3080 -2.4431
  853TIP3   OH2 2515   0.939   1.287   6.677 -0.0556 -0.1464 -0.6554
  853TIP3    H1 2516   0.846   1.277   6.660 -0.4150  0.2976  0.8897
  853TIP3    H2 2517   0.954   1.242   6.760  1.1900 -0.5664 -1.0880
  854TIP3   OH2 2518   4.163   6.456   5.367 -0.2157  0.3594 -0.4123
  854TIP3    H1 2519   4.119   6.536   5.395 -0.8659 -0.2682  0.4159
  854TIP3    H2 2520   4.132   6.389   5.428  1.7641 -0.1468  0.1166
  855TIP3   OH2 2521   5.017   2.844   5.540 -0.0673  0.2770  0.2084
  855TIP3    H1 2522   5.027   2.752   5.517 -1.7475 -0.2190  1.3086
  855TIP3    H2 2523   5.011   2.845   5.635  1.3649  1.7007  0.3157
  856TIP3   OH2 2524   6.955   3.167   3.693 -0.3088 -0.5832 -0.3574
  856TIP3    H1 2525   6.891   3.158   3.623  0.1503 -0.3361 -0.8146
  856TIP3    H2 2526   6.963   3.261   3.708 -2.0330 -0.6616  1.5710
  857TIP3   OH2 2527   2.915   6.325   5.472  0.0603 -0.4415 -0.2760
  857TIP3    H1 2528   2.905   6.356   5.382  1.0996  1.6608  0.2656
  857TIP3    H2 2529   2.991   6.267   5.469  0.4353  0.0598 -0.6798
  858TIP3   OH2 2530   1.216   0.522   5.377  0.1439  0.0666 -0.2745
  858TIP3    H1 2531   1.128   0.488   5.389  0.1373  0.9009  3.1573
  858TIP3    H2 2532   1.204   0.607   5.334 -1.0741  1.1871  2.0648
  859TIP3   OH2 2533   3.290   2.461   2.949  0.0891  0.3260 -0.1276
  859TIP3    H1 2534   3.376   2.501   2.963  0.1166  0.0215  0.6069
  859TIP3    H2 2535   3.299   2.416   2.864  1.9872 -2.9971  1.6188
  860TIP3   OH2 2536   4.256   3.755   3.491  0.0869 -0.3673 -0.4805
  860TIP3    H1 2537   4.246   3.709   3.575 -1.5009  1.2711  0.2772
  860TIP3    H2 2538   4.335   3.808   3.502 -2.4211  3.2805  1.7915
  861TIP3   OH2 2539   6.808   2.485   4.679  0.2618 -0.2391  0.4359
  861TIP3    H1 2540   6.812   2.549   4.608 -0.3038  0.6499  1.1814
  861TIP3    H2 2541   6.844   2.405   4.641  0.6627  0.4193 -0.6228
  862TIP3   OH2 2542   0.920   2.313   2.236  0.8377  0.2163 -0.2427
  862TIP3    H1 2543   0.986   2.336   2.300 -1.4685  3.0971  1.3592
  862TIP3    H2 2544   0.858   2.257   2.284  0.7500 -0.3056 -0.9388
  863TIP3   OH2 2545   1.872   5.352   0.346  0.2196  0.2699 -0.1140
  863TIP3    H1 2546   1.868   5.362   0.441 -0.0255 -1.8040  0.1269
  863TIP3    H2 2547   1.782   5.370   0.316  0.4316  1.5438 -0.0674
  864TIP3   OH2 2548   1.658   7.458   2.025  0.6966  1.1013  0.7304
  864TIP3    H1 2549   1.725   7.461   1.956  2.0312  2.5545  2.0095
  864TIP3    H2 2550   1.612   7.542   2.017 -0.9175  0.1847 -0.0303
  865TIP3   OH2 2551   6.555   2.620   3.965 -0.5824 -0.6614  0.1313
  865TIP3    H1 2552   6.560   2.588   3.874  2.7015  4.0409 -1.7402
  865TIP3    H2 2553   6.462   2.616   3.987 -1.7312 -0.8620 -3.9502
  866TIP3   OH2 2554   1.137   2.005   2.090 -0.4828 -0.0121 -0.6481
  866TIP3    H1 2555   1.054   1.991   2.136 -0.0231  0.9902  0.5416
  866TIP3    H2 2556   1.199   2.027   2.159  0.8054 -0.8154 -1.5186
  867TIP3   OH2 2557   7.249   0.381   6.676 -0.3048 -0.1218  0.3958
  867TIP3    H1 2558   7.175   0.329   6.644  1.0208 -1.5920 -0.4245
  867TIP3    H2 2559   7.317   0.317   6.696  0.0808  1.0119  3.1825
  868TIP3   OH2 2560   6.821   4.713   0.647 -0.3863 -0.4906 -0.3384
  868TIP3    H1 2561   6.733   4.681   0.628 -1.3128  1.3813  0.4891
  868TIP3    H2 2562   6.839   4.777   0.578 -1.1581  1.6712  1.3584
  869TIP3   OH2 2563   6.052   7.296   0.958 -0.0338  0.2228  0.7135
  869TIP3    H1 2564   6.061   7.202   0.971 -0.0547 -0.3633 -2.6996
  869TIP3    H2 2565   6.142   7.329   0.960  0.2435 -0.3691 -0.8608
  870TIP3   OH2 2566   2.009   2.305   5.853  0.2588 -0.4468  0.3387
  870TIP3    H1 2567   2.028   2.312   5.759 -2.3662  1.5471 -0.1595
  870TIP3    H2 2568   1.942   2.237   5.858 -1.7411  1.4063  0.2829
  871TIP3   OH2 2569   7.847   5.665   0.120  0.2316 -0.4185 -0.1269
  871TIP3    H1 2570   7.820   5.638   0.033 -0.6030 -0.3568  0.0980
  871TIP3    H2 2571   7.942   5.668   0.117  0.2052 -0.3713 -1.0442
  872TIP3   OH2 2572   7.334   5.220   0.749  1.1915 -0.2079 -0.2003
  872TIP3    H1 2573   7.397   5.222   0.821  1.2828  0.1182 -0.2843
  872TIP3    H2 2574   7.382   5.180   0.676  1.2895 -0.0002 -0.2511
  873TIP3   OH2 2575   1.956   3.087   1.579  0.1941 -0.1655  0.3297
  873TIP3    H1 2576   1.871   3.131   1.576  0.7133  1.1091  2.1926
  873TIP3    H2 2577   2.011   3.139   1.521  0.3431  0.6075  1.1417
  874TIP3   OH2 2578   5.378   3.562   2.131 -0.1310  0.3035  0.0112
  874TIP3    H1 2579   5.443   3.498   2.161  2.8088  2.3193 -1.5644
  874TIP3    H2 2580   5.355   3.611   2.209 -0.6888 -1.1586  0.8069
  875TIP3   OH2 2581   4.093   7.496   1.604  0.4371  0.5592 -0.0765
  875TIP3    H1 2582   4.012   7.478   1.652  0.8971 -1.0750  0.1434
  875TIP3    H2 2583   4.084   7.448   1.522  1.1745  0.3535 -0.0454
  876TIP3   OH2 2584   3.673   7.188   1.574 -0.1208 -0.0126  0.2407
  876TIP3    H1 2585   3.677   7.283   1.567  3.0447 -0.0651  0.1978
  876TIP3    H2 2586   3.678   7.171   1.668 -0.0797 -0.1528  0.2136
  877TIP3   OH2 2587   6.836   6.926   1.603 -0.4949  0.5199  0.0197
  877TIP3    H1 2588   6.757   6.942   1.655 -1.7935 -0.7677 -1.4730
  877TIP3    H2 2589   6.896   6.996   1.630 -1.4078  0.4308  2.5638
  878TIP3   OH2 2590   3.807   1.189   4.161 -0.2720 -0.8677 -0.5208
  878TIP3    H1 2591   3.889   1.214   4.205 -0.8722 -2.4118  1.6348
  878TIP3    H2 2592   3.753   1.267   4.164  1.5641  0.7082 -3.3986
  879TIP3   OH2 2593   0.636   3.474   1.995  0.0960 -0.0138  0.4152
  879TIP3    H1 2594   0.613   3.385   2.020 -0.1319  0.1834  0.9228
  879TIP3    H2 2595   0.616   3.527   2.072  1.1801  0.3296  0.4690
  880TIP3   OH2 2596   5.034   3.991   1.890  0.4761  0.1959 -0.4956
  880TIP3    H1 2597   4.982   3.911   1.892 -0.0516  0.5298 -0.5249
  880TIP3    H2 2598   4.997   4.041   1.817 -2.6937  2.7368  2.5057
  881TIP3   OH2 2599   4.250   2.269   5.173  0.2011 -0.0312 -0.4420
  881TIP3    H1 2600   4.191   2.234   5.239  0.8876 -1.3457 -0.5027
  881TIP3    H2 2601   4.222   2.230   5.091  1.2843 -0.8623 -0.4366
  882TIP3   OH2 2602   2.161   3.228   1.161  0.2436  0.2989 -0.2828
  882TIP3    H1 2603   2.147   3.316   1.195 -0.9470  0.1753 -0.3829
  882TIP3    H2 2604   2.104   3.173   1.215  2.0159 -0.6439  0.7132
  883TIP3   OH2 2605   4.525   2.148   2.964  0.2841 -0.3117 -0.2929
  883TIP3    H1 2606   4.600   2.109   2.919  1.2509  1.3211 -0.1499
  883TIP3    H2 2607   4.501   2.223   2.910 -0.1427  0.1994  0.5952
  884TIP3   OH2 2608   1.017   5.029   5.598 -0.4938 -0.5235 -0.6519
  884TIP3    H1 2609   1.023   5.012   5.692  1.7669 -0.5715 -0.7283
  884TIP3    H2 2610   0.927   5.008   5.575 -1.2440 -0.0063  1.5905
  885TIP3   OH2 2611   1.760   0.827   1.998 -0.5383  0.0243  0.0256
  885TIP3    H1 2612   1.829   0.891   2.015 -2.0645  1.9723 -0.6755
  885TIP3    H2 2613   1.683   0.862   2.042 -1.3624 -1.5219 -0.1068
  886TIP3   OH2 2614   3.599   7.082   5.951 -0.1673  0.6115  0.5350
  886TIP3    H1 2615   3.547   7.115   5.878 -0.5164 -0.2025  0.4026
  886TIP3    H2 2616   3.576   6.989   5.957  1.4545  0.1540  0.3078
  887TIP3   OH2 2617   2.501   4.537   4.154  0.1040  0.0722  0.0403
  887TIP3    H1 2618   2.577   4.483   4.171  0.4796  0.2036 -1.1548
  887TIP3    H2 2619   2.442   4.482   4.103  0.1333  0.5179 -0.4833
  888TIP3   OH2 2620   0.930   1.451   2.740  0.3007  0.2454 -0.0367
  888TIP3    H1 2621   0.886   1.387   2.684  0.1730 -0.7441  1.1531
  888TIP3    H2 2622   0.859   1.499   2.782  0.3759  1.9201 -1.6629
  889TIP3   OH2 2623   8.184   3.551   5.970 -0.8297  0.5542  0.5083
  889TIP3    H1 2624   8.257   3.607   5.998 -0.8484 -0.4937  2.9731
  889TIP3    H2 2625   8.214   3.462   5.991 -1.6808 -0.1908 -1.2264
  890TIP3   OH2 2626   3.392   7.774   0.266 -0.2357 -0.0210 -0.2152
  890TIP3    H1 2627   3.410   7.709   0.333  0.7030 -0.2448 -0.6623
  890TIP3    H2 2628   3.317   7.823   0.299  0.4600  0.1356  1.1837
  891TIP3   OH2 2629   5.334   7.550   6.622 -0.0468  0.0118 -0.1205
  891TIP3    H1 2630   5.402   7.607   6.585 -0.1768  0.5247  0.4061
  891TIP3    H2 2631   5.317   7.588   6.708 -1.0610 -0.0640 -0.2816
  892TIP3   OH2 2632   6.343   5.199   0.458  0.2179  0.4500 -0.0100
  892TIP3    H1 2633   6.341   5.285   0.416 -0.1908  0.2880 -0.3332
  892TIP3    H2 2634   6.267   5.153   0.422  0.6570 -0.1891 -0.1428
  893TIP3   OH2 2635   4.655   7.303   3.443  0.4444 -0.2977 -0.0393
  893TIP3    H1 2636   4.692   7.302   3.532  0.7313 -0.2211 -0.1578
  893TIP3    H2 2637   4.724   7.267   3.388  0.0481 -0.8981 -0.1498
  894TIP3   OH2 2638   5.038   3.368   2.629 -0.4782  0.4298  0.0049
  894TIP3    H1 2639   5.015   3.453   2.592  0.0520  0.5481 -0.0526
  894TIP3    H2 2640   4.961   3.343   2.681  0.1228  1.8617  1.6833
  895TIP3   OH2 2641   8.241   0.615   2.844 -0.4823  0.2872  0.4240
  895TIP3    H1 2642   8.276   0.567   2.769 -1.6177  0.6362 -0.3710
  895TIP3    H2 2643   8.317   0.649   2.890  0.2609 -0.6073 -0.1235
  896TIP3   OH2 2644   0.408   7.603   0.956  0.5061 -0.3195  0.4451
  896TIP3    H1 2645   0.399   7.586   1.050 -2.1550 -1.0888  0.1480
  896TIP3    H2 2646   0.370   7.526   0.914  1.9581 -0.1489 -1.3125
  897TIP3   OH2 2647   7.589   1.137   3.957 -0.4631 -0.1661 -0.1711
  897TIP3    H1 2648   7.628   1.082   4.025  0.3985 -0.0204 -0.5385
  897TIP3    H2 2649   7.498   1.106   3.951 -0.6902  0.0937  1.3297
  898TIP3   OH2 2650   4.452   3.844   4.670 -0.2829 -0.0253  0.4258
  898TIP3    H1 2651   4.525   3.790   4.701 -0.8263 -0.4103  1.0669
  898TIP3    H2 2652   4.485   3.886   4.592  0.3913 -0.7591  0.3003
  899TIP3   OH2 2653   3.216   3.408   3.490  0.0373  0.1312  0.2138
  899TIP3    H1 2654   3.129   3.379   3.517 -0.5914  1.0345 -0.7925
  899TIP3    H2 2655   3.203   3.496   3.455  1.5542  0.7599  1.1359
  900TIP3   OH2 2656   3.871   6.102   2.052 -0.3593 -0.0170  0.0798
  900TIP3    H1 2657   3.872   6.040   1.979 -1.2218  0.4172 -0.3158
  900TIP3    H2 2658   3.822   6.057   2.121  2.4929 -1.4329  1.3581
  901TIP3   OH2 2659   5.124   4.774   2.732  0.0990  0.4307  0.0899
  901TIP3    H1 2660   5.050   4.715   2.720  1.3162 -1.6100  1.8649
  901TIP3    H2 2661   5.164   4.781   2.646 -1.3999  0.5382 -0.6189
  902TIP3   OH2 2662   1.029   5.361   0.839 -0.5156  0.7972 -0.6308
  902TIP3    H1 2663   0.941   5.327   0.856 -0.7028  0.8489 -1.4643
  902TIP3    H2 2664   1.087   5.289   0.863 -0.9173 -0.2845 -2.6361
  903TIP3   OH2 2665   6.305   4.344   2.118  0.0150  0.1287  0.0635
  903TIP3    H1 2666   6.242   4.320   2.051  0.2286  0.9749 -0.4657
  903TIP3    H2 2667   6.389   4.348   2.071 -0.0099  1.8247  0.1167
  904TIP3   OH2 2668   6.978   1.435   4.797  0.1743 -0.1117 -0.0938
  904TIP3    H1 2669   7.066   1.451   4.761  0.4249 -3.6524 -1.4186
  904TIP3    H2 2670   6.922   1.500   4.753  1.6301  0.1713 -1.6388
  905TIP3   OH2 2671   1.017   3.401   4.133 -0.3151  0.0085 -0.6300
  905TIP3    H1 2672   1.029   3.461   4.207  0.1132 -0.3285 -0.4256
  905TIP3    H2 2673   0.940   3.435   4.088  0.7958  1.6412 -1.4125
  906TIP3   OH2 2674   4.060   5.444   5.556 -0.1285 -0.4992 -0.1661
  906TIP3    H1 2675   3.994   5.462   5.622  1.1906 -1.8606  1.6197
  906TIP3    H2 2676   4.054   5.350   5.540  2.4516 -1.0552  1.4160
  907TIP3   OH2 2677   3.494   6.460   6.274  0.7379 -0.3110  0.7491
  907TIP3    H1 2678   3.584   6.435   6.293  0.4062 -1.6434  0.6295
  907TIP3    H2 2679   3.491   6.466   6.178  0.7424 -0.0603  0.7625
  908TIP3   OH2 2680   7.249   2.891   6.092  0.2859 -0.6720  0.2028
  908TIP3    H1 2681   7.234   2.978   6.055  0.3769  0.4442  2.6135
  908TIP3    H2 2682   7.202   2.892   6.175  0.3615 -2.9255  0.3333
  909TIP3   OH2 2683   8.087   3.801   5.849  0.2060 -0.0818 -0.8114
  909TIP3    H1 2684   8.109   3.718   5.891 -3.6284 -0.6170  0.4743
  909TIP3    H2 2685   8.101   3.867   5.917  0.8426  0.0105 -1.0275
  910TIP3   OH2 2686   4.630   3.096   3.133 -0.1494  0.0743  0.7330
  910TIP3    H1 2687   4.656   3.093   3.041 -1.1046  0.4522  0.4420
  910TIP3    H2 2688   4.642   3.006   3.164 -1.0010 -0.3330 -0.0999
  911TIP3   OH2 2689   3.079   3.603   3.813  0.0297 -0.2880  0.6000
  911TIP3    H1 2690   3.084   3.507   3.811  0.4785 -0.4246  3.5153
  911TIP3    H2 2691   3.007   3.624   3.755  0.2002 -2.3497 -0.4689
  912TIP3   OH2 2692   0.286   4.083   0.539  0.6613  0.0126 -0.2634
  912TIP3    H1 2693   0.332   4.166   0.538  0.4963  0.1072 -1.1288
  912TIP3    H2 2694   0.281   4.057   0.447 -0.4994 -0.2792 -0.1369
  913TIP3   OH2 2695   0.999   5.718   0.305  0.0633  0.3006  0.7246
  913TIP3    H1 2696   0.940   5.794   0.294  0.5879  0.6311  0.0885
  913TIP3    H2 2697   0.991   5.670   0.222 -0.1649 -0.2705  1.0765
  914TIP3   OH2 2698   2.758   7.504   1.941 -0.6728  0.8360 -0.0503
  914TIP3    H1 2699   2.803   7.493   1.858 -0.3586  0.1897  0.1950
  914TIP3    H2 2700   2.787   7.589   1.974 -0.0878  0.6828 -0.1730
  915TIP3   OH2 2701   4.709   5.856   1.753 -0.3343 -0.0071 -0.1625
  915TIP3    H1 2702   4.692   5.950   1.755  0.4573  0.1941 -1.5793
  915TIP3    H2 2703   4.785   5.845   1.811 -0.6844  0.1631  0.3325
  916TIP3   OH2 2704   4.654   4.439   1.443  0.8017  0.5084 -0.4900
  916TIP3    H1 2705   4.659   4.350   1.408  1.0374  0.4360 -0.2754
  916TIP3    H2 2706   4.745   4.463   1.460  0.6558  0.2852  0.7118
  917TIP3   OH2 2707   0.538   2.610   2.375 -0.4086  0.0094 -0.6518
  917TIP3    H1 2708   0.626   2.614   2.412 -1.2051  0.1054  1.3779
  917TIP3    H2 2709   0.522   2.699   2.343  0.6923 -0.3391 -2.2882
  918TIP3   OH2 2710   4.477   0.306   6.363  0.1928  0.1274  0.1051
  918TIP3    H1 2711   4.547   0.329   6.423  1.2231 -1.5562 -0.3761
  918TIP3    H2 2712   4.481   0.210   6.357 -1.4358  0.0760 -0.7877
  919TIP3   OH2 2713   7.152   4.598   2.258  0.1223  0.2617 -0.2877
  919TIP3    H1 2714   7.122   4.560   2.175 -1.7191  0.6470  0.1584
  919TIP3    H2 2715   7.072   4.624   2.303  1.1882  2.2835  0.5830
  920TIP3   OH2 2716   5.102   1.635   6.377  0.0006  0.1148 -0.1580
  920TIP3    H1 2717   5.186   1.681   6.374  0.5463 -0.6087 -5.5663
  920TIP3    H2 2718   5.042   1.693   6.331 -0.9566 -1.7678 -1.3734
  921TIP3   OH2 2719   4.241   6.066   1.119  0.4776  0.4535 -0.8285
  921TIP3    H1 2720   4.173   6.000   1.114 -0.7964  1.8225 -3.3628
  921TIP3    H2 2721   4.266   6.068   1.211 -0.7491 -2.1766 -0.3559
  922TIP3   OH2 2722   6.062   7.718   1.875 -0.1769  0.0062 -0.1078
  922TIP3    H1 2723   6.080   7.749   1.786  0.7771 -0.6878 -0.1634
  922TIP3    H2 2724   6.142   7.739   1.924 -0.5026 -0.0765  0.4634
  923TIP3   OH2 2725   6.759   4.077   3.973  0.4465 -0.2900  0.5750
  923TIP3    H1 2726   6.743   4.009   3.907 -0.0368  0.4438 -0.0899
  923TIP3    H2 2727   6.764   4.158   3.922  1.6773  0.0951  1.2829
  924TIP3   OH2 2728   4.613   4.074   5.671  0.1291  0.4163  0.5002
  924TIP3    H1 2729   4.605   3.980   5.689  0.3127  0.6553  1.9374
  924TIP3    H2 2730   4.705   4.086   5.648 -0.1636  0.0667 -0.9583
  925TIP3   OH2 2731   7.753   3.457   6.386 -0.1854 -0.3750  0.0551
  925TIP3    H1 2732   7.727   3.532   6.332  0.3576  0.1118  0.4545
  925TIP3    H2 2733   7.736   3.380   6.331 -1.4508 -0.0105 -0.0796
  926TIP3   OH2 2734   0.345   1.715   4.001 -0.0437 -0.3493  0.4926
  926TIP3    H1 2735   0.310   1.679   4.082 -1.5932  0.5372  0.2602
  926TIP3    H2 2736   0.307   1.662   3.931  0.4077 -0.4160  0.2883
  927TIP3   OH2 2737   7.612   4.277   2.932 -0.4553 -0.0237 -0.2219
  927TIP3    H1 2738   7.618   4.282   3.028  0.2689  1.5808 -0.3127
  927TIP3    H2 2739   7.550   4.346   2.909  2.0334  2.0548 -1.0936
  928TIP3   OH2 2740   3.144   2.923   5.357  0.4212  0.4467 -0.3316
  928TIP3    H1 2741   3.075   2.940   5.420  0.4346 -1.2547  0.1962
  928TIP3    H2 2742   3.144   2.827   5.346  1.9621  0.4995 -1.1433
  929TIP3   OH2 2743   3.951   1.889   2.190  0.0808 -0.2132  0.4244
  929TIP3    H1 2744   3.964   1.977   2.223  1.3184 -0.1348 -0.2319
  929TIP3    H2 2745   4.038   1.860   2.161 -0.8817 -0.2439 -2.8435
  930TIP3   OH2 2746   3.204   7.332   5.101  0.3722 -0.5964 -0.5754
  930TIP3    H1 2747   3.223   7.425   5.086 -0.2452 -0.4447 -0.4243
  930TIP3    H2 2748   3.110   7.324   5.087 -0.0512 -0.6910  1.9683
  931TIP3   OH2 2749   1.898   0.802   5.575 -0.5501  0.0749 -0.3772
  931TIP3    H1 2750   1.835   0.813   5.504  0.6421  4.4558 -1.0783
  931TIP3    H2 2751   1.855   0.840   5.651 -1.2189 -3.1996  1.0364
  932TIP3   OH2 2752   3.350   0.307   4.666  0.4232  0.2712 -0.0169
  932TIP3    H1 2753   3.418   0.240   4.657 -0.9062 -1.2863  1.0686
  932TIP3    H2 2754   3.285   0.284   4.599 -0.1579  0.3373  0.5209
  933TIP3   OH2 2755   3.375   3.432   3.206 -0.0873  0.4015  0.4503
  933TIP3    H1 2756   3.355   3.462   3.117  1.0486  2.0314  0.7073
  933TIP3    H2 2757   3.319   3.355   3.218 -0.9625  0.7059 -1.3237
  934TIP3   OH2 2758   4.170   3.329   2.932  0.1671 -0.0071  0.4488
  934TIP3    H1 2759   4.119   3.262   2.885 -0.1533  1.8560 -2.0763
  934TIP3    H2 2760   4.153   3.311   3.024 -2.4487 -1.4724 -0.1983
  935TIP3   OH2 2761   4.447   3.077   2.651 -0.8126 -0.3540 -0.2234
  935TIP3    H1 2762   4.521   3.107   2.598 -0.1326 -2.6255 -0.6555
  935TIP3    H2 2763   4.434   3.148   2.715  1.2686  0.4318 -0.5840
  936TIP3   OH2 2764   3.372   6.598   5.061  0.2297 -0.3770  0.4812
  936TIP3    H1 2765   3.349   6.583   4.970  0.2326  0.5747  0.3114
  936TIP3    H2 2766   3.310   6.544   5.111 -2.6162  2.2055  0.0496
  937TIP3   OH2 2767   7.945   7.580   4.677 -0.5333  0.4374 -0.5465
  937TIP3    H1 2768   7.922   7.537   4.595 -0.0733  0.9957 -0.9713
  937TIP3    H2 2769   7.998   7.656   4.651  0.4907  0.0446  0.3222
  938TIP3   OH2 2770   4.571   3.161   3.841 -0.1337 -0.1393  0.0410
  938TIP3    H1 2771   4.490   3.189   3.883  0.4355 -0.1713  1.1980
  938TIP3    H2 2772   4.587   3.227   3.773 -0.8315  0.1723  0.1673
  939TIP3   OH2 2773   2.299   6.951   5.123  0.0423 -0.1570  0.0508
  939TIP3    H1 2774   2.271   6.860   5.127  3.3673 -1.2704  1.9262
  939TIP3    H2 2775   2.387   6.951   5.159  0.4824  3.7425 -0.5357
  940TIP3   OH2 2776   3.129   5.402   2.565 -0.1544 -0.0113 -0.0696
  940TIP3    H1 2777   3.123   5.475   2.504 -0.4967  0.1730  0.1787
  940TIP3    H2 2778   3.211   5.358   2.542 -0.3715 -0.0578 -0.7776
  941TIP3   OH2 2779   1.490   6.269   5.590 -0.4397 -0.2132 -0.0485
  941TIP3    H1 2780   1.583   6.287   5.583  0.0075 -2.1923  0.2891
  941TIP3    H2 2781   1.448   6.336   5.535  1.3179 -0.6698 -2.0472
  942TIP3   OH2 2782   0.598   7.037   6.163  0.2619 -0.1329 -0.1902
  942TIP3    H1 2783   0.553   7.000   6.087 -0.1611 -0.4760  0.2228
  942TIP3    H2 2784   0.530   7.086   6.209  0.4023 -0.3359  0.2335
  943TIP3   OH2 2785   0.016   3.034   6.665  0.5995  0.1693 -0.5322
  943TIP3    H1 2786   0.035   3.042   6.572 -0.0885  0.8456 -0.6213
  943TIP3    H2 2787  -0.004   2.941   6.678 -0.2713  0.2431 -1.2513
  944TIP3   OH2 2788   0.783   4.517   3.957 -0.7312 -0.1047  0.5349
  944TIP3    H1 2789   0.766   4.429   3.992  0.0770  0.1227  1.5060
  944TIP3    H2 2790   0.819   4.501   3.870  0.2324 -0.7736  1.0439
  945TIP3   OH2 2791   1.950   5.903   2.168 -0.3824 -0.0221  0.1142
  945TIP3    H1 2792   1.940   5.866   2.080 -0.9884  1.9706 -0.6966
  945TIP3    H2 2793   1.884   5.858   2.220  0.0379 -1.2911 -0.3995
  946TIP3   OH2 2794   5.509   2.743   5.466 -0.2489 -0.3494  0.7736
  946TIP3    H1 2795   5.600   2.759   5.493  0.2987 -1.7895 -0.1024
  946TIP3    H2 2796   5.516   2.694   5.385 -1.8570  1.7261 -0.7268
  947TIP3   OH2 2797   5.940   6.729   5.243 -0.3142 -0.3633  0.0474
  947TIP3    H1 2798   5.863   6.721   5.299  0.3772 -1.3787  0.8829
  947TIP3    H2 2799   6.002   6.664   5.277  0.0558 -1.1575 -2.0100
  948TIP3   OH2 2800   0.289   7.040   6.806 -0.0243  0.5520  0.0727
  948TIP3    H1 2801   0.226   7.081   6.747  1.5573  0.8205 -1.5058
  948TIP3    H2 2802   0.338   6.979   6.751  1.8694  1.1943  0.9513
  949TIP3   OH2 2803   0.900   2.930   6.684  0.2326 -0.0386 -0.0782
  949TIP3    H1 2804   0.919   2.911   6.776  1.5768  1.0340 -0.0952
  949TIP3    H2 2805   0.868   3.020   6.685  1.6065  0.4779 -0.7866
  950TIP3   OH2 2806   6.706   6.645   0.481  0.7071 -0.2102  0.7647
  950TIP3    H1 2807   6.787   6.630   0.530  1.0997  0.4651  0.3400
  950TIP3    H2 2808   6.695   6.566   0.428  1.2024 -0.2220  0.6741
  951TIP3   OH2 2809   7.919   3.454   6.050 -0.1140 -0.1306 -0.2839
  951TIP3    H1 2810   7.970   3.509   5.990 -0.1677  0.8595  0.5437
  951TIP3    H2 2811   7.980   3.434   6.121 -1.1776  2.3000  1.4765
  952TIP3   OH2 2812   7.135   2.906   4.679 -0.2786  0.0114  0.2261
  952TIP3    H1 2813   7.090   2.849   4.742  0.1231 -1.5944 -0.8953
  952TIP3    H2 2814   7.070   2.923   4.612  0.0721 -0.4129 -0.2257
  953TIP3   OH2 2815   6.821   1.395   5.417  0.2463 -0.5362  0.2747
  953TIP3    H1 2816   6.854   1.305   5.407  0.1328 -0.6243  0.7006
  953TIP3    H2 2817   6.899   1.450   5.404  0.0457 -0.6107 -1.5644
  954TIP3   OH2 2818   3.017   1.321   1.179 -0.3840  0.3428 -0.2831
  954TIP3    H1 2819   2.924   1.318   1.198 -0.4881  0.6920 -0.7243
  954TIP3    H2 2820   3.028   1.397   1.121  0.2963  0.8456  0.4780
  955TIP3   OH2 2821   6.858   1.603   5.773 -0.2424  0.3359 -0.1974
  955TIP3    H1 2822   6.888   1.526   5.821  0.4571  0.4445 -0.4565
  955TIP3    H2 2823   6.921   1.613   5.702 -1.9961 -0.6206 -1.9787
  956TIP3   OH2 2824   2.959   0.631   0.731 -0.7531 -0.6461 -0.2700
  956TIP3    H1 2825   2.957   0.655   0.639 -3.7583 -0.5451 -0.2996
  956TIP3    H2 2826   2.914   0.546   0.734 -0.6409 -0.6791  1.0875
  957TIP3   OH2 2827   8.040   1.791   2.399  0.2006 -0.2570  0.5628
  957TIP3    H1 2828   8.111   1.853   2.417 -1.1864  1.5607  0.1098
  957TIP3    H2 2829   7.985   1.836   2.335 -1.0152 -1.8882  0.3968
  958TIP3   OH2 2830   2.378   4.698   3.335  0.8058 -0.0465 -0.6299
  958TIP3    H1 2831   2.313   4.768   3.334  0.9791  0.1115 -0.6440
  958TIP3    H2 2832   2.356   4.644   3.259 -0.6040 -1.1641  0.5049
  959TIP3   OH2 2833   5.155   6.485   6.728 -0.6507  0.1870  1.0235
  959TIP3    H1 2834   5.197   6.432   6.660 -0.7765  2.1034 -0.6287
  959TIP3    H2 2835   5.200   6.460   6.808  2.4341  0.7818 -0.3663
  960TIP3   OH2 2836   5.173   4.667   3.912 -0.6646  0.0490  0.0077
  960TIP3    H1 2837   5.086   4.708   3.918 -0.7311 -0.1591  0.5691
  960TIP3    H2 2838   5.192   4.639   4.002  0.6301  1.3976  0.1965
  961TIP3   OH2 2839   7.468   2.086   6.191 -0.6081 -0.7071  0.0551
  961TIP3    H1 2840   7.548   2.107   6.239 -0.1652  0.9431 -1.2994
  961TIP3    H2 2841   7.410   2.159   6.208 -0.6838 -0.4114 -1.3467
  962TIP3   OH2 2842   7.844   5.253   5.071 -0.5584  0.1142  0.2861
  962TIP3    H1 2843   7.819   5.197   4.998 -0.7816 -0.3307  0.7023
  962TIP3    H2 2844   7.939   5.244   5.077 -0.7663 -1.8231  1.6175
  963TIP3   OH2 2845   0.368   2.643   4.178  0.2762  0.3513  0.5123
  963TIP3    H1 2846   0.411   2.708   4.124 -0.5646  2.5124  2.2770
  963TIP3    H2 2847   0.275   2.652   4.158  0.2189 -1.2333 -0.1095
  964TIP3   OH2 2848   3.785   0.120   1.922  0.3002 -0.2555 -0.3501
  964TIP3    H1 2849   3.799   0.115   1.828  0.6205  0.0539 -0.3187
  964TIP3    H2 2850   3.786   0.213   1.943 -0.4148 -0.2857 -0.1328
  965TIP3   OH2 2851   4.211   0.306   0.211 -0.4506 -0.2279  0.1448
  965TIP3    H1 2852   4.208   0.352   0.295 -0.3132 -1.0572  0.6108
  965TIP3    H2 2853   4.127   0.259   0.206  0.0260 -1.1156  0.3604
  966TIP3   OH2 2854   4.877   1.691   2.784  0.5019  0.2825 -0.0069
  966TIP3    H1 2855   4.803   1.687   2.845  0.4176 -0.4927 -0.1463
  966TIP3    H2 2856   4.864   1.774   2.737 -0.8275 -0.2623 -0.6804
  967TIP3   OH2 2857   0.212   4.366   5.903  0.1018 -0.2271 -0.2963
  967TIP3    H1 2858   0.251   4.453   5.913  0.3849 -0.4068  0.2213
  967TIP3    H2 2859   0.119   4.380   5.919  0.1666 -0.0391 -0.0767
  968TIP3   OH2 2860   7.654   1.290   0.145 -0.4054  0.3953 -0.5677
  968TIP3    H1 2861   7.560   1.297   0.163 -0.5324 -0.2415 -0.9796
  968TIP3    H2 2862   7.695   1.302   0.231 -0.8764  0.3029 -0.3251
  969TIP3   OH2 2863   1.987   5.758   5.393 -0.1769  0.3448 -0.1998
  969TIP3    H1 2864   2.002   5.733   5.484 -2.5113 -3.5922 -0.6711
  969TIP3    H2 2865   2.072   5.750   5.351  0.1267 -2.7898  0.7620
  970TIP3   OH2 2866   6.426   1.505   0.393 -0.0621  0.0411 -0.1577
  970TIP3    H1 2867   6.344   1.455   0.387 -0.2353  0.3372 -0.2943
  970TIP3    H2 2868   6.468   1.473   0.473  0.1271 -0.7666 -0.5773
  971TIP3   OH2 2869   3.296   2.060   3.679 -0.3012  0.8392 -0.6064
  971TIP3    H1 2870   3.251   2.105   3.608 -2.0848  1.0899  0.6189
  971TIP3    H2 2871   3.279   1.967   3.663 -1.1165  0.9249 -0.2434
  972TIP3   OH2 2872   4.289   1.444   1.942 -0.3899  0.2994  0.1400
  972TIP3    H1 2873   4.299   1.366   1.997 -0.6099  0.7743  0.8706
  972TIP3    H2 2874   4.375   1.459   1.904 -1.0777 -2.4038 -2.9521
  973TIP3   OH2 2875   6.696   4.677   3.904 -0.2275 -0.4253  0.8800
  973TIP3    H1 2876   6.634   4.749   3.914  0.6222  0.1632  2.1747
  973TIP3    H2 2877   6.665   4.629   3.826 -0.7291  1.3948 -0.1018
  974TIP3   OH2 2878   4.824   2.187   2.600 -0.0212  0.1639 -0.0688
  974TIP3    H1 2879   4.904   2.215   2.555  0.4019  0.4055  0.8176
  974TIP3    H2 2880   4.755   2.239   2.560  0.3839  0.5512 -0.2742
  975TIP3   OH2 2881   2.035   7.613   3.574  0.3460 -0.5795 -0.2989
  975TIP3    H1 2882   2.123   7.647   3.590 -0.0554 -0.0975  1.0232
  975TIP3    H2 2883   1.986   7.638   3.652 -0.9104 -1.0275 -0.9308
  976TIP3   OH2 2884   6.898   0.429   3.322  0.1307  0.4318  0.3976
  976TIP3    H1 2885   6.851   0.471   3.394 -1.9206  0.9083 -1.1230
  976TIP3    H2 2886   6.955   0.497   3.287  0.2825  0.5357  0.8415
  977TIP3   OH2 2887   2.482   5.312   2.415  0.6235 -0.7089  0.0061
  977TIP3    H1 2888   2.563   5.360   2.435  0.9483 -0.8567 -0.9094
  977TIP3    H2 2889   2.415   5.358   2.466  1.0438  0.3052 -0.3140
  978TIP3   OH2 2890   5.729   0.477   3.300 -0.3423  0.5120 -0.0422
  978TIP3    H1 2891   5.658   0.441   3.246  0.0809  0.8233 -0.8216
  978TIP3    H2 2892   5.763   0.401   3.348 -0.3612  0.1215 -0.6315
  979TIP3   OH2 2893   0.086   2.189   3.493  0.0604  0.3024  0.0151
  979TIP3    H1 2894   0.039   2.194   3.576  1.7527  0.2297  1.0059
  979TIP3    H2 2895   0.178   2.200   3.516  0.7477 -1.3994 -1.6455
  980TIP3   OH2 2896   0.285   1.732   0.443  0.4437 -0.5743  0.0108
  980TIP3    H1 2897   0.237   1.794   0.388 -0.7768 -1.3783  0.1257
  980TIP3    H2 2898   0.359   1.703   0.388  1.4320  1.4386  0.1999
  981TIP3   OH2 2899   3.792   7.659   3.828  0.2736  0.2229 -0.1049
  981TIP3    H1 2900   3.842   7.577   3.820  0.9687  0.7250 -1.0119
  981TIP3    H2 2901   3.722   7.637   3.890  1.9087 -0.3562  1.6698
  982TIP3   OH2 2902   2.025   0.831   6.777 -0.5285 -0.1374 -0.0841
  982TIP3    H1 2903   2.028   0.778   6.697 -1.6803 -0.5688  0.1261
  982TIP3    H2 2904   1.965   0.783   6.834 -0.0778  0.4057  0.8673
  983TIP3   OH2 2905   5.840   5.715   3.692 -0.2117 -0.2095  0.1386
  983TIP3    H1 2906   5.781   5.787   3.670 -3.0502 -1.4793  2.7681
  983TIP3    H2 2907   5.783   5.638   3.694  2.3228 -2.2600 -0.6572
  984TIP3   OH2 2908   2.193   0.914   0.710  0.3340  0.1210  0.1210
  984TIP3    H1 2909   2.260   0.983   0.718  0.5209  0.1369 -1.3505
  984TIP3    H2 2910   2.189   0.895   0.616 -1.5783 -0.0383  0.1878
  985TIP3   OH2 2911   6.473   0.117   4.583  0.3203  0.1666 -0.4531
  985TIP3    H1 2912   6.568   0.102   4.580  0.5277  1.1609  0.5300
  985TIP3    H2 2913   6.464   0.204   4.622 -1.0112 -0.0714 -0.1921
  986TIP3   OH2 2914   1.676   5.927   0.216  0.3923 -0.6789 -0.4312
  986TIP3    H1 2915   1.643   5.842   0.244  0.2388  0.0389  1.7684
  986TIP3    H2 2916   1.684   5.920   0.121 -3.1424 -1.9353 -0.7806
  987TIP3   OH2 2917   6.144   1.425   0.434  0.2224  0.5053 -0.0259
  987TIP3    H1 2918   6.123   1.354   0.495  1.3263 -0.1470 -0.3815
  987TIP3    H2 2919   6.070   1.427   0.373  0.1756 -0.3486 -0.0113
  988TIP3   OH2 2920   6.513   3.279   3.473  0.1828  0.0653  0.2806
  988TIP3    H1 2921   6.581   3.277   3.405  2.6600 -0.1150  2.5799
  988TIP3    H2 2922   6.537   3.209   3.533 -1.9514  0.1682  1.3426
  989TIP3   OH2 2923   8.138   4.122   2.693  0.2297 -0.1604 -0.2887
  989TIP3    H1 2924   8.184   4.096   2.773  0.3210  1.5891  0.2645
  989TIP3    H2 2925   8.052   4.151   2.724  1.3212  3.6234 -0.2881
  990TIP3   OH2 2926   3.766   5.392   5.736  0.4532 -0.0187  0.6075
  990TIP3    H1 2927   3.798   5.375   5.825 -1.5683 -1.3554  1.1628
  990TIP3    H2 2928   3.781   5.310   5.689  2.6524  1.0674 -0.7377
  991TIP3   OH2 2929   1.685   0.859   5.373 -0.5114  0.1499 -0.1485
  991TIP3    H1 2930   1.646   0.935   5.417  0.0601  0.4398 -0.1332
  991TIP3    H2 2931   1.611   0.802   5.353 -0.8280  0.2095  0.8031
  992TIP3   OH2 2932   8.149   3.291   4.940 -0.6038 -0.5623 -0.1516
  992TIP3    H1 2933   8.132   3.384   4.931 -0.6022 -0.2262  2.4964
  992TIP3    H2 2934   8.231   3.277   4.892  0.8130  1.3657  1.5525
  993TIP3   OH2 2935   3.961   6.712   5.041 -0.3689 -0.4884 -0.5441
  993TIP3    H1 2936   4.047   6.680   5.069 -0.6596 -0.1878  0.7532
  993TIP3    H2 2937   3.943   6.786   5.099 -0.6357  0.7308 -2.1025
  994TIP3   OH2 2938   5.099   4.108   3.175  0.6346 -0.2972 -0.3229
  994TIP3    H1 2939   5.173   4.167   3.191  0.5944  0.0304 -1.2837
  994TIP3    H2 2940   5.021   4.163   3.187  0.5679 -0.3996 -0.2819
  995TIP3   OH2 2941   7.278   5.692   3.027  0.4003 -0.1037  0.5829
  995TIP3    H1 2942   7.291   5.667   2.936  0.1154  1.7686 -0.0036
  995TIP3    H2 2943   7.366   5.705   3.062  0.4577  1.1267 -0.0066
  996TIP3   OH2 2944   3.372   0.712   4.313  0.6127 -0.1022  0.0098
  996TIP3    H1 2945   3.388   0.618   4.322  1.5872  0.2210  2.3219
  996TIP3    H2 2946   3.358   0.743   4.402  0.2878  1.9646 -0.6978
  997TIP3   OH2 2947   7.961   2.657   5.027  0.0143  0.2841 -0.4527
  997TIP3    H1 2948   8.001   2.722   5.084  2.5642 -0.6851 -0.9958
  997TIP3    H2 2949   7.905   2.605   5.085 -0.7718  1.8985  0.2859
  998TIP3   OH2 2950   0.414   4.495   3.864  0.2137  0.0925 -0.6643
  998TIP3    H1 2951   0.448   4.407   3.852  1.1729  0.2135  0.9318
  998TIP3    H2 2952   0.379   4.496   3.953  2.9986  2.1214  0.5754
  999TIP3   OH2 2953   7.949   4.180   3.338 -0.2304  0.0952 -0.0073
  999TIP3    H1 2954   7.944   4.086   3.322  1.1530  0.2206 -1.4734
  999TIP3    H2 2955   7.959   4.189   3.433 -0.3962 -1.2245  0.1479
 1000TIP3   OH2 2956   1.128   2.144   6.243  0.1392  0.1996  0.0227
 1000TIP3    H1 2957   1.105   2.119   6.332 -0.0984 -3.5633 -0.9080
 1000TIP3    H2 2958   1.223   2.145   6.242  0.1403  0.8908  0.4470
 1001TIP3   OH2 2959   5.992   3.354   6.111  0.1051  0.0840  0.1445
 1001TIP3    H1 2960   6.031   3.397   6.187  0.9625  2.2901 -1.4210
 1001TIP3    H2 2961   6.067   3.327   6.058 -0.4490  0.9510 -1.1296
 1002TIP3   OH2 2962   1.442   2.272   3.086  0.0772  0.3065 -0.2454
 1002TIP3    H1 2963   1.412   2.194   3.131  1.0023  1.0490  1.7590
 1002TIP3    H2 2964   1.425   2.344   3.147  0.3237  1.5334 -1.5505
 1003TIP3   OH2 2965   6.398   1.955   3.167 -0.2107 -0.2878 -0.1380
 1003TIP3    H1 2966   6.334   1.896   3.206  1.3024 -1.3351  0.8822
 1003TIP3    H2 2967   6.384   1.947   3.073 -0.8811 -1.2932  0.0298
 1004TIP3   OH2 2968   0.048   4.782   6.507  0.3348 -0.3867  0.2284
 1004TIP3    H1 2969   0.098   4.701   6.509 -1.4299 -1.5292  0.6628
 1004TIP3    H2 2970  -0.007   4.775   6.429 -1.9490 -1.0286  1.7894
 1005TIP3   OH2 2971   5.636   4.742   5.574  0.8848 -0.1748 -0.6065
 1005TIP3    H1 2972   5.632   4.650   5.546  2.3371 -0.0125 -1.4790
 1005TIP3    H2 2973   5.668   4.738   5.664  0.7475 -0.5254 -0.5686
 1006TIP3   OH2 2974   7.474   7.115   1.310 -0.1798 -0.0947  0.0761
 1006TIP3    H1 2975   7.531   7.039   1.299 -1.4621 -0.8632 -1.8451
 1006TIP3    H2 2976   7.531   7.185   1.340  1.4304 -1.2782 -0.1302
 1007TIP3   OH2 2977   7.216   0.306   4.857 -0.0158 -0.1992 -0.0804
 1007TIP3    H1 2978   7.135   0.268   4.893 -1.0539  1.6000 -0.4264
 1007TIP3    H2 2979   7.258   0.348   4.932  2.0965 -3.3579  0.7358
 1008TIP3   OH2 2980   6.850   3.875   3.756  0.0353 -0.1571  0.0176
 1008TIP3    H1 2981   6.819   3.786   3.776 -0.2300  0.0071  0.3374
 1008TIP3    H2 2982   6.930   3.885   3.807  1.3510 -1.0382 -1.7539
 1009TIP3   OH2 2983   6.905   0.115   2.254  0.5063 -0.4055 -0.6766
 1009TIP3    H1 2984   6.887   0.053   2.184 -2.0355  0.0901 -0.5343
 1009TIP3    H2 2985   6.865   0.197   2.226 -0.8794 -0.2835  1.4589
 1010TIP3   OH2 2986   6.225   7.631   3.354 -0.0550  0.5452  0.2815
 1010TIP3    H1 2987   6.288   7.561   3.338 -0.3586  0.3719 -0.1881
 1010TIP3    H2 2988   6.277   7.702   3.393  0.6690  0.8507 -1.1681
 1011TIP3   OH2 2989   1.957   2.157   6.290  0.0560 -0.0849 -0.0169
 1011TIP3    H1 2990   1.960   2.252   6.298 -2.0857 -0.0489  0.9696
 1011TIP3    H2 2991   1.963   2.125   6.380  0.1233 -0.8707 -0.2914
 1012TIP3   OH2 2992   5.483   4.731   1.835  0.0737  0.5275  0.1216
 1012TIP3    H1 2993   5.505   4.641   1.855  0.1130  0.6484  0.6191
 1012TIP3    H2 2994   5.479   4.734   1.739  0.0194 -0.0102  0.1083
 1013TIP3   OH2 2995   6.214   5.727   1.398 -0.2211 -0.5827 -0.1036
 1013TIP3    H1 2996   6.308   5.730   1.415 -0.3181  1.4433  0.2602
 1013TIP3    H2 2997   6.206   5.755   1.307 -0.5251  0.1552  0.1461
 1014TIP3   OH2 2998   3.418   0.512   3.133  0.2837  0.4515  0.0617
 1014TIP3    H1 2999   3.476   0.465   3.074  1.8141 -0.8199  2.3971
 1014TIP3    H2 3000   3.352   0.552   3.077  1.2691 -1.1702 -2.3750
 1015TIP3   OH2 3001   1.231   6.828   4.125  0.0407  0.2007  0.6062
 1015TIP3    H1 3002   1.304   6.767   4.119 -0.6252 -0.7492  1.7979
 1015TIP3    H2 3003   1.180   6.797   4.200 -1.5569  0.8779 -0.1624
 1016TIP3   OH2 3004   1.879   6.420   3.016  0.0187 -0.3675 -0.4970
 1016TIP3    H1 3005   1.784   6.430   3.024  0.0007 -1.1478  0.3925
 1016TIP3    H2 3006   1.903   6.478   2.944 -1.6086 -2.6520 -3.0966
 1017TIP3   OH2 3007   7.174   7.742   2.204 -0.5147 -0.2584  0.7586
 1017TIP3    H1 3008   7.243   7.720   2.141 -0.9736 -0.7602  0.4232
 1017TIP3    H2 3009   7.128   7.660   2.219 -0.3148 -0.1861  1.8841
 1018TIP3   OH2 3010   6.005   0.280   2.918  0.1195 -0.5130 -0.0074
 1018TIP3    H1 3011   5.990   0.366   2.879 -0.0067  0.8256  2.7462
 1018TIP3    H2 3012   5.919   0.240   2.922  0.2404 -0.9952 -1.7036
 1019TIP3   OH2 3013   3.131   7.379   1.820  0.3893 -0.0846  0.3145
 1019TIP3    H1 3014   3.215   7.337   1.805  1.5726  2.3122 -0.2411
 1019TIP3    H2 3015   3.069   7.329   1.766  1.7284 -0.9467 -0.4681
 1020TIP3   OH2 3016   8.079   0.557   2.204  0.5533  0.1807  0.6864
 1020TIP3    H1 3017   8.080   0.461   2.213  0.9128  0.1016 -0.0500
 1020TIP3    H2 3018   8.000   0.585   2.249 -0.3958 -0.6276 -0.4026
 1021TIP3   OH2 3019   1.520   0.150   3.746 -0.4773  0.2828 -0.4109
 1021TIP3    H1 3020   1.486   0.168   3.658 -0.2923 -0.8706 -0.7393
 1021TIP3    H2 3021   1.447   0.108   3.792  0.2404 -1.6229 -0.9167
 1022TIP3   OH2 3022   1.088   4.036   1.133  0.5860 -0.5637 -0.0624
 1022TIP3    H1 3023   1.132   4.121   1.126 -3.5866  1.7156 -2.1889
 1022TIP3    H2 3024   1.121   3.987   1.058  1.4548  0.0071 -0.0733
 1023TIP3   OH2 3025   6.144   6.112   5.906  0.3824 -0.1930  0.9008
 1023TIP3    H1 3026   6.157   6.064   5.988  1.8217  0.6520  1.2070
 1023TIP3    H2 3027   6.152   6.046   5.838  0.5178 -0.6863  1.3879
 1024TIP3   OH2 3028   0.357   7.448   3.650 -0.0438 -0.8600 -0.5454
 1024TIP3    H1 3029   0.289   7.505   3.685  0.6018 -1.0407  1.1135
 1024TIP3    H2 3030   0.327   7.424   3.563 -1.9876 -0.7797  0.0726
 1025TIP3   OH2 3031   1.536   3.038   5.306 -0.4419  0.2462  0.0193
 1025TIP3    H1 3032   1.543   2.950   5.268  0.4520 -0.0682  0.8641
 1025TIP3    H2 3033   1.442   3.055   5.310 -0.6272 -0.6875 -0.1347
 1026TIP3   OH2 3034   6.840   5.727   6.468 -0.1537  0.1075  0.0891
 1026TIP3    H1 3035   6.775   5.670   6.509 -0.1691 -1.4999 -2.0071
 1026TIP3    H2 3036   6.827   5.812   6.510 -2.1243 -0.7042  1.2639
 1027TIP3   OH2 3037   5.338   1.790   5.371 -0.3879 -0.5609  0.3605
 1027TIP3    H1 3038   5.258   1.762   5.327  0.8370 -0.8467 -1.8159
 1027TIP3    H2 3039   5.403   1.724   5.348  0.8947  0.5468  0.6868
 1028TIP3   OH2 3040   5.001   5.334   4.463 -0.6546  0.7652  0.5631
 1028TIP3    H1 3041   5.058   5.307   4.391  0.5236 -0.8094  2.0087
 1028TIP3    H2 3042   4.955   5.411   4.429 -1.0686 -0.5813 -2.2779
 1029TIP3   OH2 3043   0.936   5.855   4.772 -0.3117 -0.1391 -0.3860
 1029TIP3    H1 3044   0.885   5.836   4.851 -1.2668 -3.8481 -1.7017
 1029TIP3    H2 3045   0.871   5.878   4.706  0.2259  0.1304 -0.8365
 1030TIP3   OH2 3046   2.473   2.357   0.447  0.2093 -0.2967  0.1956
 1030TIP3    H1 3047   2.472   2.413   0.525 -0.4924 -0.0394  0.0111
 1030TIP3    H2 3048   2.431   2.276   0.475  2.0501 -1.1236  0.7220
 1031TIP3   OH2 3049   7.849   6.066   6.199  0.3607  0.8926  0.6945
 1031TIP3    H1 3050   7.832   6.146   6.150 -0.7928  0.2565 -0.0036
 1031TIP3    H2 3051   7.763   6.023   6.205  1.4379 -2.0166 -2.0906
 1032TIP3   OH2 3052   0.319   6.886   0.498  0.0331  0.3227 -0.1576
 1032TIP3    H1 3053   0.306   6.974   0.531  0.5088  0.8024 -1.2078
 1032TIP3    H2 3054   0.250   6.834   0.539  0.1849  1.0254  1.0254
 1033TIP3   OH2 3055   3.397   1.531   2.344 -0.0109 -0.4405 -0.0999
 1033TIP3    H1 3056   3.435   1.445   2.359  1.7731  0.0992 -1.3041
 1033TIP3    H2 3057   3.467   1.583   2.305 -1.7083  0.8728 -1.6069
 1034TIP3   OH2 3058   2.723   2.602   4.593  0.3224  0.4266  0.3450
 1034TIP3    H1 3059   2.691   2.677   4.643  0.9271  0.1647  1.1700
 1034TIP3    H2 3060   2.795   2.636   4.541  0.2877  0.5177  0.3574
 1035TIP3   OH2 3061   3.477   3.112   3.323 -0.4250  0.1547 -0.0823
 1035TIP3    H1 3062   3.505   3.021   3.329 -2.6026 -0.5577 -0.0684
 1035TIP3    H2 3063   3.508   3.141   3.237  1.0283 -0.2778  0.2550
 1036TIP3   OH2 3064   8.281   3.887   0.575  0.6715 -0.0164 -0.4187
 1036TIP3    H1 3065   8.369   3.887   0.613  0.0237  2.0295  1.2624
 1036TIP3    H2 3066   8.227   3.842   0.641  0.2620 -0.2837 -0.9291
 1037TIP3   OH2 3067   5.335   0.601   2.346  0.5179 -0.1158 -0.3373
 1037TIP3    H1 3068   5.310   0.626   2.435  0.6068 -0.1518 -0.3022
 1037TIP3    H2 3069   5.265   0.542   2.318  0.5013 -0.1226 -0.2825
 1038TIP3   OH2 3070   3.874   3.004   4.832 -0.0709  0.2482  0.5469
 1038TIP3    H1 3071   3.791   3.052   4.833 -0.6057 -0.6432  1.0102
 1038TIP3    H2 3072   3.849   2.914   4.852  0.9263 -0.1927 -0.1241
 1039TIP3   OH2 3073   2.054   7.363   0.104 -0.2048  0.1604  0.1890
 1039TIP3    H1 3074   1.965   7.351   0.136  0.0153  1.3655  1.3017
 1039TIP3    H2 3075   2.046   7.356   0.008 -1.1309 -1.7974  0.3711
 1040TIP3   OH2 3076   3.102   1.869   1.030  0.0778  0.3138 -0.9772
 1040TIP3    H1 3077   3.010   1.855   1.008  0.1279 -0.0826 -0.9407
 1040TIP3    H2 3078   3.147   1.871   0.945  0.3390 -1.6912 -0.9299
 1041TIP3   OH2 3079   0.336   4.172   1.418  0.4072  0.3263 -0.4379
 1041TIP3    H1 3080   0.368   4.166   1.508  1.3202 -2.3523 -0.8371
 1041TIP3    H2 3081   0.414   4.184   1.365  0.0796  0.0256 -0.9997
 1042TIP3   OH2 3082   4.743   0.473   5.537  0.2595  0.2561  0.0361
 1042TIP3    H1 3083   4.664   0.441   5.494 -0.5210 -1.3747  2.4897
 1042TIP3    H2 3084   4.713   0.511   5.619  1.8569  1.3606  0.1537
 1043TIP3   OH2 3085   4.977   0.246   2.431  0.4506 -0.0473 -0.1223
 1043TIP3    H1 3086   5.011   0.159   2.447  0.5086  0.0243  0.1392
 1043TIP3    H2 3087   4.936   0.272   2.513 -0.1922 -0.1115 -0.4129
 1044TIP3   OH2 3088   7.082   5.818   0.310  0.1866  0.1019  0.2333
 1044TIP3    H1 3089   7.057   5.851   0.396 -1.8601 -0.2551 -0.1650
 1044TIP3    H2 3090   7.000   5.815   0.261  1.3053  0.4132 -1.7893
 1045TIP3   OH2 3091   1.614   2.749   1.892 -0.2424 -0.1233 -0.0036
 1045TIP3    H1 3092   1.522   2.772   1.886 -0.1114  0.3509 -0.2956
 1045TIP3    H2 3093   1.650   2.770   1.805  0.1730 -0.1351  0.1602
 1046TIP3   OH2 3094   4.709   3.428   4.060  0.0905  0.7013 -0.5014
 1046TIP3    H1 3095   4.698   3.335   4.082  0.9901  0.4711 -0.9860
 1046TIP3    H2 3096   4.759   3.463   4.133 -0.3986  0.8559 -0.2331
 1047TIP3   OH2 3097   4.323   2.998   3.555  0.2925  0.7178  0.4512
 1047TIP3    H1 3098   4.275   2.929   3.601 -0.0708  0.4486 -0.3168
 1047TIP3    H2 3099   4.404   2.956   3.527 -0.6524  0.0632 -1.5033
 1048TIP3   OH2 3100   1.826   3.178   4.611  0.2222 -0.1138  0.5133
 1048TIP3    H1 3101   1.887   3.185   4.685  0.6327  1.8873  0.0532
 1048TIP3    H2 3102   1.848   3.253   4.555 -0.6562 -1.0798 -1.2114
 1049TIP3   OH2 3103   6.376   0.405   2.707 -0.1668 -0.0697  0.1083
 1049TIP3    H1 3104   6.307   0.430   2.645 -1.5266 -1.6551  0.8736
 1049TIP3    H2 3105   6.419   0.487   2.729 -0.9999  0.8157 -1.3470
 1050TIP3   OH2 3106   2.187   5.158   4.191  0.2066  0.0833 -0.4621
 1050TIP3    H1 3107   2.148   5.077   4.158  1.2594 -0.3353 -0.7302
 1050TIP3    H2 3108   2.221   5.135   4.278 -1.1032  0.7433  0.2475
 1051TIP3   OH2 3109   0.520   6.731   6.135 -0.4353 -0.0233  0.0135
 1051TIP3    H1 3110   0.443   6.733   6.192 -0.7944  2.8698 -0.4347
 1051TIP3    H2 3111   0.492   6.776   6.056  0.9226 -1.4528 -1.3475
 1052TIP3   OH2 3112   3.941   2.060   3.921  0.2041  0.6285  0.2492
 1052TIP3    H1 3113   3.854   2.026   3.945  0.1134 -0.1250 -1.0264
 1052TIP3    H2 3114   3.933   2.082   3.828  1.1285  1.4209  0.3460
 1053TIP3   OH2 3115   6.853   4.776   1.257  0.2860 -0.5322 -0.0496
 1053TIP3    H1 3116   6.929   4.802   1.205 -0.4159 -1.0462 -1.3861
 1053TIP3    H2 3117   6.812   4.859   1.283  1.5677 -0.2432  1.1267
 1054TIP3   OH2 3118   1.029   6.246   2.011 -0.1476  0.7227 -0.0223
 1054TIP3    H1 3119   0.942   6.285   2.005 -0.2679  0.3755 -0.7402
 1054TIP3    H2 3120   1.089   6.317   1.989 -0.2213  1.0656  0.8656
 1055TIP3   OH2 3121   3.351   0.203   5.587  0.2876 -0.3604 -0.0027
 1055TIP3    H1 3122   3.408   0.278   5.570 -0.2198 -0.0106 -0.1861
 1055TIP3    H2 3123   3.412   0.130   5.603  0.7830  0.1246  0.3655
 1056TIP3   OH2 3124   3.779   7.092   0.425 -0.1659 -0.3386 -0.5161
 1056TIP3    H1 3125   3.710   7.088   0.359  0.7286  0.2671 -1.5178
 1056TIP3    H2 3126   3.833   7.166   0.398  0.6975 -0.6129  0.4260
 1057TIP3   OH2 3127   3.102   4.390   4.438 -0.3551 -0.4928 -0.0997
 1057TIP3    H1 3128   3.039   4.322   4.413  0.3759 -0.8642 -0.9997
 1057TIP3    H2 3129   3.162   4.346   4.497 -1.1190 -0.0484  1.0332
 1058TIP3   OH2 3130   6.400   3.622   2.456 -0.2357  0.0074 -0.0309
 1058TIP3    H1 3131   6.362   3.535   2.446  2.3210 -1.0780 -1.4664
 1058TIP3    H2 3132   6.328   3.683   2.439 -1.6607 -1.8554 -0.9674
 1059TIP3   OH2 3133   4.180   3.239   6.470 -0.4142 -0.2388 -0.1310
 1059TIP3    H1 3134   4.194   3.269   6.380  3.9352  0.7529  0.6912
 1059TIP3    H2 3135   4.108   3.294   6.502 -1.0800  0.3962 -2.5196
 1060TIP3   OH2 3136   8.314   6.839   4.734  0.6438  0.4851  0.5667
 1060TIP3    H1 3137   8.308   6.747   4.708  0.4892  0.3511  1.0527
 1060TIP3    H2 3138   8.256   6.884   4.673 -0.4498  0.0498  1.2351
 1061TIP3   OH2 3139   6.651   2.517   5.967  0.1024  0.2531  0.3082
 1061TIP3    H1 3140   6.691   2.432   5.988  0.4116  0.0235 -1.0782
 1061TIP3    H2 3141   6.722   2.566   5.925  0.0491  1.3792  1.4782
 1062TIP3   OH2 3142   3.910   0.267   1.363 -0.1644 -0.1889 -0.0451
 1062TIP3    H1 3143   3.868   0.198   1.311 -0.8821  0.1568  0.0523
 1062TIP3    H2 3144   3.838   0.305   1.414  0.4719 -0.2905  0.9469
 1063TIP3   OH2 3145   0.030   5.491   1.726 -0.3974  0.2152 -0.8838
 1063TIP3    H1 3146   0.084   5.415   1.749  1.1740  1.2794 -0.9036
 1063TIP3    H2 3147  -0.032   5.457   1.661  0.0780 -1.1090 -0.6863
 1064TIP3   OH2 3148   0.227   2.767   5.282  0.3867  0.2246  0.1193
 1064TIP3    H1 3149   0.221   2.747   5.189  1.7801 -0.2151  0.1011
 1064TIP3    H2 3150   0.274   2.693   5.320 -1.9952 -0.6811  1.5739
 1065TIP3   OH2 3151   1.876   5.436   2.818 -0.0402 -0.0064 -0.6118
 1065TIP3    H1 3152   1.823   5.356   2.821  0.6506 -0.4439  0.6362
 1065TIP3    H2 3153   1.860   5.478   2.902  1.7964 -0.3021 -0.0727
 1066TIP3   OH2 3154   7.057   6.517   4.208 -0.4640  0.2345  0.4161
 1066TIP3    H1 3155   6.986   6.464   4.170  0.9055 -0.6454 -1.0392
 1066TIP3    H2 3156   7.044   6.509   4.302 -1.9621 -0.3661  0.1968
 1067TIP3   OH2 3157   6.029   5.303   4.170 -0.1322 -0.1577  0.4481
 1067TIP3    H1 3158   5.968   5.252   4.116 -1.4170 -0.3189  1.9729
 1067TIP3    H2 3159   5.974   5.342   4.238  1.2890  0.7936  1.1003
 1068TIP3   OH2 3160   8.177   0.517   3.777 -0.4398 -0.4968  0.2480
 1068TIP3    H1 3161   8.085   0.527   3.751 -0.2724  0.2293 -0.0914
 1068TIP3    H2 3162   8.203   0.432   3.741 -1.0238 -0.7946  0.5060
 1069TIP3   OH2 3163   2.955   1.696   3.372  0.0044 -0.3454  0.2910
 1069TIP3    H1 3164   2.973   1.614   3.418  1.4690 -1.2307 -1.7120
 1069TIP3    H2 3165   2.878   1.678   3.318 -0.6714  0.1510  1.0609
 1070TIP3   OH2 3166   6.586   4.315   2.588  0.1317  0.4166  0.1025
 1070TIP3    H1 3167   6.552   4.253   2.523  1.3589 -1.1563  0.9065
 1070TIP3    H2 3168   6.646   4.370   2.539  1.1838 -0.8699 -0.1019
 1071TIP3   OH2 3169   2.782   6.780   0.381 -0.1770 -0.1106  0.2633
 1071TIP3    H1 3170   2.859   6.746   0.426  0.3693  1.0688  0.2712
 1071TIP3    H2 3171   2.730   6.822   0.450 -0.1807  0.2251  0.0598
 1072TIP3   OH2 3172   5.119   3.994   2.918 -0.9689 -0.5499 -0.5085
 1072TIP3    H1 3173   5.144   4.039   2.999 -0.2896  0.2530 -1.1515
 1072TIP3    H2 3174   5.088   4.063   2.860  0.4228 -0.8407 -1.6438
 1073TIP3   OH2 3175   4.946   3.450   1.707 -0.0432 -0.2102 -0.3274
 1073TIP3    H1 3176   4.925   3.360   1.730  1.4554 -1.5249 -3.5008
 1073TIP3    H2 3177   4.903   3.464   1.623  2.1876  0.9357 -1.3564
 1074TIP3   OH2 3178   3.283   2.235   4.291  0.0610  0.1427  0.3256
 1074TIP3    H1 3179   3.311   2.324   4.312 -1.2430  0.5492  0.3777
 1074TIP3    H2 3180   3.335   2.211   4.215 -0.8950  1.6626 -0.8683
 1075TIP3   OH2 3181   7.299   5.872   0.679 -0.1683  0.1069  0.5564
 1075TIP3    H1 3182   7.368   5.875   0.745  0.3719  1.1125 -0.0312
 1075TIP3    H2 3183   7.299   5.781   0.648  2.5149  0.5864 -1.0949
 1076TIP3   OH2 3184   0.605   6.532   2.719  0.0693  0.3437  0.2729
 1076TIP3    H1 3185   0.640   6.615   2.687  0.9387 -0.0706  0.1338
 1076TIP3    H2 3186   0.601   6.543   2.814 -1.0628  1.0107  0.1737
 1077TIP3   OH2 3187   7.525   7.396   4.307 -0.4398 -0.3428 -0.6692
 1077TIP3    H1 3188   7.612   7.422   4.275 -0.7866  3.6942  1.0830
 1077TIP3    H2 3189   7.466   7.414   4.234 -0.2237  0.7588 -0.5946
 1078TIP3   OH2 3190   3.711   1.547   6.416 -0.1955 -0.0124  0.6447
 1078TIP3    H1 3191   3.642   1.602   6.378 -1.6262 -2.5238 -0.6751
 1078TIP3    H2 3192   3.726   1.583   6.503 -2.0760  1.5603  0.3828
 1079TIP3   OH2 3193   1.635   2.529   2.975 -0.4656 -0.6868 -0.0929
 1079TIP3    H1 3194   1.573   2.460   3.000 -3.0316  1.4294 -0.2063
 1079TIP3    H2 3195   1.691   2.540   3.052 -1.2090 -1.6365  0.6168
 1080TIP3   OH2 3196   6.225   5.269   1.861  0.2201 -0.6798 -0.0537
 1080TIP3    H1 3197   6.212   5.350   1.812 -0.7387 -1.0831 -0.4787
 1080TIP3    H2 3198   6.248   5.299   1.950  1.6632  0.0444 -0.6297
 1081TIP3   OH2 3199   7.830   0.647   2.348 -0.3994  0.1278  0.3376
 1081TIP3    H1 3200   7.753   0.650   2.291 -2.0795 -1.6819  2.3200
 1081TIP3    H2 3201   7.856   0.738   2.358 -0.8022  0.6014 -2.2328
 1082TIP3   OH2 3202   3.646   0.777   6.104  0.4146  0.1637 -0.0647
 1082TIP3    H1 3203   3.737   0.788   6.077 -0.0288  0.1387 -1.7031
 1082TIP3    H2 3204   3.630   0.683   6.099  0.1763  0.2103 -0.1968
 1083TIP3   OH2 3205   6.965   7.165   3.864  0.3091  0.4656 -0.4132
 1083TIP3    H1 3206   6.888   7.215   3.890  0.4175  1.0561 -1.1705
 1083TIP3    H2 3207   6.930   7.081   3.833 -0.0240  0.6946 -0.6686
 1084TIP3   OH2 3208   7.416   4.547   1.872  0.0919  0.7460  0.0133
 1084TIP3    H1 3209   7.454   4.608   1.809  2.1549  0.2876  0.7095
 1084TIP3    H2 3210   7.462   4.464   1.856  0.0481  0.3975  1.5340
 1085TIP3   OH2 3211   2.539   4.512   1.428  0.2905 -0.3873  0.7805
 1085TIP3    H1 3212   2.514   4.533   1.338  0.1325  1.3174  1.1773
 1085TIP3    H2 3213   2.466   4.459   1.461 -0.9260  1.1221  0.6613
 1086TIP3   OH2 3214   1.026   2.764   5.507  0.2504  0.3660 -0.0806
 1086TIP3    H1 3215   0.989   2.687   5.551 -0.7552  1.1728  0.5341
 1086TIP3    H2 3216   1.112   2.775   5.546  0.2489 -0.2313  0.0954
 1087TIP3   OH2 3217   1.489   3.063   5.625  0.0239 -0.4927 -0.0290
 1087TIP3    H1 3218   1.407   3.098   5.591  0.8699  3.3635  1.3510
 1087TIP3    H2 3219   1.556   3.125   5.595  2.5858 -3.5722 -1.2746
 1088TIP3   OH2 3220   1.372   0.435   2.772  0.2402  0.7472  0.0642
 1088TIP3    H1 3221   1.388   0.347   2.805  1.8207  0.0735 -2.3026
 1088TIP3    H2 3222   1.416   0.492   2.835  0.9595 -0.2866  0.5322
 1089TIP3   OH2 3223   4.631   2.348   2.490 -0.9393  0.6065  0.5718
 1089TIP3    H1 3224   4.633   2.359   2.395  0.8683 -0.0474  0.4982
 1089TIP3    H2 3225   4.617   2.437   2.524 -1.2897  0.8916 -0.2986
 1090TIP3   OH2 3226   4.801   1.871   6.073 -0.1318  0.1743 -0.5592
 1090TIP3    H1 3227   4.773   1.784   6.044 -0.2142 -0.9078  2.4428
 1090TIP3    H2 3228   4.742   1.892   6.145 -0.6377  3.1524 -1.6785
 1091TIP3   OH2 3229   3.350   2.752   6.530 -0.0976 -0.9247 -0.3608
 1091TIP3    H1 3230   3.277   2.690   6.529  0.7624 -1.9997 -2.1088
 1091TIP3    H2 3231   3.376   2.759   6.438  0.7559  0.9609 -0.0161
 1092TIP3   OH2 3232   8.212   4.506   0.878 -0.1186  0.0415 -0.1692
 1092TIP3    H1 3233   8.147   4.569   0.909  1.1260  0.9926  0.5872
 1092TIP3    H2 3234   8.217   4.522   0.784  1.1559  2.0764  0.1831
 1093TIP3   OH2 3235   4.542   0.371   0.611  0.1932  0.4634  0.3482
 1093TIP3    H1 3236   4.575   0.433   0.546  0.9328  1.0841  1.3037
 1093TIP3    H2 3237   4.519   0.425   0.686  2.7865 -0.5374  2.0043
 1094TIP3   OH2 3238   5.630   4.364   5.013 -0.1395 -0.5017  0.7222
 1094TIP3    H1 3239   5.626   4.439   4.954 -0.4755 -1.4405 -0.4973
 1094TIP3    H2 3240   5.540   4.355   5.045 -0.4650 -1.3364 -0.3894
 1095TIP3   OH2 3241   0.455   5.146   1.497 -0.2211 -0.3633  0.1471
 1095TIP3    H1 3242   0.379   5.178   1.448 -0.3129 -0.9116 -0.0768
 1095TIP3    H2 3243   0.474   5.061   1.458 -1.1466 -1.4589  1.9448
 1096TIP3   OH2 3244   3.129   4.701   5.973 -0.2968  0.2264 -0.1117
 1096TIP3    H1 3245   3.191   4.750   6.027  0.4012 -0.2836 -0.4241
 1096TIP3    H2 3246   3.106   4.761   5.902  0.2694  0.2417 -0.2906
 1097TIP3   OH2 3247   3.715   7.373   5.299  0.4375  0.3046 -0.2841
 1097TIP3    H1 3248   3.623   7.349   5.302  0.8059 -1.3389 -0.7188
 1097TIP3    H2 3249   3.730   7.424   5.378 -0.8783  0.7633 -0.3212
 1098TIP3   OH2 3250   6.593   5.661   2.296 -0.0271 -0.3252 -0.5294
 1098TIP3    H1 3251   6.530   5.713   2.346 -0.3913 -1.0445 -0.2219
 1098TIP3    H2 3252   6.670   5.656   2.352 -0.0187 -0.1793 -0.5277
 1099TIP3   OH2 3253   8.196   0.136   3.868 -0.0548 -0.3335 -0.4858
 1099TIP3    H1 3254   8.188   0.195   3.793 -0.2723  0.1131 -0.1192
 1099TIP3    H2 3255   8.179   0.049   3.833  0.0614 -0.1516 -0.9955
 1100TIP3   OH2 3256   5.115   0.038   5.267 -0.2748 -0.0169 -0.2252
 1100TIP3    H1 3257   5.026   0.073   5.270 -0.0637  0.5287  1.9442
 1100TIP3    H2 3258   5.140   0.041   5.175 -2.4600 -0.1082 -0.8599
 1101TIP3   OH2 3259   4.554   3.245   5.843  0.3579 -0.2440 -0.9799
 1101TIP3    H1 3260   4.462   3.265   5.856  0.3182 -0.6716 -0.5836
 1101TIP3    H2 3261   4.555   3.153   5.816  0.7522 -0.5970  0.1925
 1102TIP3   OH2 3262   6.746   7.273   3.494 -0.2350 -0.0458  0.0403
 1102TIP3    H1 3263   6.741   7.187   3.536  0.2651  0.7448  1.8147
 1102TIP3    H2 3264   6.746   7.335   3.567  1.4420  1.3751 -1.0895
 1103TIP3   OH2 3265   4.798   7.111   0.703 -0.4009 -0.0207 -0.1896
 1103TIP3    H1 3266   4.877   7.136   0.751 -0.9973 -0.2101  0.9354
 1103TIP3    H2 3267   4.815   7.022   0.673  0.8908  0.8966 -2.3735
 1104TIP3   OH2 3268   2.220   3.231   4.236 -0.5981  0.3949 -0.1615
 1104TIP3    H1 3269   2.287   3.266   4.178 -0.1269 -2.2562 -1.3854
 1104TIP3    H2 3270   2.184   3.307   4.280  1.6437  2.1443 -1.1416
 1105TIP3   OH2 3271   2.930   6.062   2.690  0.8574 -0.9256  0.4458
 1105TIP3    H1 3272   2.887   6.146   2.673  0.3501 -0.4606  3.4913
 1105TIP3    H2 3273   2.900   6.005   2.619 -0.9504  0.7279 -0.1993
 1106TIP3   OH2 3274   0.240   7.294   4.230  0.1565 -0.2029 -0.2275
 1106TIP3    H1 3275   0.264   7.363   4.291 -0.0955  0.3873 -0.7867
 1106TIP3    H2 3276   0.250   7.333   4.143  0.0245 -0.8720 -0.5566
 1107TIP3   OH2 3277   2.478   5.010   5.034 -0.4446  0.2707 -0.1025
 1107TIP3    H1 3278   2.433   5.093   5.046 -0.6127  0.0156  1.1935
 1107TIP3    H2 3279   2.438   4.952   5.099 -1.5203 -1.3340 -2.0853
 1108TIP3   OH2 3280   4.678   2.887   2.566 -0.1483 -0.4988 -0.3329
 1108TIP3    H1 3281   4.632   2.961   2.525 -0.0077 -0.3533 -0.2263
 1108TIP3    H2 3282   4.754   2.926   2.607  0.4042 -0.8278 -1.0230
 1109TIP3   OH2 3283   7.795   4.528   1.815 -0.3010  0.6108  0.4756
 1109TIP3    H1 3284   7.858   4.514   1.745 -0.8641 -0.6954  0.2074
 1109TIP3    H2 3285   7.826   4.607   1.859  0.0831  1.4378 -1.1966
 1110TIP3   OH2 3286   1.765   7.533   6.508  0.0970  0.1076  0.1754
 1110TIP3    H1 3287   1.845   7.517   6.559 -0.4250  1.0765  1.3210
 1110TIP3    H2 3288   1.694   7.520   6.569 -0.4963  3.2126  0.3014
 1111TIP3   OH2 3289   7.271   6.746   0.048 -0.0379 -0.1551  0.4836
 1111TIP3    H1 3290   7.197   6.777   0.102  0.4024 -0.7333  1.4398
 1111TIP3    H2 3291   7.345   6.744   0.108  0.6581 -0.0296 -0.3599
 1112TIP3   OH2 3292   4.167   3.542   6.223  0.2248 -0.3668 -0.4345
 1112TIP3    H1 3293   4.127   3.464   6.183  1.8715 -1.6730  0.3139
 1112TIP3    H2 3294   4.131   3.543   6.312  0.2019 -0.2781 -0.4455
 1113TIP3   OH2 3295   2.762   1.872   3.192 -0.0017 -0.3282 -0.2651
 1113TIP3    H1 3296   2.716   1.918   3.122 -1.7862 -1.7488 -0.0899
 1113TIP3    H2 3297   2.855   1.884   3.172 -0.4482  1.0884 -1.6506
 1114TIP3   OH2 3298   2.072   7.242   0.465  0.5226 -0.2774  0.2857
 1114TIP3    H1 3299   2.131   7.255   0.539  1.4644  2.5086 -0.8026
 1114TIP3    H2 3300   1.994   7.293   0.488  0.4071 -0.2396 -0.1697
 1115TIP3   OH2 3301   1.355   1.561   2.828 -0.1033 -0.5895 -0.6757
 1115TIP3    H1 3302   1.268   1.575   2.865  0.3859  0.1201  0.2518
 1115TIP3    H2 3303   1.343   1.572   2.734 -1.4113 -2.5976 -0.7968
 1116TIP3   OH2 3304   7.191   7.341   0.538 -0.4851  0.4284 -0.1940
 1116TIP3    H1 3305   7.234   7.323   0.454  0.4379 -1.7421  0.6935
 1116TIP3    H2 3306   7.148   7.426   0.524  0.5552  0.6640 -2.4885
 1117TIP3   OH2 3307   3.252   4.600   5.608 -0.7316  0.2662  0.0128
 1117TIP3    H1 3308   3.236   4.692   5.626 -2.1181  0.1315 -0.3728
 1117TIP3    H2 3309   3.253   4.593   5.513  0.6282  0.0615  0.0213
 1118TIP3   OH2 3310   3.830   3.318   6.701 -0.3563  0.4034 -0.6546
 1118TIP3    H1 3311   3.861   3.234   6.735 -2.5471 -1.0899 -2.1262
 1118TIP3    H2 3312   3.781   3.296   6.622  0.7692  3.2946 -2.3274
 1119TIP3   OH2 3313   1.163   2.827   6.043 -0.4651  0.1978 -0.6468
 1119TIP3    H1 3314   1.234   2.887   6.068 -1.1390  0.6390  0.2781
 1119TIP3    H2 3315   1.202   2.740   6.052 -0.3615  0.3840  1.0317
 1120TIP3   OH2 3316   2.532   4.446   1.087  0.3225  0.5892 -0.4360
 1120TIP3    H1 3317   2.596   4.416   1.022  0.5368 -0.6790  0.3330
 1120TIP3    H2 3318   2.511   4.368   1.138 -1.4452  1.0994 -0.3234
 1121TIP3   OH2 3319   3.592   1.833   2.653  0.1400  0.1323  0.9465
 1121TIP3    H1 3320   3.626   1.849   2.741  0.2638  0.9807  0.7512
 1121TIP3    H2 3321   3.654   1.877   2.595 -1.9599  2.9794  0.6463
 1122TIP3   OH2 3322   7.222   0.727   3.999  0.4245 -0.3729 -0.3409
 1122TIP3    H1 3323   7.195   0.651   3.948 -1.1858 -0.0372 -0.0595
 1122TIP3    H2 3324   7.270   0.782   3.938 -0.0927 -0.7205 -1.0722
 1123TIP3   OH2 3325   6.232   0.630   2.972  0.1100  0.1775  0.3150
 1123TIP3    H1 3326   6.237   0.726   2.977 -0.4376  0.2214  0.1294
 1123TIP3    H2 3327   6.310   0.604   2.924 -0.2847  0.6251 -0.6070
 1124TIP3   OH2 3328   7.777   0.976   4.099 -0.1770 -0.3745  0.3310
 1124TIP3    H1 3329   7.868   0.961   4.072 -0.8760 -0.2134 -2.4333
 1124TIP3    H2 3330   7.784   1.014   4.187  2.4295 -0.2171  0.1406
 1125TIP3   OH2 3331   0.886   4.584   1.070 -0.6058  0.4599  0.1785
 1125TIP3    H1 3332   0.799   4.596   1.032 -0.9895 -2.7700 -0.2049
 1125TIP3    H2 3333   0.876   4.512   1.132  1.6696  0.4593  0.6250
 1126TIP3   OH2 3334   5.827   5.898   6.667  0.0213 -0.0499  0.2877
 1126TIP3    H1 3335   5.886   5.962   6.627 -1.2753  0.3703 -1.0283
 1126TIP3    H2 3336   5.777   5.861   6.594  0.0943 -1.9238  1.1261
 1127TIP3   OH2 3337   3.501   5.232   1.402  0.2614  0.5485 -0.6298
 1127TIP3    H1 3338   3.416   5.195   1.425  0.4381  0.6223  0.1658
 1127TIP3    H2 3339   3.556   5.157   1.380 -0.2205  0.5489 -1.9072
 1128TIP3   OH2 3340   7.111   2.488   5.395  0.0162  0.8536  0.0789
 1128TIP3    H1 3341   7.046   2.523   5.334 -1.0425 -0.4357  0.4237
 1128TIP3    H2 3342   7.102   2.542   5.473  0.1946  1.4263 -0.2863
 1129TIP3   OH2 3343   4.446   2.653   2.959  0.2930 -0.0667  0.6536
 1129TIP3    H1 3344   4.460   2.747   2.962  1.0951 -0.1407 -0.1856
 1129TIP3    H2 3345   4.449   2.625   3.051 -1.4171  0.8965  1.0285
 1130TIP3   OH2 3346   2.719   3.236   0.663 -0.7365 -0.4823  0.2195
 1130TIP3    H1 3347   2.719   3.144   0.689 -0.6201 -1.3488 -2.5623
 1130TIP3    H2 3348   2.806   3.268   0.685 -0.0313 -1.6765 -0.7742
 1131TIP3   OH2 3349   7.922   5.527   3.749  1.2371 -0.6315 -0.3714
 1131TIP3    H1 3350   7.833   5.553   3.726  1.2932 -0.8054 -0.7899
 1131TIP3    H2 3351   7.954   5.600   3.802  0.2542 -1.3463  1.2758
 1132TIP3   OH2 3352   2.834   3.339   0.996  0.6816 -0.3251 -0.4058
 1132TIP3    H1 3353   2.888   3.339   0.917 -1.0493 -0.1000 -1.6481
 1132TIP3    H2 3354   2.818   3.247   1.015  2.8411 -0.4986  1.0182
 1133TIP3   OH2 3355   2.535   7.386   2.061 -0.0564  0.0242  0.1327
 1133TIP3    H1 3356   2.480   7.463   2.077  0.5292  0.7659 -1.2520
 1133TIP3    H2 3357   2.605   7.417   2.004  0.7508 -1.3241  0.3367
 1134TIP3   OH2 3358   8.069   6.002   2.595 -0.2987  0.0410  0.6752
 1134TIP3    H1 3359   8.116   6.035   2.519  0.7295 -0.9991  0.8349
 1134TIP3    H2 3360   7.981   5.984   2.563  0.2542 -0.8744 -0.4172
 1135TIP3   OH2 3361   7.622   7.173   2.378 -0.3652  0.3952  0.3189
 1135TIP3    H1 3362   7.631   7.249   2.320 -1.2863  0.3737  0.1319
 1135TIP3    H2 3363   7.566   7.204   2.449 -2.6181 -0.6585 -0.8555
 1136TIP3   OH2 3364   2.793   3.700   3.809 -0.1062  0.2738 -0.0550
 1136TIP3    H1 3365   2.826   3.762   3.744  0.6688 -1.0194 -0.9508
 1136TIP3    H2 3366   2.825   3.733   3.893  0.3301  1.0472 -0.5206
 1137TIP3   OH2 3367   7.128   2.192   5.793 -0.1555 -0.3484 -0.2246
 1137TIP3    H1 3368   7.098   2.102   5.801  1.7503 -0.8699  3.6386
 1137TIP3    H2 3369   7.221   2.188   5.814  0.4087  2.3598 -1.7533
 1138TIP3   OH2 3370   4.287   6.397   6.479 -0.0894  0.1653 -1.0496
 1138TIP3    H1 3371   4.336   6.409   6.397  0.1876 -1.8229 -1.2396
 1138TIP3    H2 3372   4.339   6.335   6.529 -1.2566 -0.1938 -0.2305
 1139TIP3   OH2 3373   3.472   5.589   4.944 -0.6560 -0.0823  0.1565
 1139TIP3    H1 3374   3.395   5.555   4.899 -0.3068  0.0286 -0.5518
 1139TIP3    H2 3375   3.536   5.518   4.941 -0.9205 -0.3760  1.2489
 1140TIP3   OH2 3376   0.288   0.758   4.535  0.5950  0.1371  0.1549
 1140TIP3    H1 3377   0.343   0.704   4.478 -0.4148 -0.6996 -0.0598
 1140TIP3    H2 3378   0.199   0.731   4.515  0.0345  1.9892 -0.0374
 1141TIP3   OH2 3379   3.306   6.645   2.414  0.1333  0.3833 -0.5533
 1141TIP3    H1 3380   3.261   6.582   2.358 -1.5201 -0.2532  1.3865
 1141TIP3    H2 3381   3.364   6.593   2.469  0.3398  0.7848 -0.3806
 1142TIP3   OH2 3382   0.429   6.802   6.704  0.0995  0.2401  0.0299
 1142TIP3    H1 3383   0.444   6.847   6.621 -0.1954  0.4890  0.1083
 1142TIP3    H2 3384   0.498   6.736   6.709  1.1209  1.3142  0.3654
 1143TIP3   OH2 3385   4.643   6.592   1.683 -0.0475  0.2077  0.1840
 1143TIP3    H1 3386   4.723   6.540   1.695 -1.0850 -1.3145  0.8805
 1143TIP3    H2 3387   4.660   6.674   1.730  0.8257 -0.4100  0.9856
 1144TIP3   OH2 3388   5.144   4.681   3.636 -0.6619  0.1985 -0.3786
 1144TIP3    H1 3389   5.052   4.657   3.626 -0.3326 -0.6858 -1.4946
 1144TIP3    H2 3390   5.165   4.658   3.727 -0.8740 -2.1067 -0.8401
 1145TIP3   OH2 3391   6.516   2.171   0.724  0.8015 -0.0228  0.1564
 1145TIP3    H1 3392   6.581   2.100   0.728 -2.0667 -2.8523  0.1881
 1145TIP3    H2 3393   6.502   2.196   0.815  2.0939  0.9417  0.1203
 1146TIP3   OH2 3394   6.634   0.303   5.039  0.1023  0.4860 -0.0158
 1146TIP3    H1 3395   6.712   0.257   5.070 -0.1507  0.6668  0.9358
 1146TIP3    H2 3396   6.667   0.378   4.991  0.5280  0.9654  1.0026
 1147TIP3   OH2 3397   6.114   6.483   3.289 -0.2182 -0.5988  0.1392
 1147TIP3    H1 3398   6.129   6.389   3.283  0.4958 -0.4174 -2.0240
 1147TIP3    H2 3399   6.196   6.523   3.259 -1.2420  0.6323 -1.2501
 1148TIP3   OH2 3400   0.887   1.539   4.312  0.4848 -0.7433  0.0214
 1148TIP3    H1 3401   0.970   1.574   4.280  0.4860 -0.1038  0.6993
 1148TIP3    H2 3402   0.835   1.617   4.335  0.1933 -1.1689  0.8278
 1149TIP3   OH2 3403   5.078   3.030   1.484 -0.0254  0.8156 -0.0020
 1149TIP3    H1 3404   5.072   3.002   1.576 -1.7606  0.4245 -0.2111
 1149TIP3    H2 3405   5.159   2.989   1.453 -1.9542 -3.4801 -0.0585
 1150TIP3   OH2 3406   5.457   4.134   1.692  0.0468 -0.0898  0.6198
 1150TIP3    H1 3407   5.405   4.214   1.693  0.1650  0.0180 -0.6925
 1150TIP3    H2 3408   5.396   4.066   1.662  0.6564  0.0634 -1.0587
 1151TIP3   OH2 3409   2.012   1.905   1.590  0.5927  0.0347 -0.4128
 1151TIP3    H1 3410   2.007   1.830   1.650 -1.2125 -0.9459 -1.7137
 1151TIP3    H2 3411   2.104   1.906   1.562  1.5362  0.5572  2.2853
 1152TIP3   OH2 3412   4.652   0.264   6.100  0.0709 -0.3430  0.5709
 1152TIP3    H1 3413   4.684   0.227   6.183 -0.8353 -2.4828  0.0349
 1152TIP3    H2 3414   4.557   0.258   6.106 -0.0029 -2.0417 -1.2047
 1153TIP3   OH2 3415   2.702   1.319   5.011  0.4086 -0.4444  0.3466
 1153TIP3    H1 3416   2.657   1.263   5.075 -3.1424  0.0102 -1.4679
 1153TIP3    H2 3417   2.725   1.260   4.939 -3.0976  0.0522 -1.4463
 1154TIP3   OH2 3418   0.178   7.158   1.827  0.2964  0.5748  0.4470
 1154TIP3    H1 3419   0.142   7.082   1.782  1.4214  0.4293 -0.2529
 1154TIP3    H2 3420   0.198   7.126   1.915 -0.4230  0.4189  0.5572
 1155TIP3   OH2 3421   3.192   4.969   1.069 -0.9593 -0.6914  0.1309
 1155TIP3    H1 3422   3.226   5.056   1.088 -2.4415 -0.1711  0.5050
 1155TIP3    H2 3423   3.224   4.949   0.981 -0.6950  0.2572  0.0072
 1156TIP3   OH2 3424   5.914   7.188   2.918  0.4631  0.2184 -0.1803
 1156TIP3    H1 3425   5.979   7.181   2.848 -0.8668 -1.9003 -1.3219
 1156TIP3    H2 3426   5.834   7.217   2.874  0.6657  3.4374  1.2976
 1157TIP3   OH2 3427   1.424   0.578   2.067 -0.3502  0.1411  0.6883
 1157TIP3    H1 3428   1.508   0.603   2.107  1.1126  2.2534 -3.2044
 1157TIP3    H2 3429   1.433   0.484   2.051  0.3934 -0.0582  2.0399
 1158TIP3   OH2 3430   4.851   2.431   4.263 -0.3180  0.0105 -0.5828
 1158TIP3    H1 3431   4.913   2.443   4.191  0.5934 -0.1915  0.1350
 1158TIP3    H2 3432   4.765   2.442   4.224 -0.0527 -3.3649 -2.4288
 1159TIP3   OH2 3433   2.032   2.453   2.374  0.0185  0.2329 -0.3381
 1159TIP3    H1 3434   1.978   2.502   2.436  0.6768  0.2392  0.2458
 1159TIP3    H2 3435   2.105   2.512   2.355  1.2517 -0.7806  0.9988
 1160TIP3   OH2 3436   7.224   7.475   2.646 -0.0459 -0.0843 -0.0492
 1160TIP3    H1 3437   7.150   7.479   2.707  1.0090  0.8073  1.2372
 1160TIP3    H2 3438   7.281   7.547   2.673  0.7554 -0.0342 -1.7404
 1161TIP3   OH2 3439   6.294   0.808   1.365  0.0369 -0.2220  0.2281
 1161TIP3    H1 3440   6.213   0.806   1.416 -1.2195  0.3221 -1.6650
 1161TIP3    H2 3441   6.299   0.722   1.325  0.8150 -0.5109  0.9141
 1162TIP3   OH2 3442   7.591   1.548   5.322 -0.0360  0.2886  0.3467
 1162TIP3    H1 3443   7.512   1.494   5.323 -0.0081  0.2143 -0.4705
 1162TIP3    H2 3444   7.558   1.638   5.320 -0.1566  0.2513 -1.3493
 1163TIP3   OH2 3445   2.982   2.614   6.179  0.1920  0.1781  0.1158
 1163TIP3    H1 3446   3.016   2.577   6.260  2.2754 -0.2392 -0.8846
 1163TIP3    H2 3447   2.964   2.538   6.123  3.6527  0.4273 -1.6191
 1164TIP3   OH2 3448   6.770   5.456   2.978  0.5280  0.2555 -0.0464
 1164TIP3    H1 3449   6.849   5.415   2.943 -0.2758 -0.6295 -0.8992
 1164TIP3    H2 3450   6.756   5.413   3.062  1.0155  0.5016  0.1618
 1165TIP3   OH2 3451   5.860   2.198   3.868 -0.4377  0.2622  0.4414
 1165TIP3    H1 3452   5.827   2.111   3.892 -0.8258  0.4117  0.4456
 1165TIP3    H2 3453   5.946   2.180   3.828 -0.7863 -0.1774 -0.1223
 1166TIP3   OH2 3454   6.156   6.911   0.190 -0.8600  0.2575 -0.2389
 1166TIP3    H1 3455   6.216   6.844   0.222  1.0104  1.8781 -0.1486
 1166TIP3    H2 3456   6.116   6.873   0.112  0.3538 -0.8670 -0.3389
 1167TIP3   OH2 3457   5.901   7.415   3.668 -0.6816  0.4969  0.5341
 1167TIP3    H1 3458   5.994   7.400   3.653 -0.9687 -1.1179  0.1613
 1167TIP3    H2 3459   5.866   7.437   3.581 -0.5720  1.6699  0.7714
 1168TIP3   OH2 3460   1.902   6.412   1.489 -0.0968 -0.0065  0.2299
 1168TIP3    H1 3461   1.967   6.477   1.515 -0.3894  0.9358 -1.3227
 1168TIP3    H2 3462   1.926   6.388   1.400 -1.6464  0.0767 -0.2277
 1169TIP3   OH2 3463   6.819   2.320   6.601  0.4003 -0.1789  0.1263
 1169TIP3    H1 3464   6.727   2.342   6.587  0.3015 -0.6281  0.0536
 1169TIP3    H2 3465   6.823   2.225   6.591  0.7558 -0.2400  0.7530
 1170TIP3   OH2 3466   4.456   0.814   2.160 -0.1193 -0.1790  0.2234
 1170TIP3    H1 3467   4.514   0.745   2.193 -0.1837 -0.0330  0.6437
 1170TIP3    H2 3468   4.381   0.766   2.124 -0.5823 -0.3038  1.3148
 1171TIP3   OH2 3469   1.884   6.884   5.278  0.3150 -0.3737  0.6371
 1171TIP3    H1 3470   1.910   6.892   5.186 -1.6461  1.3357  0.1493
 1171TIP3    H2 3471   1.965   6.898   5.327  1.1535  0.1422 -0.8238
 1172TIP3   OH2 3472   2.084   3.180   1.952 -0.0586  0.1973  0.4606
 1172TIP3    H1 3473   1.996   3.185   1.915  1.4316 -0.2622 -3.6714
 1172TIP3    H2 3474   2.104   3.086   1.952  1.8824  0.4512 -3.0580
 1173TIP3   OH2 3475   6.802   0.265   0.211 -0.0680 -0.1800  0.3417
 1173TIP3    H1 3476   6.813   0.305   0.124  1.7165 -2.8374 -0.8042
 1173TIP3    H2 3477   6.855   0.318   0.269  0.9881  0.0560 -0.7958
 1174TIP3   OH2 3478   6.251   1.290   2.055  0.4513 -0.3051  0.2373
 1174TIP3    H1 3479   6.306   1.277   2.132  1.3769 -2.9104 -0.7735
 1174TIP3    H2 3480   6.178   1.229   2.066 -0.4753  0.7154 -0.0417
 1175TIP3   OH2 3481   6.586   0.807   4.382  0.1475  0.5998 -0.2315
 1175TIP3    H1 3482   6.541   0.753   4.317 -1.3410  1.1857  0.2614
 1175TIP3    H2 3483   6.574   0.897   4.351  1.3451  0.7520 -0.2900
 1176TIP3   OH2 3484   5.007   5.110   0.321  0.0789  0.6116  0.4532
 1176TIP3    H1 3485   5.019   5.022   0.287  1.9694  0.7205  0.7366
 1176TIP3    H2 3486   4.912   5.125   0.316 -0.3779 -1.6838  1.0999
 1177TIP3   OH2 3487   5.402   7.243   2.111  0.0287 -0.0811 -0.4145
 1177TIP3    H1 3488   5.353   7.273   2.188 -0.7779  0.3978 -1.1053
 1177TIP3    H2 3489   5.481   7.203   2.148 -1.0087 -1.1551  0.7413
 1178TIP3   OH2 3490   6.830   0.152   5.178 -0.1004 -0.4344  0.4330
 1178TIP3    H1 3491   6.809   0.070   5.222 -2.5251 -0.3030 -0.3280
 1178TIP3    H2 3492   6.805   0.220   5.240 -0.6276 -0.2748  0.0552
 1179TIP3   OH2 3493   4.391   1.808   3.681 -0.2487 -0.1218  0.4898
 1179TIP3    H1 3494   4.463   1.860   3.718  0.6732  0.0461 -1.4277
 1179TIP3    H2 3495   4.317   1.868   3.678  0.1988  0.4270  0.2812
 1180TIP3   OH2 3496   3.626   3.727   3.037  0.1452  0.3471  0.6075
 1180TIP3    H1 3497   3.689   3.656   3.044  1.9453  1.5640 -1.5966
 1180TIP3    H2 3498   3.619   3.743   2.943  0.4017  3.5290  1.0260
 1181TIP3   OH2 3499   2.699   0.985   5.547 -0.2205 -0.0027  0.3985
 1181TIP3    H1 3500   2.700   1.079   5.531 -1.6178 -0.1289 -0.5494
 1181TIP3    H2 3501   2.738   0.947   5.468  0.0879 -0.2491  0.6646
 1182TIP3   OH2 3502   3.667   6.078   0.066  0.3086 -0.5479 -0.1103
 1182TIP3    H1 3503   3.733   6.146   0.078 -1.8781  1.7701 -0.5388
 1182TIP3    H2 3504   3.618   6.077   0.148 -0.4015 -0.7641 -0.5272
 1183TIP3   OH2 3505   2.993   5.671   1.473 -0.1527  0.3821  0.2821
 1183TIP3    H1 3506   2.950   5.621   1.404  0.3246 -0.1147  0.3387
 1183TIP3    H2 3507   2.925   5.728   1.508 -0.1283  1.4568 -1.3488
 1184TIP3   OH2 3508   2.157   0.431   1.707 -0.1722  0.0859  0.2716
 1184TIP3    H1 3509   2.082   0.488   1.689 -0.1583  0.1582  0.4402
 1184TIP3    H2 3510   2.185   0.401   1.621 -2.1831 -2.2709  0.3335
 1185TIP3   OH2 3511   8.081   1.603   5.260  0.3117  0.2864 -0.5233
 1185TIP3    H1 3512   8.008   1.657   5.228  0.8854  1.8418  0.6933
 1185TIP3    H2 3513   8.144   1.603   5.187 -0.3162  0.0129 -1.0815
 1186TIP3   OH2 3514   5.800   2.405   2.003 -0.2059  0.6329  0.5794
 1186TIP3    H1 3515   5.864   2.413   2.074 -0.2425  2.0299  0.4778
 1186TIP3    H2 3516   5.733   2.470   2.024 -0.2476  1.0273 -0.7097
 1187TIP3   OH2 3517   4.989   6.175   6.217  0.4576 -0.0609 -0.7947
 1187TIP3    H1 3518   5.084   6.172   6.226  0.5446 -0.2283 -1.7335
 1187TIP3    H2 3519   4.965   6.091   6.179 -0.3654 -1.1178  1.8313
 1188TIP3   OH2 3520   1.591   4.902   4.837  0.1631 -0.6773  0.3292
 1188TIP3    H1 3521   1.609   4.811   4.860 -0.8406 -0.6689  1.2630
 1188TIP3    H2 3522   1.569   4.944   4.921  0.6514  0.4346 -0.0803
 1189TIP3   OH2 3523   4.350   2.243   6.137  0.2265  0.1707 -0.5433
 1189TIP3    H1 3524   4.396   2.203   6.210 -0.5195  0.5632  0.1542
 1189TIP3    H2 3525   4.367   2.185   6.063 -1.6616 -2.0390  0.6421
 1190TIP3   OH2 3526   6.788   5.076   4.390  0.1020 -0.4342  0.3054
 1190TIP3    H1 3527   6.730   5.136   4.438  0.6434  1.5547 -1.3729
 1190TIP3    H2 3528   6.876   5.105   4.414  0.4361  1.6987 -2.9258
 1191TIP3   OH2 3529   6.274   4.681   6.379  0.1230 -0.5555 -0.5217
 1191TIP3    H1 3530   6.225   4.760   6.355  1.6073  0.6014  0.0890
 1191TIP3    H2 3531   6.364   4.699   6.352  0.3087 -2.5498 -1.4461
 1192TIP3   OH2 3532   2.173   0.969   5.289  0.0383 -0.3585  0.0080
 1192TIP3    H1 3533   2.165   0.915   5.210 -2.5337  1.5083 -1.1477
 1192TIP3    H2 3534   2.093   0.952   5.339 -0.5172  1.7532 -0.0544
 1193TIP3   OH2 3535   5.222   6.010   5.655 -0.1422  0.2043 -0.2442
 1193TIP3    H1 3536   5.262   6.075   5.713  1.3236 -1.7980  1.1285
 1193TIP3    H2 3537   5.296   5.971   5.609 -0.9954 -0.5178 -1.0340
 1194TIP3   OH2 3538   2.471   6.908   1.749 -0.4002 -0.2172  0.3271
 1194TIP3    H1 3539   2.518   6.945   1.824 -0.5794  1.6542 -0.4384
 1194TIP3    H2 3540   2.534   6.910   1.678 -0.2367 -1.9796  0.3628
 1195TIP3   OH2 3541   4.926   0.113   2.855 -0.0246 -1.0473  0.5291
 1195TIP3    H1 3542   4.993   0.100   2.788 -0.0261  0.7730  0.1137
 1195TIP3    H2 3543   4.961   0.070   2.932  2.9901  2.0204  1.1207
 1196TIP3   OH2 3544   7.106   0.525   3.626 -0.1744  0.1292  0.6822
 1196TIP3    H1 3545   7.050   0.601   3.643 -0.7576 -0.2735  0.6048
 1196TIP3    H2 3546   7.167   0.554   3.558 -0.8559  0.3191  0.1397
 1197TIP3   OH2 3547   3.722   5.323   6.338  0.2543 -0.2945  0.1159
 1197TIP3    H1 3548   3.666   5.399   6.355 -0.3517 -0.4558 -1.0527
 1197TIP3    H2 3549   3.808   5.348   6.373 -0.2983  0.3223  1.1010
 1198TIP3   OH2 3550   0.913   7.125   1.006 -0.2404  0.0077  0.3509
 1198TIP3    H1 3551   0.942   7.077   0.928 -2.3532  0.4890 -0.7999
 1198TIP3    H2 3552   0.832   7.168   0.979 -0.6934  0.7253  2.6441
 1199TIP3   OH2 3553   0.473   7.753   2.915  0.3877 -0.0587 -0.5025
 1199TIP3    H1 3554   0.495   7.738   2.823  0.8173  4.6086 -1.3758
 1199TIP3    H2 3555   0.378   7.763   2.916  0.5094  1.3298 -0.7840
 1200TIP3   OH2 3556   3.278   6.442   3.612  0.1002 -0.0942  0.0581
 1200TIP3    H1 3557   3.208   6.498   3.646 -0.6945 -0.2403 -1.2588
 1200TIP3    H2 3558   3.351   6.502   3.598 -1.0765  0.9523 -2.3608
 1201TIP3   OH2 3559   1.358   5.060   6.729  0.3241 -0.4017 -0.3100
 1201TIP3    H1 3560   1.407   4.983   6.699  0.5953 -0.2955 -0.1425
 1201TIP3    H2 3561   1.283   5.024   6.776  0.7217 -0.5701  0.2124
 1202TIP3   OH2 3562   7.112   4.352   4.561  0.0147  0.2325 -0.4200
 1202TIP3    H1 3563   7.101   4.265   4.600  0.5361  0.4652  0.2722
 1202TIP3    H2 3564   7.185   4.390   4.609 -1.4906  1.8309  0.7035
 1203TIP3   OH2 3565   3.170   2.483   0.664  0.0878  0.6637  0.0892
 1203TIP3    H1 3566   3.133   2.507   0.749 -0.7570  0.4672 -0.2123
 1203TIP3    H2 3567   3.241   2.423   0.685  0.6499  1.5403  0.7191
 1204TIP3   OH2 3568   1.325   5.891   3.308 -0.1668 -0.4617  0.3606
 1204TIP3    H1 3569   1.277   5.943   3.243  1.0180  0.6110  0.2823
 1204TIP3    H2 3570   1.273   5.899   3.388 -0.1736  0.6260  0.2703
 1205TIP3   OH2 3571   3.558   1.361   2.014 -0.1176  0.2096 -0.0528
 1205TIP3    H1 3572   3.648   1.391   2.022 -0.1370  0.2256  0.1214
 1205TIP3    H2 3573   3.542   1.353   1.920 -0.1312  0.8083 -0.1023
 1206TIP3   OH2 3574   7.784   1.019   4.829  0.1572  0.1266 -0.3114
 1206TIP3    H1 3575   7.735   1.081   4.775  3.3883  1.2590 -2.2672
 1206TIP3    H2 3576   7.806   1.070   4.907 -2.4831 -0.7425  1.1210
 1207TIP3   OH2 3577   6.490   5.361   5.164  0.5322 -0.3589 -0.4501
 1207TIP3    H1 3578   6.476   5.447   5.123  0.2751 -0.1705  0.0324
 1207TIP3    H2 3579   6.425   5.304   5.123  1.3919 -0.5866 -1.5401
 1208TIP3   OH2 3580   4.220   0.803   0.072  0.3657  1.2040  0.0746
 1208TIP3    H1 3581   4.198   0.888   0.035  0.4542  1.8269  1.3839
 1208TIP3    H2 3582   4.314   0.793   0.056  0.6689  2.0510  1.2163
 1209TIP3   OH2 3583   5.258   3.936   5.027 -0.3949 -0.5363 -0.1038
 1209TIP3    H1 3584   5.227   3.847   5.009  0.8494 -0.8289 -0.9132
 1209TIP3    H2 3585   5.310   3.928   5.107 -1.4090 -0.2645  0.5973
 1210TIP3   OH2 3586   0.058   6.236   3.242  0.5119  0.0180 -0.6017
 1210TIP3    H1 3587   0.066   6.274   3.329  1.4524  1.2441 -1.1937
 1210TIP3    H2 3588   0.041   6.311   3.184  0.3039 -0.7179 -1.5347
 1211TIP3   OH2 3589   1.899   0.209   2.048 -0.0359 -0.2743 -0.1861
 1211TIP3    H1 3590   1.875   0.215   2.141  2.4568  0.8609  0.4595
 1211TIP3    H2 3591   1.950   0.288   2.031  2.0514 -1.8565 -1.7360
 1212TIP3   OH2 3592   7.578   2.479   2.514 -0.3065  0.4910  0.0919
 1212TIP3    H1 3593   7.655   2.535   2.509  0.5486 -0.7767 -2.3055
 1212TIP3    H2 3594   7.515   2.520   2.455 -0.2609 -0.2172 -0.4553
 1213TIP3   OH2 3595   3.557   6.504   1.992 -0.5435  0.4644  0.8142
 1213TIP3    H1 3596   3.618   6.566   2.031  0.8597 -1.2668  1.5337
 1213TIP3    H2 3597   3.471   6.545   2.000  0.3963  2.5464  0.6784
 1214TIP3   OH2 3598   0.209   0.327   0.978  0.8114  0.2698  0.0002
 1214TIP3    H1 3599   0.166   0.369   1.052  0.0287 -0.8929  0.2302
 1214TIP3    H2 3600   0.247   0.247   1.014  0.6238 -0.1920 -0.7940
 1215TIP3   OH2 3601   4.402   7.205   2.473  0.0330 -0.3084  0.4321
 1215TIP3    H1 3602   4.421   7.144   2.402  0.7949  1.5478 -1.0495
 1215TIP3    H2 3603   4.388   7.149   2.550 -1.0160 -2.4126 -1.1828
 1216TIP3   OH2 3604   7.761   0.194   2.292  0.1638 -0.3916  0.3509
 1216TIP3    H1 3605   7.697   0.124   2.280 -1.3452  1.2347 -2.1281
 1216TIP3    H2 3606   7.754   0.218   2.385 -1.6824 -1.3030  0.4832
 1217TIP3   OH2 3607   1.226   6.634   1.979  0.0392 -0.0597 -0.0238
 1217TIP3    H1 3608   1.234   6.729   1.985  1.2274 -0.1677  0.4225
 1217TIP3    H2 3609   1.253   6.614   1.889  0.9266 -0.0600  0.2316
 1218TIP3   OH2 3610   3.343   0.693   4.602  0.1072  0.0801 -0.3893
 1218TIP3    H1 3611   3.287   0.623   4.635  1.1506 -0.4272  0.3641
 1218TIP3    H2 3612   3.315   0.771   4.651 -1.9089  0.5076 -2.1344
 1219TIP3   OH2 3613   6.770   1.836   5.315 -0.7484  0.2358 -0.3908
 1219TIP3    H1 3614   6.675   1.820   5.314 -0.4868 -2.0502  1.9618
 1219TIP3    H2 3615   6.790   1.859   5.405  1.0665 -0.2412 -0.6334
 1220TIP3   OH2 3616   5.197   0.853   2.782 -0.2484  0.3162 -0.5469
 1220TIP3    H1 3617   5.242   0.937   2.777  1.0819 -0.3865 -0.9124
 1220TIP3    H2 3618   5.108   0.875   2.810 -0.1883  1.9165 -1.4882
 1221TIP3   OH2 3619   0.435   6.074   6.625 -0.4389  0.1933  0.1329
 1221TIP3    H1 3620   0.520   6.031   6.614 -0.6376  0.1006 -1.2341
 1221TIP3    H2 3621   0.433   6.141   6.556 -0.7341  1.4484  1.3151
 1222TIP3   OH2 3622   4.570   3.349   5.287 -0.2626  0.5359  0.2207
 1222TIP3    H1 3623   4.583   3.266   5.334  0.7659  0.9939  0.7890
 1222TIP3    H2 3624   4.481   3.344   5.253  0.1123 -1.2449 -0.6358
 1223TIP3   OH2 3625   6.484   4.579   2.898 -0.4401 -0.4587  0.2602
 1223TIP3    H1 3626   6.453   4.588   2.808 -0.2981  0.0610  0.2625
 1223TIP3    H2 3627   6.476   4.485   2.917 -3.5199 -0.1863  0.7981
 1224TIP3   OH2 3628   6.449   4.886   3.845 -0.2941 -0.2485  0.1722
 1224TIP3    H1 3629   6.436   4.956   3.909  3.0956 -0.6492  1.5431
 1224TIP3    H2 3630   6.480   4.932   3.766 -0.2313 -0.0398  0.3156
 1225TIP3   OH2 3631   0.092   2.149   0.998 -0.0589 -0.5687 -0.4877
 1225TIP3    H1 3632   0.094   2.112   0.910 -0.5618  0.5069 -0.9725
 1225TIP3    H2 3633   0.159   2.218   0.996  0.4121 -0.9919  0.1992
 1226TIP3   OH2 3634   6.917   0.676   6.546 -0.3126  0.5426 -0.2562
 1226TIP3    H1 3635   6.994   0.729   6.565  1.0481 -1.9138  1.7351
 1226TIP3    H2 3636   6.889   0.642   6.631 -4.3797  2.1648 -0.7268
 1227TIP3   OH2 3637   3.959   4.904   4.227 -0.2161 -0.3820 -0.1930
 1227TIP3    H1 3638   4.003   4.939   4.305 -0.1683 -0.9618  0.0459
 1227TIP3    H2 3639   3.866   4.901   4.251 -0.4533  1.1413 -0.8088
 1228TIP3   OH2 3640   1.353   1.657   4.857 -0.1652  0.0400 -0.6553
 1228TIP3    H1 3641   1.414   1.612   4.915 -0.3756  0.1690 -0.3281
 1228TIP3    H2 3642   1.304   1.716   4.915 -1.1738 -0.6603 -0.7540
 1229TIP3   OH2 3643   2.227   1.940   0.431  0.8667  0.5927 -0.3700
 1229TIP3    H1 3644   2.286   1.873   0.397  0.9298  1.1600 -1.4268
 1229TIP3    H2 3645   2.156   1.945   0.367 -1.0930 -1.0083  1.5233
 1230TIP3   OH2 3646   2.660   1.116   6.155  0.3083  0.4309 -0.0055
 1230TIP3    H1 3647   2.669   1.072   6.239  0.4213 -1.6423 -1.0459
 1230TIP3    H2 3648   2.585   1.073   6.113  0.9617  0.6107 -1.4219
 1231TIP3   OH2 3649   2.322   0.513   3.974 -0.6053  0.0857 -0.8382
 1231TIP3    H1 3650   2.391   0.450   3.955 -0.2791  0.9705 -2.7487
 1231TIP3    H2 3651   2.353   0.595   3.938 -2.6224  0.5259 -1.7192
 1232TIP3   OH2 3652   3.046   6.399   6.414 -0.1366 -0.2676 -0.5147
 1232TIP3    H1 3653   3.032   6.378   6.507  1.0353  0.8569 -0.0317
 1232TIP3    H2 3654   3.043   6.495   6.412 -0.4606 -0.2952 -1.7129
 1233TIP3   OH2 3655   0.101   1.393   3.483  0.7168 -0.6236  0.0170
 1233TIP3    H1 3656   0.126   1.414   3.392  2.3220  0.1026  0.5852
 1233TIP3    H2 3657   0.153   1.453   3.536 -2.0643  0.7747  1.3684
 1234TIP3   OH2 3658   4.406   2.859   1.171  0.1669 -0.3512 -0.4929
 1234TIP3    H1 3659   4.316   2.858   1.206  0.7065 -0.4162  0.9469
 1234TIP3    H2 3660   4.414   2.944   1.128 -0.4112 -0.1365 -0.1876
 1235TIP3   OH2 3661   5.179   6.859   6.059  0.0931 -0.0844 -0.6045
 1235TIP3    H1 3662   5.245   6.927   6.050  0.1707 -0.2273 -1.1508
 1235TIP3    H2 3663   5.131   6.883   6.138  0.2613  0.4783 -0.6680
 1236TIP3   OH2 3664   4.142   3.707   5.192  0.0011 -0.0409  0.3496
 1236TIP3    H1 3665   4.118   3.682   5.281 -1.9895 -1.4450 -0.5188
 1236TIP3    H2 3666   4.166   3.625   5.149 -1.2789  0.2493 -1.0109
 1237TIP3   OH2 3667   6.514   1.326   1.350  0.3461 -0.0448 -0.6137
 1237TIP3    H1 3668   6.566   1.405   1.369  0.4840 -0.0513 -0.9550
 1237TIP3    H2 3669   6.437   1.334   1.406 -1.0672  1.7790 -2.6617
 1238TIP3   OH2 3670   8.050   2.927   0.058  0.0006 -0.0053 -0.0545
 1238TIP3    H1 3671   8.063   2.870  -0.018 -1.3543 -0.0120 -0.3071
 1238TIP3    H2 3672   8.057   2.868   0.133 -0.2500 -0.3029 -0.2594
 1239TIP3   OH2 3673   0.750   6.923   5.279 -0.2327 -0.3102  0.5920
 1239TIP3    H1 3674   0.817   6.917   5.348  2.2392 -0.4222 -1.6693
 1239TIP3    H2 3675   0.787   6.984   5.215 -3.6924  2.0296  0.5544
 1240TIP3   OH2 3676   1.044   7.423   4.372 -0.0759  0.4046 -0.1445
 1240TIP3    H1 3677   1.132   7.457   4.354 -0.8304  1.7965 -1.3651
 1240TIP3    H2 3678   1.030   7.357   4.304 -0.4779  1.1269 -0.7669
 1241TIP3   OH2 3679   7.193   7.306   3.800 -0.0597 -0.1418  0.5466
 1241TIP3    H1 3680   7.249   7.250   3.746 -0.6876 -1.5830  1.3407
 1241TIP3    H2 3681   7.109   7.260   3.802  0.0914 -0.4098  3.1794
 1242TIP3   OH2 3682   3.240   2.963   6.737 -0.4792 -0.0450  0.0517
 1242TIP3    H1 3683   3.234   2.901   6.664  2.4123 -1.1168  0.5665
 1242TIP3    H2 3684   3.308   3.025   6.709 -0.1092  0.1658  1.3500
 1243TIP3   OH2 3685   7.908   1.176   6.350  0.0000  0.5619  0.0477
 1243TIP3    H1 3686   7.945   1.236   6.415  0.3429  1.3480 -0.8391
 1243TIP3    H2 3687   7.878   1.233   6.280  0.4576 -0.3150 -0.8881
 1244TIP3   OH2 3688   5.194   1.992   3.930  0.0940 -0.0154 -0.0114
 1244TIP3    H1 3689   5.203   2.019   3.839  2.2614 -0.8894 -0.1109
 1244TIP3    H2 3690   5.201   2.073   3.980 -1.2643  0.4894 -0.5845
 1245TIP3   OH2 3691   0.256   6.910   2.816 -0.4797  0.0762  0.5913
 1245TIP3    H1 3692   0.323   6.848   2.844  0.5156  1.2291  0.8771
 1245TIP3    H2 3693   0.282   6.934   2.727 -0.6707  0.3177  0.5994
 1246TIP3   OH2 3694   7.610   4.043   3.928 -0.0649 -0.1844  0.3791
 1246TIP3    H1 3695   7.574   4.125   3.961 -0.8006 -0.6764  0.8310
 1246TIP3    H2 3696   7.535   3.985   3.921  0.1304 -0.2529 -1.7721
 1247TIP3   OH2 3697   3.135   3.069   4.636  0.1713 -0.4555  0.5487
 1247TIP3    H1 3698   3.064   3.110   4.586  2.5848  0.7227 -2.1520
 1247TIP3    H2 3699   3.110   2.977   4.642 -1.1654 -0.2461 -1.1451
 1248TIP3   OH2 3700   4.763   3.212   6.666 -0.5367  0.6024  0.4473
 1248TIP3    H1 3701   4.757   3.223   6.571  1.8251  0.8163  0.2743
 1248TIP3    H2 3702   4.674   3.187   6.692 -0.9350 -0.8849 -1.9802
 1249TIP3   OH2 3703   3.083   5.494   1.210  0.3320 -0.1003 -0.3016
 1249TIP3    H1 3704   3.005   5.517   1.261 -0.2436 -0.5099 -0.9937
 1249TIP3    H2 3705   3.084   5.557   1.138  2.3537  1.9185  1.3435
 1250TIP3   OH2 3706   3.308   3.040   4.052  0.3657 -0.2775  0.2672
 1250TIP3    H1 3707   3.403   3.055   4.049  0.3126 -0.0649 -0.8647
 1250TIP3    H2 3708   3.298   2.947   4.032  0.2792  0.0267 -1.2560
 1251TIP3   OH2 3709   3.012   5.253   0.233  0.0967 -0.4536  0.0746
 1251TIP3    H1 3710   3.023   5.218   0.144 -1.9185 -1.3115  0.1020
 1251TIP3    H2 3711   2.923   5.226   0.258  0.1500  0.8836  1.8639
 1252TIP3   OH2 3712   0.551   6.914   4.736 -0.0206  0.7688 -0.5687
 1252TIP3    H1 3713   0.615   6.876   4.796 -0.8671  1.4898  0.8368
 1252TIP3    H2 3714   0.604   6.964   4.674  0.9598 -0.9266 -1.1899
 1253TIP3   OH2 3715   4.613   5.438   3.435 -0.0916 -0.0759  0.0485
 1253TIP3    H1 3716   4.518   5.450   3.428 -0.1144 -0.9415 -2.2822
 1253TIP3    H2 3717   4.633   5.456   3.527 -1.9485  3.7466 -0.0978
 1254TIP3   OH2 3718   1.704   0.234   2.925 -0.3103  0.3083  0.3415
 1254TIP3    H1 3719   1.752   0.222   2.843  0.0536  0.4517  0.5313
 1254TIP3    H2 3720   1.731   0.161   2.980 -2.4571 -1.2621 -0.5301
 1255TIP3   OH2 3721   0.634   1.982   2.559 -0.1214 -0.6207  0.0492
 1255TIP3    H1 3722   0.595   2.066   2.537  1.3730  0.0915 -0.0318
 1255TIP3    H2 3723   0.567   1.917   2.536 -0.2293  0.3440 -2.7361
 1256TIP3   OH2 3724   1.696   0.881   4.101  0.0898 -0.4010  0.1208
 1256TIP3    H1 3725   1.705   0.876   4.196  0.0805  0.4170  0.1679
 1256TIP3    H2 3726   1.622   0.825   4.081  0.7866 -1.4818  0.4716
 1257TIP3   OH2 3727   3.391   4.302   3.458  0.8544  0.0953  0.2684
 1257TIP3    H1 3728   3.435   4.277   3.539  1.8031  1.7982  0.3221
 1257TIP3    H2 3729   3.359   4.390   3.474  2.3021  1.0456 -1.6530
 1258TIP3   OH2 3730   5.861   4.425   4.012 -0.1315  0.3046  0.2872
 1258TIP3    H1 3731   5.929   4.444   4.077 -0.9450  0.8738  0.9840
 1258TIP3    H2 3732   5.910   4.412   3.930  0.9063 -0.4473  0.9958
 1259TIP3   OH2 3733   4.242   1.628   5.405  0.6796  0.1156  0.2334
 1259TIP3    H1 3734   4.191   1.708   5.395  3.0527  1.6254 -0.8032
 1259TIP3    H2 3735   4.253   1.594   5.316  1.9366  0.1940  0.3292
 1260TIP3   OH2 3736   6.058   0.842   5.624  0.0681  0.0033 -0.2904
 1260TIP3    H1 3737   6.102   0.899   5.686 -0.2944  0.5968 -0.5723
 1260TIP3    H2 3738   6.101   0.757   5.634 -0.5016 -0.1202  1.3341
 1261TIP3   OH2 3739   5.678   3.963   2.815  0.1461  0.6037 -0.1025
 1261TIP3    H1 3740   5.715   3.964   2.726  1.4330  1.0135  0.4297
 1261TIP3    H2 3741   5.736   4.018   2.867 -0.6732  0.4808  0.9813
 1262TIP3   OH2 3742   3.125   1.132   6.749  0.6419  0.2593  0.4087
 1262TIP3    H1 3743   3.076   1.153   6.670 -0.1714  0.4204  0.9423
 1262TIP3    H2 3744   3.215   1.159   6.729  0.7787 -1.1364 -1.0098
 1263TIP3   OH2 3745   5.862   1.350   0.968  0.0130  0.0023 -0.4527
 1263TIP3    H1 3746   5.824   1.263   0.981  0.1940 -0.0050  0.0239
 1263TIP3    H2 3747   5.786   1.406   0.949 -0.3522  0.1396  1.2438
 1264TIP3   OH2 3748   6.474   6.383   5.084 -0.3494  0.5096 -0.0789
 1264TIP3    H1 3749   6.452   6.299   5.125  0.0407  0.9237  1.0099
 1264TIP3    H2 3750   6.407   6.395   5.017 -0.2822 -0.7760 -0.4018
 1265TIP3   OH2 3751   0.669   6.048   3.086 -0.5067  0.6709 -0.1704
 1265TIP3    H1 3752   0.690   6.007   3.169 -1.0385  1.1848  0.2283
 1265TIP3    H2 3753   0.699   5.986   3.020  0.1881  0.3895  0.3975
 1266TIP3   OH2 3754   7.856   2.003   0.540  0.5373 -0.1710  0.2214
 1266TIP3    H1 3755   7.835   1.965   0.626 -2.3540  0.2488 -0.2059
 1266TIP3    H2 3756   7.918   1.942   0.502  0.1503 -1.5848  1.7204
 1267TIP3   OH2 3757   3.487   2.599   3.489 -0.2333 -0.3039  0.1418
 1267TIP3    H1 3758   3.397   2.577   3.467  0.3311 -1.9779 -0.6708
 1267TIP3    H2 3759   3.500   2.564   3.577 -0.7965  1.3034  0.8986
 1268TIP3   OH2 3760   1.269   5.452   3.524 -0.0456  0.1195 -0.3296
 1268TIP3    H1 3761   1.250   5.373   3.473 -4.2029  0.6259  0.1006
 1268TIP3    H2 3762   1.333   5.500   3.471  1.0031 -2.4928 -1.6116
 1269TIP3   OH2 3763   7.589   2.325   1.502  0.1529  0.0221  0.1277
 1269TIP3    H1 3764   7.676   2.289   1.481 -0.0904 -0.6879  0.3207
 1269TIP3    H2 3765   7.561   2.277   1.580 -0.7940 -0.3825 -0.4479
 1270TIP3   OH2 3766   5.668   4.105   2.011  0.6718 -0.2944 -0.4177
 1270TIP3    H1 3767   5.668   4.035   2.076  0.7811 -0.2813 -0.4037
 1270TIP3    H2 3768   5.671   4.060   1.926 -0.5074 -0.3458 -0.4479
 1271TIP3   OH2 3769   2.752   2.505   2.809  0.0547  0.3187  0.4572
 1271TIP3    H1 3770   2.766   2.466   2.895 -2.6046  0.0493  0.8500
 1271TIP3    H2 3771   2.709   2.435   2.758 -0.7321  1.2960 -0.2574
 1272TIP3   OH2 3772   1.933   1.332   3.703  0.0503 -0.1585 -0.2145
 1272TIP3    H1 3773   1.838   1.333   3.717 -0.6798  1.1705 -4.0777
 1272TIP3    H2 3774   1.950   1.406   3.645  2.9939 -2.0951 -2.1044
 1273TIP3   OH2 3775   3.326   5.207   1.159  0.4951  0.0493  0.1723
 1273TIP3    H1 3776   3.290   5.170   1.240 -0.4434  0.3215 -0.1109
 1273TIP3    H2 3777   3.256   5.262   1.124  1.2740  0.7734 -0.2861
 1274TIP3   OH2 3778   5.384   0.525   1.455 -0.7212 -0.0249  0.0712
 1274TIP3    H1 3779   5.438   0.565   1.523 -0.7094 -2.9655  1.9477
 1274TIP3    H2 3780   5.295   0.555   1.474 -0.5525  0.0988  0.6858
 1275TIP3   OH2 3781   6.532   5.971   3.053 -0.0978  0.0169  0.0447
 1275TIP3    H1 3782   6.582   6.050   3.031 -0.1364 -0.0570 -0.3106
 1275TIP3    H2 3783   6.552   5.909   2.983  0.3672 -0.4888  0.6149
 1276TIP3   OH2 3784   2.924   7.841   0.208 -0.3708 -0.1102  0.0361
 1276TIP3    H1 3785   2.858   7.789   0.253 -2.0748  0.8458 -1.2372
 1276TIP3    H2 3786   2.920   7.811   0.117  1.0759 -0.1280 -0.0512
 1277TIP3   OH2 3787   7.144   3.248   3.057 -0.1281 -0.0498  0.0673
 1277TIP3    H1 3788   7.191   3.296   3.125 -0.2014  0.8860 -0.5318
 1277TIP3    H2 3789   7.212   3.202   3.008 -0.0663 -0.6456  0.7009
 1278TIP3   OH2 3790   4.968   0.487   0.793  0.2185  0.0713 -0.0920
 1278TIP3    H1 3791   4.986   0.498   0.886 -0.7130  0.0480  0.0998
 1278TIP3    H2 3792   4.873   0.484   0.787  0.2626  0.2734 -1.0694
 1279TIP3   OH2 3793   4.016   3.617   3.860  0.1198 -0.2904  0.4911
 1279TIP3    H1 3794   3.950   3.632   3.792  0.2378  0.8724  0.6204
 1279TIP3    H2 3795   4.084   3.681   3.842  0.2174 -0.0572  1.6311
 1280TIP3   OH2 3796   5.275   5.406   5.352 -0.5106 -0.5411 -0.3237
 1280TIP3    H1 3797   5.292   5.478   5.291 -0.3600 -2.7504 -3.1258
 1280TIP3    H2 3798   5.362   5.374   5.376 -0.4984 -1.9823 -2.0487
 1281TIP3   OH2 3799   3.817   1.882   2.833  0.1405 -0.0383  0.1054
 1281TIP3    H1 3800   3.875   1.903   2.907  1.4171  0.2438 -0.9291
 1281TIP3    H2 3801   3.876   1.876   2.758 -0.9663 -1.5797 -0.6858
 1282TIP3   OH2 3802   6.154   7.192   4.762  0.2149 -0.6035  0.4663
 1282TIP3    H1 3803   6.225   7.210   4.823  0.4704  0.6344 -0.1611
 1282TIP3    H2 3804   6.144   7.273   4.712 -0.7751 -1.1920 -0.3343
 1283TIP3   OH2 3805   3.615   3.718   0.320  0.1010  0.0648 -0.2823
 1283TIP3    H1 3806   3.661   3.685   0.397  0.2894 -2.4658 -1.4146
 1283TIP3    H2 3807   3.524   3.729   0.349  0.3837  0.1645  0.5802
 1284TIP3   OH2 3808   0.577   1.204   0.457  0.6218 -0.0007  0.1354
 1284TIP3    H1 3809   0.556   1.267   0.388 -2.1706 -0.8245  0.1114
 1284TIP3    H2 3810   0.527   1.235   0.533  0.4781 -1.3035  0.5925
 1285TIP3   OH2 3811   7.862   0.063   0.232  0.0169  0.0759  0.6482
 1285TIP3    H1 3812   7.901   0.062   0.144 -0.0373  3.8581  0.4086
 1285TIP3    H2 3813   7.768   0.067   0.216  0.0075  0.7473  0.8583
 1286TIP3   OH2 3814   4.502   2.478   1.901  0.4831 -0.4594  0.1944
 1286TIP3    H1 3815   4.589   2.518   1.903  0.4958 -0.5201  1.7843
 1286TIP3    H2 3816   4.446   2.539   1.949 -0.2728 -0.6475 -0.4135
 1287TIP3   OH2 3817   2.595   0.069   1.757  0.2466  0.1162  0.1718
 1287TIP3    H1 3818   2.635   0.134   1.815 -1.2353  0.7712  0.5212
 1287TIP3    H2 3819   2.531   0.118   1.706 -0.5225 -0.9606  0.0574
 1288TIP3   OH2 3820   3.761   0.255   6.004 -0.3141  0.0482  0.5544
 1288TIP3    H1 3821   3.789   0.336   6.047  0.4685  0.4703 -0.6750
 1288TIP3    H2 3822   3.840   0.200   6.003 -0.7883 -0.6554  1.1929
 1289TIP3   OH2 3823   3.658   6.416   5.565 -0.1173  0.1318  0.1622
 1289TIP3    H1 3824   3.670   6.347   5.629  2.0905 -0.5817 -0.9043
 1289TIP3    H2 3825   3.587   6.385   5.509  1.6818 -2.0005 -1.0896
 1290TIP3   OH2 3826   1.274   6.240   0.182 -0.1827 -0.3054 -0.5290
 1290TIP3    H1 3827   1.192   6.280   0.212  0.0055 -0.7505  0.6645
 1290TIP3    H2 3828   1.270   6.244   0.087 -0.7617  1.3354 -0.4614
 1291TIP3   OH2 3829   5.735   7.275   5.733  0.4327  0.2450 -0.2399
 1291TIP3    H1 3830   5.641   7.291   5.741  0.4036 -0.8866  2.6833
 1291TIP3    H2 3831   5.741   7.191   5.689  0.1666  0.7894 -1.3731
 1292TIP3   OH2 3832   1.189   6.009   3.817  0.2131 -0.4262  0.8300
 1292TIP3    H1 3833   1.154   5.977   3.733 -0.3730  0.1184  0.8550
 1292TIP3    H2 3834   1.125   6.074   3.845  1.3398  0.7304  0.7995
 1293TIP3   OH2 3835   3.241   5.226   4.168 -0.5124 -0.1876  0.3277
 1293TIP3    H1 3836   3.263   5.144   4.214  0.6978 -1.4262 -2.2619
 1293TIP3    H2 3837   3.170   5.201   4.108  0.2043  0.5231 -0.8497
 1294TIP3   OH2 3838   3.514   4.382   6.164  0.5738 -0.0763  0.4474
 1294TIP3    H1 3839   3.512   4.364   6.258 -1.4095 -0.6164  0.3390
 1294TIP3    H2 3840   3.600   4.422   6.149  0.9834 -0.1187  2.4499
 1295TIP3   OH2 3841   5.252   6.467   0.167 -0.2348 -0.0493 -0.4243
 1295TIP3    H1 3842   5.270   6.383   0.208 -0.4613 -0.5185 -1.2660
 1295TIP3    H2 3843   5.239   6.527   0.240 -3.1330 -1.3572  0.2684
 1296TIP3   OH2 3844   5.472   3.335   1.211  0.2702  0.7462 -0.7777
 1296TIP3    H1 3845   5.491   3.264   1.150 -0.8266  0.8065 -1.2144
 1296TIP3    H2 3846   5.437   3.405   1.157 -0.5584  0.8634 -0.1118
 1297TIP3   OH2 3847   4.155   4.023   4.111  0.3186  0.4059  0.5049
 1297TIP3    H1 3848   4.098   3.950   4.089 -1.7198  2.0156  0.0858
 1297TIP3    H2 3849   4.211   4.034   4.034  0.6790 -0.7063  0.5918
 1298TIP3   OH2 3850   1.637   4.391   5.678 -0.2408  0.6226  0.0051
 1298TIP3    H1 3851   1.704   4.322   5.678  0.2068  1.0137 -1.5108
 1298TIP3    H2 3852   1.644   4.432   5.764  2.2517  1.3603 -0.4738
 1299TIP3   OH2 3853   5.768   4.454   2.411  0.8264  0.0287  0.1727
 1299TIP3    H1 3854   5.845   4.397   2.411  0.8298 -0.1091 -2.3134
 1299TIP3    H2 3855   5.700   4.403   2.367 -0.1071  0.8265  0.6473
 1300TIP3   OH2 3856   1.950   7.212   6.370  0.0318  0.5371 -0.1125
 1300TIP3    H1 3857   1.918   7.292   6.411  4.0091  2.1584  0.2763
 1300TIP3    H2 3858   1.952   7.148   6.441 -0.0303  1.1090  0.4167
 1301TIP3   OH2 3859   5.838   4.379   4.641 -0.2011  0.0991 -0.3592
 1301TIP3    H1 3860   5.922   4.334   4.647 -0.6708 -0.6777  0.7215
 1301TIP3    H2 3861   5.840   4.423   4.556  1.1621 -0.1664 -0.4785
 1302TIP3   OH2 3862   4.950   5.052   4.552 -0.6613  0.7044 -0.1763
 1302TIP3    H1 3863   4.953   5.145   4.528 -0.2306  0.4620 -1.1286
 1302TIP3    H2 3864   4.958   5.006   4.468 -0.3779 -0.1912  0.3295
 1303TIP3   OH2 3865   4.886   5.030   0.772 -0.2560 -0.2057 -0.0911
 1303TIP3    H1 3866   4.881   5.047   0.866 -0.0005 -0.3243 -0.0561
 1303TIP3    H2 3867   4.980   5.019   0.754 -0.4129 -1.6409 -0.1101
 1304TIP3   OH2 3868   7.549   2.942   1.023 -0.0121  0.2295  0.1547
 1304TIP3    H1 3869   7.471   2.993   1.044  0.5946  1.0583  0.4819
 1304TIP3    H2 3870   7.555   2.877   1.093 -0.2016  0.4005  0.3318
 1305TIP3   OH2 3871   3.437   2.614   5.190  0.4240 -0.2487  0.2700
 1305TIP3    H1 3872   3.380   2.608   5.267  1.0970  0.8534  0.8818
 1305TIP3    H2 3873   3.412   2.539   5.136 -1.5827  0.1783  0.5228
 1306TIP3   OH2 3874   5.672   6.015   0.679 -0.3898 -0.4240 -0.2530
 1306TIP3    H1 3875   5.767   6.030   0.675 -0.1359 -1.4422  1.2651
 1306TIP3    H2 3876   5.657   5.941   0.621 -0.0257 -1.1366  0.5356
 1307TIP3   OH2 3877   1.280   6.326   0.494 -0.4582  0.0109  0.2751
 1307TIP3    H1 3878   1.298   6.384   0.568  0.3143 -0.1385  0.2113
 1307TIP3    H2 3879   1.187   6.338   0.476 -0.1655  1.8571 -0.2627
 1308TIP3   OH2 3880   5.812   5.249   4.980 -0.4974  0.5326  0.4288
 1308TIP3    H1 3881   5.841   5.298   5.057  2.0909  0.2303 -0.2545
 1308TIP3    H2 3882   5.865   5.169   4.981 -3.0742 -1.3152  0.3150
 1309TIP3   OH2 3883   6.625   7.001   1.826  0.0372  0.4416 -0.0326
 1309TIP3    H1 3884   6.574   7.072   1.787  1.5048  1.0647 -0.8870
 1309TIP3    H2 3885   6.713   7.037   1.835  0.8966 -1.3748 -0.7783
 1310TIP3   OH2 3886   3.593   3.517   3.590 -0.4175  0.1341  0.4690
 1310TIP3    H1 3887   3.568   3.436   3.545 -0.8251  0.0116  0.9145
 1310TIP3    H2 3888   3.634   3.488   3.672 -0.2044  0.3721  0.4486
 1311TIP3   OH2 3889   3.036   6.022   0.259  0.6921 -0.1230  0.3602
 1311TIP3    H1 3890   2.988   5.946   0.225  1.0104  0.0574 -0.5381
 1311TIP3    H2 3891   3.051   6.076   0.181  1.0734  0.5217  0.8804
 1312TIP3   OH2 3892   1.635   3.512   1.565 -0.4840 -0.2137 -0.1401
 1312TIP3    H1 3893   1.723   3.473   1.563  0.6101  2.0516  0.6592
 1312TIP3    H2 3894   1.586   3.456   1.626  0.6702 -0.9805  0.1295
 1313TIP3   OH2 3895   1.734   2.423   0.228  0.4121 -0.5500 -0.2475
 1313TIP3    H1 3896   1.687   2.436   0.146 -0.9266  0.5519  0.6427
 1313TIP3    H2 3897   1.827   2.421   0.203 -0.0067 -1.4963 -1.8996
 1314TIP3   OH2 3898   3.985   0.189   6.606 -0.2850  0.2632 -0.9080
 1314TIP3    H1 3899   3.948   0.160   6.523 -0.9861  1.4705 -1.0363
 1314TIP3    H2 3900   4.080   0.191   6.590 -0.2560 -1.3102 -1.0751
 1315TIP3   OH2 3901   5.573   7.529   0.676  0.1153 -0.3321 -0.0874
 1315TIP3    H1 3902   5.643   7.575   0.630 -0.4788 -0.7846 -1.5000
 1315TIP3    H2 3903   5.519   7.598   0.714 -0.7041  0.1771 -2.0755
 1316TIP3   OH2 3904   2.230   1.751   4.759  0.0977 -0.0441 -0.5904
 1316TIP3    H1 3905   2.245   1.658   4.740  0.1990 -0.0918 -0.2866
 1316TIP3    H2 3906   2.189   1.786   4.680  1.4408 -0.0042 -1.2994
 1317TIP3   OH2 3907   3.103   3.000   1.945 -0.9675 -0.1412  0.2281
 1317TIP3    H1 3908   3.050   2.995   1.865 -1.3756  0.2337  0.4700
 1317TIP3    H2 3909   3.051   2.955   2.011  0.6741 -3.1735 -0.3622
 1318TIP3   OH2 3910   3.596   6.677   1.387  0.3909 -0.4526  0.0352
 1318TIP3    H1 3911   3.629   6.624   1.460 -2.2747 -1.1635  0.8262
 1318TIP3    H2 3912   3.642   6.644   1.310  1.4888 -1.3625  1.0445
 1319TIP3   OH2 3913   7.989   0.918   6.202  0.0670  0.1380  0.2644
 1319TIP3    H1 3914   7.946   0.988   6.153  2.7904  3.8049  2.5796
 1319TIP3    H2 3915   7.930   0.900   6.275  0.1955  1.5983  0.7641
 1320TIP3   OH2 3916   3.094   2.792   4.633 -0.3272  0.4440  0.2703
 1320TIP3    H1 3917   3.020   2.732   4.623  1.2844 -1.2332 -2.9735
 1320TIP3    H2 3918   3.170   2.735   4.647  1.0857  1.6908 -1.6913
 1321TIP3   OH2 3919   2.244   3.923   0.750  0.0284 -0.1370  0.4228
 1321TIP3    H1 3920   2.255   3.998   0.807 -0.5022 -1.0491  1.7688
 1321TIP3    H2 3921   2.159   3.937   0.708  0.4487  0.5646 -0.2236
 1322TIP3   OH2 3922   0.845   7.744   1.416 -0.4899 -0.0480  0.1497
 1322TIP3    H1 3923   0.854   7.712   1.506  0.4795 -0.0029  0.0803
 1322TIP3    H2 3924   0.825   7.665   1.365 -2.9238  0.1715  0.6267
 1323TIP3   OH2 3925   0.006   7.472   3.693 -0.1023 -0.6720  0.1165
 1323TIP3    H1 3926  -0.062   7.471   3.760  1.0988 -0.3586  1.3893
 1323TIP3    H2 3927   0.064   7.544   3.720 -0.4682  0.5898 -2.1869
 1324TIP3   OH2 3928   3.592   0.397   0.166 -0.4679 -0.3839 -0.1926
 1324TIP3    H1 3929   3.660   0.464   0.166 -0.0669 -0.7906 -0.9557
 1324TIP3    H2 3930   3.553   0.402   0.079  0.5128 -2.1061 -0.7574
 1325TIP3   OH2 3931   1.512   0.959   2.113  0.1928 -0.0280 -0.0602
 1325TIP3    H1 3932   1.422   0.944   2.085  0.5777 -2.2241 -0.3210
 1325TIP3    H2 3933   1.519   1.054   2.123 -2.2325  0.1704  0.3037
 1326TIP3   OH2 3934   4.645   5.826   1.203 -0.1958 -0.6523  0.5422
 1326TIP3    H1 3935   4.719   5.767   1.220 -0.3150 -1.1081 -0.4160
 1326TIP3    H2 3936   4.581   5.771   1.159  0.7091  0.6738 -2.7519
 1327TIP3   OH2 3937   1.897   4.374   6.172  0.0273  0.0504  0.0474
 1327TIP3    H1 3938   1.974   4.401   6.122 -0.4853  2.2984  0.3628
 1327TIP3    H2 3939   1.880   4.284   6.144  0.1246  0.9924 -3.3787
 1328TIP3   OH2 3940   2.049   7.548   0.740  0.0390 -0.1202 -0.1846
 1328TIP3    H1 3941   2.103   7.477   0.776  1.4542  1.3878  0.8020
 1328TIP3    H2 3942   2.027   7.602   0.816 -0.9783  0.5217 -0.9178
 1329TIP3   OH2 3943   0.679   2.596   4.026 -0.2407  0.4371  0.1013
 1329TIP3    H1 3944   0.612   2.610   3.958  0.9532  0.1399 -1.1871
 1329TIP3    H2 3945   0.760   2.582   3.977  0.7915  0.8361  1.6222
 1330TIP3   OH2 3946   6.049   6.961   4.818  0.5139  0.4166  0.1238
 1330TIP3    H1 3947   6.097   7.043   4.806 -1.1866  1.1819 -2.5288
 1330TIP3    H2 3948   5.998   6.974   4.898  0.4658  1.8894 -0.1154
 1331TIP3   OH2 3949   6.624   7.686   2.960 -0.2974  0.0582  0.4598
 1331TIP3    H1 3950   6.696   7.721   2.908 -0.6548 -1.3061 -1.0235
 1331TIP3    H2 3951   6.579   7.763   2.995 -0.1687  1.0461 -1.4509
 1332TIP3   OH2 3952   7.671   3.503   1.285 -0.1940  0.0529  0.4508
 1332TIP3    H1 3953   7.611   3.571   1.252 -0.9523 -1.2066 -0.8620
 1332TIP3    H2 3954   7.758   3.537   1.263 -0.5841  0.3584 -0.7118
 1333TIP3   OH2 3955   2.413   7.058   6.674  0.1963  0.3938 -0.1381
 1333TIP3    H1 3956   2.320   7.061   6.696  0.8716  1.1969  3.1144
 1333TIP3    H2 3957   2.452   7.002   6.740  2.0967  0.2244 -1.3042
 1334TIP3   OH2 3958   4.403   4.472   1.917 -1.0679 -0.5093 -0.1402
 1334TIP3    H1 3959   4.418   4.503   1.827 -0.1657  0.8768  0.4533
 1334TIP3    H2 3960   4.473   4.409   1.933 -0.9746 -0.4352 -0.2555
 1335TIP3   OH2 3961   1.637   4.064   0.569  0.1970  0.1349  0.3538
 1335TIP3    H1 3962   1.728   4.087   0.551  0.9942 -0.7896  2.7803
 1335TIP3    H2 3963   1.618   3.993   0.509 -0.1680  2.5646 -2.6538
 1336TIP3   OH2 3964   6.047   6.793   0.625 -0.2528  0.4297  0.3243
 1336TIP3    H1 3965   6.127   6.845   0.632 -0.3499  0.4547  1.4190
 1336TIP3    H2 3966   6.001   6.807   0.707 -0.8311 -0.4900  0.1814
 1337TIP3   OH2 3967   0.522   2.056   4.737 -0.4432  0.3844  0.2323
 1337TIP3    H1 3968   0.437   2.012   4.744  0.9785 -2.6322  0.0986
 1337TIP3    H2 3969   0.557   2.056   4.826 -0.1457  0.6690  0.1182
 1338TIP3   OH2 3970   6.247   6.572   5.239  0.2071 -0.1433  0.0442
 1338TIP3    H1 3971   6.302   6.621   5.179 -0.0706  0.9951  0.6929
 1338TIP3    H2 3972   6.217   6.637   5.304 -0.2248 -1.1433  0.8852
 1339TIP3   OH2 3973   6.643   1.208   4.876 -0.4713 -0.6854  0.1001
 1339TIP3    H1 3974   6.624   1.292   4.918  0.9143 -1.0758  1.5918
 1339TIP3    H2 3975   6.600   1.214   4.791  0.5047  1.9812 -0.3097
 1340TIP3   OH2 3976   6.342   4.152   5.249 -0.1218  0.3301  0.4326
 1340TIP3    H1 3977   6.390   4.224   5.209  0.9885 -0.6294 -0.0135
 1340TIP3    H2 3978   6.281   4.122   5.181  0.7340 -0.3484 -0.0510
 1341TIP3   OH2 3979   4.035   7.298   4.247  0.0394 -0.4408 -0.1178
 1341TIP3    H1 3980   4.005   7.237   4.313 -1.2003  2.4210  2.1875
 1341TIP3    H2 3981   3.957   7.347   4.222  1.1048  0.8016 -1.2020
 1342TIP3   OH2 3982   3.537   3.839   3.722 -0.0027  0.4680 -0.2051
 1342TIP3    H1 3983   3.572   3.820   3.809  1.3709 -0.6238 -0.9438
 1342TIP3    H2 3984   3.468   3.774   3.710  1.4631 -1.0663 -0.8384
 1343TIP3   OH2 3985   8.102   5.879   1.531 -0.1681 -0.5371  0.0966
 1343TIP3    H1 3986   8.107   5.803   1.472 -0.4494 -0.5640  0.1066
 1343TIP3    H2 3987   8.011   5.909   1.524 -0.4166 -1.0129  1.1065
 1344TIP3   OH2 3988   2.724   0.852   4.983  0.1720  0.4267  0.2827
 1344TIP3    H1 3989   2.687   0.815   5.063  1.2945  0.0117  0.6228
 1344TIP3    H2 3990   2.811   0.813   4.976  0.2626  0.8078 -0.8983
 1345TIP3   OH2 3991   6.501   1.967   5.685  0.4139 -0.3928  0.0794
 1345TIP3    H1 3992   6.500   1.932   5.774 -0.2208 -2.6992 -0.7761
 1345TIP3    H2 3993   6.435   2.037   5.686 -0.9974 -1.6865  0.9676
 1346TIP3   OH2 3994   4.138   4.568   6.084  0.0548  0.0655 -0.2997
 1346TIP3    H1 3995   4.117   4.545   5.994  0.3253 -0.1799 -0.3001
 1346TIP3    H2 3996   4.207   4.507   6.109 -1.3363 -1.1671  0.6939
 1347TIP3   OH2 3997   8.095   7.243   1.584  0.8820  0.6373 -0.2475
 1347TIP3    H1 3998   8.051   7.314   1.537  0.9088 -0.2230 -1.6346
 1347TIP3    H2 3999   8.176   7.228   1.535  0.4104 -1.0015 -0.5853
 1348TIP3   OH2 4000   7.432   0.904   1.422 -0.0851 -0.0418 -0.0885
 1348TIP3    H1 4001   7.400   0.814   1.411 -0.1187  0.0743 -1.1270
 1348TIP3    H2 4002   7.418   0.944   1.336 -0.2474  1.0200  0.4163
 1349TIP3   OH2 4003   3.377   2.388   6.437  0.5567  0.1021  0.2979
 1349TIP3    H1 4004   3.389   2.397   6.532 -3.0307  0.1673  0.8947
 1349TIP3    H2 4005   3.402   2.473   6.402 -0.6449  1.0288  1.5782
 1350TIP3   OH2 4006   6.025   7.292   5.840  0.0971  0.0780 -0.0652
 1350TIP3    H1 4007   6.039   7.209   5.885 -0.8570 -0.3659 -0.5650
 1350TIP3    H2 4008   5.935   7.287   5.808  0.0546  1.2728 -0.1692
 1351TIP3   OH2 4009   7.554   2.752   0.474 -0.2605 -0.1284 -0.0770
 1351TIP3    H1 4010   7.509   2.764   0.558 -0.7196 -3.1415  0.2276
 1351TIP3    H2 4011   7.606   2.672   0.486 -0.0025 -0.3905 -2.5049
 1352TIP3   OH2 4012   0.018   6.996   5.755  0.3763  0.3818 -0.3821
 1352TIP3    H1 4013  -0.026   6.966   5.676 -1.0147  0.2670  0.4102
 1352TIP3    H2 4014   0.053   6.917   5.795  0.6579  0.3852 -0.6130
 1353TIP3   OH2 4015   6.719   7.687   6.200  0.2537 -0.1669  0.3691
 1353TIP3    H1 4016   6.672   7.640   6.131 -0.3306  0.3675  0.4010
 1353TIP3    H2 4017   6.812   7.675   6.177  0.0644  0.3569 -0.7597
 1354TIP3   OH2 4018   2.205   5.754   4.465 -0.1368 -0.4817 -0.0399
 1354TIP3    H1 4019   2.188   5.666   4.432  1.6676 -0.8621 -0.0686
 1354TIP3    H2 4020   2.222   5.742   4.558  0.7170 -0.2696 -0.1583
 1355TIP3   OH2 4021   1.780   0.187   1.616  0.0976  0.0280  0.3451
 1355TIP3    H1 4022   1.874   0.167   1.618  0.5663  0.7543 -3.8080
 1355TIP3    H2 4023   1.738   0.105   1.639  1.8314 -1.1492 -0.4179
 1356TIP3   OH2 4024   1.067   3.165   4.363  0.3576  0.1418 -0.2745
 1356TIP3    H1 4025   0.999   3.219   4.323  0.3129  0.8420  0.7122
 1356TIP3    H2 4026   1.114   3.126   4.289 -0.5020  0.4146 -0.9759
 1357TIP3   OH2 4027   3.630   6.852   1.646 -0.3791  0.6303  0.5213
 1357TIP3    H1 4028   3.717   6.855   1.606 -0.9003 -0.0164 -0.6978
 1357TIP3    H2 4029   3.609   6.759   1.653 -1.1257  0.7896  0.4746
 1358TIP3   OH2 4030   8.214   4.120   1.357 -0.7081 -0.2265  0.1385
 1358TIP3    H1 4031   8.187   4.209   1.376 -0.6945  0.5029 -2.7679
 1358TIP3    H2 4032   8.205   4.073   1.440 -1.7307  2.2071  1.4828
 1359TIP3   OH2 4033   7.950   3.032   2.325  0.1964  0.3194  0.4133
 1359TIP3    H1 4034   7.899   2.999   2.398 -0.5658  2.0377  0.7124
 1359TIP3    H2 4035   8.013   2.963   2.306 -0.1536 -0.5165  2.1308
 1360TIP3   OH2 4036   6.634   6.844   6.620  0.0336 -0.5920 -0.0096
 1360TIP3    H1 4037   6.611   6.873   6.531  0.5784 -0.1643 -0.0140
 1360TIP3    H2 4038   6.611   6.918   6.676  0.5916 -0.4950  0.0906
 1361TIP3   OH2 4039   3.558   2.753   2.350 -0.0719  0.0574 -0.0440
 1361TIP3    H1 4040   3.535   2.681   2.408  0.4274  0.6453  0.9117
 1361TIP3    H2 4041   3.477   2.773   2.304 -0.8168  0.3679  1.3424
 1362TIP3   OH2 4042   1.710   5.917   0.989  0.0424 -0.4351 -0.2438
 1362TIP3    H1 4043   1.629   5.949   0.948  0.2383 -1.1752 -1.2529
 1362TIP3    H2 4044   1.728   5.834   0.944  0.5249 -1.0466  1.0499
 1363TIP3   OH2 4045   7.303   0.710   0.717  0.5350  0.2480 -0.3154
 1363TIP3    H1 4046   7.216   0.688   0.684  0.2818  1.1843 -0.3017
 1363TIP3    H2 4047   7.363   0.682   0.648  0.1629  0.3746 -0.6889
 1364TIP3   OH2 4048   7.839   6.724   0.838 -0.7355  0.0349 -0.3508
 1364TIP3    H1 4049   7.761   6.724   0.894 -0.1818  1.8421  0.4796
 1364TIP3    H2 4050   7.809   6.761   0.755 -0.8485  0.3169 -0.1821
 1365TIP3   OH2 4051   5.493   7.771   6.589 -0.1373  0.1493 -0.3819
 1365TIP3    H1 4052   5.467   7.862   6.606  2.2937  0.5405  1.8893
 1365TIP3    H2 4053   5.563   7.778   6.525  0.7761  0.0084  0.5818
 1366TIP3   OH2 4054   0.601   5.397   5.388  0.0370 -0.2813  0.2673
 1366TIP3    H1 4055   0.602   5.302   5.401 -2.7661 -0.1728  2.0804
 1366TIP3    H2 4056   0.522   5.413   5.336  1.0439  1.0382 -0.9339
 1367TIP3   OH2 4057   6.343   4.856   4.677  0.2057  0.5590 -0.3231
 1367TIP3    H1 4058   6.358   4.927   4.615 -0.4619 -0.1898 -1.3675
 1367TIP3    H2 4059   6.287   4.894   4.744 -0.3382  0.9641 -0.9953
 1368TIP3   OH2 4060   3.354   6.085   6.048  0.1318  0.1350 -0.3987
 1368TIP3    H1 4061   3.262   6.083   6.021 -0.1877 -0.0067  0.6449
 1368TIP3    H2 4062   3.380   6.177   6.036 -0.3944  0.3518  0.0820
 1369TIP3   OH2 4063   5.394   1.781   0.994  0.1175 -0.3333 -0.0316
 1369TIP3    H1 4064   5.377   1.735   0.912 -2.9783  1.5944 -0.6350
 1369TIP3    H2 4065   5.471   1.835   0.976  1.2996 -2.1118 -0.6084
 1370TIP3   OH2 4066   6.009   1.754   2.902  0.3613 -0.1508 -0.0868
 1370TIP3    H1 4067   5.984   1.820   2.837 -0.5150 -0.3885 -0.0007
 1370TIP3    H2 4068   6.024   1.804   2.982  2.0290  0.2231 -0.5724
 1371TIP3   OH2 4069   0.681   1.453   3.805  0.0332  0.5345 -0.3845
 1371TIP3    H1 4070   0.634   1.468   3.887 -1.4046 -0.7886 -0.9223
 1371TIP3    H2 4071   0.750   1.390   3.827 -0.4819  0.0227 -0.2164
 1372TIP3   OH2 4072   1.037   6.436   1.756  0.4269  0.4586 -0.0619
 1372TIP3    H1 4073   1.044   6.525   1.722  1.8941  0.5479  0.4064
 1372TIP3    H2 4074   1.116   6.424   1.810  1.7256 -2.0664 -2.2651
 1373TIP3   OH2 4075   2.492   6.747   6.004 -0.1368  0.3007  0.2218
 1373TIP3    H1 4076   2.404   6.720   5.979 -0.1692  0.9655 -0.4301
 1373TIP3    H2 4077   2.490   6.843   6.000  0.4715  0.3411  0.7102
 1374TIP3   OH2 4078   7.591   1.065   5.246 -0.1180  0.2859 -0.1450
 1374TIP3    H1 4079   7.664   1.127   5.250  0.2532 -0.1666  0.1959
 1374TIP3    H2 4080   7.630   0.980   5.269 -0.7220  0.0148 -0.1006
 1375TIP3   OH2 4081   3.453   6.300   5.391 -0.4099 -0.8901  0.4632
 1375TIP3    H1 4082   3.392   6.300   5.318  0.9918 -0.0062 -0.7686
 1375TIP3    H2 4083   3.428   6.224   5.443 -0.8707 -2.1266 -1.4631
 1376TIP3   OH2 4084   4.382   5.547   3.498  0.2640  0.5237  0.0262
 1376TIP3    H1 4085   4.318   5.562   3.429 -1.6015 -0.8851  1.3569
 1376TIP3    H2 4086   4.368   5.620   3.560 -0.2930  0.0423  0.4740
 1377TIP3   OH2 4087   0.559   0.935   4.111  0.2170 -0.3963 -0.6886
 1377TIP3    H1 4088   0.551   1.008   4.050  1.1190 -0.6186 -1.0982
 1377TIP3    H2 4089   0.651   0.909   4.103  0.3614 -0.4046  0.7923
 1378TIP3   OH2 4090   4.808   1.386   1.610  0.5602 -0.6236 -0.2571
 1378TIP3    H1 4091   4.850   1.316   1.660 -0.3551 -0.3617  0.9203
 1378TIP3    H2 4092   4.715   1.367   1.616  0.1754  1.3840  1.2381
 1379TIP3   OH2 4093   4.171   2.619   2.553 -0.3073  0.0706  0.1695
 1379TIP3    H1 4094   4.201   2.707   2.531 -1.7690  0.5649  0.0653
 1379TIP3    H2 4095   4.163   2.620   2.648  3.1015 -1.1238  0.6152
 1380TIP3   OH2 4096   0.912   5.898   1.971  0.5106  0.4374 -0.0548
 1380TIP3    H1 4097   0.827   5.911   2.013  0.4221  0.6637 -0.2994
 1380TIP3    H2 4098   0.898   5.824   1.912  0.5504  0.3180  0.0859
 1381TIP3   OH2 4099   1.714   0.142   5.583 -0.0115 -0.6325  0.2884
 1381TIP3    H1 4100   1.798   0.113   5.620  0.1516  2.0014  2.2827
 1381TIP3    H2 4101   1.666   0.178   5.658 -1.0803  2.0149 -1.5113
 1382TIP3   OH2 4102   3.238   0.960   2.243  0.2147  0.3480  0.2261
 1382TIP3    H1 4103   3.149   0.968   2.207  0.4682 -1.8555 -1.1001
 1382TIP3    H2 4104   3.283   1.038   2.211 -1.2281  1.5746  1.0175
 1383TIP3   OH2 4105   2.424   1.071   0.716 -0.5004  0.2181 -0.0257
 1383TIP3    H1 4106   2.461   0.988   0.684  0.2573  0.3657  0.4741
 1383TIP3    H2 4107   2.499   1.126   0.736 -0.9983  1.0345 -0.3293
 1384TIP3   OH2 4108   0.785   6.998   3.210 -0.2998  0.0061  0.1100
 1384TIP3    H1 4109   0.700   6.979   3.172  0.8566 -1.7058 -1.8425
 1384TIP3    H2 4110   0.828   6.913   3.217  1.1808  0.8040  1.1940
 1385TIP3   OH2 4111   2.863   6.186   2.253 -0.3609 -0.4382  0.4055
 1385TIP3    H1 4112   2.809   6.210   2.329 -2.0336 -0.7965 -0.6226
 1385TIP3    H2 4113   2.845   6.254   2.188 -0.0435 -0.9003 -0.1750
 1386TIP3   OH2 4114   6.521   6.992   5.849  0.4884  0.6584 -0.3765
 1386TIP3    H1 4115   6.529   6.896   5.847 -1.3811  0.3548  1.8632
 1386TIP3    H2 4116   6.586   7.020   5.912  0.8897  0.8478 -0.8733
 1387TIP3   OH2 4117   2.786   0.970   0.719 -0.2291 -0.0455 -0.1539
 1387TIP3    H1 4118   2.829   1.037   0.772  1.0195 -0.6885 -0.3096
 1387TIP3    H2 4119   2.858   0.921   0.680 -1.1024 -1.8664  0.4330
 1388TIP3   OH2 4120   1.128   1.184   1.336 -0.5191  0.1955  0.3403
 1388TIP3    H1 4121   1.099   1.210   1.248  3.3732  0.1082 -1.1607
 1388TIP3    H2 4122   1.151   1.266   1.379 -0.2174  0.0752  0.4079
 1389TIP3   OH2 4123   2.884   6.973   2.703  0.3510 -0.5947 -0.1964
 1389TIP3    H1 4124   2.802   6.928   2.723  0.0289 -0.8225 -1.8820
 1389TIP3    H2 4125   2.939   6.956   2.779 -1.3626  0.1228  1.3014
 1390TIP3   OH2 4126   5.580   4.456   5.573  0.3979  0.2547  0.2021
 1390TIP3    H1 4127   5.674   4.470   5.581  0.7031  0.1794 -2.4455
 1390TIP3    H2 4128   5.571   4.393   5.501 -1.6971  0.6591  0.0455
 1391TIP3   OH2 4129   3.522   4.580   0.197 -0.5931 -0.8394 -0.1402
 1391TIP3    H1 4130   3.604   4.534   0.214  0.4349  0.6380 -0.9084
 1391TIP3    H2 4131   3.473   4.570   0.279  0.5443 -1.3600  0.5151
 1392TIP3   OH2 4132   5.639   4.681   4.321 -0.0473 -0.2523 -0.1115
 1392TIP3    H1 4133   5.602   4.612   4.265  0.4113  1.0545 -2.1436
 1392TIP3    H2 4134   5.584   4.758   4.303  1.0201  0.5888  0.1190
 1393TIP3   OH2 4135   7.062   2.659   3.036 -0.8903 -0.1807  0.0333
 1393TIP3    H1 4136   7.065   2.609   3.117 -1.6842 -0.4552 -0.0997
 1393TIP3    H2 4137   7.111   2.606   2.973 -0.5182 -0.1040  0.2584
 1394TIP3   OH2 4138   2.964   7.357   2.725 -0.2485  0.4112 -0.5255
 1394TIP3    H1 4139   3.014   7.278   2.744 -1.1887 -0.2748 -0.8661
 1394TIP3    H2 4140   3.020   7.428   2.756  1.6179 -0.2263 -2.1806
 1395TIP3   OH2 4141   1.786   7.678   1.246  0.2023  0.0515  0.6377
 1395TIP3    H1 4142   1.749   7.633   1.170 -1.4940  2.3120  0.0305
 1395TIP3    H2 4143   1.877   7.696   1.222  0.0370 -0.3600 -0.3207
 1396TIP3   OH2 4144   4.659   4.446   5.628 -0.4793 -0.0331 -0.2983
 1396TIP3    H1 4145   4.726   4.497   5.673 -0.8507  0.9887 -0.8557
 1396TIP3    H2 4146   4.704   4.408   5.553 -0.5449  0.7719 -0.7539
 1397TIP3   OH2 4147   4.887   0.869   5.054 -0.4071 -0.3286  0.6744
 1397TIP3    H1 4148   4.956   0.810   5.087  1.3436  1.3918  0.2974
 1397TIP3    H2 4149   4.932   0.952   5.040 -2.7739  1.1227  1.1739
 1398TIP3   OH2 4150   7.328   5.300   4.835  0.2599 -0.2627 -0.4442
 1398TIP3    H1 4151   7.284   5.216   4.852 -1.1186 -0.0016 -2.3860
 1398TIP3    H2 4152   7.317   5.350   4.916 -1.1857 -1.0226 -0.1478
 1399TIP3   OH2 4153   7.999   1.193   0.512  0.1768  0.1720  0.2212
 1399TIP3    H1 4154   8.094   1.194   0.522  0.2429  0.8326 -0.3977
 1399TIP3    H2 4155   7.968   1.149   0.591  0.9899  0.0179  0.4704
 1400TIP3   OH2 4156   7.420   5.482   0.777 -0.2853  0.5979 -0.1855
 1400TIP3    H1 4157   7.336   5.441   0.800 -0.1487  0.0429 -0.6638
 1400TIP3    H2 4158   7.426   5.474   0.682 -0.3088  1.8465 -0.3131
 1401TIP3   OH2 4159   3.905   7.758   5.226  0.3098  0.5633  0.4288
 1401TIP3    H1 4160   3.849   7.821   5.181 -0.6287 -1.5617 -1.6230
 1401TIP3    H2 4161   3.846   7.711   5.285 -0.0569 -1.3250 -1.3481
 1402TIP3   OH2 4162   6.164   3.425   5.897 -0.4463 -0.0243 -0.2383
 1402TIP3    H1 4163   6.125   3.442   5.811  1.8326  3.8676 -0.7683
 1402TIP3    H2 4164   6.157   3.508   5.943  2.7465 -0.4995  1.3936
 1403TIP3   OH2 4165   0.086   1.035   1.268  0.7241  0.0665 -0.2131
 1403TIP3    H1 4166   0.053   0.959   1.221  0.3089  0.2049 -0.1551
 1403TIP3    H2 4167   0.117   1.000   1.352 -0.6005  0.1124  0.3245
 1404TIP3   OH2 4168   1.620   5.244   3.333  0.1419  0.6717  0.4756
 1404TIP3    H1 4169   1.714   5.231   3.345  0.0032  0.0499  0.9604
 1404TIP3    H2 4170   1.589   5.162   3.294 -0.4295  0.2498  1.7325
 1405TIP3   OH2 4171   6.438   5.916   5.315 -0.3034 -0.2157 -0.0626
 1405TIP3    H1 4172   6.391   5.949   5.391 -0.3496 -0.0210 -0.1743
 1405TIP3    H2 4173   6.530   5.937   5.333 -0.4843  1.4211 -0.8404
 1406TIP3   OH2 4174   0.176   0.922   1.550  0.4996 -0.3787 -0.5388
 1406TIP3    H1 4175   0.255   0.868   1.555  0.7064  0.0068  1.0833
 1406TIP3    H2 4176   0.108   0.869   1.592  0.4387  0.1552  0.0531
 1407TIP3   OH2 4177   4.729   7.466   0.151 -0.3762 -0.3058  0.0975
 1407TIP3    H1 4178   4.730   7.529   0.223 -0.7519  0.2770 -0.3972
 1407TIP3    H2 4179   4.768   7.514   0.077 -2.3374 -0.0055 -0.8071
 1408TIP3   OH2 4180   1.827   2.860   2.043 -0.6869 -0.1832  0.1659
 1408TIP3    H1 4181   1.777   2.939   2.065 -0.5562 -0.1340  0.2809
 1408TIP3    H2 4182   1.760   2.796   2.018 -0.8762 -0.4157  1.2223
 1409TIP3   OH2 4183   3.952   1.771   0.514 -0.4393 -0.2062  0.5560
 1409TIP3    H1 4184   3.933   1.740   0.425 -3.3874  0.6001  0.7817
 1409TIP3    H2 4185   4.006   1.849   0.501 -0.2714 -0.4828 -0.4969
 1410TIP3   OH2 4186   3.626   5.541   6.663  0.1108  0.1939 -0.1398
 1410TIP3    H1 4187   3.600   5.484   6.734 -0.1269 -0.1403 -0.4934
 1410TIP3    H2 4188   3.717   5.566   6.684 -0.1092  0.4619  0.5056
 1411TIP3   OH2 4189   1.701   7.243   1.432 -0.3740 -0.6952 -0.7357
 1411TIP3    H1 4190   1.711   7.306   1.503  1.7844  0.6257 -2.0987
 1411TIP3    H2 4191   1.675   7.162   1.475  1.3497 -0.0785  1.6166
 1412TIP3   OH2 4192   1.089   6.670   1.273 -0.2919  0.2693  0.3209
 1412TIP3    H1 4193   1.179   6.643   1.287 -1.1084 -2.6947  0.5402
 1412TIP3    H2 4194   1.042   6.641   1.351 -1.5450  1.2794 -0.0120
 1413TIP3   OH2 4195   1.995   5.829   4.896  0.2677 -0.2448  0.3481
 1413TIP3    H1 4196   1.974   5.872   4.813  1.0490  0.0116  0.2774
 1413TIP3    H2 4197   1.912   5.792   4.925 -0.1827  0.3557 -0.1458
 1414TIP3   OH2 4198   4.723   1.460   1.358  0.1371 -0.6078  0.1093
 1414TIP3    H1 4199   4.763   1.441   1.443  0.3679 -1.1959 -0.1277
 1414TIP3    H2 4200   4.653   1.523   1.378  0.1862 -0.7458  0.7339
 1415TIP3   OH2 4201   1.646   7.825   5.218 -0.3934 -0.6058  0.2062
 1415TIP3    H1 4202   1.574   7.889   5.218  0.8437  0.8546  0.9449
 1415TIP3    H2 4203   1.607   7.746   5.255 -1.9352 -0.2365 -0.5442
 1416TIP3   OH2 4204   4.698   4.888   3.830 -0.2320  0.1789  0.3361
 1416TIP3    H1 4205   4.658   4.808   3.865  1.2253 -1.2277 -1.0597
 1416TIP3    H2 4206   4.766   4.911   3.893  0.5253 -0.7407 -0.1171
 1417TIP3   OH2 4207   5.699   5.046   4.785  0.1434 -0.0984  0.8798
 1417TIP3    H1 4208   5.732   4.961   4.815  1.0984  0.2453  0.8262
 1417TIP3    H2 4209   5.765   5.078   4.724 -0.3015  0.5971  0.7467
 1418TIP3   OH2 4210   7.362   4.492   4.534  0.4739  0.0267 -0.2080
 1418TIP3    H1 4211   7.443   4.446   4.554  0.9154  1.4268  1.4552
 1418TIP3    H2 4212   7.373   4.579   4.571 -2.4780 -0.2868  1.7590
 1419TIP3   OH2 4213   6.413   3.238   1.393  0.3100  0.2247  0.3412
 1419TIP3    H1 4214   6.368   3.251   1.309  2.2783  0.8411 -0.7005
 1419TIP3    H2 4215   6.374   3.303   1.452 -0.0418  0.8452 -0.5514
 1420TIP3   OH2 4216   4.710   1.830   0.282 -0.3348  0.2856  0.0813
 1420TIP3    H1 4217   4.673   1.915   0.307 -0.3068  0.8152 -1.5847
 1420TIP3    H2 4218   4.787   1.852   0.230  0.8869 -0.7920  1.3550
 1421TIP3   OH2 4219   7.943   1.937   2.129 -0.6100 -0.1214  0.2103
 1421TIP3    H1 4220   7.904   1.936   2.041  0.5333  0.1168 -0.3125
 1421TIP3    H2 4221   7.889   2.000   2.178 -2.5539 -1.7815  0.3322
 1422TIP3   OH2 4222   5.173   6.893   1.637  0.2691 -0.3575 -0.1316
 1422TIP3    H1 4223   5.141   6.926   1.721  0.3848  1.2536 -0.6873
 1422TIP3    H2 4224   5.137   6.954   1.572  0.0276 -1.6835 -1.2791
 1423TIP3   OH2 4225   5.841   4.458   5.641  0.1925  0.1967  0.2397
 1423TIP3    H1 4226   5.888   4.454   5.724  2.9053  0.2167 -1.1756
 1423TIP3    H2 4227   5.908   4.445   5.575 -1.9402 -0.3111 -1.9742
 1424TIP3   OH2 4228   7.681   2.336   4.639  0.5727 -0.2134 -0.4804
 1424TIP3    H1 4229   7.677   2.307   4.548 -0.3828 -2.7476  0.2923
 1424TIP3    H2 4230   7.677   2.256   4.690 -1.4537  1.2130  1.8413
 1425TIP3   OH2 4231   5.991   6.517   4.116  0.1468  0.3509  0.0779
 1425TIP3    H1 4232   6.048   6.473   4.180  0.8420  0.0284 -0.7413
 1425TIP3    H2 4233   5.983   6.606   4.148  1.3060  0.4663  0.1045
 1426TIP3   OH2 4234   1.472   3.394   1.730  0.3051  0.3467 -0.3154
 1426TIP3    H1 4235   1.412   3.341   1.782 -0.1479  0.4945 -0.6798
 1426TIP3    H2 4236   1.420   3.470   1.704  1.2265  1.5360  1.0883
 1427TIP3   OH2 4237   2.770   2.908   0.483 -0.5755 -0.1622 -0.1451
 1427TIP3    H1 4238   2.683   2.871   0.498 -0.6012 -0.2882 -0.5958
 1427TIP3    H2 4239   2.828   2.832   0.475 -0.3315 -0.0758  0.6524
 1428TIP3   OH2 4240   0.080   2.181   5.384 -0.0100  0.1929  0.0732
 1428TIP3    H1 4241   0.076   2.146   5.295  0.0132  0.7064 -0.1385
 1428TIP3    H2 4242   0.065   2.275   5.373 -1.4926  0.0652  0.7762
 1429TIP3   OH2 4243   1.988   2.184   1.091  0.3079  0.4832 -0.0481
 1429TIP3    H1 4244   1.933   2.240   1.037 -1.0626 -1.7418 -1.0827
 1429TIP3    H2 4245   1.990   2.228   1.176  0.5579  2.8387 -1.1907
 1430TIP3   OH2 4246   0.975   5.162   2.302  0.6068  0.3568 -0.1003
 1430TIP3    H1 4247   0.930   5.127   2.379  3.5974 -1.4669  0.9969
 1430TIP3    H2 4248   0.980   5.088   2.242  1.0234  0.8720 -0.7167
 1431TIP3   OH2 4249   6.150   1.176   1.333 -0.1013 -0.2776  0.1173
 1431TIP3    H1 4250   6.186   1.205   1.417  0.4857 -1.3604  0.2663
 1431TIP3    H2 4251   6.099   1.250   1.301 -1.4853 -0.3284  2.0819
 1432TIP3   OH2 4252   6.332   3.779   0.819 -0.6124 -0.0887  0.2224
 1432TIP3    H1 4253   6.331   3.758   0.913  2.0053  0.3205  0.4092
 1432TIP3    H2 4254   6.418   3.750   0.789 -0.9225  0.9454 -1.7969
 1433TIP3   OH2 4255   7.455   1.856   0.273 -0.1697 -0.2650 -0.3200
 1433TIP3    H1 4256   7.461   1.922   0.203 -1.8246  1.1051  0.7403
 1433TIP3    H2 4257   7.389   1.892   0.333  0.4425 -1.9033  1.4008
 1434TIP3   OH2 4258   8.212   6.257   1.107  0.7929  0.1664  0.2587
 1434TIP3    H1 4259   8.218   6.214   1.022 -2.3567  0.1221 -0.0432
 1434TIP3    H2 4260   8.181   6.189   1.167  1.5207  0.5768  1.1378
 1435TIP3   OH2 4261   7.041   2.415   2.668 -0.0314  0.1749  0.0331
 1435TIP3    H1 4262   7.015   2.444   2.581 -0.1644  0.8435  0.2892
 1435TIP3    H2 4263   7.130   2.382   2.657 -0.5705 -1.1536 -0.6442
 1436TIP3   OH2 4264   7.568   0.539   3.946  0.4135  0.5254 -0.0447
 1436TIP3    H1 4265   7.554   0.528   3.852  1.1373  0.4530 -0.1515
 1436TIP3    H2 4266   7.601   0.454   3.975  2.1500  1.1343 -0.1136
 1437TIP3   OH2 4267   3.476   3.846   4.982  0.1008  0.6691 -0.3573
 1437TIP3    H1 4268   3.475   3.813   5.072  0.5693 -1.6666 -1.1236
 1437TIP3    H2 4269   3.505   3.936   4.989  1.0204  0.2583  1.7564
 1438TIP3   OH2 4270   1.620   7.193   6.458 -0.2299  0.2901  0.2368
 1438TIP3    H1 4271   1.533   7.216   6.423  0.3608  2.0647 -0.1957
 1438TIP3    H2 4272   1.681   7.216   6.387  0.5997 -1.1228  0.4562
 1439TIP3   OH2 4273   6.914   0.554   5.189  0.4677 -0.1616 -0.1560
 1439TIP3    H1 4274   6.836   0.507   5.219 -0.2740  0.4115 -1.1593
 1439TIP3    H2 4275   6.926   0.624   5.253 -1.8827  1.8803 -1.7391
 1440TIP3   OH2 4276   0.520   1.963   3.132 -0.1051  0.2272 -0.1555
 1440TIP3    H1 4277   0.545   1.918   3.051 -0.4507  1.4755 -0.9766
 1440TIP3    H2 4278   0.425   1.958   3.134 -0.0425 -1.0380  0.9273
 1441TIP3   OH2 4279   7.652   6.077   3.509  0.2784  0.8586  0.0506
 1441TIP3    H1 4280   7.627   6.039   3.424  1.2049  0.8652 -0.2351
 1441TIP3    H2 4281   7.742   6.048   3.522  0.2341  1.1009  0.9027
 1442TIP3   OH2 4282   1.681   2.986   4.551  0.0997  0.2726 -0.0661
 1442TIP3    H1 4283   1.671   2.941   4.635 -2.1385  0.8483  0.0357
 1442TIP3    H2 4284   1.735   3.063   4.571 -0.5951  0.5207  0.9016
 1443TIP3   OH2 4285   1.137   3.514   0.184 -0.2298 -0.4174  0.0694
 1443TIP3    H1 4286   1.093   3.482   0.262  0.9692  0.2200  1.0498
 1443TIP3    H2 4287   1.105   3.604   0.173  0.2507 -0.2070  0.3526
 1444TIP3   OH2 4288   0.799   7.624   3.340 -0.0441  0.0497  0.3959
 1444TIP3    H1 4289   0.727   7.579   3.296  2.3097 -0.9934 -2.6783
 1444TIP3    H2 4290   0.781   7.717   3.327 -1.7932 -0.0729  1.5026
 1445TIP3   OH2 4291   8.025   7.622   0.262 -0.3863 -0.2237 -0.3072
 1445TIP3    H1 4292   8.098   7.604   0.321  0.2145 -0.5040 -1.1247
 1445TIP3    H2 4293   8.018   7.544   0.207 -1.7440 -0.4916  0.2008
 1446TIP3   OH2 4294   0.760   3.865   6.494 -0.5629 -0.3091 -0.0286
 1446TIP3    H1 4295   0.846   3.905   6.505 -1.6166  1.8025  1.4705
 1446TIP3    H2 4296   0.771   3.774   6.522  0.9580  0.2141  1.1987
 1447TIP3   OH2 4297   3.897   3.424   4.779  0.5839 -0.2255 -0.1945
 1447TIP3    H1 4298   3.975   3.429   4.724 -0.1093  0.4475 -1.1567
 1447TIP3    H2 4299   3.931   3.410   4.868  1.7221 -1.5859 -0.8009
 1448TIP3   OH2 4300   0.666   6.775   4.371 -0.0808  0.5662  0.1691
 1448TIP3    H1 4301   0.591   6.810   4.418 -0.5927 -0.7290  0.3500
 1448TIP3    H2 4302   0.728   6.750   4.439 -0.4271 -0.4294  0.1329
 1449TIP3   OH2 4303   6.397   5.074   0.711  0.2766 -0.5901 -0.2668
 1449TIP3    H1 4304   6.389   5.126   0.631  0.4382 -0.5502 -0.2572
 1449TIP3    H2 4305   6.317   5.022   0.714 -1.1579  1.4961  1.0211
 1450TIP3   OH2 4306   7.139   0.594   2.970  0.7332 -0.4657  0.2321
 1450TIP3    H1 4307   7.199   0.542   3.024  1.8052  1.1355  0.6251
 1450TIP3    H2 4308   7.156   0.684   2.995  0.3560  0.2352 -1.9107
 1451TIP3   OH2 4309   7.693   6.644   3.022  0.1543  0.4971 -0.1166
 1451TIP3    H1 4310   7.676   6.725   2.975  2.0284  0.3254 -1.2025
 1451TIP3    H2 4311   7.714   6.581   2.953 -0.8204 -0.8172  0.7402
 1452TIP3   OH2 4312   7.257   6.439   6.267  0.2854  0.1787  0.0295
 1452TIP3    H1 4313   7.189   6.396   6.318  0.3946 -0.4079 -0.3105
 1452TIP3    H2 4314   7.338   6.420   6.313  0.3417 -0.0392 -0.1589
 1453TIP3   OH2 4315   1.736   4.846   0.828 -0.3372  0.3965  0.0839
 1453TIP3    H1 4316   1.673   4.876   0.894  0.1472 -1.6593  1.5860
 1453TIP3    H2 4317   1.716   4.753   0.817  0.2219  0.4852 -2.0270
 1454TIP3   OH2 4318   0.348   5.386   6.535 -0.5071  0.1332  0.3190
 1454TIP3    H1 4319   0.291   5.423   6.468 -1.0932  0.0364  0.7548
 1454TIP3    H2 4320   0.362   5.457   6.597  0.8817  0.5390 -0.4255
 1455TIP3   OH2 4321   1.594   4.727   0.597  0.1004 -0.3569 -0.3780
 1455TIP3    H1 4322   1.531   4.655   0.601  0.6939 -0.8237  0.7742
 1455TIP3    H2 4323   1.653   4.702   0.526 -0.8258 -0.0434 -1.2903
 1456TIP3   OH2 4324   5.539   3.763   5.620  0.3767  0.5201 -0.4583
 1456TIP3    H1 4325   5.583   3.721   5.546  1.3022  1.5623 -0.5354
 1456TIP3    H2 4326   5.603   3.760   5.691 -0.2199  0.2095  0.0794
 1457TIP3   OH2 4327   7.765   4.270   2.371 -0.6486  0.3102 -0.6146
 1457TIP3    H1 4328   7.732   4.277   2.461 -1.8659 -0.2219 -0.9948
 1457TIP3    H2 4329   7.821   4.192   2.373  0.5890  1.1854  0.0263
 1458TIP3   OH2 4330   0.852   1.669   3.708 -0.2195 -0.0404  0.0996
 1458TIP3    H1 4331   0.798   1.595   3.736 -1.2283  0.5584 -0.2087
 1458TIP3    H2 4332   0.892   1.640   3.626  1.0080 -0.9784  0.9825
 1459TIP3   OH2 4333   4.785   3.437   2.444  0.2597 -0.0735 -0.2352
 1459TIP3    H1 4334   4.820   3.511   2.493  1.0066 -0.0464 -0.7898
 1459TIP3    H2 4335   4.861   3.401   2.397 -0.2071 -0.8262 -0.4283
 1460TIP3   OH2 4336   1.148   0.811   5.332  0.0441  0.7785 -0.0003
 1460TIP3    H1 4337   1.196   0.884   5.371 -0.6243  1.3370 -0.1991
 1460TIP3    H2 4338   1.143   0.833   5.239 -0.4756  0.6620 -0.0028
 1461TIP3   OH2 4339   2.950   1.957   3.482  0.1741  0.2940  0.0906
 1461TIP3    H1 4340   2.941   1.890   3.415 -0.2355  0.8956 -0.4628
 1461TIP3    H2 4341   2.922   1.914   3.563 -2.2593  0.4335 -0.6173
 1462TIP3   OH2 4342   0.185   6.511   3.978  0.0763  0.2668 -0.0178
 1462TIP3    H1 4343   0.267   6.543   4.014  0.0531  0.6260 -0.2797
 1462TIP3    H2 4344   0.178   6.552   3.892  0.1138 -0.5503 -0.4254
 1463TIP3   OH2 4345   0.367   2.788   4.782 -0.0239  0.0238  0.4748
 1463TIP3    H1 4346   0.390   2.825   4.868 -2.5110  2.8127  0.0825
 1463TIP3    H2 4347   0.425   2.833   4.721  0.7586 -0.9205  0.4876
 1464TIP3   OH2 4348   2.316   1.634   0.103  0.0761 -0.3702 -0.3315
 1464TIP3    H1 4349   2.371   1.563   0.137 -1.6335 -2.3312 -1.4333
 1464TIP3    H2 4350   2.374   1.682   0.044  1.2813 -0.8353  0.4244
 1465TIP3   OH2 4351   5.974   6.474   0.979 -0.8648 -0.5526  0.4409
 1465TIP3    H1 4352   6.059   6.475   0.934 -0.1148 -0.1965  1.8334
 1465TIP3    H2 4353   5.956   6.381   0.995  1.2437 -0.5441  3.6897
 1466TIP3   OH2 4354   3.987   2.230   5.663  0.3982  0.4023 -0.6655
 1466TIP3    H1 4355   3.931   2.214   5.587 -0.0032  1.2359 -0.5529
 1466TIP3    H2 4356   4.035   2.310   5.640 -0.6358  1.3718  0.4703
 1467TIP3   OH2 4357   4.321   0.456   6.171  0.4091 -0.3226  0.2679
 1467TIP3    H1 4358   4.280   0.414   6.096 -0.9531 -0.6131  1.1310
 1467TIP3    H2 4359   4.349   0.383   6.227  2.3402 -0.1359 -0.3799
 1468TIP3   OH2 4360   7.803   4.561   5.330  0.2398 -0.3228  0.3365
 1468TIP3    H1 4361   7.838   4.486   5.379 -0.3384 -0.9455 -0.1783
 1468TIP3    H2 4362   7.843   4.554   5.244  0.6986  0.3589  0.4826
 1469TIP3   OH2 4363   7.071   4.139   2.134 -0.0972  0.1616 -0.3679
 1469TIP3    H1 4364   7.055   4.233   2.126  2.5902  0.8019  0.7773
 1469TIP3    H2 4365   7.129   4.130   2.209 -3.2014 -2.8731  2.0467
 1470TIP3   OH2 4366   3.038   3.851   4.392 -0.0287 -0.3737  0.2961
 1470TIP3    H1 4367   3.090   3.771   4.396 -1.3729 -1.3093 -0.3815
 1470TIP3    H2 4368   3.042   3.879   4.301 -0.7200 -0.4731  0.2277
 1471TIP3   OH2 4369   0.761   5.157   0.492  0.2490  0.0491 -0.2862
 1471TIP3    H1 4370   0.846   5.198   0.508  0.2197  0.7606 -1.7846
 1471TIP3    H2 4371   0.698   5.210   0.540  0.6523 -0.6289  1.0387
 1472TIP3   OH2 4372   6.885   4.316   5.306 -1.0914 -0.3709  0.6779
 1472TIP3    H1 4373   6.883   4.232   5.352 -0.2017 -1.1535 -0.6477
 1472TIP3    H2 4374   6.975   4.347   5.316 -1.3036  0.2210  0.7885
 1473TIP3   OH2 4375   2.254   3.627   2.235  0.1753  0.0428 -0.2578
 1473TIP3    H1 4376   2.316   3.644   2.164 -0.3961 -0.5131 -0.8991
 1473TIP3    H2 4377   2.205   3.550   2.207 -1.8549  1.3322 -0.4945
 1474TIP3   OH2 4378   5.506   7.399   5.502 -0.3259 -0.1600 -0.0694
 1474TIP3    H1 4379   5.533   7.491   5.503 -0.0895 -0.2156 -0.6968
 1474TIP3    H2 4380   5.437   7.396   5.436 -0.3577 -0.4259 -0.0226
 1475TIP3   OH2 4381   2.530   5.769   5.622  1.0120  0.4730 -0.3391
 1475TIP3    H1 4382   2.457   5.826   5.643 -0.1810 -0.8343 -0.7635
 1475TIP3    H2 4383   2.606   5.809   5.664 -0.1305  1.3140  0.9683
 1476TIP3   OH2 4384   5.571   0.722   2.321 -0.2503  0.0818 -0.0474
 1476TIP3    H1 4385   5.607   0.654   2.264 -0.6000 -0.6495  0.5795
 1476TIP3    H2 4386   5.487   0.686   2.350  0.4734 -0.1131  1.9132
 1477TIP3   OH2 4387   1.068   6.474   2.336 -0.0515 -0.5404 -0.2457
 1477TIP3    H1 4388   0.975   6.458   2.317  0.0870  0.0262 -1.5228
 1477TIP3    H2 4389   1.088   6.416   2.409 -1.0589 -1.7330 -0.8680
 1478TIP3   OH2 4390   3.121   7.078   0.286  0.2571 -0.0072  0.1853
 1478TIP3    H1 4391   3.050   7.142   0.298 -0.9226 -0.8177 -1.8360
 1478TIP3    H2 4392   3.077   6.993   0.288  1.5751 -0.6957  1.2695
 1479TIP3   OH2 4393   1.841   1.905   6.399  0.2331 -0.1076  0.0049
 1479TIP3    H1 4394   1.759   1.905   6.448  0.9967  0.5887  1.3462
 1479TIP3    H2 4395   1.828   1.971   6.331 -0.2218  0.1742  0.3590
 1480TIP3   OH2 4396   1.675   2.856   5.585  0.4390  0.1515  0.0362
 1480TIP3    H1 4397   1.670   2.779   5.528  2.2229  0.3461 -0.4447
 1480TIP3    H2 4398   1.586   2.891   5.585 -0.1747 -1.3197 -0.5634
 1481TIP3   OH2 4399   6.110   0.703   6.501  0.5223 -0.3676 -0.4808
 1481TIP3    H1 4400   6.095   0.614   6.470 -2.8817 -0.9378  2.2490
 1481TIP3    H2 4401   6.072   0.759   6.433 -1.0493 -1.2496 -0.3743
 1482TIP3   OH2 4402   6.621   2.683   2.080  0.4593  0.2009 -0.2926
 1482TIP3    H1 4403   6.713   2.704   2.062  0.9544  0.1267  1.8936
 1482TIP3    H2 4404   6.625   2.601   2.130 -0.7316  0.5590  0.4314
 1483TIP3   OH2 4405   7.734   1.836   2.320 -0.4822 -0.1354 -0.7061
 1483TIP3    H1 4406   7.643   1.833   2.350  0.5734 -0.1428  3.0863
 1483TIP3    H2 4407   7.745   1.923   2.284 -1.3111  1.0690  1.7125
 1484TIP3   OH2 4408   5.385   7.761   0.476 -0.0938 -0.0755  0.0445
 1484TIP3    H1 4409   5.295   7.727   0.476  0.2349 -0.9548 -0.3612
 1484TIP3    H2 4410   5.414   7.752   0.567  0.2354 -1.5534 -0.1924
 1485TIP3   OH2 4411   1.775   0.137   5.284 -0.3406 -0.0583 -0.0975
 1485TIP3    H1 4412   1.786   0.059   5.338  1.1026  0.5368  0.5040
 1485TIP3    H2 4413   1.693   0.176   5.316  0.0172 -0.2026  1.0489
 1486TIP3   OH2 4414   3.530   0.498   0.791 -0.2087  0.1120 -0.2897
 1486TIP3    H1 4415   3.562   0.568   0.848 -0.4496 -1.3312  1.7037
 1486TIP3    H2 4416   3.444   0.529   0.761 -1.2886 -0.1791  2.2888
 1487TIP3   OH2 4417   2.949   4.477   6.655  0.1860  0.2771  0.1142
 1487TIP3    H1 4418   2.989   4.545   6.601  0.7159 -0.8625 -0.9919
 1487TIP3    H2 4419   2.861   4.511   6.675  0.9049  1.8498  0.7347
 1488TIP3   OH2 4420   0.514   4.748   2.766 -0.1105 -0.3723 -0.0320
 1488TIP3    H1 4421   0.440   4.689   2.752  1.1957 -2.2587  0.6304
 1488TIP3    H2 4422   0.499   4.820   2.705 -1.3906 -1.7709 -1.4585
 1489TIP3   OH2 4423   7.949   4.884   1.644  0.1336 -0.6118  0.3261
 1489TIP3    H1 4424   7.961   4.794   1.674 -1.4586 -0.8466  0.3260
 1489TIP3    H2 4425   8.038   4.921   1.644  0.6735 -1.8309  1.3899
 1490TIP3   OH2 4426   1.172   7.704   1.143  0.2413 -0.1635  0.2532
 1490TIP3    H1 4427   1.133   7.660   1.067 -0.3952 -0.6371  0.8327
 1490TIP3    H2 4428   1.250   7.653   1.163  0.1968 -0.2745  0.1453
 1491TIP3   OH2 4429   1.889   6.903   6.382  0.4625 -0.2611  0.1507
 1491TIP3    H1 4430   1.884   6.886   6.288  0.8490 -1.2568  0.3019
 1491TIP3    H2 4431   1.939   6.830   6.417  1.1059  0.5644  1.0151
 1492TIP3   OH2 4432   2.201   4.673   3.675 -0.5399  0.1226  0.1192
 1492TIP3    H1 4433   2.210   4.578   3.680  0.2089  0.2107  0.7448
 1492TIP3    H2 4434   2.168   4.690   3.587 -2.0412 -0.8053  0.4585
 1493TIP3   OH2 4435   1.686   2.978   4.825  0.0369  0.3098 -0.6842
 1493TIP3    H1 4436   1.780   2.989   4.833  0.0922  0.2814 -1.2582
 1493TIP3    H2 4437   1.650   3.062   4.855  0.2505  0.3664 -0.5862
 1494TIP3   OH2 4438   4.689   3.628   1.868  0.0380  0.1802 -0.8860
 1494TIP3    H1 4439   4.689   3.567   1.794 -1.3638  1.8239 -2.3338
 1494TIP3    H2 4440   4.710   3.574   1.944  1.7764 -1.5457 -2.4831
 1495TIP3   OH2 4441   7.622   4.790   0.727  0.3077  0.4446  0.3523
 1495TIP3    H1 4442   7.709   4.772   0.693 -0.4502 -0.1866 -1.3616
 1495TIP3    H2 4443   7.613   4.885   0.722  0.7199  0.4686  0.0733
 1496TIP3   OH2 4444   6.497   1.542   4.855  0.2483  0.0665  0.3620
 1496TIP3    H1 4445   6.458   1.505   4.935 -0.5568  1.8544  0.8412
 1496TIP3    H2 4446   6.591   1.529   4.867  0.1392  0.2773  1.6026
 1497TIP3   OH2 4447   0.271   6.813   4.102 -0.1740 -0.0418 -0.2985
 1497TIP3    H1 4448   0.251   6.906   4.106  0.6041  0.0917  1.5585
 1497TIP3    H2 4449   0.264   6.791   4.010  1.2735  2.2438 -1.0395
 1498TIP3   OH2 4450   2.460   5.666   4.573  0.4517 -0.6054 -0.4386
 1498TIP3    H1 4451   2.525   5.696   4.509 -0.0342  0.4044 -0.4711
 1498TIP3    H2 4452   2.512   5.638   4.649  0.9873 -1.0893 -0.9729
 1499TIP3   OH2 4453   0.535   6.106   0.574 -0.2870  0.3920 -0.3101
 1499TIP3    H1 4454   0.487   6.112   0.656  1.6274  2.2705  0.7675
 1499TIP3    H2 4455   0.608   6.047   0.593 -0.9542 -0.8089 -1.3215
 1500TIP3   OH2 4456   7.001   0.611   4.924  0.0967 -0.4923  0.3916
 1500TIP3    H1 4457   7.096   0.617   4.914  0.0679  2.0580  0.9959
 1500TIP3    H2 4458   6.988   0.595   5.018 -0.0732 -0.6665  0.3385
 1501TIP3   OH2 4459   0.428   2.149   0.566  0.3889 -0.3808  0.0354
 1501TIP3    H1 4460   0.374   2.160   0.487  1.5664  1.4408 -0.5745
 1501TIP3    H2 4461   0.438   2.054   0.575 -2.5135 -0.8021 -0.0439
 1502TIP3   OH2 4462   5.889   4.679   1.402 -0.9274  0.5618 -0.1970
 1502TIP3    H1 4463   5.895   4.603   1.345 -0.9099  0.1888  0.2958
 1502TIP3    H2 4464   5.980   4.706   1.417 -0.9764  1.5904 -1.5579
 1503TIP3   OH2 4465   5.752   4.037   0.047  0.0971  0.1464  0.0807
 1503TIP3    H1 4466   5.844   4.037   0.020 -0.1503  1.0527 -0.8241
 1503TIP3    H2 4467   5.703   4.027  -0.035 -0.6145  0.1279  0.5021
 1504TIP3   OH2 4468   4.449   4.582   5.822  0.2238  0.4832  0.7613
 1504TIP3    H1 4469   4.496   4.499   5.832  0.2339  0.3346 -0.3786
 1504TIP3    H2 4470   4.462   4.606   5.730 -2.0329  0.3623  0.3365
 1505TIP3   OH2 4471   3.281   2.376   1.195  0.7370  0.0466  0.3141
 1505TIP3    H1 4472   3.312   2.387   1.285  0.8904 -1.2540  0.4294
 1505TIP3    H2 4473   3.306   2.458   1.152 -1.0793  1.5143  1.9094
 1506TIP3   OH2 4474   7.161   0.684   2.255  0.3147  0.0015 -0.7060
 1506TIP3    H1 4475   7.108   0.666   2.177 -1.1232  1.0868 -0.0161
 1506TIP3    H2 4476   7.248   0.702   2.221 -0.0724 -0.4562 -1.9905
 1507TIP3   OH2 4477   1.036   6.508   6.132 -0.2826 -0.1259  0.3363
 1507TIP3    H1 4478   1.022   6.590   6.178  1.2256  0.0421  0.5605
 1507TIP3    H2 4479   1.122   6.478   6.162 -0.1859 -1.0676 -0.8003
 1508TIP3   OH2 4480   1.823   2.436   3.180  0.4899 -0.2955 -0.0170
 1508TIP3    H1 4481   1.767   2.468   3.250  0.1863 -1.5727  0.3483
 1508TIP3    H2 4482   1.903   2.406   3.224  0.4534 -0.7589 -0.2592
 1509TIP3   OH2 4483   2.851   7.702   2.113 -0.4559 -0.5108 -0.1116
 1509TIP3    H1 4484   2.946   7.699   2.102 -0.4635  0.7997 -0.7478
 1509TIP3    H2 4485   2.832   7.635   2.179  0.9545 -0.4679  0.3639
 1510TIP3   OH2 4486   7.351   0.303   0.350  0.3707 -0.7358 -0.0161
 1510TIP3    H1 4487   7.256   0.316   0.344  0.1929 -1.8929  0.1770
 1510TIP3    H2 4488   7.374   0.333   0.438  0.2661  0.0011 -0.2348
 1511TIP3   OH2 4489   6.121   5.985   0.852  0.0329  0.3573 -0.3888
 1511TIP3    H1 4490   6.134   5.892   0.838  0.9112  0.2386  1.0739
 1511TIP3    H2 4491   6.194   6.013   0.907 -0.6814  1.7271 -0.0628
 1512TIP3   OH2 4492   6.614   7.300   5.715  0.3090 -0.2569  0.6255
 1512TIP3    H1 4493   6.593   7.218   5.669 -2.1073  1.4185 -1.5873
 1512TIP3    H2 4494   6.693   7.281   5.764  0.9047 -3.3728 -1.2754
 1513TIP3   OH2 4495   3.482   2.757   4.942 -0.4819 -0.6441  0.1763
 1513TIP3    H1 4496   3.468   2.756   5.037  1.4350 -1.1123  0.4963
 1513TIP3    H2 4497   3.449   2.843   4.914  1.1827  0.5608  1.6850
 1514TIP3   OH2 4498   0.642   1.786   6.156  0.2504 -0.0806  0.2257
 1514TIP3    H1 4499   0.561   1.760   6.199  0.5508 -0.9282  0.3008
 1514TIP3    H2 4500   0.641   1.737   6.073 -0.1601  1.2654 -0.5921
 1515TIP3   OH2 4501   5.989   3.959   5.228 -0.7470 -0.6884  0.6235
 1515TIP3    H1 4502   6.050   3.991   5.161 -0.5963 -3.2815 -0.6102
 1515TIP3    H2 4503   5.976   4.033   5.287 -0.1873  1.4500 -1.7831
 1516TIP3   OH2 4504   0.481   4.880   2.308 -0.1342  0.2097 -0.0778
 1516TIP3    H1 4505   0.566   4.865   2.267  0.0769  1.3834 -0.1075
 1516TIP3    H2 4506   0.435   4.939   2.248 -1.3266 -1.0941 -0.4939
 1517TIP3   OH2 4507   4.410   5.331   4.301  0.3312 -0.2788  0.0192
 1517TIP3    H1 4508   4.458   5.374   4.230 -0.2925  1.1784  0.4538
 1517TIP3    H2 4509   4.319   5.354   4.286  0.2485  0.4820  1.5849
 1518TIP3   OH2 4510   2.726   4.541   1.674 -0.2446  0.0127 -0.1826
 1518TIP3    H1 4511   2.659   4.523   1.740 -1.0990 -3.0785 -1.6965
 1518TIP3    H2 4512   2.676   4.573   1.598  0.2349 -0.2739 -0.6206
 1519TIP3   OH2 4513   6.045   6.504   5.425  0.1223 -0.1683  0.1911
 1519TIP3    H1 4514   6.053   6.547   5.510  1.8449 -2.2201  1.1377
 1519TIP3    H2 4515   6.114   6.439   5.424  1.8408  1.4071 -3.8210
 1520TIP3   OH2 4516   6.966   6.771   0.580  0.4141  0.1779 -0.6431
 1520TIP3    H1 4517   6.988   6.802   0.668 -2.8891  0.8109  0.0706
 1520TIP3    H2 4518   7.033   6.810   0.523  0.7429  2.4539  1.1795
 1521TIP3   OH2 4519   4.792   0.382   1.263  0.0384  0.4701  0.5013
 1521TIP3    H1 4520   4.780   0.290   1.241  0.2587  0.5180  0.1636
 1521TIP3    H2 4521   4.807   0.383   1.357 -0.0756  0.1728  0.5240
 1522TIP3   OH2 4522   6.919   5.386   5.136 -0.6750  0.8577  0.0289
 1522TIP3    H1 4523   6.835   5.355   5.172  0.2670  0.8292  2.3546
 1522TIP3    H2 4524   6.902   5.476   5.111 -1.5830  0.6387 -0.2012
 1523TIP3   OH2 4525   2.932   2.695   0.372 -0.5793 -0.3564 -0.5980
 1523TIP3    H1 4526   2.867   2.625   0.372 -0.6195 -0.3563 -2.2223
 1523TIP3    H2 4527   2.991   2.672   0.300  0.5063  0.2924  0.0605
 1524TIP3   OH2 4528   4.176   4.281   3.061 -0.0637 -0.5632 -0.1597
 1524TIP3    H1 4529   4.123   4.312   2.987  0.8713 -1.0029 -1.0470
 1524TIP3    H2 4530   4.174   4.353   3.123  0.7822  0.6859 -1.5110
 1525TIP3   OH2 4531   6.134   5.490   6.398  0.3025 -0.2029  0.3746
 1525TIP3    H1 4532   6.208   5.537   6.358 -0.2381  0.3412 -0.0039
 1525TIP3    H2 4533   6.059   5.511   6.342  0.0747 -1.7093  0.0584
 1526TIP3   OH2 4534   3.969   4.616   1.406 -0.5423 -0.0448  0.0570
 1526TIP3    H1 4535   4.038   4.624   1.471 -0.0155  0.3158 -0.5465
 1526TIP3    H2 4536   3.998   4.669   1.332  0.1760 -2.5355 -1.5890
 1527TIP3   OH2 4537   1.713   3.565   1.165 -0.4142 -0.3715 -0.0471
 1527TIP3    H1 4538   1.796   3.593   1.127  0.5482 -1.0817  1.4399
 1527TIP3    H2 4539   1.661   3.536   1.090 -0.3107  2.3404 -1.3020
 1528TIP3   OH2 4540   3.910   3.100   4.568  0.5425 -0.2429  0.2986
 1528TIP3    H1 4541   3.826   3.139   4.596  1.4071  3.5569 -1.7005
 1528TIP3    H2 4542   3.948   3.065   4.648 -1.8654  0.1434  1.7140
 1529TIP3   OH2 4543   5.072   0.846   6.010  0.2304 -0.0187 -0.2090
 1529TIP3    H1 4544   5.052   0.756   5.984  2.0656 -0.6360  0.4061
 1529TIP3    H2 4545   5.042   0.852   6.101  1.1214 -0.3587  0.1091
 1530TIP3   OH2 4546   8.067   7.557   2.767  0.0170  0.7709 -0.3586
 1530TIP3    H1 4547   8.130   7.533   2.699  1.1634 -0.9950  1.2335
 1530TIP3    H2 4548   8.023   7.634   2.732  0.0268 -0.4569 -3.4267
 1531TIP3   OH2 4549   1.147   4.082   4.136  0.0258 -0.5320 -0.3401
 1531TIP3    H1 4550   1.212   4.012   4.126  1.0490  0.5721 -1.6385
 1531TIP3    H2 4551   1.185   4.158   4.093 -0.8883  0.9903  1.3715
 1532TIP3   OH2 4552   2.495   5.760   3.885  0.0354 -0.4173 -0.4752
 1532TIP3    H1 4553   2.428   5.774   3.952 -0.0953  2.4823 -1.0905
 1532TIP3    H2 4554   2.460   5.688   3.832 -1.8974  0.0626  0.0643
 1533TIP3   OH2 4555   2.948   3.515   4.951 -0.5580  0.7553  0.1306
 1533TIP3    H1 4556   2.969   3.427   4.919 -1.3835  0.9926 -1.1373
 1533TIP3    H2 4557   3.031   3.549   4.985  0.4456  0.5287 -1.9338
 1534TIP3   OH2 4558   5.821   4.574   2.672  0.1858 -0.1131 -0.3250
 1534TIP3    H1 4559   5.809   4.505   2.607 -1.6908 -0.5203  0.3940
 1534TIP3    H2 4560   5.910   4.561   2.704  0.7065 -0.6854 -1.8847
 1535TIP3   OH2 4561   7.659   0.858   2.765 -0.3442 -0.1137 -0.1117
 1535TIP3    H1 4562   7.568   0.838   2.788 -0.5895  1.8194  0.7956
 1535TIP3    H2 4563   7.689   0.781   2.717 -1.4393 -2.1753  2.3102
 1536TIP3   OH2 4564   1.356   1.351   3.007  0.4026  0.1811 -0.4577
 1536TIP3    H1 4565   1.346   1.398   2.924  0.8775  0.6155 -0.2746
 1536TIP3    H2 4566   1.451   1.346   3.020  0.3184  1.1607  0.6415
 1537TIP3   OH2 4567   6.576   0.478   0.910 -0.3699  0.1822 -1.3313
 1537TIP3    H1 4568   6.648   0.418   0.929 -0.6876  0.1232 -0.2754
 1537TIP3    H2 4569   6.613   0.541   0.847  0.2219 -0.5874 -1.7748
 1538TIP3   OH2 4570   2.870   6.217   3.024  0.9823 -0.4448 -0.4179
 1538TIP3    H1 4571   2.921   6.216   3.106  2.4814 -1.7183 -1.2971
 1538TIP3    H2 4572   2.934   6.243   2.957 -0.0117 -0.2397 -1.3076
 1539TIP3   OH2 4573   5.725   2.730   5.248  0.0018  0.0676  0.4492
 1539TIP3    H1 4574   5.732   2.740   5.343  0.0352 -1.6937  0.6698
 1539TIP3    H2 4575   5.792   2.665   5.226  1.4270  1.9686 -1.1135
 1540TIP3   OH2 4576   7.245   6.686   6.455  0.2048  0.2384  0.3469
 1540TIP3    H1 4577   7.289   6.612   6.414 -1.9883 -0.8646 -0.1730
 1540TIP3    H2 4578   7.313   6.753   6.463  1.7643 -1.0880 -1.0192
 1541TIP3   OH2 4579   1.872   3.905   2.706 -0.2118  0.1063 -0.1427
 1541TIP3    H1 4580   1.796   3.962   2.719 -1.8563 -1.9482 -0.1908
 1541TIP3    H2 4581   1.928   3.954   2.647 -1.8984  1.3696 -0.7915
 1542TIP3   OH2 4582   6.672   3.293   2.559  0.0461  0.6683  0.8203
 1542TIP3    H1 4583   6.602   3.264   2.618  0.5257 -0.6387  0.7826
 1542TIP3    H2 4584   6.746   3.310   2.617  0.5717 -0.7897  0.6078
 1543TIP3   OH2 4585   3.061   4.337   5.074  0.3961 -0.2592 -0.5918
 1543TIP3    H1 4586   3.051   4.412   5.133  1.6766  0.1667 -0.8863
 1543TIP3    H2 4587   3.118   4.276   5.122  1.7939  0.2744 -1.5175
 1544TIP3   OH2 4588   6.391   3.777   4.692  0.2219  0.1642  0.4350
 1544TIP3    H1 4589   6.424   3.793   4.604 -0.0031 -0.4666  0.2316
 1544TIP3    H2 4590   6.297   3.793   4.686  0.3851  1.4606  0.8932
 1545TIP3   OH2 4591   8.158   1.752   5.885  0.8718  0.1713  0.6052
 1545TIP3    H1 4592   8.155   1.846   5.902  0.7059  0.1366  0.7726
 1545TIP3    H2 4593   8.188   1.744   5.795  1.4223  0.3734  0.7692
 1546TIP3   OH2 4594   0.819   6.245   6.472  0.8173 -0.0935  0.2818
 1546TIP3    H1 4595   0.797   6.163   6.429  0.9741  0.1104 -0.1916
 1546TIP3    H2 4596   0.913   6.256   6.457  0.9719 -0.2537  1.0797
 1547TIP3   OH2 4597   0.852   7.328   2.682 -0.2691 -0.3183 -0.5414
 1547TIP3    H1 4598   0.832   7.302   2.772  0.9320 -1.7803 -0.6518
 1547TIP3    H2 4599   0.934   7.282   2.662  0.1779  1.0164 -1.9394
 1548TIP3   OH2 4600   8.165   5.936   1.796  0.8630  0.6931  0.2523
 1548TIP3    H1 4601   8.181   5.847   1.828 -0.5190  0.1097 -0.5739
 1548TIP3    H2 4602   8.153   5.925   1.702 -1.4542  1.3924  0.3997
 1549TIP3   OH2 4603   6.741   0.428   0.467  0.4269  0.2158 -0.5817
 1549TIP3    H1 4604   6.650   0.434   0.438 -0.3591 -0.1228  1.6487
 1549TIP3    H2 4605   6.755   0.336   0.488  0.7338  0.5152  0.6580
 1550TIP3   OH2 4606   0.003   1.048   1.883 -0.4425  0.8672 -0.0699
 1550TIP3    H1 4607   0.045   1.126   1.921  1.0079  0.8566 -1.5004
 1550TIP3    H2 4608   0.035   0.975   1.936  0.5162  0.9809 -0.4661
 1551TIP3   OH2 4609   6.154   3.635   3.858 -0.1038  0.0140  0.3685
 1551TIP3    H1 4610   6.193   3.647   3.945 -0.3275 -4.1947  1.2514
 1551TIP3    H2 4611   6.064   3.667   3.869  0.0573  0.1593  1.4683
 1552TIP3   OH2 4612   1.352   0.192   1.523 -0.0655  0.3112  0.2725
 1552TIP3    H1 4613   1.303   0.267   1.558 -1.2422 -0.6991  0.8515
 1552TIP3    H2 4614   1.315   0.178   1.436 -0.7064 -0.3233  0.6308
 1553TIP3   OH2 4615   6.996   1.456   2.181 -0.8279  0.5837  0.0713
 1553TIP3    H1 4616   7.051   1.448   2.103 -0.8517  1.9090 -0.1042
 1553TIP3    H2 4617   7.018   1.379   2.234  2.1295  1.6368  0.5836
 1554TIP3   OH2 4618   4.942   1.064   2.753 -0.5159  0.2561 -0.0124
 1554TIP3    H1 4619   4.891   1.136   2.715 -1.4947 -0.7430 -0.6375
 1554TIP3    H2 4620   5.031   1.099   2.758 -1.1709  1.9024  0.7676
 1555TIP3   OH2 4621   6.124   0.265   4.284  0.4537  0.1160  0.5226
 1555TIP3    H1 4622   6.068   0.316   4.226 -0.0543 -0.8016  0.1834
 1555TIP3    H2 4623   6.196   0.324   4.306  0.1940  0.7705 -0.3383
 1556TIP3   OH2 4624   2.827   5.337   5.038 -0.0337 -0.2738  0.2649
 1556TIP3    H1 4625   2.810   5.427   5.066 -1.5688 -0.4775  0.0451
 1556TIP3    H2 4626   2.816   5.339   4.943 -1.6189 -0.9847  0.3997
 1557TIP3   OH2 4627   3.261   2.245   1.974 -0.2981 -0.0228  0.2031
 1557TIP3    H1 4628   3.351   2.214   1.984  0.1608  1.0672 -0.4091
 1557TIP3    H2 4629   3.240   2.284   2.059  0.6165  1.7056 -0.3161
 1558TIP3   OH2 4630   0.705   7.816   4.494 -0.1242  0.4146 -0.3379
 1558TIP3    H1 4631   0.646   7.753   4.536  0.7922 -0.4476 -0.3048
 1558TIP3    H2 4632   0.771   7.762   4.451  1.2614  1.3586  0.5411
 1559TIP3   OH2 4633   7.015   7.386   4.059  0.2106 -0.2093  1.1028
 1559TIP3    H1 4634   7.035   7.426   4.144  1.4982 -0.1387  0.7814
 1559TIP3    H2 4635   7.094   7.400   4.007 -0.7759  0.2443 -0.3057
 1560TIP3   OH2 4636   1.328   5.036   1.226  0.1483  0.3643 -0.0792
 1560TIP3    H1 4637   1.311   5.121   1.266 -0.8423 -0.4690  1.4099
 1560TIP3    H2 4638   1.242   4.993   1.223  0.8465 -1.1992  0.7667
 1561TIP3   OH2 4639   1.290   0.828   6.037 -0.1925  0.1636 -0.2396
 1561TIP3    H1 4640   1.341   0.889   6.090  0.1297  0.2936 -0.7005
 1561TIP3    H2 4641   1.210   0.876   6.016 -0.8904 -0.3261  1.1658
 1562TIP3   OH2 4642   0.967   3.597   5.785 -0.2459  0.2408 -0.8027
 1562TIP3    H1 4643   1.006   3.550   5.711  1.0451 -0.7499  0.4506
 1562TIP3    H2 4644   1.038   3.603   5.850 -1.5330  0.4637  0.6333
 1563TIP3   OH2 4645   4.441   1.822   0.751 -0.3643 -0.4890 -0.0735
 1563TIP3    H1 4646   4.533   1.830   0.778 -0.1411  0.6460 -1.0612
 1563TIP3    H2 4647   4.398   1.781   0.826  0.9261 -0.9601  0.4467
 1564TIP3   OH2 4648   6.804   3.520   2.787 -0.7666  0.3281 -0.3756
 1564TIP3    H1 4649   6.867   3.524   2.715  0.0518  1.4205  0.3576
 1564TIP3    H2 4650   6.846   3.464   2.852 -1.9486 -1.4992 -1.1106
 1565TIP3   OH2 4651   4.250   7.076   0.236  0.0711  0.2242 -0.1556
 1565TIP3    H1 4652   4.253   7.154   0.181 -0.3284  0.1990 -0.2169
 1565TIP3    H2 4653   4.329   7.027   0.213  0.0449  0.3445 -0.5084
 1566TIP3   OH2 4654   5.878   6.343   6.560 -0.0138  0.0619 -0.2490
 1566TIP3    H1 4655   5.933   6.420   6.562 -1.2356  0.9546  1.7118
 1566TIP3    H2 4656   5.791   6.376   6.535 -0.4202 -0.7424  0.0521
 1567TIP3   OH2 4657   0.884   2.419   2.744  0.2517  1.0112 -0.0443
 1567TIP3    H1 4658   0.930   2.351   2.794 -0.1835  0.1055 -0.8313
 1567TIP3    H2 4659   0.928   2.500   2.768  0.1008  0.6030  1.7298
 1568TIP3   OH2 4660   2.148   0.249   0.496 -0.8585 -0.0049  0.0162
 1568TIP3    H1 4661   2.184   0.313   0.558 -0.9807  0.3912 -0.3185
 1568TIP3    H2 4662   2.225   0.208   0.457 -0.7795 -0.5691  0.7455
 1569TIP3   OH2 4663   5.405   1.901   5.883 -0.9215 -0.6575  0.1538
 1569TIP3    H1 4664   5.399   1.835   5.814  0.8743  0.0951 -0.7932
 1569TIP3    H2 4665   5.391   1.984   5.837  1.2300 -0.0702  0.4478
 1570TIP3   OH2 4666   6.528   7.032   5.255  0.0137  0.6822  0.4977
 1570TIP3    H1 4667   6.467   7.066   5.190 -0.2035 -0.2884  0.1711
 1570TIP3    H2 4668   6.612   7.028   5.209 -0.0655  0.3242  0.3814
 1571TIP3   OH2 4669   5.403   6.409   1.044 -0.4608  0.3512 -0.1513
 1571TIP3    H1 4670   5.478   6.391   0.988 -0.8304 -0.7145 -0.3185
 1571TIP3    H2 4671   5.432   6.386   1.132 -1.2179 -2.0848 -0.4751
 1572TIP3   OH2 4672   5.917   1.173   3.489  0.6128 -0.3965 -0.4802
 1572TIP3    H1 4673   5.870   1.102   3.533  1.9522 -0.8548  0.2600
 1572TIP3    H2 4674   5.928   1.240   3.557  0.4267  0.0115 -0.8444
 1573TIP3   OH2 4675   0.718   5.796   1.661  0.0860 -0.0353 -0.3343
 1573TIP3    H1 4676   0.629   5.828   1.674  0.0141 -0.7333  1.0184
 1573TIP3    H2 4677   0.753   5.850   1.590 -2.2020 -1.3027 -2.5721
 1574TIP3   OH2 4678   0.624   4.711   1.633 -0.5644  0.0868  0.0813
 1574TIP3    H1 4679   0.663   4.707   1.546  1.1471  0.7494  0.7649
 1574TIP3    H2 4680   0.568   4.634   1.638 -0.8302  0.1220 -1.6451
 1575TIP3   OH2 4681   4.303   3.527   5.914 -0.7108 -0.5011 -0.2621
 1575TIP3    H1 4682   4.243   3.459   5.884  0.8355 -1.6966 -0.8215
 1575TIP3    H2 4683   4.265   3.558   5.996 -2.2717 -0.9341 -0.7808
 1576TIP3   OH2 4684   2.374   6.921   5.636 -0.3350  0.3452 -0.5020
 1576TIP3    H1 4685   2.358   6.841   5.685  0.2104 -0.0772 -1.0081
 1576TIP3    H2 4686   2.301   6.927   5.574  0.2551 -0.4034 -1.2877
 1577TIP3   OH2 4687   4.342   1.649   2.291 -0.0451  0.4532 -0.0066
 1577TIP3    H1 4688   4.405   1.672   2.223 -0.2533  1.1735  0.0429
 1577TIP3    H2 4689   4.395   1.637   2.370  0.1205  0.2409 -0.1478
 1578TIP3   OH2 4690   0.945   6.191   3.688  0.4420 -0.1045  0.2069
 1578TIP3    H1 4691   0.898   6.145   3.758  0.3199  0.1049  0.2628
 1578TIP3    H2 4692   0.877   6.221   3.628  0.3739  1.3433  0.9653
 1579TIP3   OH2 4693   7.744   5.526   5.536  0.1759 -0.6042 -0.0886
 1579TIP3    H1 4694   7.777   5.514   5.625 -1.6904 -1.9688  0.4715
 1579TIP3    H2 4695   7.792   5.461   5.485  2.0615  0.9142 -0.3773
 1580TIP3   OH2 4696   6.362   4.490   1.871 -0.5004 -0.1780 -0.7534
 1580TIP3    H1 4697   6.412   4.554   1.921  0.0995 -0.9868 -0.2927
 1580TIP3    H2 4698   6.272   4.500   1.902  0.1389 -2.0358  2.0760
 1581TIP3   OH2 4699   5.009   2.189   0.477 -0.0211  0.7217  0.1935
 1581TIP3    H1 4700   5.011   2.095   0.459 -0.3729  0.9456 -1.2161
 1581TIP3    H2 4701   4.944   2.199   0.547 -0.5604 -0.0253 -0.1823
 1582TIP3   OH2 4702   2.409   6.390   2.277  0.2308 -0.0998  0.1716
 1582TIP3    H1 4703   2.392   6.375   2.370 -1.2800 -0.5187 -0.1386
 1582TIP3    H2 4704   2.480   6.453   2.275  0.4557 -0.2774  1.6122
 1583TIP3   OH2 4705   1.455   2.080   2.020 -0.1274 -0.2047  0.3388
 1583TIP3    H1 4706   1.454   2.175   2.005  0.3648  0.0494  1.7309
 1583TIP3    H2 4707   1.416   2.043   1.941 -1.8221  1.2574  0.4109
 1584TIP3   OH2 4708   1.706   2.193   5.337  0.7219  0.2279 -0.3337
 1584TIP3    H1 4709   1.733   2.259   5.272 -2.5467  2.3771  0.2382
 1584TIP3    H2 4710   1.675   2.119   5.284  1.2694  0.5285 -1.1003
 1585TIP3   OH2 4711   7.848   1.757   0.140  0.0484  0.1967 -0.4122
 1585TIP3    H1 4712   7.769   1.783   0.093  0.3622  2.0053 -0.0291
 1585TIP3    H2 4713   7.851   1.662   0.132 -1.8008  0.1470 -0.9933
 1586TIP3   OH2 4714   4.156   5.649   2.412  0.1702 -0.0310 -0.2546
 1586TIP3    H1 4715   4.181   5.653   2.504  0.4393 -2.0478 -0.2071
 1586TIP3    H2 4716   4.060   5.638   2.413  0.1522  0.1313 -0.2219
 1587TIP3   OH2 4717   4.844   3.578   4.537  0.5928  0.0088 -0.0932
 1587TIP3    H1 4718   4.864   3.669   4.516  0.0915  0.4345  1.1383
 1587TIP3    H2 4719   4.929   3.533   4.535  1.2009  1.0122  1.5117
 1588TIP3   OH2 4720   1.836   6.506   6.298 -0.1175  0.7190  0.5079
 1588TIP3    H1 4721   1.800   6.531   6.382  1.7674  2.7040  0.8353
 1588TIP3    H2 4722   1.857   6.413   6.307 -0.0916  0.8584  2.1828
 1589TIP3   OH2 4723   5.796   0.206   6.626 -0.2787  0.0046  0.2221
 1589TIP3    H1 4724   5.752   0.122   6.610 -0.4430  0.3621 -1.3524
 1589TIP3    H2 4725   5.888   0.189   6.605 -0.0745 -0.0947  1.1396
 1590TIP3   OH2 4726   2.799   1.050   2.841 -0.6082 -0.2229  0.4582
 1590TIP3    H1 4727   2.783   1.091   2.756  0.3705 -2.6109 -0.9803
 1590TIP3    H2 4728   2.716   1.007   2.862 -1.2426  1.3794  1.3640
 1591TIP3   OH2 4729   5.429   7.228   1.676  0.4358 -0.3795 -0.2879
 1591TIP3    H1 4730   5.503   7.184   1.718 -0.2137 -0.0617  1.2701
 1591TIP3    H2 4731   5.395   7.288   1.743 -0.8000 -0.0004 -1.2035
 1592TIP3   OH2 4732   2.023   2.996   3.224  0.1960 -0.1971  0.2185
 1592TIP3    H1 4733   2.086   2.978   3.153  0.3321  1.1596 -0.0387
 1592TIP3    H2 4734   1.940   3.011   3.178 -0.1157 -1.0420  0.4903
 1593TIP3   OH2 4735   6.041   5.416   4.911  0.1226 -0.4859 -0.2631
 1593TIP3    H1 4736   5.987   5.339   4.895  1.3727 -1.1427 -1.4492
 1593TIP3    H2 4737   6.124   5.381   4.942  0.1049  0.4877  0.9613
 1594TIP3   OH2 4738   4.959   1.220   3.591  0.5006  0.0621 -0.5438
 1594TIP3    H1 4739   4.961   1.240   3.685 -0.4547 -0.9185 -0.2966
 1594TIP3    H2 4740   4.881   1.166   3.579  0.4635  0.3820 -1.9571
 1595TIP3   OH2 4741   5.874   0.483   6.766  0.6830  0.4763 -0.1358
 1595TIP3    H1 4742   5.949   0.452   6.715  0.2301  0.2449 -0.6744
 1595TIP3    H2 4743   5.799   0.433   6.732  0.6664 -1.1356  2.1080
 1596TIP3   OH2 4744   2.123   5.107   2.999  0.8107 -0.3201 -0.0016
 1596TIP3    H1 4745   2.146   5.199   2.989 -1.5343  0.3022 -0.3001
 1596TIP3    H2 4746   2.030   5.108   3.022  0.6971 -2.6265 -0.1203
 1597TIP3   OH2 4747   5.373   0.586   6.116 -0.2863 -0.1429  0.5578
 1597TIP3    H1 4748   5.426   0.574   6.036 -2.1577  0.5585 -0.8648
 1597TIP3    H2 4749   5.293   0.630   6.085 -1.8461 -1.4241  2.5618
 1598TIP3   OH2 4750   1.450   2.680   3.829 -0.2542  0.3884 -0.2687
 1598TIP3    H1 4751   1.487   2.739   3.894 -1.5243 -0.5682  1.3980
 1598TIP3    H2 4752   1.525   2.627   3.800  0.0404 -0.4887  1.8914
 1599TIP3   OH2 4753   2.438   5.597   6.177  0.7455  0.7366 -0.1900
 1599TIP3    H1 4754   2.362   5.549   6.143  0.5646 -0.2869  1.5489
 1599TIP3    H2 4755   2.513   5.548   6.143  0.7083  2.0199 -2.3012
 1600TIP3   OH2 4756   2.175   7.387   5.207  0.1390  0.2835  0.4209
 1600TIP3    H1 4757   2.234   7.324   5.250  2.5239  0.5882 -2.1067
 1600TIP3    H2 4758   2.112   7.333   5.160  2.3333 -0.4138 -1.9628
 1601TIP3   OH2 4759   4.289   1.563   5.140 -0.0603 -0.2336 -0.0974
 1601TIP3    H1 4760   4.363   1.506   5.119 -0.3893 -1.6099  2.1736
 1601TIP3    H2 4761   4.283   1.622   5.065  1.5753 -1.8615 -1.6190
 1602TIP3   OH2 4762   0.521   3.713   6.562 -0.0271  0.1643 -0.1310
 1602TIP3    H1 4763   0.591   3.769   6.528 -0.0071  0.3437  0.2029
 1602TIP3    H2 4764   0.472   3.687   6.485 -0.3638  1.0883 -0.2372
 1603TIP3   OH2 4765   3.540   6.430   4.115  0.0202  0.3028 -0.3359
 1603TIP3    H1 4766   3.571   6.380   4.191 -0.3156  0.0034 -0.3958
 1603TIP3    H2 4767   3.595   6.508   4.115 -0.3846  0.6103  0.5932
 1604TIP3   OH2 4768   0.424   1.153   2.665 -0.1056  0.2299  0.4573
 1604TIP3    H1 4769   0.443   1.246   2.682  0.0048  0.7294 -1.9737
 1604TIP3    H2 4770   0.509   1.110   2.673  0.4789  0.9182 -1.4581
 1605TIP3   OH2 4771   3.928   6.534   2.100  0.2861 -0.8796 -0.6631
 1605TIP3    H1 4772   3.848   6.587   2.100 -0.1841 -1.4261  2.1194
 1605TIP3    H2 4773   3.975   6.560   2.021 -1.2186  1.6649 -0.7992
 1606TIP3   OH2 4774   7.982   1.740   0.897 -0.0332 -0.0590 -0.4115
 1606TIP3    H1 4775   8.045   1.746   0.825  0.3546  0.9889 -0.0013
 1606TIP3    H2 4776   7.927   1.817   0.887 -1.4519 -1.0976 -0.9146
 1607TIP3   OH2 4777   1.194  -0.013   3.912 -0.1945  0.0666  0.3713
 1607TIP3    H1 4778   1.272  -0.038   3.961 -0.5707  0.1080  0.9911
 1607TIP3    H2 4779   1.158   0.061   3.960 -0.6631 -0.0019  0.1278
 1608TIP3   OH2 4780   5.697   7.039   3.871 -0.3421 -0.5378  0.1765
 1608TIP3    H1 4781   5.761   7.052   3.801 -2.5751 -1.0546 -2.1063
 1608TIP3    H2 4782   5.726   6.959   3.915  1.2280 -0.0800  0.0636
 1609TIP3   OH2 4783   3.472   7.043   3.736  0.0301 -0.0615  0.3572
 1609TIP3    H1 4784   3.452   6.951   3.719 -1.8187  0.5135 -0.8684
 1609TIP3    H2 4785   3.390   7.089   3.717  1.9898  2.3292 -3.5070
 1610TIP3   OH2 4786   6.797   6.594   1.815 -0.7960  0.1173  0.1249
 1610TIP3    H1 4787   6.739   6.556   1.880 -0.0426 -4.5062 -1.5691
 1610TIP3    H2 4788   6.749   6.589   1.732  0.0694  1.2162 -0.4814
 1611TIP3   OH2 4789   8.226   7.031   4.537 -0.0395  0.1395 -1.0100
 1611TIP3    H1 4790   8.201   7.119   4.564 -1.2600 -0.0652 -1.4199
 1611TIP3    H2 4791   8.276   7.045   4.456 -1.8798  0.3898 -2.1779
 1612TIP3   OH2 4792   5.652   2.137   0.518  0.2469 -0.3130  0.6801
 1612TIP3    H1 4793   5.668   2.227   0.546 -1.0809  0.4892 -0.9213
 1612TIP3    H2 4794   5.705   2.083   0.577  1.5342  1.5363  1.2927
 1613TIP3   OH2 4795   2.340   4.063   2.537 -0.3574  0.0803 -0.1168
 1613TIP3    H1 4796   2.353   3.982   2.586 -3.2797 -0.2297  0.3146
 1613TIP3    H2 4797   2.342   4.036   2.445 -2.1007 -0.6971  0.0315
 1614TIP3   OH2 4798   7.773   7.164   3.098 -0.8414  0.2721  0.7020
 1614TIP3    H1 4799   7.813   7.248   3.078  0.4238 -0.7052 -1.1827
 1614TIP3    H2 4800   7.768   7.162   3.194  1.8345  1.3045  0.9443
 1615TIP3   OH2 4801   5.078   4.085   4.530  0.1962  0.2050 -0.2901
 1615TIP3    H1 4802   5.004   4.145   4.534  0.7332  0.7796  1.4921
 1615TIP3    H2 4803   5.138   4.125   4.466 -1.7527 -1.2014 -3.2092
 1616TIP3   OH2 4804   1.335   2.041   1.791 -0.4706 -0.1629 -0.0889
 1616TIP3    H1 4805   1.396   2.065   1.721  0.1014  0.6653  0.6623
 1616TIP3    H2 4806   1.248   2.057   1.754 -0.1414  1.6693 -0.1464
 1617TIP3   OH2 4807   7.894   6.695   5.702 -0.1556 -0.1275 -0.3011
 1617TIP3    H1 4808   7.946   6.623   5.738  0.5823  0.1564 -0.7866
 1617TIP3    H2 4809   7.803   6.665   5.710 -0.1039  0.1895  2.4149
 1618TIP3   OH2 4810   6.563   4.494   4.974 -0.3465  0.0504  0.3327
 1618TIP3    H1 4811   6.482   4.544   4.961 -1.3058 -1.5348 -0.1179
 1618TIP3    H2 4812   6.535   4.403   4.969  1.4620 -0.5375  0.3904
 1619TIP3   OH2 4813   0.907   1.743   1.410  0.3152 -0.1105  0.1147
 1619TIP3    H1 4814   0.813   1.744   1.428 -0.0735  1.6881 -1.5948
 1619TIP3    H2 4815   0.949   1.732   1.495 -1.4478 -1.4330  0.8395
 1620TIP3   OH2 4816   8.193   0.639   1.071 -0.9933 -0.2076 -0.0013
 1620TIP3    H1 4817   8.264   0.701   1.088 -0.1149 -1.1971  0.0488
 1620TIP3    H2 4818   8.205   0.614   0.979  0.2833 -2.2403  0.6512
 1621TIP3   OH2 4819   4.502   6.097   3.989 -0.6399  0.2757 -0.5176
 1621TIP3    H1 4820   4.459   6.089   4.073  0.2904  1.4376  0.1052
 1621TIP3    H2 4821   4.594   6.079   4.008 -0.3711  0.8578 -1.2016
 1622TIP3   OH2 4822   6.086   0.211   3.927  0.0547  0.4914  0.4672
 1622TIP3    H1 4823   6.166   0.161   3.908 -0.1652  0.4476 -0.3995
 1622TIP3    H2 4824   6.017   0.145   3.925 -0.1286  0.6944  0.2102
 1623TIP3   OH2 4825   0.750   4.250   4.017  0.2076  0.0117  0.3078
 1623TIP3    H1 4826   0.736   4.166   4.060 -0.0320  0.7120  1.6356
 1623TIP3    H2 4827   0.725   4.235   3.926  0.2599 -1.3702  0.5074
 1624TIP3   OH2 4828   1.198   3.371   2.099 -0.1959 -0.3954  0.2012
 1624TIP3    H1 4829   1.154   3.391   2.181 -2.5142 -0.7524 -0.8753
 1624TIP3    H2 4830   1.269   3.435   2.093 -0.9357  0.6256  1.7408
 1625TIP3   OH2 4831   7.230   6.582   2.151 -0.3047 -0.4024  0.0581
 1625TIP3    H1 4832   7.294   6.615   2.214 -0.0482 -0.2008 -0.3117
 1625TIP3    H2 4833   7.278   6.575   2.069 -0.3705 -1.6280  0.1098
 1626TIP3   OH2 4834   5.588   2.494   5.225  0.1317  0.2042  0.0826
 1626TIP3    H1 4835   5.593   2.455   5.138  1.0290  0.1580  0.1464
 1626TIP3    H2 4836   5.649   2.568   5.222  0.1182  0.2445  0.6423
 1627TIP3   OH2 4837   5.888   2.521   5.229  0.1108  0.2750  0.1705
 1627TIP3    H1 4838   5.965   2.544   5.176  0.1912 -0.9580 -0.2733
 1627TIP3    H2 4839   5.911   2.437   5.269 -0.6035  0.3989  0.8557
 1628TIP3   OH2 4840   6.492   0.141   0.442  0.2594 -0.0052  0.0343
 1628TIP3    H1 4841   6.412   0.134   0.493 -0.2068  0.6111 -0.5942
 1628TIP3    H2 4842   6.552   0.079   0.483 -0.9578 -1.4335 -0.2837
 1629TIP3   OH2 4843   2.773   1.664   2.495 -0.5798  0.2103 -0.2616
 1629TIP3    H1 4844   2.740   1.741   2.543 -1.1395  0.3829 -0.9008
 1629TIP3    H2 4845   2.865   1.658   2.519 -0.2942  1.6355 -0.8987
 1630TIP3   OH2 4846   3.052   6.351   2.372 -0.7917 -0.1422  0.0516
 1630TIP3    H1 4847   3.003   6.278   2.335  1.1938 -2.9630  2.5406
 1630TIP3    H2 4848   3.127   6.363   2.314 -0.1224 -1.4483  0.6047
 1631TIP3   OH2 4849   0.344   2.852   1.825 -0.0893 -0.7079 -0.1022
 1631TIP3    H1 4850   0.311   2.940   1.844 -2.3005 -1.3437 -0.6409
 1631TIP3    H2 4851   0.369   2.816   1.910 -1.5704 -0.4238  0.4811
 1632TIP3   OH2 4852   3.918   3.412   5.056  0.3430  0.8940  0.1953
 1632TIP3    H1 4853   3.876   3.327   5.072 -0.9802  1.1789 -1.4402
 1632TIP3    H2 4854   3.878   3.471   5.120  1.0221  0.3828  1.1178
 1633TIP3   OH2 4855   4.018   2.506   5.163  0.3051 -0.2752  0.1251
 1633TIP3    H1 4856   4.060   2.465   5.088 -0.1448 -1.7593  0.6396
 1633TIP3    H2 4857   3.932   2.533   5.131  0.3710 -0.2939 -0.0653
 1634TIP3   OH2 4858   5.112   2.212   1.767 -0.1289 -0.8172  0.6995
 1634TIP3    H1 4859   5.023   2.217   1.803  0.0050  0.0505  0.9493
 1634TIP3    H2 4860   5.100   2.195   1.674 -0.6624  1.4821  0.2863
 1635TIP3   OH2 4861   6.035   6.524   1.459  0.4188 -0.5036 -0.7099
 1635TIP3    H1 4862   5.969   6.589   1.483  0.2239 -0.7452 -0.5749
 1635TIP3    H2 4863   6.041   6.467   1.536 -0.8145 -1.7804 -1.5134
 1636TIP3   OH2 4864   3.230   2.966   5.712  0.2102  0.4759 -0.3171
 1636TIP3    H1 4865   3.136   2.977   5.724  0.3833  1.5977  0.1508
 1636TIP3    H2 4866   3.270   3.026   5.775  1.2477 -0.2730 -0.2349
 1637TIP3   OH2 4867   2.931   0.997   3.308 -0.0969  0.9504  0.0940
 1637TIP3    H1 4868   2.841   1.012   3.338 -0.4641  0.1151 -0.5320
 1637TIP3    H2 4869   2.935   0.903   3.292  0.8038  1.0233 -0.1726
 1638TIP3   OH2 4870   0.622   4.050   4.744 -0.3895 -0.9129  0.1614
 1638TIP3    H1 4871   0.552   4.020   4.804 -2.3354  0.6366 -1.2093
 1638TIP3    H2 4872   0.576   4.100   4.677  1.8563 -1.5193 -1.9662
 1639TIP3   OH2 4873   2.279   5.082   2.679 -0.3133  0.3717  1.2249
 1639TIP3    H1 4874   2.225   5.020   2.729 -2.3209  1.1935  0.1852
 1639TIP3    H2 4875   2.230   5.164   2.682  1.1687  1.3097  0.6587
 1640TIP3   OH2 4876   7.741   3.015   6.022  0.1435  0.8385 -0.7084
 1640TIP3    H1 4877   7.798   2.976   5.956 -0.4549  0.0973 -0.8003
 1640TIP3    H2 4878   7.784   2.996   6.106  1.4027  2.6110 -0.9010
 1641TIP3   OH2 4879   2.156   5.646   5.625  0.2800 -0.4678  0.4567
 1641TIP3    H1 4880   2.220   5.675   5.690 -0.3259  0.9561  0.4416
 1641TIP3    H2 4881   2.194   5.565   5.589  0.9744 -0.8737  2.0296
 1642TIP3   OH2 4882   4.756   3.576   1.004 -0.5689  0.2527  0.1381
 1642TIP3    H1 4883   4.824   3.515   0.975 -0.3523  0.0052  1.1262
 1642TIP3    H2 4884   4.677   3.523   1.010 -0.0450 -0.4064  2.6032
 1643TIP3   OH2 4885   6.292   6.393   4.879 -0.1021  0.2266 -0.4597
 1643TIP3    H1 4886   6.245   6.450   4.819  1.4377  1.3841 -0.6196
 1643TIP3    H2 4887   6.277   6.305   4.845  1.6857  0.8995 -3.3399
 1644TIP3   OH2 4888   4.342   5.607   6.076  0.1408  0.5852 -0.5999
 1644TIP3    H1 4889   4.284   5.565   6.140  0.6318 -1.5398 -1.4724
 1644TIP3    H2 4890   4.284   5.660   6.022 -1.0645 -1.4207 -1.4040
 1645TIP3   OH2 4891   1.456   1.884   6.589  0.1310  0.1022 -0.2257
 1645TIP3    H1 4892   1.541   1.864   6.627  0.0222 -0.2667 -0.1699
 1645TIP3    H2 4893   1.400   1.811   6.615 -1.0253  1.7647  2.3080
 1646TIP3   OH2 4894   0.675   1.655   2.184  0.0690  0.7279  0.2713
 1646TIP3    H1 4895   0.675   1.566   2.149 -4.5938  1.2054 -1.7171
 1646TIP3    H2 4896   0.643   1.645   2.274 -2.0089  0.3585 -0.4439
 1647TIP3   OH2 4897   6.132   3.857   1.615  0.5887 -0.4105 -0.0927
 1647TIP3    H1 4898   6.042   3.855   1.582  0.4683 -1.1472  0.2485
 1647TIP3    H2 4899   6.131   3.923   1.684  0.1266 -0.8997  0.3810
 1648TIP3   OH2 4900   0.985   2.805   2.698  0.6254 -0.0635 -0.5380
 1648TIP3    H1 4901   0.923   2.840   2.761  1.1236  0.9257 -0.5752
 1648TIP3    H2 4902   1.007   2.718   2.731 -0.6008 -0.3474 -0.4191
 1649TIP3   OH2 4903   8.202   4.456   4.865 -0.0358  0.3138  0.7584
 1649TIP3    H1 4904   8.248   4.394   4.808 -1.9454 -1.3356  0.8936
 1649TIP3    H2 4905   8.151   4.510   4.805  0.0992  0.4143  0.7358
 1650TIP3   OH2 4906   7.633   7.357   3.901 -0.0017 -0.6871 -0.2593
 1650TIP3    H1 4907   7.616   7.451   3.901 -1.9083 -0.9905 -0.2526
 1650TIP3    H2 4908   7.634   7.332   3.993  0.2059 -0.7165 -0.2696
 1651TIP3   OH2 4909   1.467   1.988   5.268  0.1704  0.1576  0.7339
 1651TIP3    H1 4910   1.395   2.051   5.275 -0.3561 -0.2708 -0.5875
 1651TIP3    H2 4911   1.433   1.908   5.309 -0.4426 -0.2928 -0.5836
 1652TIP3   OH2 4912   7.215   4.032   4.944  0.1656  0.3079 -0.2728
 1652TIP3    H1 4913   7.308   4.029   4.920  0.9179 -0.8750  2.3330
 1652TIP3    H2 4914   7.204   4.118   4.985 -0.0366  0.6667 -1.0771
 1653TIP3   OH2 4915   7.502   4.486   0.975 -0.5795 -0.2166  0.3604
 1653TIP3    H1 4916   7.461   4.424   0.916 -1.0155 -0.7785  1.2319
 1653TIP3    H2 4917   7.458   4.569   0.958 -1.3780 -0.5863  0.5576
 1654TIP3   OH2 4918   2.926   1.587   2.014 -0.4226  0.0607 -0.0655
 1654TIP3    H1 4919   2.870   1.535   2.072 -0.3757  1.2788  1.1183
 1654TIP3    H2 4920   2.897   1.677   2.027 -0.8444  0.3397 -2.4490
 1655TIP3   OH2 4921   4.028   6.037   6.359  0.5836 -0.5749  0.4214
 1655TIP3    H1 4922   3.953   5.991   6.323  0.3359 -1.1360  1.6122
 1655TIP3    H2 4923   4.075   5.971   6.410  1.8784 -0.2269 -0.2634
 1656TIP3   OH2 4924   2.218   3.929   6.585  0.1596  0.3210 -0.0740
 1656TIP3    H1 4925   2.163   4.000   6.552 -0.7766 -0.4314 -0.1790
 1656TIP3    H2 4926   2.301   3.939   6.539  0.0630  1.3887 -0.0300
 1657TIP3   OH2 4927   0.476   1.069   0.018  0.1315 -0.0189 -0.0382
 1657TIP3    H1 4928   0.483   1.012   0.094 -0.5405  0.4972  0.4157
 1657TIP3    H2 4929   0.382   1.076   0.001  0.1608  1.4109  0.2722
 1658TIP3   OH2 4930   7.201   3.452   3.429  0.2370  0.4609  0.2495
 1658TIP3    H1 4931   7.189   3.546   3.416 -1.7003  0.3560  0.9460
 1658TIP3    H2 4932   7.134   3.428   3.494  1.3345 -1.2283  0.8184
 1659TIP3   OH2 4933   8.183   5.237   0.350 -0.2262 -0.5311 -0.1489
 1659TIP3    H1 4934   8.139   5.297   0.290  1.4835  1.8334  0.8234
 1659TIP3    H2 4935   8.272   5.230   0.316  0.4647 -0.0223  1.4701
 1660TIP3   OH2 4936   0.263   1.967   2.115 -0.0539  1.0513  0.5163
 1660TIP3    H1 4937   0.212   1.901   2.162  1.4352 -0.7698 -0.2513
 1660TIP3    H2 4938   0.219   1.976   2.030  1.1087 -0.9860 -0.3922
 1661TIP3   OH2 4939   3.902   2.870   2.108 -0.5496 -0.2490 -0.3085
 1661TIP3    H1 4940   3.927   2.894   2.198 -2.0239 -0.3604  0.1527
 1661TIP3    H2 4941   3.821   2.919   2.092 -0.3229 -0.2664 -1.5755
 1662TIP3   OH2 4942   7.144   5.395   4.637  0.3175  0.2148  0.3122
 1662TIP3    H1 4943   7.091   5.352   4.705  2.2207  0.7762  2.2630
 1662TIP3    H2 4944   7.233   5.388   4.669  1.1720  1.5579 -1.6115
 1663TIP3   OH2 4945   3.711   0.568   2.123  0.2300 -0.1478 -0.1099
 1663TIP3    H1 4946   3.635   0.622   2.141  0.6548  0.2776  0.4703
 1663TIP3    H2 4947   3.769   0.583   2.198  0.6387 -0.8988 -0.2634
 1664TIP3   OH2 4948   4.937   0.833   5.672  0.0976 -0.6699 -0.0760
 1664TIP3    H1 4949   4.951   0.859   5.580 -0.9570 -1.6224 -0.5284
 1664TIP3    H2 4950   5.023   0.806   5.703  0.4442 -0.4415 -0.8129
 1665TIP3   OH2 4951   1.521   0.825   4.585 -0.2626  0.7801 -0.3270
 1665TIP3    H1 4952   1.434   0.826   4.545 -0.3460  0.5526 -0.1523
 1665TIP3    H2 4953   1.514   0.763   4.657  0.2754  0.0907 -0.8422
 1666TIP3   OH2 4954   7.470   5.983   3.968 -0.5401  0.2484 -0.0389
 1666TIP3    H1 4955   7.558   6.020   3.955  0.0903 -0.3913  2.0112
 1666TIP3    H2 4956   7.431   5.985   3.881  1.0142  1.7717 -0.7774
 1667TIP3   OH2 4957   6.764   0.542   6.169  0.5091 -0.5694 -0.4216
 1667TIP3    H1 4958   6.816   0.465   6.143  0.1263 -1.4767  1.3280
 1667TIP3    H2 4959   6.827   0.614   6.169  0.6075 -0.5495 -3.3499
 1668TIP3   OH2 4960   0.877   1.118   4.180 -0.0756 -0.3501  0.4927
 1668TIP3    H1 4961   0.854   1.049   4.117  0.2383  1.1468 -1.3553
 1668TIP3    H2 4962   0.963   1.092   4.213  0.0822 -0.8061 -0.2431
 1669TIP3   OH2 4963   5.312   7.290   0.286 -0.9220  0.3001  0.6909
 1669TIP3    H1 4964   5.268   7.214   0.323  1.3075 -1.7274 -0.5843
 1669TIP3    H2 4965   5.385   7.308   0.345 -2.4574  2.7317  2.0116
 1670TIP3   OH2 4966   2.038   6.729   3.756  0.0834 -0.2338  0.3617
 1670TIP3    H1 4967   2.060   6.724   3.663  0.7164  1.1010  0.4169
 1670TIP3    H2 4968   2.122   6.725   3.801  0.0341  1.8245  0.7230
 1671TIP3   OH2 4969   1.046   7.263   4.603 -0.3759 -0.0953  0.0828
 1671TIP3    H1 4970   1.057   7.336   4.542  0.1259  0.5193  0.8932
 1671TIP3    H2 4971   1.090   7.189   4.561 -0.0601  0.3135 -0.3076
 1672TIP3   OH2 4972   8.220   3.609   1.091 -0.4134  0.3347  0.2595
 1672TIP3    H1 4973   8.216   3.527   1.041 -2.7880 -0.0251  0.9411
 1672TIP3    H2 4974   8.290   3.659   1.048 -0.9274 -0.8028 -2.0885
 1673TIP3   OH2 4975   4.051   3.297   6.185  0.2778 -0.2772 -0.1174
 1673TIP3    H1 4976   3.960   3.316   6.205  0.6244 -0.5386  1.8737
 1673TIP3    H2 4977   4.061   3.204   6.203  0.8248 -0.3707 -0.8317
 1674TIP3   OH2 4978   3.392   5.009   0.558 -0.5253 -0.0725 -0.0225
 1674TIP3    H1 4979   3.333   5.075   0.521  0.6336  0.0858 -1.7489
 1674TIP3    H2 4980   3.411   4.951   0.484  1.9255  0.2625  0.2571
 1675TIP3   OH2 4981   2.587   3.949   3.618  0.1080 -0.4905  0.3402
 1675TIP3    H1 4982   2.517   3.897   3.658  0.7294 -0.9596  0.8248
 1675TIP3    H2 4983   2.577   4.036   3.656  0.6590 -0.9138  1.5057
 1676TIP3   OH2 4984   1.035   4.095   4.631 -0.2833  0.3495 -0.5885
 1676TIP3    H1 4985   1.104   4.101   4.697 -1.1440  0.7642  0.3081
 1676TIP3    H2 4986   0.976   4.168   4.652 -1.1816 -0.2159 -1.0948
 1677TIP3   OH2 4987   6.338   1.565   1.160 -0.0623 -0.0013  0.2078
 1677TIP3    H1 4988   6.405   1.625   1.195  0.7613 -1.3389  0.9980
 1677TIP3    H2 4989   6.387   1.487   1.134 -1.3515 -1.2179  1.2601
 1678TIP3   OH2 4990   4.903   7.715   2.525 -0.0249  0.2757 -0.0322
 1678TIP3    H1 4991   4.873   7.666   2.602 -0.6532  1.1022  0.2573
 1678TIP3    H2 4992   4.823   7.749   2.486  0.4212  1.2475 -0.1110
 1679TIP3   OH2 4993   7.638   7.490   1.255  0.2633 -0.3452  0.1842
 1679TIP3    H1 4994   7.631   7.470   1.348  0.2327 -1.0739  0.0283
 1679TIP3    H2 4995   7.725   7.458   1.230  0.1346 -0.4623 -0.1121
 1680TIP3   OH2 4996   6.503   5.603   5.007  0.6783  0.0573 -0.0618
 1680TIP3    H1 4997   6.419   5.617   4.964  1.3168  1.0177 -1.0364
 1680TIP3    H2 4998   6.560   5.568   4.939  1.3341  0.3417  0.3277
 1681TIP3   OH2 4999   4.969   6.787   0.784  0.5433 -0.0625 -0.1341
 1681TIP3    H1 5000   5.005   6.862   0.832  1.1378 -0.3936 -0.0522
 1681TIP3    H2 5001   4.902   6.824   0.727  0.7868  0.5213 -0.0416
 1682TIP3   OH2 5002   6.906   0.402   1.799 -0.1978  0.2258  0.1442
 1682TIP3    H1 5003   6.962   0.478   1.781 -2.6913  1.9506 -0.8289
 1682TIP3    H2 5004   6.876   0.415   1.889  0.1480 -0.1731  0.3232
 1683TIP3   OH2 5005   0.215   3.632   6.141 -0.1013  0.3446 -0.6320
 1683TIP3    H1 5006   0.212   3.569   6.069 -0.7878  2.4559 -2.5469
 1683TIP3    H2 5007   0.158   3.704   6.114  1.1824  2.1493  1.1242
 1684TIP3   OH2 5008   4.660   1.352   3.714  0.0573 -0.2443 -0.2528
 1684TIP3    H1 5009   4.735   1.386   3.665 -0.7274  0.7507 -0.7977
 1684TIP3    H2 5010   4.587   1.356   3.653 -1.0038  1.2501  1.0311
 1685TIP3   OH2 5011   0.854   4.277   4.711 -0.2100  0.2725  0.4881
 1685TIP3    H1 5012   0.788   4.209   4.702  0.4187 -0.1259 -1.7137
 1685TIP3    H2 5013   0.820   4.351   4.660  0.5259  0.4391  0.2160
 1686TIP3   OH2 5014   2.830   1.623   1.316 -0.0878 -0.3393  0.6061
 1686TIP3    H1 5015   2.918   1.619   1.277  0.6077  0.8457  1.9700
 1686TIP3    H2 5016   2.842   1.589   1.405 -1.1079 -0.5861  0.6583
 1687TIP3   OH2 5017   5.373   0.741   2.975 -0.4080  0.3485  1.0255
 1687TIP3    H1 5018   5.370   0.833   3.003  0.8880  0.9473 -0.6376
 1687TIP3    H2 5019   5.341   0.742   2.884  0.0641 -0.7674  0.8269
 1688TIP3   OH2 5020   1.430   1.661   2.188  0.7446 -0.0708  0.0272
 1688TIP3    H1 5021   1.465   1.709   2.113  1.3666 -0.4965  0.0303
 1688TIP3    H2 5022   1.472   1.703   2.264 -1.6097  1.8777  0.3750
 1689TIP3   OH2 5023   5.170   4.875   2.976  0.3847  0.3757  0.1332
 1689TIP3    H1 5024   5.191   4.839   2.890 -0.4440 -0.1996  0.1554
 1689TIP3    H2 5025   5.147   4.798   3.028 -0.6549  0.8657  0.4103
 1690TIP3   OH2 5026   2.959   1.786   4.414  0.2773  0.0285  0.1256
 1690TIP3    H1 5027   2.961   1.691   4.404 -0.6490 -0.1607  1.5112
 1690TIP3    H2 5028   2.873   1.805   4.452 -0.1913  1.5909 -1.5768
 1691TIP3   OH2 5029   0.677   0.606   6.455  0.5731 -0.1117 -0.1907
 1691TIP3    H1 5030   0.613   0.675   6.473 -0.6247 -1.5216  1.2518
 1691TIP3    H2 5031   0.746   0.620   6.521  1.2618  0.7729 -1.0724
 1692TIP3   OH2 5032   3.348   2.157   0.060 -0.0293  0.2916 -0.0867
 1692TIP3    H1 5033   3.337   2.066   0.088  0.9041 -0.6403 -2.3986
 1692TIP3    H2 5034   3.290   2.165  -0.017 -1.1510  2.1194  0.8792
 1693TIP3   OH2 5035   2.494   3.689   1.094  0.0800 -0.4210 -0.8935
 1693TIP3    H1 5036   2.502   3.738   1.176 -0.2062 -0.7288 -0.6774
 1693TIP3    H2 5037   2.400   3.673   1.084  0.2281 -1.7448 -0.4527
 1694TIP3   OH2 5038   7.628   5.180   4.923 -0.3551  0.3636 -0.2851
 1694TIP3    H1 5039   7.573   5.115   4.966 -0.2050  0.8217  0.6397
 1694TIP3    H2 5040   7.576   5.261   4.926 -0.9304  0.1093 -2.2503
 1695TIP3   OH2 5041   4.358   1.017   3.722  0.1374 -0.6339  0.1557
 1695TIP3    H1 5042   4.289   1.071   3.686  0.5390 -0.3550 -0.2028
 1695TIP3    H2 5043   4.439   1.052   3.685  0.8288  1.0252  2.9048
 1696TIP3   OH2 5044   5.973   6.045   0.395  0.1707 -0.2907  0.7391
 1696TIP3    H1 5045   5.956   6.001   0.311 -0.7284 -1.4106  1.4794
 1696TIP3    H2 5046   6.067   6.065   0.393 -0.1042  1.1623 -1.1932
 1697TIP3   OH2 5047   4.743   1.854   4.112 -0.0765 -0.5955 -0.1573
 1697TIP3    H1 5048   4.820   1.877   4.163 -0.0680  0.9641 -0.8031
 1697TIP3    H2 5049   4.765   1.879   4.022 -1.0303 -0.8946 -0.4940
 1698TIP3   OH2 5050   1.411   5.897   4.623  0.0766  0.3746  0.5541
 1698TIP3    H1 5051   1.434   5.936   4.538  0.5164 -0.0281  0.4817
 1698TIP3    H2 5052   1.480   5.928   4.682 -0.7907  1.4847  1.0112
 1699TIP3   OH2 5053   2.477   5.783   3.089 -0.0116  0.1453 -0.3819
 1699TIP3    H1 5054   2.404   5.844   3.086 -0.6767 -0.6430 -0.6154
 1699TIP3    H2 5055   2.530   5.812   3.163 -0.1520  1.1745 -0.6761
 1700TIP3   OH2 5056   7.334   7.679   3.398  0.5338 -0.6295 -0.0212
 1700TIP3    H1 5057   7.333   7.591   3.435 -0.6595 -0.4337  0.4520
 1700TIP3    H2 5058   7.353   7.666   3.305 -0.6118 -1.4722 -0.1512
 1701TIP3   OH2 5059   0.386   2.969   0.786 -0.0699  0.8932 -0.2420
 1701TIP3    H1 5060   0.369   3.017   0.705 -0.3955  0.6724 -0.3042
 1701TIP3    H2 5061   0.300   2.938   0.814 -0.0494  1.4728  0.5050
 1702TIP3   OH2 5062   5.188   6.441   1.278  0.6463 -0.1095  0.0061
 1702TIP3    H1 5063   5.183   6.522   1.227 -0.8271  1.0281  1.8581
 1702TIP3    H2 5064   5.152   6.374   1.219  0.4832  0.8447 -1.0240
 1703TIP3   OH2 5065   6.816   1.876   0.178 -0.4522  0.0840  0.1609
 1703TIP3    H1 5066   6.898   1.887   0.131 -1.6520  0.8201 -1.9128
 1703TIP3    H2 5067   6.841   1.869   0.270  1.8665  0.8200 -0.3559
 1704TIP3   OH2 5068   2.105   2.847   5.933  0.7277 -0.1848 -0.0458
 1704TIP3    H1 5069   2.018   2.853   5.893  1.0842  0.6752 -0.7283
 1704TIP3    H2 5070   2.088   2.827   6.025 -0.1699 -0.4481 -0.2556
 1705TIP3   OH2 5071   4.954   6.637   1.013  0.8065  0.2947 -0.5313
 1705TIP3    H1 5072   4.963   6.686   0.931  0.9755 -0.5513 -1.0236
 1705TIP3    H2 5073   5.043   6.633   1.049  0.7792  0.4112 -0.4479
 1706TIP3   OH2 5074   4.856   3.874   6.468 -0.2478 -0.2495 -0.0522
 1706TIP3    H1 5075   4.860   3.853   6.375  1.8866 -0.0710 -0.0399
 1706TIP3    H2 5076   4.865   3.790   6.513  0.7468 -0.1367 -0.0217
 1707TIP3   OH2 5077   1.584   3.236   4.834  0.2654  0.1030  0.1528
 1707TIP3    H1 5078   1.548   3.230   4.745  1.0569  0.8144 -0.2292
 1707TIP3    H2 5079   1.549   3.319   4.868  0.6278  0.2469  0.1845
 1708TIP3   OH2 5080   6.808   6.069   0.570  0.1216  0.3580 -0.4869
 1708TIP3    H1 5081   6.860   6.002   0.526 -0.1683 -0.0371 -0.2272
 1708TIP3    H2 5082   6.791   6.034   0.657 -1.9643 -0.2626 -1.0845
 1709TIP3   OH2 5083   7.792   5.693   6.078  0.2624 -0.9530 -0.3434
 1709TIP3    H1 5084   7.833   5.607   6.091 -0.0871 -0.9932  0.5401
 1709TIP3    H2 5085   7.864   5.750   6.051  0.8470 -1.1020  0.8385
 1710TIP3   OH2 5086   0.676   5.738   3.022 -0.2721 -0.2383 -0.2502
 1710TIP3    H1 5087   0.766   5.760   2.997 -0.3683 -0.2110 -0.5870
 1710TIP3    H2 5088   0.685   5.660   3.077 -0.0937 -0.6742 -0.8791
 1711TIP3   OH2 5089   6.463   5.645   0.630  0.2277 -0.4716  0.1376
 1711TIP3    H1 5090   6.494   5.639   0.540 -0.3200 -1.1335 -0.0142
 1711TIP3    H2 5091   6.402   5.719   0.630  2.3282  1.3767  0.6190
 1712TIP3   OH2 5092   6.209   1.339   0.115  0.3840  0.9384 -0.1669
 1712TIP3    H1 5093   6.247   1.252   0.130  1.5077  1.3466 -0.5093
 1712TIP3    H2 5094   6.119   1.331   0.145  1.1047  0.3143  2.0799
 1713TIP3   OH2 5095   5.388   0.447   6.758 -0.1642 -0.0378 -0.1228
 1713TIP3    H1 5096   5.338   0.476   6.681 -0.8572 -1.0781 -0.0928
 1713TIP3    H2 5097   5.431   0.366   6.729  1.2385  0.6556 -0.0341
 1714TIP3   OH2 5098   1.360   4.445   4.245  0.2414  0.6967 -0.0619
 1714TIP3    H1 5099   1.414   4.412   4.317 -0.9738  0.8769  0.9643
 1714TIP3    H2 5100   1.271   4.444   4.279 -0.5043 -0.0742 -1.8832
 1715TIP3   OH2 5101   2.935   0.678   5.065  0.5137 -0.3778 -0.2911
 1715TIP3    H1 5102   2.884   0.636   5.134 -0.7735  1.2481 -0.1858
 1715TIP3    H2 5103   2.987   0.607   5.027  0.3854 -1.5269  1.5598
 1716TIP3   OH2 5104   5.591   4.195   3.034  0.0199  0.3250  0.3567
 1716TIP3    H1 5105   5.627   4.254   2.968 -0.0723 -1.8020 -1.7180
 1716TIP3    H2 5106   5.668   4.148   3.068 -0.2510 -1.2636 -1.0706
 1717TIP3   OH2 5107   3.028   6.387   1.544 -0.1252  0.7327  0.0031
 1717TIP3    H1 5108   3.097   6.393   1.610 -0.7167 -0.0570  0.7291
 1717TIP3    H2 5109   2.952   6.429   1.584  0.1796  2.5038 -1.1851
 1718TIP3   OH2 5110   7.641   1.751   1.030 -0.1721 -0.1208 -0.3591
 1718TIP3    H1 5111   7.615   1.659   1.039  1.9459 -0.6349  1.3615
 1718TIP3    H2 5112   7.675   1.775   1.116 -1.7709  2.7032 -0.4071
 1719TIP3   OH2 5113   1.676   6.132   2.577 -0.0814 -0.0330  0.0546
 1719TIP3    H1 5114   1.620   6.112   2.502 -2.6406  1.5202  1.3999
 1719TIP3    H2 5115   1.704   6.046   2.609  1.4729 -0.7220 -2.8502
 1720TIP3   OH2 5116   4.172   0.750   5.327  0.0608  0.2813 -0.0982
 1720TIP3    H1 5117   4.234   0.777   5.395  0.2266  0.9054 -0.4845
 1720TIP3    H2 5118   4.213   0.777   5.245 -0.2458 -0.2520 -0.4326
 1721TIP3   OH2 5119   1.121   1.924   5.221  0.3488  0.0392 -0.2834
 1721TIP3    H1 5120   1.041   1.907   5.172  0.7601 -1.8098 -0.3951
 1721TIP3    H2 5121   1.092   1.967   5.301 -1.1237 -2.8727  0.8978
 1722TIP3   OH2 5122   7.886   2.726   4.756  0.1106  0.1703 -0.2833
 1722TIP3    H1 5123   7.820   2.688   4.815  1.2683 -2.7871 -0.7289
 1722TIP3    H2 5124   7.945   2.774   4.815  0.5939 -1.7565  0.9113
 1723TIP3   OH2 5125   4.580   2.517   4.213 -0.0167  1.0736  0.0931
 1723TIP3    H1 5126   4.499   2.490   4.257 -0.2345  0.1462 -0.8458
 1723TIP3    H2 5127   4.558   2.601   4.172 -0.3265  1.0958  0.3029
 1724TIP3   OH2 5128   5.976   2.418   2.991  0.0287  0.2381  0.1133
 1724TIP3    H1 5129   6.046   2.482   3.002  0.1017 -0.1066  1.8509
 1724TIP3    H2 5130   6.018   2.333   3.007 -0.8893  0.0755  1.8275
 1725TIP3   OH2 5131   3.124   1.230   5.483 -0.4335  0.4626  0.0789
 1725TIP3    H1 5132   3.097   1.147   5.522 -0.5473 -0.0344 -1.0014
 1725TIP3    H2 5133   3.137   1.289   5.557 -0.4363 -0.4938  0.8590
 1726TIP3   OH2 5134   1.061   5.291   5.216  0.1158 -0.4430 -0.2256
 1726TIP3    H1 5135   1.032   5.333   5.297  0.9178 -1.6714  0.7283
 1726TIP3    H2 5136   1.049   5.358   5.149 -2.9022 -0.1952  0.4319
 1727TIP3   OH2 5137   6.245   3.322   1.188  0.1247  0.3341  0.2339
 1727TIP3    H1 5138   6.149   3.330   1.184  0.1643  0.8309  0.1540
 1727TIP3    H2 5139   6.276   3.387   1.124  0.5100  0.0677  0.1531
 1728TIP3   OH2 5140   4.867   2.189   3.137 -0.1383 -0.0262  0.2985
 1728TIP3    H1 5141   4.952   2.145   3.143 -0.0085 -0.0602 -1.2505
 1728TIP3    H2 5142   4.840   2.177   3.046 -2.1923 -0.6807  0.9313
 1729TIP3   OH2 5143   1.265   2.335   4.782  0.4893 -0.9862  0.0328
 1729TIP3    H1 5144   1.183   2.286   4.794 -0.2808 -0.3678 -2.2159
 1729TIP3    H2 5145   1.310   2.290   4.710  1.3476 -0.3358  0.1442
 1730TIP3   OH2 5146   5.565   0.306   2.848  0.1477 -0.4437  0.8360
 1730TIP3    H1 5147   5.495   0.241   2.849  0.4635 -0.9691 -1.9897
 1730TIP3    H2 5148   5.646   0.255   2.855  0.3530 -0.2176  0.1534
 1731TIP3   OH2 5149   4.197   4.032   1.355  0.0192  0.0351 -0.5169
 1731TIP3    H1 5150   4.185   3.990   1.270  0.2014 -1.3210  0.0977
 1731TIP3    H2 5151   4.270   3.986   1.395  0.3417  1.0734  0.1393
 1732TIP3   OH2 5152   0.876   4.075   6.222 -0.4852  0.0643 -0.6459
 1732TIP3    H1 5153   0.905   4.082   6.313 -1.4497  2.3286 -0.4315
 1732TIP3    H2 5154   0.921   3.998   6.188  2.8830  1.2754  0.6606
 1733TIP3   OH2 5155   7.251   6.900   2.116 -0.2399 -0.0090  0.2092
 1733TIP3    H1 5156   7.314   6.943   2.175 -0.4115 -1.1125  1.2370
 1733TIP3    H2 5157   7.279   6.808   2.115  1.0744  0.2732 -3.1574
 1734TIP3   OH2 5158   0.562   4.469   1.231 -0.4131 -0.2730 -0.0775
 1734TIP3    H1 5159   0.642   4.422   1.208 -1.2331 -1.4481 -0.5695
 1734TIP3    H2 5160   0.538   4.516   1.151  0.1469  0.6388  0.2751
 1735TIP3   OH2 5161   2.743   2.147   4.347  0.2643  0.0564  0.3052
 1735TIP3    H1 5162   2.812   2.212   4.335 -0.7067  1.3870  1.6742
 1735TIP3    H2 5163   2.786   2.063   4.331  2.6116  0.7150  2.6526
 1736TIP3   OH2 5164   2.587   3.200   2.280  0.3679 -0.3700 -0.2612
 1736TIP3    H1 5165   2.507   3.207   2.333 -0.4316 -0.0305 -1.4700
 1736TIP3    H2 5166   2.563   3.140   2.209  1.4965 -1.0026 -0.1309
 1737TIP3   OH2 5167   8.110   4.405   2.326 -0.4821 -0.2827  0.1001
 1737TIP3    H1 5168   8.133   4.486   2.280 -2.3184 -0.1865 -0.7321
 1737TIP3    H2 5169   8.046   4.431   2.392  0.1118 -0.8330  0.9125
 1738TIP3   OH2 5170   8.025   5.360   2.292  0.3266 -0.6639  0.4213
 1738TIP3    H1 5171   7.982   5.322   2.215  0.9544  1.7773 -1.2616
 1738TIP3    H2 5172   7.963   5.345   2.363 -1.8828 -0.1199 -1.2451
 1739TIP3   OH2 5173   6.267   3.677   5.083 -0.3062 -0.0558  0.3880
 1739TIP3    H1 5174   6.241   3.657   5.173 -1.7786  0.1461  0.0364
 1739TIP3    H2 5175   6.198   3.735   5.051 -0.5978 -1.2863 -1.3337
 1740TIP3   OH2 5176   4.810   5.071   5.927 -0.2726  0.8074  0.1335
 1740TIP3    H1 5177   4.798   4.978   5.912  0.6664  0.7907 -0.5888
 1740TIP3    H2 5178   4.742   5.094   5.990 -0.4753 -0.3724  0.3673
 1741TIP3   OH2 5179   5.610   2.982   0.504  0.3641  0.0464 -0.6463
 1741TIP3    H1 5180   5.534   3.035   0.477  0.2247  0.4199  0.4453
 1741TIP3    H2 5181   5.579   2.892   0.498  0.3148  0.1156 -1.6487
 1742TIP3   OH2 5182   2.618   6.904   0.559 -0.3481 -0.2485 -0.4461
 1742TIP3    H1 5183   2.579   6.894   0.646 -2.3531  0.1296 -1.2473
 1742TIP3    H2 5184   2.649   6.994   0.556  0.9144 -0.6313  0.2973
 1743TIP3   OH2 5185   1.395   0.630   3.445 -0.4049 -0.2317  0.1162
 1743TIP3    H1 5186   1.389   0.625   3.540 -0.1572  1.9307  0.3045
 1743TIP3    H2 5187   1.339   0.560   3.413  0.7240 -1.9957  1.8226
 1744TIP3   OH2 5188   3.337   5.716   5.608 -0.1033  0.6462  0.7886
 1744TIP3    H1 5189   3.256   5.736   5.561  0.2532 -1.0378 -0.6690
 1744TIP3    H2 5190   3.391   5.794   5.597 -0.6024  0.8487 -0.3652
 1745TIP3   OH2 5191   1.618   2.481   3.372 -0.6021 -0.2189 -0.1004
 1745TIP3    H1 5192   1.675   2.554   3.394 -1.6595  0.8719 -0.8606
 1745TIP3    H2 5193   1.645   2.411   3.432 -0.4813  1.2206  1.6262
 1746TIP3   OH2 5194   7.720   7.666   6.767  0.0246 -0.3403  0.3949
 1746TIP3    H1 5195   7.686   7.706   6.687  0.3736  0.0482  0.4407
 1746TIP3    H2 5196   7.792   7.610   6.737 -2.5152 -3.7095 -0.1511
 1747TIP3   OH2 5197   6.691   4.969   6.476  0.3340 -0.0443  0.3559
 1747TIP3    H1 5198   6.712   4.948   6.567 -0.2545  0.9372  0.7325
 1747TIP3    H2 5199   6.598   4.951   6.468  0.2200  0.6142  0.1655
 1748TIP3   OH2 5200   4.862   4.070   5.539  0.2186 -0.1061  0.0096
 1748TIP3    H1 5201   4.930   4.136   5.530  2.0226 -1.9609 -0.5549
 1748TIP3    H2 5202   4.890   3.998   5.483 -1.9382 -1.1676  0.1857
 1749TIP3   OH2 5203   1.759   6.925   2.007  0.0898 -0.3422 -0.1214
 1749TIP3    H1 5204   1.752   6.872   1.927 -0.1178 -2.2015  1.0481
 1749TIP3    H2 5205   1.847   6.908   2.040  0.0550  0.1167  0.2276
 1750TIP3   OH2 5206   6.905   4.380   6.110  0.0454  0.1467 -0.2980
 1750TIP3    H1 5207   6.851   4.346   6.181  0.4174  1.4662  0.6619
 1750TIP3    H2 5208   6.850   4.447   6.069  1.1591  2.1187  1.2348
 1751TIP3   OH2 5209   0.250   7.616   4.937  0.5284  0.0229 -0.0249
 1751TIP3    H1 5210   0.271   7.527   4.910  0.2508 -0.3117  0.8231
 1751TIP3    H2 5211   0.279   7.671   4.864  0.4733 -0.7753 -0.6625
 1752TIP3   OH2 5212   0.331   5.913   2.535  0.4110 -0.7697 -0.0597
 1752TIP3    H1 5213   0.259   5.861   2.570  0.5251 -0.6659  0.3366
 1752TIP3    H2 5214   0.390   5.849   2.495 -0.0685 -0.8246 -0.7087
 1753TIP3   OH2 5215   5.298   2.833   2.984 -0.6331  0.3628  0.4469
 1753TIP3    H1 5216   5.353   2.756   2.970 -0.7994  0.4892 -1.1038
 1753TIP3    H2 5217   5.215   2.811   2.940 -0.7864  1.3082  0.2542
 1754TIP3   OH2 5218   6.120   3.317   3.933  0.5103 -0.4507  0.0445
 1754TIP3    H1 5219   6.118   3.354   3.845  0.8518  0.6562  0.4873
 1754TIP3    H2 5220   6.155   3.387   3.988  0.8709 -1.3289  0.9681
 1755TIP3   OH2 5221   2.896   4.631   1.334  0.1879 -0.2220  0.4407
 1755TIP3    H1 5222   2.813   4.677   1.346  0.0637 -0.3466  0.1069
 1755TIP3    H2 5223   2.960   4.699   1.315 -0.1116 -0.2211 -0.6386
 1756TIP3   OH2 5224   5.734   3.716   0.250  0.0086  0.1068  0.8784
 1756TIP3    H1 5225   5.815   3.762   0.273 -0.3240  0.4150  1.4410
 1756TIP3    H2 5226   5.751   3.625   0.274 -0.6708  0.5528  3.3604
 1757TIP3   OH2 5227   1.642   3.288   5.534 -0.0064 -0.5561  0.2681
 1757TIP3    H1 5228   1.735   3.267   5.542  0.1975 -0.1888 -1.0169
 1757TIP3    H2 5229   1.636   3.381   5.556 -0.4056 -1.0502  2.4673
 1758TIP3   OH2 5230   0.661   7.228   2.875  0.3063  0.2449  0.3213
 1758TIP3    H1 5231   0.619   7.312   2.893 -0.5452  0.1721 -1.1691
 1758TIP3    H2 5232   0.604   7.163   2.916 -0.7605  0.1988 -1.1335
 1759TIP3   OH2 5233   3.133   6.628   3.288 -0.3813 -0.2278 -0.0397
 1759TIP3    H1 5234   3.222   6.660   3.271 -0.6108  0.4871  0.0705
 1759TIP3    H2 5235   3.084   6.707   3.312 -1.2039 -0.5122 -0.7421
 1760TIP3   OH2 5236   5.107   7.177   3.966  0.3187 -0.3796 -0.4686
 1760TIP3    H1 5237   5.121   7.106   4.029  1.0331 -0.4558 -0.7058
 1760TIP3    H2 5238   5.195   7.203   3.940  0.1029  1.0923  0.1627
 1761TIP3   OH2 5239   4.849   5.650   1.292  0.1474 -0.2009 -0.9689
 1761TIP3    H1 5240   4.912   5.695   1.235  0.5354  0.2943 -0.1812
 1761TIP3    H2 5241   4.901   5.625   1.369 -0.8870  1.5087  0.3625
 1762TIP3   OH2 5242   3.612   3.950   1.942 -0.0725  0.5044 -0.2460
 1762TIP3    H1 5243   3.642   4.025   1.891  1.4392 -1.1692 -1.9990
 1762TIP3    H2 5244   3.678   3.882   1.925 -1.5228 -1.3123  1.0088
 1763TIP3   OH2 5245   3.545   5.109   1.047 -0.0322 -0.1100 -0.1094
 1763TIP3    H1 5246   3.464   5.152   1.075 -0.4379  0.4173 -1.9534
 1763TIP3    H2 5247   3.615   5.170   1.073 -0.3902  0.3818 -0.2986
 1764TIP3   OH2 5248   0.851   2.522   1.171  0.4249  0.0006 -0.5433
 1764TIP3    H1 5249   0.864   2.548   1.262  1.5916 -1.0157 -0.3985
 1764TIP3    H2 5250   0.855   2.426   1.173  2.2102 -0.0022 -1.8868
 1765TIP3   OH2 5251   7.525   1.598   1.371 -0.1250 -0.3466 -0.1840
 1765TIP3    H1 5252   7.588   1.535   1.407 -0.5587  0.0810  1.3587
 1765TIP3    H2 5253   7.579   1.663   1.327  0.7749  1.2053  2.9228
 1766TIP3   OH2 5254   5.664   1.881   4.693 -0.3494  0.0566 -0.0849
 1766TIP3    H1 5255   5.664   1.930   4.611 -0.8673 -0.6745 -0.5406
 1766TIP3    H2 5256   5.571   1.868   4.714 -0.2431  0.9912  1.1002
 1767TIP3   OH2 5257   2.758   3.582   4.396  0.0416  0.0608  0.1747
 1767TIP3    H1 5258   2.744   3.539   4.311  1.0409  0.8748 -0.4188
 1767TIP3    H2 5259   2.846   3.555   4.423  0.3656  1.0807  0.1752
 1768TIP3   OH2 5260   1.980   2.027   6.018  0.3433  0.3269  0.6056
 1768TIP3    H1 5261   2.066   1.984   6.012  0.6253  0.9249  0.3096
 1768TIP3    H2 5262   1.973   2.052   6.110  0.6023  0.5051  0.5788
 1769TIP3   OH2 5263   0.475   4.732   5.782 -0.4176 -0.1479 -0.3090
 1769TIP3    H1 5264   0.542   4.676   5.742 -0.3328 -0.7021  0.5707
 1769TIP3    H2 5265   0.525   4.798   5.830 -0.5111  0.1128 -0.5691
 1770TIP3   OH2 5266   0.717   1.006   1.299  0.3408 -0.3968 -0.3590
 1770TIP3    H1 5267   0.638   0.955   1.315  0.7810 -0.5458  1.4912
 1770TIP3    H2 5268   0.751   0.972   1.216 -1.2329 -0.6665 -0.9410
 1771TIP3   OH2 5269   1.459   0.578   6.207 -0.4770 -0.1582 -0.2670
 1771TIP3    H1 5270   1.388   0.530   6.250 -1.7338  0.8395 -1.1581
 1771TIP3    H2 5271   1.461   0.663   6.251  0.4451 -0.3041  0.0068
 1772TIP3   OH2 5272   0.858   4.217   3.296 -0.6164  0.1557  0.3708
 1772TIP3    H1 5273   0.855   4.242   3.388  0.2361  0.8073  0.2312
 1772TIP3    H2 5274   0.906   4.134   3.295  0.9997  1.0633  0.3488
 1773TIP3   OH2 5275   0.063   7.459   4.462 -0.2725 -0.0956  0.0343
 1773TIP3    H1 5276   0.023   7.452   4.375 -1.4251 -2.7523  0.6969
 1773TIP3    H2 5277   0.007   7.407   4.519  0.9286  0.8789  2.2481
 1774TIP3   OH2 5278   4.868   1.114   6.403  0.2157  0.0748  0.2929
 1774TIP3    H1 5279   4.798   1.132   6.466 -0.4413 -0.8187 -0.1473
 1774TIP3    H2 5280   4.936   1.178   6.423 -1.0110  1.4328  0.2842
 1775TIP3   OH2 5281   3.774   6.697   3.717  0.0251  0.7231 -0.4821
 1775TIP3    H1 5282   3.692   6.691   3.669 -0.2776  0.4682  0.0638
 1775TIP3    H2 5283   3.825   6.763   3.670 -0.5697  1.0230 -0.7057
 1776TIP3   OH2 5284   3.755   2.218   0.222  0.2918  0.6173 -0.3034
 1776TIP3    H1 5285   3.782   2.146   0.279 -0.3588  0.9262  0.4221
 1776TIP3    H2 5286   3.815   2.213   0.147  0.6537 -0.2883  0.0245
 1777TIP3   OH2 5287   5.774   0.073   5.416  0.1870 -0.1281  0.1583
 1777TIP3    H1 5288   5.760   0.165   5.438 -1.4279 -0.2327 -0.3092
 1777TIP3    H2 5289   5.707   0.026   5.465  0.4118 -0.9600 -0.3172
 1778TIP3   OH2 5290   1.487   5.983   6.093  0.3298 -0.3176  0.0526
 1778TIP3    H1 5291   1.407   6.017   6.053  0.1298  1.0585  1.4966
 1778TIP3    H2 5292   1.458   5.937   6.171  0.8603 -1.1194 -0.2054
 1779TIP3   OH2 5293   2.390   4.394   1.752  0.2072 -0.1750 -0.6639
 1779TIP3    H1 5294   2.471   4.391   1.803 -0.0377  0.1107 -0.2472
 1779TIP3    H2 5295   2.359   4.484   1.762 -1.2667 -0.8066  0.9501
 1780TIP3   OH2 5296   0.289   1.428   6.044  0.2572  0.0657  0.0116
 1780TIP3    H1 5297   0.296   1.355   5.983 -0.1263  1.1542 -1.3647
 1780TIP3    H2 5298   0.205   1.469   6.024  0.7559  1.2833  0.2925
 1781TIP3   OH2 5299   7.537   5.599   3.116 -0.2314  0.0068  0.9080
 1781TIP3    H1 5300   7.482   5.525   3.142 -0.1290  0.5520  2.8108
 1781TIP3    H2 5301   7.613   5.594   3.174  1.8049 -0.7137 -1.6299
 1782TIP3   OH2 5302   2.020   2.102   6.576  0.8476 -0.6163  0.2103
 1782TIP3    H1 5303   2.076   2.134   6.647  2.0207 -1.6534 -0.2098
 1782TIP3    H2 5304   2.001   2.011   6.600 -0.5110 -0.3387  0.2440
 1783TIP3   OH2 5305   3.670   1.271   3.279  0.1334 -0.0531  0.1927
 1783TIP3    H1 5306   3.754   1.312   3.300  0.2325 -0.0768 -0.1505
 1783TIP3    H2 5307   3.610   1.345   3.266  0.2063 -0.0268  0.0070
 1784TIP3   OH2 5308   5.089   0.518   1.355 -0.7390  0.6911 -0.5294
 1784TIP3    H1 5309   5.140   0.477   1.285 -0.3451 -0.4593  0.3922
 1784TIP3    H2 5310   5.010   0.464   1.363  0.2198 -0.5387  1.3332
 1785TIP3   OH2 5311   3.838   3.807   4.247 -0.0835 -0.1958 -0.7669
 1785TIP3    H1 5312   3.907   3.807   4.180  0.9877  0.8773  0.2897
 1785TIP3    H2 5313   3.867   3.741   4.310  1.0793  1.6091  0.6984
 1786TIP3   OH2 5314   2.002   6.474   5.005 -0.1450  0.0343  0.2032
 1786TIP3    H1 5315   1.921   6.469   4.955  0.7761  3.3530 -1.9217
 1786TIP3    H2 5316   1.977   6.512   5.089 -0.9696 -0.4108  0.1628
 1787TIP3   OH2 5317   4.474   7.008   4.946 -0.3779 -0.6421  0.2953
 1787TIP3    H1 5318   4.514   7.013   4.860  0.9572 -1.9007  0.7993
 1787TIP3    H2 5319   4.382   6.986   4.929 -0.2966 -0.1752 -0.8084
 1788TIP3   OH2 5320   7.953   1.997   3.352 -0.0766  0.0532  0.5237
 1788TIP3    H1 5321   8.004   2.017   3.430 -0.7758 -1.4166  1.3994
 1788TIP3    H2 5322   7.969   2.071   3.293  0.2996  1.3005  2.1245
 1789TIP3   OH2 5323   7.970   3.760   1.880 -0.1191 -0.1943  0.2872
 1789TIP3    H1 5324   7.920   3.777   1.800  0.7786  1.7220  0.0558
 1789TIP3    H2 5325   8.007   3.673   1.868 -0.6287 -0.2461 -1.0428
 1790TIP3   OH2 5326   3.765   2.041   2.538 -0.1952 -0.3912  0.0557
 1790TIP3    H1 5327   3.749   2.088   2.456  0.7430  0.5445  0.3832
 1790TIP3    H2 5328   3.791   2.109   2.600  1.0312 -1.3103  0.5979
 1791TIP3   OH2 5329   7.350   6.815   5.483  0.1909 -0.2755  0.1538
 1791TIP3    H1 5330   7.288   6.839   5.552  1.8720 -0.3842  1.7676
 1791TIP3    H2 5331   7.384   6.730   5.509 -2.0912 -2.3831 -2.9874
 1792TIP3   OH2 5332   0.417   2.916   6.036  0.3388 -0.3792 -0.0171
 1792TIP3    H1 5333   0.501   2.941   5.998  0.4475 -0.1970  0.3337
 1792TIP3    H2 5334   0.439   2.868   6.116  0.1350 -2.2656 -1.0624
 1793TIP3   OH2 5335   2.724   0.589   4.518  0.6430 -0.3697  0.1915
 1793TIP3    H1 5336   2.717   0.510   4.466  1.1726 -0.2031 -0.1378
 1793TIP3    H2 5337   2.703   0.561   4.607  0.2737 -0.7614 -0.0153
 1794TIP3   OH2 5338   0.247   6.378   3.679 -1.1747 -0.1190  0.6782
 1794TIP3    H1 5339   0.302   6.411   3.749  0.5468 -1.0962 -0.1432
 1794TIP3    H2 5340   0.289   6.408   3.599 -1.1297 -1.8843 -0.0022
 1795TIP3   OH2 5341   2.438   5.622   5.421  0.4231  0.1925  0.1664
 1795TIP3    H1 5342   2.436   5.527   5.427 -0.4366  0.2277  0.5424
 1795TIP3    H2 5343   2.483   5.650   5.501 -0.2471  0.1393  0.5698
 1796TIP3   OH2 5344   0.033   1.683   6.355 -0.0234 -0.2265 -0.3949
 1796TIP3    H1 5345  -0.035   1.750   6.358  0.0236 -0.1664 -0.6952
 1796TIP3    H2 5346   0.069   1.688   6.267  0.2896 -0.3418 -0.2761
 1797TIP3   OH2 5347   2.503   4.992   6.054  0.1643 -0.2447  0.0253
 1797TIP3    H1 5348   2.534   5.077   6.020 -1.6960  0.2511 -0.5464
 1797TIP3    H2 5349   2.459   5.014   6.136  0.7005 -0.8432  0.4815
 1798TIP3   OH2 5350   2.739   6.126   3.915  0.2364  0.4004  0.5800
 1798TIP3    H1 5351   2.779   6.069   3.981 -0.0042 -1.5684 -0.8846
 1798TIP3    H2 5352   2.813   6.175   3.879  0.6245  0.2034  1.0865
 1799TIP3   OH2 5353   1.679   0.392   1.849 -0.3137 -0.2278  0.4353
 1799TIP3    H1 5354   1.683   0.319   1.788  0.3020 -1.1798  1.5640
 1799TIP3    H2 5355   1.602   0.442   1.823  0.3377 -0.1914 -1.5470
 1800TIP3   OH2 5356   2.285   6.673   4.131  0.8196  0.2223 -0.3649
 1800TIP3    H1 5357   2.194   6.703   4.142  1.0368  0.8849 -0.3318
 1800TIP3    H2 5358   2.306   6.693   4.040  0.2999 -1.7355 -0.9652
 1801TIP3   OH2 5359   1.096   6.931   3.918 -0.5428 -0.0237 -0.0047
 1801TIP3    H1 5360   1.003   6.950   3.930 -0.7393 -0.7693 -0.3028
 1801TIP3    H2 5361   1.128   6.915   4.007 -0.3227  1.8080  0.2870
 1802TIP3   OH2 5362   2.403   1.700   5.930 -0.0657  0.5023 -0.3264
 1802TIP3    H1 5363   2.411   1.635   5.860 -0.1653 -1.2971  1.2576
 1802TIP3    H2 5364   2.493   1.714   5.959 -0.2985 -1.9998  1.9356
 1803TIP3   OH2 5365   1.790   1.330   3.324  0.1035 -0.2887 -0.8398
 1803TIP3    H1 5366   1.779   1.410   3.375 -0.2991 -0.2488 -0.9784
 1803TIP3    H2 5367   1.850   1.354   3.254 -0.3073 -0.0017 -1.0976
 1804TIP3   OH2 5368   0.859   3.889   0.370  0.1357  0.2242  0.0532
 1804TIP3    H1 5369   0.915   3.940   0.429  0.0007  1.0161 -0.5016
 1804TIP3    H2 5370   0.773   3.930   0.377 -0.2412 -0.6028  0.4252
 1805TIP3   OH2 5371   5.828   5.821   5.615 -0.0066  0.1239  0.1849
 1805TIP3    H1 5372   5.787   5.794   5.697  1.4827 -1.2576  0.5336
 1805TIP3    H2 5373   5.915   5.779   5.617 -0.1088 -0.3544 -2.3027
 1806TIP3   OH2 5374   8.248   4.397   5.126 -0.0133  0.0755 -0.1218
 1806TIP3    H1 5375   8.243   4.472   5.185  0.9336  1.1079 -1.2903
 1806TIP3    H2 5376   8.217   4.431   5.042  0.2432 -0.9073 -0.6283
 1807TIP3   OH2 5377   5.400   3.957   4.242  0.6494  0.3866 -0.2762
 1807TIP3    H1 5378   5.482   4.006   4.232  1.1950 -0.2596  0.8017
 1807TIP3    H2 5379   5.338   4.021   4.278  1.4807  0.2376  1.5630
 1808TIP3   OH2 5380   8.144   4.975   2.535 -0.1091 -0.0815 -0.2529
 1808TIP3    H1 5381   8.147   4.983   2.440  1.1742  0.8700 -0.1573
 1808TIP3    H2 5382   8.163   4.882   2.551 -0.4461 -0.2741 -0.9151
 1809TIP3   OH2 5383   1.313   7.585   2.256  0.3665 -0.3622 -0.4933
 1809TIP3    H1 5384   1.407   7.598   2.243  0.3165  1.3788  0.5054
 1809TIP3    H2 5385   1.297   7.616   2.345 -0.5604 -4.3182  0.9295
 1810TIP3   OH2 5386   1.880   5.284   5.680  0.4610  0.2449  0.2815
 1810TIP3    H1 5387   1.925   5.207   5.645  0.8933  0.7431 -0.2682
 1810TIP3    H2 5388   1.803   5.248   5.723  0.1679 -0.4331 -0.7584
 1811TIP3   OH2 5389   7.353   0.454   5.690 -0.0547 -0.7509 -0.0274
 1811TIP3    H1 5390   7.435   0.495   5.716 -0.9800  0.5556  0.9300
 1811TIP3    H2 5391   7.352   0.462   5.595  0.4324  0.2019  0.0331
 1812TIP3   OH2 5392   0.688   5.086   1.300  0.1605 -0.1018  0.4975
 1812TIP3    H1 5393   0.783   5.095   1.296  0.4063 -1.7532  1.7294
 1812TIP3    H2 5394   0.672   4.994   1.279 -1.2571  0.3398 -0.5123
 1813TIP3   OH2 5395   6.959   0.091   4.943 -0.4294  0.5745 -0.4226
 1813TIP3    H1 5396   6.930   0.118   5.030  3.5309  1.2281  0.8793
 1813TIP3    H2 5397   6.957  -0.005   4.945  1.0000  0.5381  0.9955
 1814TIP3   OH2 5398   5.118   1.533   0.149 -0.6215  0.2751 -0.1778
 1814TIP3    H1 5399   5.210   1.560   0.143 -0.8769  1.0450 -0.7718
 1814TIP3    H2 5400   5.099   1.534   0.242 -0.0516  0.1768 -0.0535
 1815TIP3   OH2 5401   7.481   1.763   4.776 -0.0758 -0.2059 -0.3003
 1815TIP3    H1 5402   7.534   1.684   4.761  0.5146 -0.0904  1.0047
 1815TIP3    H2 5403   7.524   1.831   4.723  1.5962  0.0626  1.2972
 1816TIP3   OH2 5404   4.069   4.208   2.284  0.4469  0.1400  0.4825
 1816TIP3    H1 5405   4.013   4.193   2.360 -0.3871 -0.5972 -0.2554
 1816TIP3    H2 5406   4.025   4.278   2.236 -0.0550 -0.6800 -0.2811
 1817TIP3   OH2 5407   7.461   5.744   1.996  0.0514  0.7601  0.2452
 1817TIP3    H1 5408   7.542   5.755   1.945 -0.4610  1.4995 -0.4472
 1817TIP3    H2 5409   7.480   5.673   2.057  0.4501 -0.6741 -1.4814
 1818TIP3   OH2 5410   1.959   7.180   2.902 -1.3681  0.1792  0.1557
 1818TIP3    H1 5411   2.051   7.167   2.925 -0.6253 -1.3768 -3.0478
 1818TIP3    H2 5412   1.913   7.108   2.945 -0.3680 -1.4563 -1.3651
 1819TIP3   OH2 5413   0.650   2.481   3.529 -0.1846  0.1481  0.1886
 1819TIP3    H1 5414   0.571   2.535   3.521 -0.7877 -0.8720 -1.2998
 1819TIP3    H2 5415   0.706   2.509   3.457 -0.3509 -0.9265 -0.3810
 1820TIP3   OH2 5416   3.749   7.554   2.442  0.1788 -0.3730 -0.4663
 1820TIP3    H1 5417   3.778   7.466   2.465  0.3462 -0.1961 -0.0012
 1820TIP3    H2 5418   3.818   7.589   2.387 -0.0928 -0.6927 -1.0200
 1821TIP3   OH2 5419   4.765   3.228   1.637 -0.0657  0.2258 -0.0710
 1821TIP3    H1 5420   4.741   3.155   1.693 -0.3968 -0.3507 -0.9548
 1821TIP3    H2 5421   4.760   3.194   1.548  1.0714  0.9410 -0.4397
 1822TIP3   OH2 5422   3.129   1.273   2.513 -0.2343  0.2955 -0.3311
 1822TIP3    H1 5423   3.056   1.306   2.460  1.1295  1.2403 -1.7034
 1822TIP3    H2 5424   3.116   1.178   2.514 -0.6694  0.3104 -1.8223
 1823TIP3   OH2 5425   1.027   4.088   2.914 -0.7007  0.2697 -0.8420
 1823TIP3    H1 5426   1.087   4.051   2.849  0.8015 -0.5563  0.9499
 1823TIP3    H2 5427   1.013   4.178   2.884 -0.2396 -0.1455 -2.4201
 1824TIP3   OH2 5428   0.890   2.272   0.393 -0.7148  0.2114 -0.6904
 1824TIP3    H1 5429   0.871   2.204   0.328 -1.9536 -0.6792  0.5539
 1824TIP3    H2 5430   0.933   2.226   0.464 -1.1555  0.7995 -0.0321
 1825TIP3   OH2 5431   7.720   6.649   3.602 -0.2555 -0.2025  0.2933
 1825TIP3    H1 5432   7.663   6.581   3.638  0.4554 -0.4838  0.9161
 1825TIP3    H2 5433   7.756   6.611   3.522 -1.7514  0.3809 -0.7001
 1826TIP3   OH2 5434   6.626   5.019   3.641  0.0687 -0.0174 -0.2099
 1826TIP3    H1 5435   6.676   5.101   3.640 -2.3383  1.5411 -1.0376
 1826TIP3    H2 5436   6.674   4.961   3.581  1.7450  0.8144  0.2746
 1827TIP3   OH2 5437   2.585   7.731   5.049 -0.2083 -0.1940  0.1363
 1827TIP3    H1 5438   2.508   7.775   5.012 -0.7191 -0.5079  0.7895
 1827TIP3    H2 5439   2.551   7.684   5.125  0.3557 -1.5781 -0.4298
 1828TIP3   OH2 5440   4.500   3.585   3.906  0.3946 -0.3236 -0.3019
 1828TIP3    H1 5441   4.547   3.502   3.917  0.3894 -0.7800 -3.1457
 1828TIP3    H2 5442   4.424   3.563   3.853 -1.0315  1.1000  1.0500
 1829TIP3   OH2 5443   1.505   7.711   0.411 -0.1380 -0.1660  0.5556
 1829TIP3    H1 5444   1.538   7.799   0.390  1.0308 -0.3637  1.5181
 1829TIP3    H2 5445   1.426   7.703   0.357 -0.5944  1.6917  0.8564
 1830TIP3   OH2 5446   2.139   1.490   5.892  0.2627  0.0617 -0.5380
 1830TIP3    H1 5447   2.096   1.558   5.944 -0.6620 -0.2297 -0.9073
 1830TIP3    H2 5448   2.222   1.474   5.938 -0.5583 -0.2403  0.8976
 1831TIP3   OH2 5449   8.115   2.855   0.973  1.0013 -0.2540 -0.3530
 1831TIP3    H1 5450   8.064   2.811   1.040 -0.0987 -0.4318 -1.2660
 1831TIP3    H2 5451   8.154   2.784   0.922  0.7771 -0.1514 -0.6735
 1832TIP3   OH2 5452   5.038   2.836   0.004 -0.7964 -0.3067 -0.2151
 1832TIP3    H1 5453   5.046   2.909  -0.058 -1.9077 -1.2028 -1.4508
 1832TIP3    H2 5454   5.098   2.859   0.075  1.4295  0.1816 -2.1545
 1833TIP3   OH2 5455   7.075   2.890   6.328  0.7454  0.1854  0.2576
 1833TIP3    H1 5456   7.024   2.966   6.299  0.3228 -0.6535 -1.2895
 1833TIP3    H2 5457   7.014   2.838   6.379  0.6856  0.2681  0.2706
 1834TIP3   OH2 5458   4.591   5.275   1.056  0.1850 -0.0225  0.0109
 1834TIP3    H1 5459   4.608   5.361   1.094 -0.0624  0.5528 -1.1428
 1834TIP3    H2 5460   4.552   5.225   1.128  0.8682  0.6276  0.8636
 1835TIP3   OH2 5461   7.943   6.017   3.626 -0.1352  0.3482  0.0530
 1835TIP3    H1 5462   8.037   6.037   3.625 -0.2097  0.7236 -0.3561
 1835TIP3    H2 5463   7.905   6.087   3.679 -0.1806  0.1835  0.2364
 1836TIP3   OH2 5464   5.657   0.331   2.308  0.6230 -0.0371  0.0665
 1836TIP3    H1 5465   5.649   0.401   2.243  0.5676  1.0884  1.2371
 1836TIP3    H2 5466   5.615   0.367   2.386  2.1054 -0.7143  1.2092
 1837TIP3   OH2 5467   1.081   6.257   6.408 -0.1469  0.1854  0.6014
 1837TIP3    H1 5468   1.121   6.183   6.362  0.2934  0.8502 -0.1229
 1837TIP3    H2 5469   1.111   6.334   6.359 -1.3031  0.7915  0.8082
 1838TIP3   OH2 5470   7.376   1.532   4.963 -0.1742  0.5049  0.0563
 1838TIP3    H1 5471   7.324   1.485   4.898  0.2195  1.1239 -0.7273
 1838TIP3    H2 5472   7.318   1.602   4.993 -0.3463  0.2359  0.3566
 1839TIP3   OH2 5473   2.436   0.145   1.536  0.1808 -0.3574  0.2670
 1839TIP3    H1 5474   2.509   0.093   1.501  0.8563 -0.3175  1.5466
 1839TIP3    H2 5475   2.369   0.142   1.468  2.0214  1.0738 -1.7411
 1840TIP3   OH2 5476   7.352   2.491   4.156  0.2597 -0.3705  0.0435
 1840TIP3    H1 5477   7.260   2.517   4.157  0.2623 -0.1138 -2.2758
 1840TIP3    H2 5478   7.396   2.558   4.104  1.9644 -0.0058  1.8172
 1841TIP3   OH2 5479   1.591   7.651   6.773 -0.4198 -0.0905  0.3840
 1841TIP3    H1 5480   1.550   7.568   6.795 -2.1236  0.5967 -0.0477
 1841TIP3    H2 5481   1.531   7.692   6.710  1.0481  0.8798 -0.4485
 1842TIP3   OH2 5482   5.594   1.997   3.042 -0.2813  0.7939 -0.1683
 1842TIP3    H1 5483   5.591   1.915   2.994  2.6295  0.3595  0.2430
 1842TIP3    H2 5484   5.570   2.064   2.978  1.4107  0.0212 -1.6617
 1843TIP3   OH2 5485   4.261   0.617   2.111  0.1081 -0.3875  0.1152
 1843TIP3    H1 5486   4.236   0.574   2.192  0.8369 -0.7885  0.1317
 1843TIP3    H2 5487   4.194   0.589   2.048 -0.6234  0.1490  0.6303
 1844TIP3   OH2 5488   1.196   6.357   4.429  0.6103 -0.6447  0.1437
 1844TIP3    H1 5489   1.219   6.374   4.520  3.5440 -3.3491  0.0816
 1844TIP3    H2 5490   1.146   6.276   4.432 -1.7271  0.6714 -0.5462
 1845TIP3   OH2 5491   0.676   4.676   3.478  0.0608  0.5283 -0.1521
 1845TIP3    H1 5492   0.702   4.645   3.391  1.5385  3.1760 -0.7700
 1845TIP3    H2 5493   0.587   4.642   3.490 -0.1345 -0.0401 -2.6494
 1846TIP3   OH2 5494   1.341   4.337   5.118 -0.6755  0.5807  0.1883
 1846TIP3    H1 5495   1.369   4.321   5.208 -5.2657  2.2122  2.2569
 1846TIP3    H2 5496   1.313   4.429   5.119 -0.6344  0.7269 -3.0534
 1847TIP3   OH2 5497   1.180   7.473   2.039  0.2453  0.2851  0.1613
 1847TIP3    H1 5498   1.229   7.490   2.120 -1.9293  0.3811  1.5285
 1847TIP3    H2 5499   1.184   7.555   1.990 -0.9262  1.2403  1.5996
 1848TIP3   OH2 5500   3.927   4.537   0.498 -0.5023  0.1291  0.2782
 1848TIP3    H1 5501   3.931   4.561   0.590 -0.5622  0.9270  0.0791
 1848TIP3    H2 5502   4.015   4.553   0.464 -0.5088 -0.0566  0.1677
 1849TIP3   OH2 5503   8.197   3.323   1.002  0.6197  0.3708  0.0854
 1849TIP3    H1 5504   8.161   3.234   0.999 -0.5428  0.6404  2.8038
 1849TIP3    H2 5505   8.285   3.315   0.966  0.1554 -1.6614 -0.7118
 1850TIP3   OH2 5506   7.056   6.449   4.697  0.4582 -0.1577  0.3485
 1850TIP3    H1 5507   6.978   6.463   4.751 -0.1891 -2.2238  0.0192
 1850TIP3    H2 5508   7.128   6.445   4.760  0.5193  2.6607  0.5975
 1851TIP3   OH2 5509   6.838   2.321   5.977 -0.2135  0.0149 -0.1475
 1851TIP3    H1 5510   6.829   2.243   5.922 -0.3135  0.5684 -0.9287
 1851TIP3    H2 5511   6.913   2.302   6.033  2.2521  0.8726 -2.9288
 1852TIP3   OH2 5512   5.996   3.818   0.327 -0.6434  0.2174  0.0235
 1852TIP3    H1 5513   5.987   3.742   0.384  0.0787 -0.7979 -1.1796
 1852TIP3    H2 5514   6.090   3.831   0.318 -0.7526  0.6901 -0.5097
 1853TIP3   OH2 5515   3.133   3.311   5.370  0.0500 -0.1644 -0.1281
 1853TIP3    H1 5516   3.140   3.394   5.323 -2.9707 -0.3892 -1.2007
 1853TIP3    H2 5517   3.040   3.303   5.391  0.6642 -2.0157  2.4164
 1854TIP3   OH2 5518   7.457   2.208   1.715 -0.0935 -0.0741 -0.1025
 1854TIP3    H1 5519   7.450   2.293   1.759  1.8069  0.3910 -0.5939
 1854TIP3    H2 5520   7.497   2.151   1.781 -0.8703 -0.4635  0.0459
 1855TIP3   OH2 5521   3.250   4.281   5.429  0.3480 -0.0229  0.4329
 1855TIP3    H1 5522   3.322   4.275   5.492  0.3580  2.1045  0.7034
 1855TIP3    H2 5523   3.265   4.363   5.383 -0.9900 -0.3699 -0.6922
 1856TIP3   OH2 5524   4.693   1.804   0.857 -0.0300  0.2861  0.0579
 1856TIP3    H1 5525   4.735   1.888   0.873  0.0489  0.3595 -0.4936
 1856TIP3    H2 5526   4.676   1.768   0.944  1.4713  0.1126  0.3136
 1857TIP3   OH2 5527   6.626   1.358   1.877 -0.2539 -0.2354  0.0727
 1857TIP3    H1 5528   6.616   1.369   1.782 -0.0372  0.3934  0.1189
 1857TIP3    H2 5529   6.553   1.405   1.915 -0.0300 -0.0128  0.2327
 1858TIP3   OH2 5530   6.491   6.039   0.658 -0.3218  0.1051  0.1425
 1858TIP3    H1 5531   6.417   5.980   0.642 -1.7196  1.3188  1.8166
 1858TIP3    H2 5532   6.542   5.996   0.726 -0.2845 -0.0352  0.0282
 1859TIP3   OH2 5533   5.341   2.379   5.624  0.2106  0.0695  0.0356
 1859TIP3    H1 5534   5.321   2.383   5.530  0.4347 -0.6374 -0.0440
 1859TIP3    H2 5535   5.361   2.470   5.647  3.1107 -0.1174 -1.2692
 1860TIP3   OH2 5536   7.478   4.453   6.523 -0.2389  0.0562 -0.4980
 1860TIP3    H1 5537   7.518   4.504   6.594 -1.2759 -1.8795  1.6059
 1860TIP3    H2 5538   7.404   4.506   6.495 -0.1688  0.5928  0.2800
 1861TIP3   OH2 5539   6.369   0.972   5.194  0.3433 -0.5044 -0.4135
 1861TIP3    H1 5540   6.339   0.956   5.104  0.1281  1.1468 -0.6629
 1861TIP3    H2 5541   6.453   1.016   5.183  0.2339 -0.1400  0.1974
 1862TIP3   OH2 5542   6.198   6.447   2.695 -0.2294  0.0368 -0.2437
 1862TIP3    H1 5543   6.159   6.414   2.776  1.5495 -1.9300 -0.1190
 1862TIP3    H2 5544   6.211   6.541   2.711 -0.4002 -0.2101  1.5447
 1863TIP3   OH2 5545   3.361   6.993   4.661  0.1554 -0.2309 -0.3615
 1863TIP3    H1 5546   3.411   7.068   4.627  0.6318  0.8018  2.3723
 1863TIP3    H2 5547   3.421   6.919   4.654 -0.0684 -0.2718 -2.4437
 1864TIP3   OH2 5548   3.759   1.982   1.857 -0.3009 -0.1926  0.1572
 1864TIP3    H1 5549   3.724   2.034   1.930 -0.4810 -0.3295  0.1683
 1864TIP3    H2 5550   3.819   2.042   1.812 -0.4741  0.0146  0.1968
 1865TIP3   OH2 5551   4.527   2.324   0.560 -0.2046  0.1600 -0.5442
 1865TIP3    H1 5552   4.503   2.231   0.563 -0.1832  0.1440 -0.8065
 1865TIP3    H2 5553   4.620   2.324   0.535  0.2231  0.2022  0.9413
 1866TIP3   OH2 5554   5.131   4.141   4.913 -0.1970 -0.4514 -0.1656
 1866TIP3    H1 5555   5.177   4.063   4.945  0.3927  0.7258  2.0920
 1866TIP3    H2 5556   5.039   4.116   4.914 -0.1655 -0.7060  2.0804
 1867TIP3   OH2 5557   1.459   3.531   4.341 -0.3584 -0.2864 -0.1797
 1867TIP3    H1 5558   1.381   3.521   4.396 -0.4671 -1.7189 -0.5591
 1867TIP3    H2 5559   1.424   3.537   4.252 -0.1181  0.8270 -0.2108
 1868TIP3   OH2 5560   4.622   5.375   2.312  0.5254 -0.5113  0.2667
 1868TIP3    H1 5561   4.643   5.283   2.327 -0.4926 -1.0154 -1.2447
 1868TIP3    H2 5562   4.537   5.387   2.352 -0.3657 -0.8371 -1.4388
 1869TIP3   OH2 5563   0.902   7.172   1.606 -0.6858  0.3091  0.1688
 1869TIP3    H1 5564   0.925   7.241   1.669  0.0396  0.3348 -0.1164
 1869TIP3    H2 5565   0.814   7.144   1.633 -0.6365  0.7413  0.8198
 1870TIP3   OH2 5566   0.289   3.108   5.634 -0.0855  0.0651 -0.2306
 1870TIP3    H1 5567   0.253   3.074   5.552  2.9090 -0.8677 -1.2892
 1870TIP3    H2 5568   0.364   3.051   5.653  0.0534  1.0144  2.5223
 1871TIP3   OH2 5569   7.388   3.215   6.600 -0.3192  0.5994  0.3709
 1871TIP3    H1 5570   7.443   3.289   6.576  0.4025  1.1709  3.3563
 1871TIP3    H2 5571   7.333   3.248   6.671 -1.0695 -1.3051  0.7330
 1872TIP3   OH2 5572   0.183   4.056   4.024  0.0573  0.3547 -0.1298
 1872TIP3    H1 5573   0.171   4.047   4.119 -1.6270 -0.1352 -0.3600
 1872TIP3    H2 5574   0.097   4.080   3.991 -0.5384 -3.5481 -1.9844
 1873TIP3   OH2 5575   5.061   1.281   3.347  0.6090 -0.1850  0.3337
 1873TIP3    H1 5576   5.090   1.190   3.339 -0.7534 -0.5452 -0.9732
 1873TIP3    H2 5577   5.022   1.287   3.434  0.0540 -1.0601  0.1509
 1874TIP3   OH2 5578   2.194   5.361   3.282 -0.1627  0.3844  0.0384
 1874TIP3    H1 5579   2.229   5.321   3.361  2.0985 -0.7207 -1.4268
 1874TIP3    H2 5580   2.104   5.327   3.276 -0.3109  0.3163  1.9618
 1875TIP3   OH2 5581   5.199   7.244   3.596 -0.2085 -0.1665  0.1723
 1875TIP3    H1 5582   5.132   7.313   3.595 -0.0733 -0.0065 -1.4633
 1875TIP3    H2 5583   5.163   7.176   3.539  0.9034 -0.1917 -0.5227
 1876TIP3   OH2 5584   6.910   2.848   0.722  0.3197 -0.1669 -0.3144
 1876TIP3    H1 5585   6.959   2.909   0.777 -0.4477  1.7435 -1.6695
 1876TIP3    H2 5586   6.818   2.872   0.735  0.0889 -0.0198 -1.9893
 1877TIP3   OH2 5587   6.927   4.806   3.828 -0.3812  0.3056  0.5367
 1877TIP3    H1 5588   6.851   4.764   3.869 -0.5115  0.4104  0.4060
 1877TIP3    H2 5589   6.998   4.743   3.839 -1.0962 -0.9915 -1.6506
 1878TIP3   OH2 5590   7.965   6.028   4.243 -0.6073 -0.5704 -0.3244
 1878TIP3    H1 5591   7.943   5.958   4.305  2.3343 -0.9641  0.4397
 1878TIP3    H2 5592   8.005   6.095   4.298 -1.6333  0.9089 -1.3210
 1879TIP3   OH2 5593   7.273   2.619   2.686  0.2477 -0.1875 -0.1609
 1879TIP3    H1 5594   7.299   2.631   2.777 -0.7057 -1.4457  0.3008
 1879TIP3    H2 5595   7.180   2.642   2.684  0.6271  1.4526 -1.1929
 1880TIP3   OH2 5596   1.882   4.976   2.139  0.3302  0.0299 -0.2143
 1880TIP3    H1 5597   1.862   4.914   2.068  0.5056 -0.1891 -0.0736
 1880TIP3    H2 5598   1.838   5.057   2.113  0.8214  0.1068 -0.8324
 1881TIP3   OH2 5599   1.427   6.890   1.005 -0.3729  0.0977 -0.7151
 1881TIP3    H1 5600   1.514   6.851   0.997 -1.0619 -1.3538 -1.3679
 1881TIP3    H2 5601   1.424   6.924   1.094  0.5866 -0.5278 -0.4352
 1882TIP3   OH2 5602   4.355   2.003   1.389  0.4042 -0.4025 -0.1480
 1882TIP3    H1 5603   4.376   2.097   1.392  0.9422 -0.5028 -0.5529
 1882TIP3    H2 5604   4.297   1.993   1.314  1.0846 -0.5232 -0.6699
 1883TIP3   OH2 5605   6.098   7.038   5.492  0.2493 -0.1087  0.2573
 1883TIP3    H1 5606   6.147   7.036   5.574  1.5469  0.3207 -0.4841
 1883TIP3    H2 5607   6.100   7.130   5.465 -1.7015  0.0818  0.6065
 1884TIP3   OH2 5608   6.949   5.209   6.646  0.1210  0.0128 -0.5838
 1884TIP3    H1 5609   7.011   5.141   6.621  0.9236 -0.3859  2.2002
 1884TIP3    H2 5610   7.004   5.283   6.673 -0.3617 -0.9415  3.6189
 1885TIP3   OH2 5611   2.704   4.036   4.470  0.5157  0.3101 -0.6265
 1885TIP3    H1 5612   2.699   3.960   4.412 -0.3221  0.5561 -0.8917
 1885TIP3    H2 5613   2.620   4.080   4.459  0.8860  1.1303 -0.2758
 1886TIP3   OH2 5614   3.479   2.007   2.858 -0.6620  0.1051  0.0527
 1886TIP3    H1 5615   3.488   2.001   2.763  1.1083 -0.1851  0.1883
 1886TIP3    H2 5616   3.444   1.922   2.884  1.7705 -1.0515 -0.1299
 1887TIP3   OH2 5617   7.200   0.738   6.602  0.4336  0.4027 -0.4453
 1887TIP3    H1 5618   7.245   0.670   6.653  1.4706  0.3176 -1.4195
 1887TIP3    H2 5619   7.235   0.820   6.635 -1.0649  0.5295  0.9626
 1888TIP3   OH2 5620   1.633   1.841   1.753 -0.0819  0.2616 -0.3585
 1888TIP3    H1 5621   1.669   1.869   1.837 -0.0529  0.8390 -0.5613
 1888TIP3    H2 5622   1.625   1.922   1.702  0.4867 -0.1652 -1.1357
 1889TIP3   OH2 5623   1.740   4.528   1.367  0.4288 -0.5458  0.1179
 1889TIP3    H1 5624   1.714   4.617   1.390  0.3336 -0.7284  0.7282
 1889TIP3    H2 5625   1.657   4.483   1.349  0.2519 -1.1670  2.1981
 1890TIP3   OH2 5626   1.854   7.474   4.652 -0.5363  0.0398  0.6737
 1890TIP3    H1 5627   1.855   7.569   4.663  1.0045  0.0950  0.3210
 1890TIP3    H2 5628   1.916   7.457   4.581  0.7874 -1.3539  2.0539
 1891TIP3   OH2 5629   8.134   7.803   5.171  0.0686  0.1874  0.1672
 1891TIP3    H1 5630   8.138   7.865   5.098  1.1634  0.0919  0.1304
 1891TIP3    H2 5631   8.186   7.728   5.141 -0.8976 -0.5861  0.3772
 1892TIP3   OH2 5632   7.465   2.830   3.157  1.0067  0.5398  0.0928
 1892TIP3    H1 5633   7.514   2.868   3.084  0.4550  1.8509  0.3888
 1892TIP3    H2 5634   7.473   2.893   3.228 -1.6278  1.1659 -0.0482
 1893TIP3   OH2 5635   7.355   3.483   0.141  0.4762  0.0297  0.2674
 1893TIP3    H1 5636   7.293   3.451   0.076  0.7885  1.3111 -0.7145
 1893TIP3    H2 5637   7.398   3.404   0.175 -1.9837 -0.9331  1.3329
 1894TIP3   OH2 5638   5.774   2.772   5.530 -0.0405  0.4084 -0.5888
 1894TIP3    H1 5639   5.861   2.810   5.531  0.9338 -1.5399  2.3638
 1894TIP3    H2 5640   5.757   2.747   5.621 -2.3833 -2.0196 -1.5296
 1895TIP3   OH2 5641   7.915   6.190   0.860 -0.0505 -0.1477  0.2390
 1895TIP3    H1 5642   8.011   6.186   0.861 -0.0143 -1.3082 -2.0423
 1895TIP3    H2 5643   7.896   6.282   0.844  0.6780  0.0999  0.7291
 1896TIP3   OH2 5644   0.455   4.979   4.277  0.0666 -0.5548  0.7903
 1896TIP3    H1 5645   0.394   5.029   4.331  0.3335 -1.7612  2.2857
 1896TIP3    H2 5646   0.520   5.043   4.249 -0.5335  0.2648  1.2263
 1897TIP3   OH2 5647   0.722   3.783   4.353  0.6842  0.0907  0.5715
 1897TIP3    H1 5648   0.745   3.785   4.446 -0.3151 -2.9121  0.9954
 1897TIP3    H2 5649   0.629   3.803   4.351  0.4727 -0.8929  0.3505
 1898TIP3   OH2 5650   6.428   5.229   6.622 -0.0214  0.3191  0.3123
 1898TIP3    H1 5651   6.467   5.143   6.607  0.3098  0.5599 -0.2122
 1898TIP3    H2 5652   6.338   5.210   6.649  0.3757 -0.2305  1.3103
 1899TIP3   OH2 5653   2.891   2.941   1.400  0.4700  0.4460  0.2011
 1899TIP3    H1 5654   2.851   2.919   1.484 -0.3521  0.4017 -0.1880
 1899TIP3    H2 5655   2.977   2.901   1.402  0.5931  0.7397  1.1636
 1900TIP3   OH2 5656   7.410   5.568   5.937  0.0805 -0.7373 -0.1598
 1900TIP3    H1 5657   7.441   5.593   5.850 -1.1775 -0.0468 -0.4226
 1900TIP3    H2 5658   7.463   5.491   5.959  0.2288 -1.0971 -1.6426
 1901TIP3   OH2 5659   6.223   1.415   3.057  0.6836 -0.2502  0.3887
 1901TIP3    H1 5660   6.240   1.355   3.130 -0.1021  0.5642  1.2794
 1901TIP3    H2 5661   6.186   1.360   2.988  1.5840 -1.0622  0.5407
 1902TIP3   OH2 5662   2.452   2.863   2.894  0.2873 -0.3067 -0.2521
 1902TIP3    H1 5663   2.547   2.866   2.887  0.4045 -1.1165  0.8728
 1902TIP3    H2 5664   2.428   2.776   2.863 -0.2412  0.3642 -1.8693
 1903TIP3   OH2 5665   3.906   5.194   0.664 -0.1078 -0.7546 -0.1243
 1903TIP3    H1 5666   3.884   5.273   0.615 -1.0499 -0.7230  0.3232
 1903TIP3    H2 5667   3.826   5.172   0.712  1.0060 -0.3226  2.0607
 1904TIP3   OH2 5668   7.920   7.241   5.192  0.3132  0.1765  0.9984
 1904TIP3    H1 5669   7.953   7.160   5.232 -0.4078 -0.2788  0.6920
 1904TIP3    H2 5670   7.999   7.289   5.165  0.7759 -2.0468 -2.0768
 1905TIP3   OH2 5671   3.473   6.100   2.306  0.4203  0.4343  0.0675
 1905TIP3    H1 5672   3.561   6.101   2.345  0.3017  1.2288  0.3432
 1905TIP3    H2 5673   3.482   6.046   2.227  1.4722  1.5187 -0.5932
 1906TIP3   OH2 5674   6.297   4.598   5.663  0.0487  0.4425  0.5228
 1906TIP3    H1 5675   6.296   4.510   5.701  0.9479  0.6564  1.0592
 1906TIP3    H2 5676   6.337   4.585   5.576 -1.1684  0.1002 -0.0003
 1907TIP3   OH2 5677   2.418   5.846   0.093 -0.0290 -0.1940  0.1381
 1907TIP3    H1 5678   2.496   5.791   0.101  0.0075 -0.6219 -2.1914
 1907TIP3    H2 5679   2.395   5.840  -0.000 -2.6054  0.2548  0.6747
 1908TIP3   OH2 5680   5.210   1.465   3.724 -0.3543  0.1234  0.3373
 1908TIP3    H1 5681   5.137   1.425   3.772  0.1779 -1.3732 -0.0354
 1908TIP3    H2 5682   5.196   1.559   3.732 -2.0634 -0.1332  0.6580
 1909TIP3   OH2 5683   4.163   1.514   3.305 -0.7618 -0.2083 -0.5261
 1909TIP3    H1 5684   4.115   1.538   3.226 -1.8825 -0.5267  0.0359
 1909TIP3    H2 5685   4.205   1.595   3.334 -3.7617  1.0022  0.8515
 1910TIP3   OH2 5686   3.828   3.888   2.593 -0.5244  0.6059  0.7126
 1910TIP3    H1 5687   3.843   3.851   2.680 -0.2099  0.2672  0.5218
 1910TIP3    H2 5688   3.879   3.831   2.535  1.0737  2.1241  0.5439
 1911TIP3   OH2 5689   3.778   7.008   5.752 -0.6720 -0.4629 -0.1870
 1911TIP3    H1 5690   3.759   6.928   5.702 -2.1132 -1.4324  1.7623
 1911TIP3    H2 5691   3.715   7.006   5.824 -1.2482  2.8478 -0.4641
 1912TIP3   OH2 5692   5.701   7.121   5.184  0.0585 -0.0278  0.2687
 1912TIP3    H1 5693   5.784   7.075   5.170 -0.8509 -1.5361 -0.5796
 1912TIP3    H2 5694   5.663   7.127   5.096 -0.6985  0.7181  0.6384
 1913TIP3   OH2 5695   0.872   2.667   2.936 -0.1765 -0.3240 -0.5019
 1913TIP3    H1 5696   0.946   2.721   2.965  1.0873 -1.3272 -1.7721
 1913TIP3    H2 5697   0.826   2.645   3.017  2.2821 -1.6677  0.6271
 1914TIP3   OH2 5698   3.078   7.401   2.097 -0.1072  0.2788 -0.2042
 1914TIP3    H1 5699   3.089   7.359   2.012  0.1107  2.2247 -1.1856
 1914TIP3    H2 5700   3.093   7.494   2.080 -2.1324  1.0001  1.5513
 1915TIP3   OH2 5701   6.909   4.102   0.254 -0.4291 -0.3310  0.0809
 1915TIP3    H1 5702   6.964   4.164   0.302 -0.0425 -0.3182 -0.3697
 1915TIP3    H2 5703   6.868   4.154   0.185 -1.5411 -0.1999  0.8128
 1916TIP3   OH2 5704   5.960   6.898   2.740  0.6482  0.2609 -0.0980
 1916TIP3    H1 5705   5.868   6.879   2.722  1.2123 -1.4757 -1.4975
 1916TIP3    H2 5706   5.969   6.992   2.725 -0.9585  0.5239  0.4426
 1917TIP3   OH2 5707   4.131   7.091   0.994  0.3623 -0.0344 -0.3483
 1917TIP3    H1 5708   4.078   7.011   0.992  0.4456 -0.1507  1.1386
 1917TIP3    H2 5709   4.195   7.075   1.063 -0.3154  1.7524  0.7346
 1918TIP3   OH2 5710   7.114   6.021   4.792  0.5258 -0.0453 -0.2914
 1918TIP3    H1 5711   7.158   6.100   4.825  0.4305 -0.0755 -0.0875
 1918TIP3    H2 5712   7.179   5.980   4.734  0.5132  0.2718 -0.5332
 1919TIP3   OH2 5713   0.789   4.836   1.802 -0.5765 -0.0432  0.4767
 1919TIP3    H1 5714   0.730   4.788   1.745 -0.7921  1.8584 -1.0203
 1919TIP3    H2 5715   0.783   4.927   1.773  3.7615  0.1884 -0.4505
 1920TIP3   OH2 5716   2.371   1.856   4.459 -0.4974 -0.0629 -0.2975
 1920TIP3    H1 5717   2.299   1.876   4.399 -0.2884  0.7458 -0.2919
 1920TIP3    H2 5718   2.448   1.898   4.420 -0.3216  0.3179  0.4326
 1921TIP3   OH2 5719   2.558   5.821   5.205 -0.2594 -0.3927  0.2308
 1921TIP3    H1 5720   2.549   5.725   5.206 -0.3222 -0.4191 -0.9175
 1921TIP3    H2 5721   2.495   5.852   5.270 -0.1623 -1.1361  0.6924
 1922TIP3   OH2 5722   8.126   5.077   2.251  0.0841 -0.0945  0.0831
 1922TIP3    H1 5723   8.089   5.123   2.326  1.3201 -0.5083  0.9689
 1922TIP3    H2 5724   8.116   5.139   2.178  1.7620  1.6648  1.2447
 1923TIP3   OH2 5725   5.452   2.080   6.197  0.4485  0.0728 -0.3538
 1923TIP3    H1 5726   5.442   2.171   6.169  2.4458  0.7365  0.8875
 1923TIP3    H2 5727   5.541   2.057   6.171  0.4554 -1.0626  0.6109
 1924TIP3   OH2 5728   0.280   3.116   3.950 -0.8500  0.7262 -0.1094
 1924TIP3    H1 5729   0.188   3.142   3.954 -0.5795  1.5832  1.1902
 1924TIP3    H2 5730   0.299   3.084   4.039  0.6199  2.4364  0.2398
 1925TIP3   OH2 5731   2.234   1.118   4.432  0.1008 -0.3692 -0.6320
 1925TIP3    H1 5732   2.284   1.187   4.476  0.1195 -1.0765  0.4952
 1925TIP3    H2 5733   2.198   1.066   4.504  2.9129 -3.6237 -1.3143
 1926TIP3   OH2 5734   6.669   2.023   2.107  0.0768 -0.2026  0.0194
 1926TIP3    H1 5735   6.616   1.982   2.038  1.0318 -0.0857 -0.8026
 1926TIP3    H2 5736   6.670   2.116   2.084  0.2258 -0.1324  0.3109
 1927TIP3   OH2 5737   1.391   0.928   1.455  0.0935 -0.2621 -0.0548
 1927TIP3    H1 5738   1.317   0.890   1.407 -0.5815 -0.6954  1.2939
 1927TIP3    H2 5739   1.466   0.877   1.426 -0.4052 -0.9586 -0.1572
 1928TIP3   OH2 5740   6.783   3.676   3.408  0.3046 -0.6230  0.9841
 1928TIP3    H1 5741   6.761   3.583   3.420 -1.7344 -0.5079 -1.0757
 1928TIP3    H2 5742   6.878   3.678   3.400  0.5119 -2.3337  2.4293
 1929TIP3   OH2 5743   5.154   3.826   3.621  0.2698 -0.0824 -0.4702
 1929TIP3    H1 5744   5.125   3.841   3.531  3.8101 -3.5175 -2.4930
 1929TIP3    H2 5745   5.112   3.743   3.646 -0.7682  0.8935  1.2022
 1930TIP3   OH2 5746   2.824   5.602   3.001  0.1928  0.0495 -0.3999
 1930TIP3    H1 5747   2.759   5.644   2.945 -0.0294 -0.4112 -0.4967
 1930TIP3    H2 5748   2.908   5.634   2.967  0.0019  2.9290  1.5509
 1931TIP3   OH2 5749   5.029   4.769   4.377 -0.0869  0.4391  0.7555
 1931TIP3    H1 5750   5.042   4.728   4.462 -1.4804  1.2381  1.3784
 1931TIP3    H2 5751   4.967   4.711   4.332 -0.8687  1.0268  1.0521
 1932TIP3   OH2 5752   1.139   6.984   5.065 -0.1499 -0.0987  0.1164
 1932TIP3    H1 5753   1.219   7.023   5.030 -1.0719  1.0815 -0.7707
 1932TIP3    H2 5754   1.141   7.007   5.158  1.2358 -1.3641  0.4373
 1933TIP3   OH2 5755   6.872   0.320   6.092 -0.0923 -0.5612 -0.4765
 1933TIP3    H1 5756   6.855   0.322   5.998 -0.4567 -2.4619 -0.4797
 1933TIP3    H2 5757   6.965   0.300   6.099  0.8178  3.0758 -0.3958
 1934TIP3   OH2 5758   6.610   6.617   5.516  0.5270  0.1346 -0.2508
 1934TIP3    H1 5759   6.554   6.695   5.522  0.3194  0.0658 -1.1085
 1934TIP3    H2 5760   6.655   6.628   5.432  0.0497 -0.9616 -0.6617
 1935TIP3   OH2 5761   2.759   7.436   3.644  0.4222  0.1540  0.6540
 1935TIP3    H1 5762   2.843   7.411   3.606 -0.1464 -0.3580 -0.3256
 1935TIP3    H2 5763   2.752   7.384   3.724  1.1023  0.3168  0.8223
 1936TIP3   OH2 5764   1.938   6.560   5.770 -0.6453  0.1923  0.0050
 1936TIP3    H1 5765   1.850   6.523   5.773 -1.0271  0.7861 -2.2249
 1936TIP3    H2 5766   1.980   6.516   5.696  0.2001  1.4196 -0.2748
 1937TIP3   OH2 5767   7.267   6.620   5.850  0.1643  0.1218 -0.6522
 1937TIP3    H1 5768   7.199   6.575   5.898 -0.2846  0.7207 -0.7125
 1937TIP3    H2 5769   7.347   6.604   5.900 -0.0973 -0.2266 -0.3487
 1938TIP3   OH2 5770   0.674   5.773   3.990 -0.8728  0.0626  0.3813
 1938TIP3    H1 5771   0.693   5.708   4.058 -2.3087 -0.4355  0.3493
 1938TIP3    H2 5772   0.732   5.750   3.918  0.1264  0.1230  1.1364
 1939TIP3   OH2 5773   0.606   1.826   0.950  0.0646  0.2268  0.2252
 1939TIP3    H1 5774   0.640   1.912   0.926  0.7274 -0.3188 -0.8760
 1939TIP3    H2 5775   0.598   1.829   1.045  0.5055  1.3509  0.2422
 1940TIP3   OH2 5776   3.712   1.624   1.056 -0.3892 -0.0125 -0.6442
 1940TIP3    H1 5777   3.627   1.653   1.023 -0.6131 -1.0604 -1.0225
 1940TIP3    H2 5778   3.704   1.631   1.151 -0.5944  0.6847 -0.7036
 1941TIP3   OH2 5779   7.972   7.357   4.478  0.1537 -0.0843  0.4399
 1941TIP3    H1 5780   7.912   7.291   4.512  0.0974 -0.2555  0.0116
 1941TIP3    H2 5781   8.031   7.309   4.419 -0.5121  0.4046 -0.6494
 1942TIP3   OH2 5782   1.229   3.475   3.567 -0.0530 -0.3264  0.1384
 1942TIP3    H1 5783   1.174   3.511   3.498  0.5077  0.2876  0.0069
 1942TIP3    H2 5784   1.175   3.479   3.646 -0.8137 -1.3249 -0.3083
 1943TIP3   OH2 5785   1.207   3.782   0.640  0.1217  0.0048  0.1585
 1943TIP3    H1 5786   1.204   3.841   0.564 -2.3159 -0.7397 -0.4253
 1943TIP3    H2 5787   1.298   3.783   0.668  0.7698  1.5726 -1.7842
 1944TIP3   OH2 5788   3.756   5.634   4.739  0.4100 -0.3552  0.0460
 1944TIP3    H1 5789   3.842   5.670   4.762  0.6779 -0.4786 -0.7254
 1944TIP3    H2 5790   3.700   5.711   4.728  0.0509 -0.3153  1.8871
 1945TIP3   OH2 5791   5.661   6.710   0.477  0.5797  0.5428 -0.2126
 1945TIP3    H1 5792   5.712   6.645   0.429  2.2043 -0.0548  2.1616
 1945TIP3    H2 5793   5.713   6.790   0.472  0.3472  0.7016 -0.1240
 1946TIP3   OH2 5794   2.764   0.443   0.693 -0.0745  0.2282 -0.0335
 1946TIP3    H1 5795   2.714   0.361   0.696 -2.7293  1.6574 -1.5642
 1946TIP3    H2 5796   2.775   0.461   0.599  0.2752  1.7144  0.2699
 1947TIP3   OH2 5797   4.839   6.474   0.759 -0.3104  0.2066  0.0805
 1947TIP3    H1 5798   4.896   6.400   0.780 -0.7324 -0.6991 -1.6913
 1947TIP3    H2 5799   4.899   6.543   0.730 -0.0034 -0.0233  0.1638
 1948TIP3   OH2 5800   5.518   7.718   4.323 -0.2692  0.1143 -0.5159
 1948TIP3    H1 5801   5.532   7.681   4.411 -0.6409  0.5688 -0.2633
 1948TIP3    H2 5802   5.497   7.642   4.269 -3.3471  0.1370  0.4627
 1949TIP3   OH2 5803   1.517   7.550   0.928 -0.3506 -0.3547 -0.2077
 1949TIP3    H1 5804   1.449   7.485   0.908 -2.2548  1.5218 -0.1046
 1949TIP3    H2 5805   1.518   7.607   0.851  0.5153  0.1517  0.1716
 1950TIP3   OH2 5806   1.929   1.383   6.637 -0.1332 -0.6601 -0.2950
 1950TIP3    H1 5807   1.851   1.388   6.582 -0.9936  0.7205  0.9574
 1950TIP3    H2 5808   1.996   1.432   6.589 -0.2872 -1.1046 -0.9738
 1951TIP3   OH2 5809   5.917   2.835   5.076 -0.1473 -0.0595  0.0078
 1951TIP3    H1 5810   5.980   2.775   5.115 -0.9606 -0.8835  0.0876
 1951TIP3    H2 5811   5.840   2.828   5.132 -0.2471  1.0948  0.0380
 1952TIP3   OH2 5812   5.411   3.701   3.404  0.6263 -0.2081 -0.0376
 1952TIP3    H1 5813   5.452   3.680   3.320 -0.1170 -0.2203 -0.3995
 1952TIP3    H2 5814   5.434   3.793   3.420 -1.6770  0.7616 -1.7252
 1953TIP3   OH2 5815   0.077   4.941   5.217  0.0183  0.5607 -0.2883
 1953TIP3    H1 5816  -0.005   4.986   5.200  1.2010  2.0710 -2.4312
 1953TIP3    H2 5817   0.073   4.862   5.163 -0.2492  0.3079  0.0914
 1954TIP3   OH2 5818   5.569   7.209   1.331 -0.2717  0.3947 -0.6428
 1954TIP3    H1 5819   5.663   7.208   1.315  0.0453  1.0216  0.9575
 1954TIP3    H2 5820   5.539   7.293   1.296  0.0472  0.8716  0.2126
 1955TIP3   OH2 5821   5.367   2.418   1.552  0.1320  0.3861  0.2020
 1955TIP3    H1 5822   5.421   2.435   1.629 -0.1982  0.2407  0.4640
 1955TIP3    H2 5823   5.379   2.325   1.534  1.2554  0.6764 -0.7203
 1956TIP3   OH2 5824   7.305   4.988   0.949  0.2319  0.2415 -0.4147
 1956TIP3    H1 5825   7.279   5.043   0.875 -0.3964  0.4083 -0.0768
 1956TIP3    H2 5826   7.355   5.045   1.006 -1.7039  0.9364  0.6985
 1957TIP3   OH2 5827   7.687   1.874   5.374 -0.1153 -0.3798 -0.1889
 1957TIP3    H1 5828   7.662   1.950   5.426 -0.9322 -1.5988  1.2701
 1957TIP3    H2 5829   7.605   1.828   5.357  0.5761 -2.2129  1.0796
 1958TIP3   OH2 5830   0.784   1.728   5.328 -0.1683 -0.2990  0.0366
 1958TIP3    H1 5831   0.699   1.729   5.370 -0.3626  1.4196 -0.3352
 1958TIP3    H2 5832   0.828   1.650   5.363 -2.0218 -1.4550 -0.0961
 1959TIP3   OH2 5833   7.767   3.883   6.224 -0.2285 -0.1066  0.5500
 1959TIP3    H1 5834   7.765   3.838   6.140 -0.5663  0.9762 -0.0422
 1959TIP3    H2 5835   7.687   3.856   6.268 -1.2180  1.0788 -0.4466
 1960TIP3   OH2 5836   3.806   7.314   3.603 -0.3035  0.8741 -0.5687
 1960TIP3    H1 5837   3.786   7.331   3.511  0.6756 -1.7302 -1.3610
 1960TIP3    H2 5838   3.762   7.231   3.622  1.5126  0.0990  0.5393
 1961TIP3   OH2 5839   1.491   7.644   3.095 -0.1013  0.2478 -0.1317
 1961TIP3    H1 5840   1.534   7.559   3.094  1.5122  0.9672  1.4970
 1961TIP3    H2 5841   1.437   7.642   3.174  0.1592  0.8145  0.0675
 1962TIP3   OH2 5842   2.658   6.837   5.681  0.1142  0.1578  0.1211
 1962TIP3    H1 5843   2.565   6.858   5.676  0.4251  1.5968  0.0554
 1962TIP3    H2 5844   2.665   6.776   5.755 -1.2067 -2.0757 -1.4658
 1963TIP3   OH2 5845   7.376   5.409   2.103 -0.1543  0.0462  0.6638
 1963TIP3    H1 5846   7.334   5.493   2.119  0.8459  0.8602 -0.7692
 1963TIP3    H2 5847   7.317   5.363   2.044  0.4223  0.7517 -0.4886
 1964TIP3   OH2 5848   1.261   6.002   0.957  0.0006 -0.2086  0.7080
 1964TIP3    H1 5849   1.328   6.000   0.889 -0.9987 -1.1249 -0.2921
 1964TIP3    H2 5850   1.223   6.089   0.951 -0.5431 -0.5155 -0.3841
 1965TIP3   OH2 5851   0.572   3.895   0.638  0.3530 -0.2263 -0.1795
 1965TIP3    H1 5852   0.656   3.867   0.673  0.7876  1.8109  0.5522
 1965TIP3    H2 5853   0.508   3.836   0.678  1.2791 -0.8094  0.4694
 1966TIP3   OH2 5854   0.211   1.629   2.631 -0.3092 -0.1158 -0.3527
 1966TIP3    H1 5855   0.148   1.630   2.559 -0.9276  0.5464  0.1926
 1966TIP3    H2 5856   0.169   1.678   2.701  0.4901 -0.3414  0.2976
 1967TIP3   OH2 5857   4.044   1.305   2.527 -0.1974 -0.0539 -0.0150
 1967TIP3    H1 5858   3.986   1.376   2.500  1.3486  0.9442 -0.8309
 1967TIP3    H2 5859   4.100   1.344   2.594 -0.3919 -0.9786  0.7109
 1968TIP3   OH2 5860   8.266   7.328   2.572  0.0384 -0.1725  0.1795
 1968TIP3    H1 5861   8.301   7.414   2.592  1.9080 -0.4116 -1.7430
 1968TIP3    H2 5862   8.185   7.345   2.525 -0.0008  0.5111  0.4849
 1969TIP3   OH2 5863   6.095   6.856   3.996  0.2675 -0.7134 -0.1861
 1969TIP3    H1 5864   6.068   6.821   4.081 -1.8456  1.5381  0.1977
 1969TIP3    H2 5865   6.046   6.806   3.932 -1.2929  0.1859  0.2386
 1970TIP3   OH2 5866   4.962   2.113   4.163 -0.3680  0.3654  0.4939
 1970TIP3    H1 5867   4.883   2.094   4.215 -0.5991 -0.1680 -0.0285
 1970TIP3    H2 5868   5.033   2.114   4.227 -0.9067  1.8226  1.1231
 1971TIP3   OH2 5869   1.654   3.798   3.007  0.4565  0.0519 -0.0299
 1971TIP3    H1 5870   1.725   3.777   3.068  1.1472  1.9345 -0.1146
 1971TIP3    H2 5871   1.698   3.813   2.923 -0.1007  0.5979 -0.2336
 1972TIP3   OH2 5872   1.703   4.321   5.969  0.1851 -0.3129  0.6078
 1972TIP3    H1 5873   1.754   4.384   6.020  0.5720 -0.5700  0.5372
 1972TIP3    H2 5874   1.641   4.284   6.032  0.3412 -0.2794  0.7832
 1973TIP3   OH2 5875   4.244   1.936   2.120 -0.2616  0.2092  0.2249
 1973TIP3    H1 5876   4.325   1.934   2.172 -0.4556 -0.8554  0.5086
 1973TIP3    H2 5877   4.245   1.854   2.071 -0.9225  0.4292 -0.1742
 1974TIP3   OH2 5878   3.867   1.991   3.072 -0.6111  0.3276 -0.5189
 1974TIP3    H1 5879   3.923   1.995   3.149  0.2895 -0.3106 -1.1135
 1974TIP3    H2 5880   3.797   2.053   3.089 -0.4257  0.1901  0.8097
 1975TIP3   OH2 5881   4.744   1.064   1.126  0.2295  0.4677 -0.0186
 1975TIP3    H1 5882   4.759   0.972   1.146 -3.5850 -0.7655 -1.8941
 1975TIP3    H2 5883   4.754   1.109   1.210  2.3600 -1.5478  0.9034
 1976TIP3   OH2 5884   2.530   6.370   5.086  0.0635 -0.3382  0.1854
 1976TIP3    H1 5885   2.524   6.332   4.998  2.0573  1.4628 -0.8388
 1976TIP3    H2 5886   2.484   6.453   5.078  0.8632  0.1596  0.5935
 1977TIP3   OH2 5887   5.438   2.967   5.624 -0.5328  0.1873  0.6672
 1977TIP3    H1 5888   5.461   3.041   5.567 -0.6877 -0.1018  0.2288
 1977TIP3    H2 5889   5.447   2.890   5.568 -0.9096 -0.0754  0.9698
 1978TIP3   OH2 5890   1.792   7.500   3.417  0.7491  0.1081  0.6329
 1978TIP3    H1 5891   1.729   7.562   3.454  0.2342 -2.0625  3.7433
 1978TIP3    H2 5892   1.860   7.492   3.484  0.6955 -2.7472  0.4659
 1979TIP3   OH2 5893   2.580   4.236   2.832 -0.4575  0.6455 -0.2000
 1979TIP3    H1 5894   2.603   4.292   2.758  0.8776  1.5801  0.8593
 1979TIP3    H2 5895   2.647   4.254   2.897 -1.2569 -0.5858  1.0271
 1980TIP3   OH2 5896   6.791   1.590   0.490  0.4325 -0.1388  0.4670
 1980TIP3    H1 5897   6.770   1.499   0.512 -1.2917  0.2988  0.8284
 1980TIP3    H2 5898   6.745   1.606   0.408  0.6784  0.4249  0.4358
 1981TIP3   OH2 5899   7.040   6.601   3.418 -0.6120  0.1191 -0.2333
 1981TIP3    H1 5900   6.947   6.593   3.434 -0.5182  1.5790  1.2243
 1981TIP3    H2 5901   7.062   6.690   3.444  0.9861  0.2208 -1.7001
 1982TIP3   OH2 5902   6.693   6.223   0.114 -0.0108  0.3001 -0.8077
 1982TIP3    H1 5903   6.610   6.192   0.077 -0.4709 -0.8144  1.0340
 1982TIP3    H2 5904   6.730   6.278   0.045 -1.7451 -0.0579 -2.1165
 1983TIP3   OH2 5905   1.237   3.206   0.063 -0.0147 -0.4258 -0.0426
 1983TIP3    H1 5906   1.296   3.132   0.050  0.4598 -0.1317  0.3879
 1983TIP3    H2 5907   1.162   3.169   0.109  0.6432 -0.4821  1.0385
 1984TIP3   OH2 5908   7.608   4.574   2.845  0.2030 -0.0816 -0.6690
 1984TIP3    H1 5909   7.516   4.553   2.860  0.3378  1.0717  2.2912
 1984TIP3    H2 5910   7.611   4.604   2.754 -2.7212  1.7490 -0.2778
 1985TIP3   OH2 5911   7.928   5.712   2.983 -0.1330 -0.3580  0.1800
 1985TIP3    H1 5912   8.000   5.744   3.038 -0.1867  1.6649 -0.8101
 1985TIP3    H2 5913   7.942   5.756   2.898 -0.5241 -2.7149 -1.1901
 1986TIP3   OH2 5914   5.765   1.455   6.633  0.4159 -0.4022 -0.1720
 1986TIP3    H1 5915   5.732   1.540   6.663  0.5673  0.4494 -2.2479
 1986TIP3    H2 5916   5.686   1.405   6.613  0.2905  0.2516 -1.4638
 1987TIP3   OH2 5917   1.543   6.784   6.034  0.1768 -0.2709 -0.4965
 1987TIP3    H1 5918   1.628   6.740   6.026 -1.0424 -3.1983  1.0204
 1987TIP3    H2 5919   1.539   6.843   5.958  2.3358 -2.1999 -2.2652
 1988TIP3   OH2 5920   3.495   1.778   6.292  0.4084  0.3570 -0.3841
 1988TIP3    H1 5921   3.514   1.735   6.208  0.9829  1.2355 -0.7110
 1988TIP3    H2 5922   3.470   1.867   6.269  0.8285  0.6876  0.3938
 1989TIP3   OH2 5923   6.187   7.257   2.116  0.4604  0.0129  0.5775
 1989TIP3    H1 5924   6.203   7.325   2.182  1.4274 -0.1406  0.5285
 1989TIP3    H2 5925   6.096   7.231   2.129 -0.1964  1.8552  0.0949
 1990TIP3   OH2 5926   3.591   7.048   5.349  0.4594  0.3594  0.0353
 1990TIP3    H1 5927   3.570   6.964   5.389  1.4343 -0.3064 -0.8005
 1990TIP3    H2 5928   3.668   7.079   5.398 -0.6064  1.3547  1.1278
 1991TIP3   OH2 5929   1.860   2.151   0.008 -0.2558  0.0966 -0.3791
 1991TIP3    H1 5930   1.880   2.080   0.069 -0.5827 -0.6219 -1.0767
 1991TIP3    H2 5931   1.813   2.108  -0.064  0.4006  0.8513 -1.2933
 1992TIP3   OH2 5932   3.930   5.490   5.087 -0.1269  0.5460 -0.0606
 1992TIP3    H1 5933   3.902   5.582   5.080 -2.1958  0.0829  1.1338
 1992TIP3    H2 5934   3.852   5.440   5.062 -0.1346 -0.8579  2.4270
 1993TIP3   OH2 5935   5.146   1.086   3.061  0.6844 -0.1039  0.0165
 1993TIP3    H1 5936   5.151   1.064   3.154 -0.2938 -0.8105 -0.0769
 1993TIP3    H2 5937   5.113   1.176   3.059  0.1460 -0.2865  0.3556
 1994TIP3   OH2 5938   5.528   5.146   0.044  0.0015 -0.4041 -0.0218
 1994TIP3    H1 5939   5.522   5.236   0.077  0.1983 -0.3515 -0.1275
 1994TIP3    H2 5940   5.611   5.113   0.079 -0.3108 -0.7183  0.4401
 1995TIP3   OH2 5941   3.680   4.724   4.916  0.2404 -0.0383 -0.3133
 1995TIP3    H1 5942   3.752   4.662   4.904  0.3524 -0.1198  0.6957
 1995TIP3    H2 5943   3.647   4.740   4.827 -0.4528 -2.3279 -0.5489
 1996TIP3   OH2 5944   2.922   7.639   1.080 -0.8005 -0.1452  0.2131
 1996TIP3    H1 5945   2.974   7.717   1.060 -0.0296 -0.4712  0.8693
 1996TIP3    H2 5946   2.948   7.576   1.013  2.7380 -1.6728  2.6873
 1997TIP3   OH2 5947   0.714   2.329   1.476  0.2345 -0.2967 -0.1937
 1997TIP3    H1 5948   0.653   2.399   1.453  0.2726 -0.2608 -0.1862
 1997TIP3    H2 5949   0.662   2.270   1.531  0.0413 -0.5710 -0.6662
 1998TIP3   OH2 5950   5.449   2.693   1.493  0.4625  0.3384 -0.2594
 1998TIP3    H1 5951   5.535   2.718   1.526  0.7407 -0.1158 -0.6434
 1998TIP3    H2 5952   5.442   2.599   1.512 -1.2445  0.9302  2.6848
 1999TIP3   OH2 5953   4.646   1.168   0.433 -0.0624  0.6898  0.0011
 1999TIP3    H1 5954   4.717   1.221   0.396  0.9962  0.4441  1.6035
 1999TIP3    H2 5955   4.688   1.116   0.501 -2.1314  2.0167  2.4367
 2000TIP3   OH2 5956   4.009   2.324   0.942  0.3318 -0.0343 -0.4628
 2000TIP3    H1 5957   4.079   2.265   0.915  0.9625  1.0200 -1.2164
 2000TIP3    H2 5958   3.930   2.286   0.903  1.0676  0.8603 -3.0540
 2001TIP3   OH2 5959   1.774   2.499   4.884 -0.3936  0.0899 -0.0874
 2001TIP3    H1 5960   1.688   2.510   4.842  0.3196  1.7647 -1.2227
 2001TIP3    H2 5961   1.813   2.586   4.882  0.7719 -0.3432  1.7324
 2002TIP3   OH2 5962   6.186   0.780   2.028 -1.0921  0.4660  0.1972
 2002TIP3    H1 5963   6.161   0.821   1.945 -0.4821  0.4285 -0.0106
 2002TIP3    H2 5964   6.108   0.731   2.054 -1.5068  0.9847 -0.0303
 2003TIP3   OH2 5965   5.574   1.340   0.761 -0.2740 -0.6472  0.7756
 2003TIP3    H1 5966   5.566   1.403   0.689  1.4558 -1.0445  0.1804
 2003TIP3    H2 5967   5.582   1.394   0.840 -0.6682 -0.1722  0.4946
 2004TIP3   OH2 5968   0.428   2.112   5.140 -0.7589 -0.1457  0.2615
 2004TIP3    H1 5969   0.472   2.096   5.223  0.9016 -1.4853 -0.8088
 2004TIP3    H2 5970   0.336   2.125   5.164  0.0837  2.5073  2.5587
 2005TIP3   OH2 5971   7.410   4.750   1.118 -0.2015 -0.5260  0.3624
 2005TIP3    H1 5972   7.428   4.844   1.130 -1.0819 -0.2384 -0.4885
 2005TIP3    H2 5973   7.492   4.715   1.082  1.3112 -0.7664  3.6546
 2006TIP3   OH2 5974   6.245   6.773   5.013  0.0272  0.4252  0.3093
 2006TIP3    H1 5975   6.187   6.758   4.938 -0.9460  1.4865  0.8227
 2006TIP3    H2 5976   6.234   6.866   5.033  0.9919  0.3640  1.1965
 2007TIP3   OH2 5977   5.203   4.273   1.226 -0.1897  1.0222  0.6126
 2007TIP3    H1 5978   5.146   4.288   1.150 -0.7559 -0.0226  0.8111
 2007TIP3    H2 5979   5.188   4.181   1.249 -1.1782  1.7104  2.9381
 2008TIP3   OH2 5980   3.321   0.509   1.165  0.3753 -0.0311 -0.4704
 2008TIP3    H1 5981   3.289   0.470   1.084  1.6677 -0.6589 -0.6997
 2008TIP3    H2 5982   3.252   0.570   1.191 -1.3291 -1.7949 -0.5765
 2009TIP3   OH2 5983   6.775   5.569   2.510  0.3506  0.0874  0.6813
 2009TIP3    H1 5984   6.786   5.640   2.573 -0.3493  0.8826 -0.0639
 2009TIP3    H2 5985   6.863   5.553   2.477  0.3402  1.6606 -0.2237
 2010TIP3   OH2 5986   5.934   1.409   0.704  0.2874 -0.1404 -0.2543
 2010TIP3    H1 5987   5.905   1.329   0.661  0.3999  0.0055 -0.6061
 2010TIP3    H2 5988   5.913   1.396   0.797 -0.9109 -0.0402 -0.4938
 2011TIP3   OH2 5989   3.718   2.127   5.560 -0.6333  0.3104 -0.0446
 2011TIP3    H1 5990   3.744   2.076   5.637 -0.0940 -0.2713 -0.6000
 2011TIP3    H2 5991   3.701   2.061   5.493 -1.6134  0.7910 -0.2725
 2012TIP3   OH2 5992   5.345   6.934   0.695 -0.0769 -0.2277  0.0136
 2012TIP3    H1 5993   5.323   6.950   0.787  0.1817  1.0273 -0.1147
 2012TIP3    H2 5994   5.366   7.021   0.661 -1.7159 -0.4342 -1.6383
 2013TIP3   OH2 5995   1.810   6.778   3.105  0.0515 -0.1748 -0.5213
 2013TIP3    H1 5996   1.764   6.857   3.076 -0.7817 -0.8339 -1.0296
 2013TIP3    H2 5997   1.766   6.706   3.060  0.3370 -1.0048  0.4913
 2014TIP3   OH2 5998   6.269   1.036   0.869  0.0580  0.2161  0.3972
 2014TIP3    H1 5999   6.277   0.973   0.940 -0.5377 -1.0244 -0.5883
 2014TIP3    H2 6000   6.326   1.002   0.800  0.4758  1.2885  0.1980
 2015TIP3   OH2 6001   3.998   3.178   3.609  0.9604  0.0891 -0.0350
 2015TIP3    H1 6002   3.947   3.230   3.548  2.1838  0.6507 -0.6026
 2015TIP3    H2 6003   3.990   3.088   3.577  1.0528  0.2962 -0.6548
 2016TIP3   OH2 6004   7.305   6.248   0.915 -0.2846  0.3899 -0.2371
 2016TIP3    H1 6005   7.287   6.207   0.831  1.1711 -0.6986 -0.0479
 2016TIP3    H2 6006   7.311   6.176   0.977 -0.4111  1.1005  0.6282
 2017TIP3   OH2 6007   4.587   3.531   0.755 -0.2025 -0.4568 -0.3817
 2017TIP3    H1 6008   4.541   3.610   0.727 -1.8624 -2.0330 -2.4279
 2017TIP3    H2 6009   4.678   3.547   0.730 -0.3449  1.0769 -0.0569
 2018TIP3   OH2 6010   1.321   7.008   6.020  0.3650 -0.2373 -0.5058
 2018TIP3    H1 6011   1.337   6.913   6.020  0.3762 -0.2425  0.4317
 2018TIP3    H2 6012   1.403   7.047   6.049  0.5466  0.1091 -1.4437
 2019TIP3   OH2 6013   7.432   6.188   2.405 -0.1747 -0.7491  0.1034
 2019TIP3    H1 6014   7.411   6.279   2.424 -0.3156 -1.1239  1.9010
 2019TIP3    H2 6015   7.526   6.187   2.390 -0.3849 -0.0999 -1.4132
 2020TIP3   OH2 6016   8.055   1.322   5.391 -0.6957 -0.3632 -0.2383
 2020TIP3    H1 6017   8.116   1.274   5.335 -0.4903 -0.2382 -0.1221
 2020TIP3    H2 6018   8.051   1.410   5.354 -0.9377 -0.4176 -0.3458
 2021TIP3   OH2 6019   8.234   4.807   6.259 -0.1899 -0.1048 -0.2806
 2021TIP3    H1 6020   8.319   4.781   6.223  0.2775  1.6961 -0.5411
 2021TIP3    H2 6021   8.184   4.837   6.183 -0.1711  1.1365  0.1796
 2022TIP3   OH2 6022   2.121   2.986   2.721  0.0062  0.0107  0.3682
 2022TIP3    H1 6023   2.182   3.050   2.684 -1.5268  1.4548  0.2058
 2022TIP3    H2 6024   2.140   2.985   2.814 -0.7193  1.6686  0.5775
 2023TIP3   OH2 6025   0.250   3.483   4.544  0.1259  0.0999  0.4878
 2023TIP3    H1 6026   0.308   3.513   4.474 -0.9211 -0.1391 -0.5070
 2023TIP3    H2 6027   0.177   3.544   4.544  0.8289  1.0431  2.4527
 2024TIP3   OH2 6028   0.709   5.375   5.058  0.2202 -0.0407 -0.0021
 2024TIP3    H1 6029   0.800   5.367   5.088  0.8235  3.1642 -0.6711
 2024TIP3    H2 6030   0.714   5.364   4.963 -0.0094  0.5623 -0.0876
 2025TIP3   OH2 6031   3.191   5.781   0.194  0.2177 -0.0241 -0.9693
 2025TIP3    H1 6032   3.157   5.794   0.282 -1.1462  0.7047 -1.5607
 2025TIP3    H2 6033   3.182   5.688   0.177 -0.2014 -0.0515 -0.5996
 2026TIP3   OH2 6034   4.085   1.122   3.212 -0.3131  0.3659 -0.1156
 2026TIP3    H1 6035   4.122   1.209   3.230 -1.3003  1.1425 -1.5781
 2026TIP3    H2 6036   4.121   1.065   3.280 -0.6678  2.1881  1.7070
 2027TIP3   OH2 6037   7.107   4.457   1.757  0.2867  0.0872  0.1475
 2027TIP3    H1 6038   7.019   4.480   1.730  0.7349  1.5504 -0.1263
 2027TIP3    H2 6039   7.154   4.439   1.675 -0.1082 -2.2094  0.3456
 2028TIP3   OH2 6040   8.010   3.897   3.330  0.1185  0.0400  0.0823
 2028TIP3    H1 6041   8.011   3.828   3.264 -0.9570 -1.1634  1.2370
 2028TIP3    H2 6042   8.100   3.899   3.364  0.1775 -0.7855 -0.0009
 2029TIP3   OH2 6043   4.720   4.544   0.874  0.0353  0.4603 -0.8860
 2029TIP3    H1 6044   4.762   4.515   0.955  1.5512  0.3877 -1.6650
 2029TIP3    H2 6045   4.672   4.467   0.844  0.9198 -0.0709 -0.9663
 2030TIP3   OH2 6046   5.492   0.780   6.312 -0.3988  0.5626 -0.0700
 2030TIP3    H1 6047   5.582   0.748   6.316  0.3321  2.1014 -2.0914
 2030TIP3    H2 6048   5.441   0.705   6.281 -0.2445 -0.8900  2.8461
 2031TIP3   OH2 6049   0.502   2.134   2.066  0.7151  0.3671 -0.1477
 2031TIP3    H1 6050   0.437   2.101   2.128  0.5625  1.6270  0.3839
 2031TIP3    H2 6051   0.513   2.063   2.003 -0.2928 -0.3219  0.4291
 2032TIP3   OH2 6052   7.592   4.345   1.838 -0.5186 -0.2241 -0.3181
 2032TIP3    H1 6053   7.560   4.329   1.749  0.5410 -3.4777 -0.2380
 2032TIP3    H2 6054   7.668   4.403   1.826  0.4402 -1.6842 -1.7488
 2033TIP3   OH2 6055   0.648   0.435   2.700  0.1202  0.0946 -0.1656
 2033TIP3    H1 6056   0.575   0.421   2.640 -1.3665 -2.2488  1.9887
 2033TIP3    H2 6057   0.683   0.347   2.717  1.1233  0.7701  1.6007
 2034TIP3   OH2 6058   2.173   1.498   5.433  0.1306 -0.2153  0.2318
 2034TIP3    H1 6059   2.213   1.412   5.425 -1.0222 -0.8065  0.6027
 2034TIP3    H2 6060   2.194   1.542   5.350  3.2813  0.3129  1.1674
 2035TIP3   OH2 6061   4.038   6.412   6.387  0.4040 -0.2292 -0.1289
 2035TIP3    H1 6062   4.046   6.332   6.335  0.7250 -1.6900  2.0420
 2035TIP3    H2 6063   4.124   6.423   6.427  0.3748  1.2698 -0.4290
 2036TIP3   OH2 6064   8.253   3.069   2.722 -0.1941  0.1297 -0.5492
 2036TIP3    H1 6065   8.176   3.016   2.699 -0.9235  0.4026  1.0703
 2036TIP3    H2 6066   8.252   3.142   2.660 -0.5175 -0.5350 -1.3380
 2037TIP3   OH2 6067   4.064   3.766   4.085  0.6056  0.0248 -1.1708
 2037TIP3    H1 6068   4.039   3.709   4.012  3.4592 -2.0959 -0.6748
 2037TIP3    H2 6069   4.150   3.735   4.111 -0.1634  0.8206  3.0174
 2038TIP3   OH2 6070   7.562   3.463   5.567  0.5421 -0.6969 -0.1706
 2038TIP3    H1 6071   7.554   3.383   5.515 -0.8492  0.3641 -1.6574
 2038TIP3    H2 6072   7.646   3.501   5.540 -0.2119 -0.1045 -1.7896
 2039TIP3   OH2 6073   1.263   5.404   5.560 -0.0737  0.2855  0.0663
 2039TIP3    H1 6074   1.318   5.345   5.509  0.2346 -0.7143  1.4918
 2039TIP3    H2 6075   1.317   5.482   5.574 -0.2734  0.6953 -1.3554
 2040TIP3   OH2 6076   5.026   7.778   5.888 -0.8761  0.2364  0.1397
 2040TIP3    H1 6077   5.037   7.870   5.913 -1.6998  0.4345 -0.1873
 2040TIP3    H2 6078   5.114   7.749   5.864 -0.2940  0.4583  1.8274
 2041TIP3   OH2 6079   0.132   0.005   5.717  0.5838  0.1505  0.6821
 2041TIP3    H1 6080   0.188   0.081   5.723  1.8043 -0.3818 -2.1505
 2041TIP3    H2 6081   0.146  -0.043   5.798  1.9335  1.5251  1.2951
 2042TIP3   OH2 6082   2.846   1.092   6.596  0.0822  0.4888  0.1865
 2042TIP3    H1 6083   2.816   1.154   6.663  1.2231  0.4238  0.7810
 2042TIP3    H2 6084   2.906   1.143   6.542  1.7524 -0.3077  1.2320
 2043TIP3   OH2 6085   4.761   5.415   2.669 -0.0831  0.0017 -0.3667
 2043TIP3    H1 6086   4.719   5.498   2.645  0.5633  0.2859 -0.5447
 2043TIP3    H2 6087   4.827   5.401   2.602  0.3219 -0.2738  0.0801
 2044TIP3   OH2 6088   3.668   0.400   2.426  0.0327  0.0635  0.3932
 2044TIP3    H1 6089   3.751   0.430   2.389 -0.7476  0.8060 -0.7991
 2044TIP3    H2 6090   3.626   0.351   2.355 -1.4649  1.4604  0.2702
 2045TIP3   OH2 6091   3.947   2.544   2.967  0.6151 -0.5596  0.3743
 2045TIP3    H1 6092   3.948   2.584   2.880 -2.0296 -0.2868  0.3946
 2045TIP3    H2 6093   3.927   2.452   2.951  1.0377 -0.6997  0.6445
 2046TIP3   OH2 6094   4.172   3.805   1.653  0.7120 -0.0078 -0.2644
 2046TIP3    H1 6095   4.111   3.876   1.634  0.2254  0.0171  1.2290
 2046TIP3    H2 6096   4.144   3.733   1.596 -1.2853 -0.2727  0.9430
 2047TIP3   OH2 6097   4.974   5.718   3.286 -0.1412  0.2799 -0.1606
 2047TIP3    H1 6098   4.941   5.737   3.198  0.0699 -0.5755 -0.4343
 2047TIP3    H2 6099   4.958   5.799   3.336 -0.7181  0.6000 -0.8459
 2048TIP3   OH2 6100   0.073   4.277   0.576  0.5646  0.4550 -0.0078
 2048TIP3    H1 6101   0.068   4.304   0.667  0.4042  0.0646  0.0979
 2048TIP3    H2 6102   0.132   4.201   0.576 -0.5889 -0.4608 -0.0155
 2049TIP3   OH2 6103   0.713   7.069   4.343  0.3716 -0.5604  0.0857
 2049TIP3    H1 6104   0.705   7.041   4.435  2.8786  0.1119  0.5836
 2049TIP3    H2 6105   0.637   7.029   4.300 -1.1622 -0.5131  2.5116
 2050TIP3   OH2 6106   2.463   2.549   4.491 -0.2451 -0.2741 -1.0864
 2050TIP3    H1 6107   2.451   2.471   4.438 -1.3533 -1.7914  1.2490
 2050TIP3    H2 6108   2.553   2.542   4.524 -0.1112 -0.1916 -1.4330
 2051TIP3   OH2 6109   3.460   4.235   3.725  0.0129 -0.3964 -0.3022
 2051TIP3    H1 6110   3.547   4.196   3.714  0.5860  1.0925 -1.4837
 2051TIP3    H2 6111   3.444   4.231   3.820  0.2334 -2.9522 -0.3130
 2052TIP3   OH2 6112   6.057   1.748   3.655 -0.3722 -0.1006  0.0403
 2052TIP3    H1 6113   6.108   1.757   3.735 -0.1372 -0.0989 -0.1052
 2052TIP3    H2 6114   5.978   1.801   3.669  0.0235  0.5224 -0.0196
 2053TIP3   OH2 6115   0.414   3.890   1.669 -0.0451 -0.1148  0.1423
 2053TIP3    H1 6116   0.398   3.812   1.615 -2.1425 -0.3282  0.9869
 2053TIP3    H2 6117   0.372   3.870   1.753  0.5416  1.4118  0.8240
 2054TIP3   OH2 6118   1.156   2.463   0.520 -0.5831 -0.2263  0.3905
 2054TIP3    H1 6119   1.152   2.439   0.612  1.3511 -0.2725  0.4939
 2054TIP3    H2 6120   1.131   2.383   0.473 -1.2209 -0.3041  0.8651
 2055TIP3   OH2 6121   3.508   5.160   6.317  0.2345  0.3314  0.5399
 2055TIP3    H1 6122   3.472   5.162   6.406  1.5238  0.0060  1.1024
 2055TIP3    H2 6123   3.593   5.204   6.325 -0.6874  2.5855 -1.0760
 2056TIP3   OH2 6124   5.514   0.064   2.345  0.1950  0.3403 -0.6170
 2056TIP3    H1 6125   5.579  -0.007   2.341  0.3167  0.3142  1.1123
 2056TIP3    H2 6126   5.566   0.144   2.337  0.3871  0.3004  0.1476
 2057TIP3   OH2 6127   1.001   0.665   2.704  0.2049  0.4200 -0.0963
 2057TIP3    H1 6128   0.986   0.750   2.663  0.1514  1.3217  1.6796
 2057TIP3    H2 6129   0.924   0.651   2.760  0.5683 -0.4304  0.2106
 2058TIP3   OH2 6130   1.534   7.317   1.164  0.2343  0.1200 -0.3120
 2058TIP3    H1 6131   1.625   7.290   1.176 -0.1452 -0.6610  0.8879
 2058TIP3    H2 6132   1.514   7.371   1.241 -0.4443 -0.0364 -0.3692
 2059TIP3   OH2 6133   0.447   7.008   6.530 -0.0245  0.7625 -0.6201
 2059TIP3    H1 6134   0.484   7.086   6.572  5.0140  0.1369 -3.1138
 2059TIP3    H2 6135   0.398   7.042   6.455  0.4690  1.5734 -0.5842
 2060TIP3   OH2 6136   8.102   2.216   4.585  0.0288  0.0090 -0.7003
 2060TIP3    H1 6137   8.044   2.250   4.653  0.4521  0.1913 -0.4339
 2060TIP3    H2 6138   8.122   2.126   4.612  0.0273  0.0104 -0.6950
 2061TIP3   OH2 6139   4.752   2.606   0.236  0.5240  0.1964 -0.0415
 2061TIP3    H1 6140   4.705   2.647   0.308  1.7228  0.5676  0.5526
 2061TIP3    H2 6141   4.731   2.513   0.244  1.6624  0.0502  1.5908
 2062TIP3   OH2 6142   0.047   3.854   0.134  0.3410 -0.6853  0.4639
 2062TIP3    H1 6143   0.009   3.931   0.178 -0.7533  0.2735 -1.9540
 2062TIP3    H2 6144   0.001   3.780   0.172 -3.6382  0.3707 -1.7058
 2063TIP3   OH2 6145   2.669   0.088   6.030  0.1667 -0.0479 -0.4621
 2063TIP3    H1 6146   2.737   0.135   6.078  0.7618 -0.2152 -1.1191
 2063TIP3    H2 6147   2.618   0.043   6.097  0.6970  0.0917  0.0403
 2064TIP3   OH2 6148   2.369   1.992   1.029  0.3916  0.2473 -0.2006
 2064TIP3    H1 6149   2.462   1.981   1.011  0.5374  0.6945  0.2617
 2064TIP3    H2 6150   2.358   1.963   1.119 -0.1853 -1.1723 -0.7042
 2065TIP3   OH2 6151   4.630   6.663   4.418 -0.4383 -0.1512  0.3018
 2065TIP3    H1 6152   4.580   6.744   4.415  0.2753  0.2960  0.1899
 2065TIP3    H2 6153   4.573   6.601   4.464 -0.6787  0.6318  1.0858
 2066TIP3   OH2 6154   2.238   6.843   3.916  0.1063  0.1969  0.5345
 2066TIP3    H1 6155   2.328   6.875   3.926 -0.3042  0.8813  2.3548
 2066TIP3    H2 6156   2.183   6.916   3.945 -0.9702 -0.8585  1.2413
 2067TIP3   OH2 6157   0.081   7.739   4.011  0.3094  0.0308 -0.9578
 2067TIP3    H1 6158   0.096   7.759   3.918  0.2975  1.2147 -0.7276
 2067TIP3    H2 6159   0.153   7.782   4.057  0.9131 -1.4490 -0.4767
 2068TIP3   OH2 6160   0.400   7.207   1.581  0.8608 -0.9576 -0.3851
 2068TIP3    H1 6161   0.334   7.137   1.581  0.4150 -0.5625  0.9645
 2068TIP3    H2 6162   0.395   7.244   1.493 -1.0591 -0.6418 -0.1888
 2069TIP3   OH2 6163   6.582   7.086   5.538 -0.1209  0.2833 -0.4671
 2069TIP3    H1 6164   6.674   7.100   5.517  0.4085 -0.3538  1.2022
 2069TIP3    H2 6165   6.535   7.104   5.457  1.4766  0.5682 -1.3668
 2070TIP3   OH2 6166   7.662   4.590   4.965 -0.2134 -0.1913 -0.1172
 2070TIP3    H1 6167   7.580   4.589   5.016  0.2327 -0.2644  0.6116
 2070TIP3    H2 6168   7.638   4.554   4.880 -0.4032 -2.6747  0.9182
 2071TIP3   OH2 6169   3.179   3.079   2.532 -0.3742 -0.0678  0.6343
 2071TIP3    H1 6170   3.259   3.048   2.577 -1.0164 -0.3166  1.6413
 2071TIP3    H2 6171   3.144   3.146   2.590 -0.8205  0.1451  0.1185
 2072TIP3   OH2 6172   7.180   2.556   0.494 -0.3216 -0.3816 -0.4101
 2072TIP3    H1 6173   7.197   2.641   0.534 -0.5762 -0.7511  0.5180
 2072TIP3    H2 6174   7.216   2.563   0.405 -0.4196  0.7130 -0.3736
 2073TIP3   OH2 6175   5.586   3.092   2.401  0.3912  0.4311 -0.1598
 2073TIP3    H1 6176   5.635   3.093   2.483  0.0828 -1.4983  0.0897
 2073TIP3    H2 6177   5.520   3.024   2.413 -0.8782  1.3853 -1.3420
 2074TIP3   OH2 6178   4.389   1.625   0.188 -0.5562  0.4307  0.1486
 2074TIP3    H1 6179   4.480   1.641   0.212  0.2470 -0.0607 -2.2921
 2074TIP3    H2 6180   4.369   1.539   0.225 -0.2244  0.7751  1.1463
 2075TIP3   OH2 6181   4.214   3.844   6.141  0.1794 -0.8175  0.1244
 2075TIP3    H1 6182   4.259   3.818   6.221  0.4934  1.3930  0.7283
 2075TIP3    H2 6183   4.150   3.773   6.126 -0.7675 -0.7282  3.0371
 2076TIP3   OH2 6184   4.664   5.432   1.265  0.3817 -0.2223  0.7246
 2076TIP3    H1 6185   4.736   5.492   1.288  1.2086 -2.0055  3.2111
 2076TIP3    H2 6186   4.585   5.481   1.286  0.6563  2.0132 -2.6264
 2077TIP3   OH2 6187   7.497   3.721   0.279  0.3591  0.6576 -0.2356
 2077TIP3    H1 6188   7.466   3.737   0.368 -0.9210  1.4808 -0.8092
 2077TIP3    H2 6189   7.464   3.634   0.258  0.0946  0.7400 -0.1569
 2078TIP3   OH2 6190   1.470   1.873   3.670  0.3969 -0.3667 -0.6774
 2078TIP3    H1 6191   1.379   1.859   3.696  0.3346  0.1982 -0.5879
 2078TIP3    H2 6192   1.478   1.967   3.656  1.8668  0.1904  2.8286
 2079TIP3   OH2 6193   1.213   7.118   0.762  0.4182 -0.1404 -0.5729
 2079TIP3    H1 6194   1.233   7.180   0.833 -0.6063 -0.8498  0.3764
 2079TIP3    H2 6195   1.190   7.037   0.808  0.8728 -0.9684 -1.7678
 2080TIP3   OH2 6196   8.184   3.679   1.607  0.7289  0.0406  0.4835
 2080TIP3    H1 6197   8.108   3.625   1.628  0.7929  0.6898  2.6121
 2080TIP3    H2 6198   8.194   3.671   1.512 -1.2160 -1.0555  0.3256
 2081TIP3   OH2 6199   6.163   6.819   6.429  0.4043  0.4365  0.2922
 2081TIP3    H1 6200   6.204   6.903   6.451 -0.9767  0.9730  0.9451
 2081TIP3    H2 6201   6.071   6.841   6.415  0.1523 -0.8800 -0.1705
 2082TIP3   OH2 6202   6.072   2.408   4.438  0.2671 -0.0913  0.1887
 2082TIP3    H1 6203   6.098   2.385   4.527 -1.1839 -1.0245  0.4089
 2082TIP3    H2 6204   6.107   2.496   4.425  1.3964 -0.3490  1.2916
 2083TIP3   OH2 6205   1.370   4.791   3.088 -0.1088 -0.6256 -0.5883
 2083TIP3    H1 6206   1.378   4.791   2.993 -2.1035 -0.3417 -0.7975
 2083TIP3    H2 6207   1.430   4.723   3.118 -0.5837 -1.7815 -2.1627
 2084TIP3   OH2 6208   0.997   7.230   5.705 -0.5323 -0.3037 -0.0694
 2084TIP3    H1 6209   1.018   7.309   5.753 -0.0235 -1.1938  1.2211
 2084TIP3    H2 6210   1.081   7.187   5.690 -0.7025 -0.1827 -1.5656
 2085TIP3   OH2 6211   4.072   4.826   5.732  0.2369  0.6017  0.3882
 2085TIP3    H1 6212   3.998   4.773   5.762  0.6681  0.6342  1.5356
 2085TIP3    H2 6213   4.146   4.766   5.730  0.8181  1.1988  2.0820
 2086TIP3   OH2 6214   1.809   0.776   0.057 -0.2807 -0.4432  0.3239
 2086TIP3    H1 6215   1.752   0.712   0.099 -1.1364  0.0469 -0.0771
 2086TIP3    H2 6216   1.753   0.852   0.040  0.6734  0.3615  0.6465
 2087TIP3   OH2 6217   5.683   0.567   1.129  0.0146  0.0302  0.0895
 2087TIP3    H1 6218   5.696   0.576   1.035  0.7579 -2.1513 -0.0702
 2087TIP3    H2 6219   5.767   0.533   1.162 -1.1780 -2.2448  1.0230
 2088TIP3   OH2 6220   3.426   2.107   6.118  0.3100  0.0474  0.1280
 2088TIP3    H1 6221   3.514   2.143   6.124  0.5322 -0.4390 -0.1415
 2088TIP3    H2 6222   3.369   2.176   6.152  0.6784  0.8373 -0.8187
 2089TIP3   OH2 6223   6.385   4.700   6.709 -0.2659 -0.0542 -0.1902
 2089TIP3    H1 6224   6.302   4.738   6.738  0.0141  0.6251 -0.2671
 2089TIP3    H2 6225   6.409   4.640   6.779  0.5154  1.7254  1.1528
 2090TIP3   OH2 6226   6.946   1.651   6.751  0.3931  0.0722 -0.1598
 2090TIP3    H1 6227   6.893   1.685   6.823 -1.8005 -0.2421 -1.5194
 2090TIP3    H2 6228   6.886   1.649   6.677  2.1486 -1.0501 -1.6317
 2091TIP3   OH2 6229   5.166   6.618   0.385 -0.6463 -0.0414  0.7783
 2091TIP3    H1 6230   5.213   6.699   0.405 -1.4508  0.8297 -0.6559
 2091TIP3    H2 6231   5.141   6.583   0.471  0.1368  0.9645  1.4448
 2092TIP3   OH2 6232   0.166   5.961   4.125 -0.1268  0.4686 -0.3632
 2092TIP3    H1 6233   0.094   5.937   4.183  0.4573 -0.7947 -0.1446
 2092TIP3    H2 6234   0.242   5.912   4.158  0.7254  1.3844 -0.8927
 2093TIP3   OH2 6235   6.936   5.478   1.590  0.3664  0.0149  0.1430
 2093TIP3    H1 6236   7.031   5.469   1.597  0.3183  0.0751  1.0780
 2093TIP3    H2 6237   6.903   5.428   1.665 -0.3610 -0.4000 -0.4502
 2094TIP3   OH2 6238   3.547   4.751   5.214  0.0622  0.5707 -0.1141
 2094TIP3    H1 6239   3.500   4.686   5.162  0.7917 -0.7353  0.8201
 2094TIP3    H2 6240   3.480   4.789   5.271  0.0592 -1.1426  1.0775
 2095TIP3   OH2 6241   7.520   1.700   6.549 -0.1228  0.0434 -0.7374
 2095TIP3    H1 6242   7.460   1.646   6.600  0.1139  0.7860  0.3541
 2095TIP3    H2 6243   7.494   1.790   6.569  0.1813  0.3607 -1.7002
 2096TIP3   OH2 6244   6.307   5.603   3.159  0.4427  1.0691  0.3366
 2096TIP3    H1 6245   6.278   5.694   3.158  0.0398  0.9428  0.3241
 2096TIP3    H2 6246   6.261   5.562   3.086  0.6625  0.8677  0.3087
 2097TIP3   OH2 6247   3.325   5.421   3.474  0.5498  0.0504 -0.4161
 2097TIP3    H1 6248   3.296   5.500   3.520 -0.1018 -0.8007  0.6990
 2097TIP3    H2 6249   3.399   5.390   3.525 -0.5935 -1.2721  0.5233
 2098TIP3   OH2 6250   2.156   7.054   5.877 -0.0113 -0.5739  0.2162
 2098TIP3    H1 6251   2.093   6.986   5.854  0.3896 -1.1932  0.8981
 2098TIP3    H2 6252   2.143   7.069   5.970  0.0444  0.1461  0.1137
 2099TIP3   OH2 6253   3.806   2.760   3.219  0.4035  0.3712 -0.3923
 2099TIP3    H1 6254   3.891   2.764   3.262  0.7854 -0.4385 -1.0423
 2099TIP3    H2 6255   3.819   2.700   3.146 -0.2596  1.5721 -1.5499
 2100TIP3   OH2 6256   2.726   5.336   3.195  0.3074 -0.4183 -0.3801
 2100TIP3    H1 6257   2.711   5.295   3.110  0.3968 -0.6855 -0.2676
 2100TIP3    H2 6258   2.640   5.333   3.238  0.9214 -3.3188  0.8681
 2101TIP3   OH2 6259   4.327   2.684   5.151  0.1995 -0.1969 -0.5450
 2101TIP3    H1 6260   4.341   2.590   5.143 -0.8387 -0.5856  1.7128
 2101TIP3    H2 6261   4.246   2.693   5.201  0.2808  1.9132 -0.6917
 2102TIP3   OH2 6262   6.492   6.334   4.423  0.2794 -0.3898 -0.6384
 2102TIP3    H1 6263   6.432   6.264   4.397 -0.2075 -0.0269 -0.5276
 2102TIP3    H2 6264   6.559   6.291   4.476 -0.3624 -0.6920 -0.0500
 2103TIP3   OH2 6265   6.395   7.315   2.378 -0.1209  0.1533 -0.1522
 2103TIP3    H1 6266   6.455   7.340   2.448 -1.6356  0.0957  1.2310
 2103TIP3    H2 6267   6.405   7.220   2.371 -0.2516  0.1029  0.2844
 2104TIP3   OH2 6268   0.245   4.683   4.198  0.2497  0.0670 -0.6623
 2104TIP3    H1 6269   0.225   4.615   4.134 -0.6872 -0.6004  0.3216
 2104TIP3    H2 6270   0.306   4.741   4.152 -0.0956 -0.6045 -2.0241
 2105TIP3   OH2 6271   5.401   0.641   2.026 -0.1931 -0.1455 -0.3792
 2105TIP3    H1 6272   5.371   0.703   2.092  0.4647 -0.9992  0.7466
 2105TIP3    H2 6273   5.362   0.673   1.944  2.7233  3.6859 -0.5259
 2106TIP3   OH2 6274   6.561   1.975   4.746  0.3048 -0.2645  0.0513
 2106TIP3    H1 6275   6.547   2.067   4.723 -0.8648 -0.5089 -0.2804
 2106TIP3    H2 6276   6.654   1.970   4.767  0.9912  0.4810 -2.4225
 2107TIP3   OH2 6277   5.243   0.484   5.883 -0.5477  1.2391 -0.5148
 2107TIP3    H1 6278   5.175   0.493   5.816 -0.0582  1.5915 -0.9720
 2107TIP3    H2 6279   5.283   0.399   5.866 -1.6034  0.5070  0.4591
 2108TIP3   OH2 6280   2.612   0.711   2.410 -0.0798 -0.5049 -0.4115
 2108TIP3    H1 6281   2.584   0.735   2.321  2.8198 -0.1830 -1.3436
 2108TIP3    H2 6282   2.615   0.615   2.409  0.2433 -0.4972 -0.8065
 2109TIP3   OH2 6283   5.354   6.318   4.461 -0.0802 -0.1062  0.1480
 2109TIP3    H1 6284   5.288   6.385   4.477 -0.3874 -0.7944  2.1554
 2109TIP3    H2 6285   5.437   6.360   4.485 -0.3209 -0.5161  1.8394
 2110TIP3   OH2 6286   6.027   2.214   1.533  0.4517 -0.2760 -0.2035
 2110TIP3    H1 6287   6.103   2.261   1.497  1.0130  0.1116  1.4166
 2110TIP3    H2 6288   6.038   2.220   1.628 -2.7512  1.7237  0.2022
 2111TIP3   OH2 6289   5.666   5.356   1.123 -0.3265 -0.1090  0.2117
 2111TIP3    H1 6290   5.603   5.305   1.175  0.3680 -0.4328  0.7514
 2111TIP3    H2 6291   5.746   5.305   1.126  0.0108  0.3766 -0.3509
 2112TIP3   OH2 6292   6.480   0.426   0.394 -0.3667  0.0895  0.0180
 2112TIP3    H1 6293   6.393   0.466   0.398 -0.0605  0.8919 -1.0942
 2112TIP3    H2 6294   6.463   0.332   0.395 -1.3522  0.2219 -1.7813
 2113TIP3   OH2 6295   4.527   2.850   3.419 -0.2909 -0.3177 -0.5954
 2113TIP3    H1 6296   4.611   2.875   3.457 -1.4046  1.9035  0.6226
 2113TIP3    H2 6297   4.515   2.759   3.444  1.0657 -0.2133  0.5573
 2114TIP3   OH2 6298   3.014   0.211   2.964 -0.4029 -1.2022 -0.3512
 2114TIP3    H1 6299   3.035   0.205   3.058 -1.0087  1.0360 -0.0112
 2114TIP3    H2 6300   3.084   0.265   2.928 -2.0977  1.1282 -0.3977
 2115TIP3   OH2 6301   0.031   3.671   4.516  0.3690 -0.1969  0.2398
 2115TIP3    H1 6302   0.015   3.641   4.427 -0.0698  1.5494 -0.3161
 2115TIP3    H2 6303   0.000   3.762   4.517  4.5319  1.4427  0.8662
 2116TIP3   OH2 6304   4.132   3.475   1.040 -0.4050 -0.2537 -0.7583
 2116TIP3    H1 6305   4.041   3.502   1.050 -0.6617 -0.8691 -1.3560
 2116TIP3    H2 6306   4.181   3.557   1.033 -0.9305  0.0776 -0.5940
 2117TIP3   OH2 6307   3.092   0.148   5.666 -0.2995  0.2431  0.3960
 2117TIP3    H1 6308   3.038   0.202   5.609 -0.6611 -1.3266 -0.8111
 2117TIP3    H2 6309   3.182   0.168   5.639 -0.4485 -0.1066 -0.3889
 2118TIP3   OH2 6310   7.789   0.429   2.137 -0.2217 -0.0680 -0.2791
 2118TIP3    H1 6311   7.881   0.404   2.149  0.1642  0.3502 -2.1028
 2118TIP3    H2 6312   7.739   0.352   2.166  0.7119 -0.5332  0.1475
 2119TIP3   OH2 6313   6.477   1.273   3.545 -0.6836 -0.2873  0.0601
 2119TIP3    H1 6314   6.489   1.347   3.604  1.2449 -0.8014  0.3630
 2119TIP3    H2 6315   6.414   1.217   3.590  1.0428 -0.8724  1.8741
 2120TIP3   OH2 6316   3.713   1.322   5.898 -0.4224 -0.1673  0.1667
 2120TIP3    H1 6317   3.625   1.330   5.861 -1.8470 -1.7736  2.8920
 2120TIP3    H2 6318   3.706   1.250   5.961  3.1243 -0.9711 -0.1498
 2121TIP3   OH2 6319   0.500   7.703   1.233  0.0564 -0.3482  0.2314
 2121TIP3    H1 6320   0.508   7.785   1.185 -1.2537 -0.4850 -0.2690
 2121TIP3    H2 6321   0.588   7.666   1.234  0.7460  1.2477  0.8313
 2122TIP3   OH2 6322   1.379   2.462   5.020  0.4242  0.5842  0.6595
 2122TIP3    H1 6323   1.412   2.488   4.935  1.9880  2.3298  1.7121
 2122TIP3    H2 6324   1.334   2.379   5.005  1.3584  0.4425 -1.6921
 2123TIP3   OH2 6325   0.698   0.691   0.265 -0.3326  0.0989 -0.1299
 2123TIP3    H1 6326   0.692   0.781   0.297  0.3785  1.1783 -2.7657
 2123TIP3    H2 6327   0.610   0.656   0.275 -1.1270  1.7841 -0.7905
 2124TIP3   OH2 6328   4.866   3.890   3.995 -0.1691 -0.0898 -0.4852
 2124TIP3    H1 6329   4.881   3.831   4.069  0.1947  0.8782  0.2395
 2124TIP3    H2 6330   4.954   3.919   3.970 -0.4329  2.0072  0.7571
 2125TIP3   OH2 6331   0.340   3.735   0.770  0.7799  0.0418  0.0745
 2125TIP3    H1 6332   0.314   3.643   0.772  1.3040 -0.1066  1.7587
 2125TIP3    H2 6333   0.262   3.783   0.796  1.0440 -0.1037  1.1944
 2126TIP3   OH2 6334   1.753   5.097   1.087  0.3325  0.4252  0.1233
 2126TIP3    H1 6335   1.796   5.068   1.168  1.4938  0.4193 -0.4727
 2126TIP3    H2 6336   1.668   5.054   1.089  0.5321  0.0401  1.1174
 2127TIP3   OH2 6337   3.443   5.909   1.607  0.2541  0.0647 -0.3598
 2127TIP3    H1 6338   3.397   5.971   1.550 -0.1445  0.8085  0.7242
 2127TIP3    H2 6339   3.385   5.833   1.612 -1.0458  1.0842  1.1799
 2128TIP3   OH2 6340   4.605   4.721   2.761 -0.0976  0.3018 -0.2952
 2128TIP3    H1 6341   4.542   4.735   2.831  0.3630  0.2768  0.1254
 2128TIP3    H2 6342   4.565   4.653   2.707  0.2624 -0.8507  0.8416
 2129TIP3   OH2 6343   4.192   1.207   1.190 -0.2296  0.3143 -0.6958
 2129TIP3    H1 6344   4.208   1.274   1.256 -0.1012 -1.2465  0.9429
 2129TIP3    H2 6345   4.157   1.133   1.240  2.9622 -2.1598 -1.8169
 2130TIP3   OH2 6346   1.231   6.756   5.974 -0.1778  0.8693  0.7567
 2130TIP3    H1 6347   1.241   6.675   6.022  1.7192  0.5508 -0.0735
 2130TIP3    H2 6348   1.170   6.735   5.903 -0.0703  0.3064  0.8291
 2131TIP3   OH2 6349   4.513   2.941   6.460 -0.2915  0.3966  0.4945
 2131TIP3    H1 6350   4.481   2.879   6.395  2.8630 -1.8532  0.8605
 2131TIP3    H2 6351   4.596   2.973   6.424  0.7728  0.2761  2.6608
 2132TIP3   OH2 6352   1.944   6.893   4.380 -0.3489 -0.4619  0.4197
 2132TIP3    H1 6353   1.863   6.936   4.353 -0.4815 -0.5255  0.7206
 2132TIP3    H2 6354   2.009   6.963   4.384 -0.1075 -0.5759 -0.9314
 2133TIP3   OH2 6355   2.343   1.689   6.673 -0.4795 -0.5427  0.0079
 2133TIP3    H1 6356   2.269   1.635   6.646 -0.1694 -0.6357 -0.6556
 2133TIP3    H2 6357   2.312   1.779   6.664  0.8710 -0.3064 -4.7330
 2134TIP3   OH2 6358   0.834   2.107   0.167  0.0967 -0.4901  0.1265
 2134TIP3    H1 6359   0.743   2.114   0.198  0.2578  0.1213  0.4607
 2134TIP3    H2 6360   0.856   2.015   0.181 -0.8092 -0.8959 -0.9175
 2135TIP3   OH2 6361   7.479   5.056   4.128  0.2251 -0.3342  0.2929
 2135TIP3    H1 6362   7.545   5.097   4.073  0.6248 -0.5035  0.6395
 2135TIP3    H2 6363   7.426   5.128   4.161  1.1273 -0.0611  1.1678
 2136TIP3   OH2 6364   7.597   1.799   6.067 -0.0489 -0.3131 -0.1391
 2136TIP3    H1 6365   7.527   1.822   6.129  1.6632 -1.2743  2.3028
 2136TIP3    H2 6366   7.652   1.878   6.064 -0.2071 -0.2165 -0.5859
 2137TIP3   OH2 6367   2.791   4.668   6.301 -0.0990  0.0929 -0.3966
 2137TIP3    H1 6368   2.780   4.590   6.355 -0.6416  0.6503  0.3370
 2137TIP3    H2 6369   2.867   4.649   6.246  0.7535 -0.3452  0.8717
 2138TIP3   OH2 6370   7.785   0.733   6.380 -0.0149  0.1746  0.3424
 2138TIP3    H1 6371   7.873   0.753   6.413  0.5386  0.7415 -1.3458
 2138TIP3    H2 6372   7.726   0.758   6.451  1.1451  0.4964  1.2219
 2139TIP3   OH2 6373   0.329   5.312   4.878  0.1567 -0.4184  0.3637
 2139TIP3    H1 6374   0.238   5.289   4.860  0.0734  0.9394 -1.1919
 2139TIP3    H2 6375   0.327   5.405   4.899  1.1163 -0.5296  1.0127
 2140TIP3   OH2 6376   5.387   1.484   2.766  0.6452  0.7030  0.5697
 2140TIP3    H1 6377   5.447   1.549   2.728 -0.2966  2.3246  1.7574
 2140TIP3    H2 6378   5.301   1.507   2.731  0.5014 -0.9155 -0.2289
 2141TIP3   OH2 6379   4.338   7.428   6.645  0.2349 -0.3518  0.1278
 2141TIP3    H1 6380   4.348   7.440   6.550 -0.2072 -0.7518  0.0290
 2141TIP3    H2 6381   4.254   7.385   6.655  0.9053 -1.6151  0.5954
 2142TIP3   OH2 6382   7.478   4.967   1.881  0.0269 -0.3168 -0.1896
 2142TIP3    H1 6383   7.519   4.909   1.817 -1.3209 -3.0091  1.2398
 2142TIP3    H2 6384   7.393   4.988   1.844  0.2683  0.3041 -0.4162
 2143TIP3   OH2 6385   2.957   7.137   2.053 -0.2952 -0.8570  0.5761
 2143TIP3    H1 6386   2.866   7.111   2.065 -0.3818  0.4482  3.6912
 2143TIP3    H2 6387   2.961   7.227   2.086  1.7640 -0.1630 -1.3313
 2144TIP3   OH2 6388   1.881   4.912   6.113  0.3043 -0.8146 -0.7967
 2144TIP3    H1 6389   1.908   5.002   6.130 -0.8758 -0.5558 -0.2454
 2144TIP3    H2 6390   1.830   4.916   6.032 -0.0021 -0.9372 -0.6108
 2145TIP3   OH2 6391   0.320   2.238   5.593 -0.5574 -0.0334 -0.1379
 2145TIP3    H1 6392   0.271   2.318   5.578 -0.3266  0.0441 -0.4956
 2145TIP3    H2 6393   0.409   2.267   5.612 -0.3549 -0.2212 -0.7835
 2146TIP3   OH2 6394   4.986   5.217   5.283  0.5854  0.2853  0.2033
 2146TIP3    H1 6395   4.996   5.122   5.286 -0.8648  0.1182  0.4791
 2146TIP3    H2 6396   4.952   5.240   5.369  2.3693  1.2740  0.6902
 2147TIP3   OH2 6397   1.668   6.298   1.569 -0.1184  0.0833  0.7765
 2147TIP3    H1 6398   1.650   6.227   1.507  0.6667 -0.7018  1.4171
 2147TIP3    H2 6399   1.749   6.338   1.538 -0.0729  0.1081  0.9241
 2148TIP3   OH2 6400   4.487   6.372   2.482 -0.3597  0.4224  0.7043
 2148TIP3    H1 6401   4.546   6.414   2.544  2.5351 -1.9908 -0.1522
 2148TIP3    H2 6402   4.497   6.421   2.401 -0.6178  0.8618  0.9385
 2149TIP3   OH2 6403   5.385   5.144   2.692 -0.0462 -0.4400 -0.3737
 2149TIP3    H1 6404   5.414   5.127   2.603 -0.4286 -2.9296 -0.0974
 2149TIP3    H2 6405   5.440   5.087   2.747 -0.9224 -0.1859  0.8159
 2150TIP3   OH2 6406   1.557   1.755   2.413  0.2439  0.4221 -0.3811
 2150TIP3    H1 6407   1.615   1.733   2.486 -0.1203  1.9784  0.4176
 2150TIP3    H2 6408   1.597   1.832   2.372 -0.2996  0.4207 -0.9345
 2151TIP3   OH2 6409   4.201   5.616   2.683 -0.1482 -0.0851  0.3563
 2151TIP3    H1 6410   4.119   5.565   2.682 -0.3626  0.2595  0.1113
 2151TIP3    H2 6411   4.179   5.695   2.732  0.7427 -1.1283  2.5913
 2152TIP3   OH2 6412   1.098   0.324   5.560  0.3634 -0.4890  0.3937
 2152TIP3    H1 6413   1.008   0.356   5.561  0.8935  1.0906  0.1154
 2152TIP3    H2 6414   1.134   0.349   5.645  1.0622  0.5416 -0.1776
 2153TIP3   OH2 6415   6.567   2.515   3.435  0.4687  0.3690  0.4408
 2153TIP3    H1 6416   6.494   2.458   3.457 -1.0815  2.3853  0.8090
 2153TIP3    H2 6417   6.622   2.463   3.377 -2.4910 -0.4634 -1.8157
 2154TIP3   OH2 6418   0.795   0.799   1.907  0.2178  0.2359 -0.0841
 2154TIP3    H1 6419   0.733   0.831   1.973  0.5238 -0.1603  0.4002
 2154TIP3    H2 6420   0.770   0.707   1.894  2.2818 -0.7177  2.0148
 2155TIP3   OH2 6421   4.778   1.836   0.596 -0.7328 -0.2828 -0.1161
 2155TIP3    H1 6422   4.730   1.839   0.679  0.2107  1.3668  0.4076
 2155TIP3    H2 6423   4.775   1.926   0.563  0.0271 -0.6432 -1.2327
 2156TIP3   OH2 6424   5.560   0.832   0.678  0.3021 -0.2072 -0.0874
 2156TIP3    H1 6425   5.655   0.823   0.678  0.6597  2.3865 -2.0648
 2156TIP3    H2 6426   5.532   0.787   0.598 -0.1545 -0.9064  0.4538
 2157TIP3   OH2 6427   1.633   1.475   6.386 -0.2092  0.3699 -0.0260
 2157TIP3    H1 6428   1.559   1.426   6.420 -0.7689  1.3130  0.1577
 2157TIP3    H2 6429   1.701   1.409   6.369 -0.1142 -0.2226  2.3566
 2158TIP3   OH2 6430   7.941   7.012   0.340 -0.2353 -0.5463 -0.1180
 2158TIP3    H1 6431   7.883   7.084   0.316 -0.9906 -1.0768  0.0932
 2158TIP3    H2 6432   7.907   6.981   0.424 -0.3443 -1.5900 -0.5385
 2159TIP3   OH2 6433   3.719   3.300   6.460 -0.2027 -0.0169  0.5217
 2159TIP3    H1 6434   3.632   3.335   6.445 -0.8124 -2.0343 -1.0127
 2159TIP3    H2 6435   3.764   3.308   6.376 -0.1556 -2.2039  0.2818
 2160TIP3   OH2 6436   1.162   5.875   0.036 -0.3271 -0.2877 -0.4268
 2160TIP3    H1 6437   1.196   5.876  -0.054  2.5491 -0.5083  0.5682
 2160TIP3    H2 6438   1.231   5.915   0.089 -1.5540 -0.9794  1.8275
 2161TIP3   OH2 6439   5.556   4.776   1.197  0.2487 -0.0165  0.1172
 2161TIP3    H1 6440   5.488   4.725   1.153  0.3443  0.1180 -0.1881
 2161TIP3    H2 6441   5.595   4.830   1.128 -1.0086  1.7780  0.7250
 2162TIP3   OH2 6442   4.425   5.355   4.973  0.3069  0.0595  0.6372
 2162TIP3    H1 6443   4.392   5.324   5.057  1.0841  0.4596  1.1064
 2162TIP3    H2 6444   4.520   5.364   4.987  0.6014 -0.8737 -0.5915
 2163TIP3   OH2 6445   7.511   3.074   3.278 -0.8695 -0.6626 -0.4054
 2163TIP3    H1 6446   7.469   3.118   3.351  0.3731 -0.2264  0.0666
 2163TIP3    H2 6447   7.582   3.133   3.252  0.0808 -1.8243 -0.5213
 2164TIP3   OH2 6448   1.692   6.644   4.506 -0.1988  0.3857  0.1119
 2164TIP3    H1 6449   1.658   6.698   4.435  0.4075 -0.2128 -0.6504
 2164TIP3    H2 6450   1.629   6.571   4.512  0.2402 -0.0481 -0.4408
 2165TIP3   OH2 6451   7.795   2.969   3.173 -0.0032 -0.2773 -0.8243
 2165TIP3    H1 6452   7.769   2.906   3.241 -1.0908  2.0580  1.0802
 2165TIP3    H2 6453   7.889   2.956   3.163 -0.0719 -1.6752  0.0563
 2166TIP3   OH2 6454   0.230   5.991   1.680 -0.7658  0.3716 -0.0363
 2166TIP3    H1 6455   0.184   5.911   1.656 -0.6012 -0.6764  2.7423
 2166TIP3    H2 6456   0.319   5.963   1.701 -1.1847  0.8422  2.8196
 2167TIP3   OH2 6457   2.044   6.388   1.231 -0.0070 -0.5090 -0.3582
 2167TIP3    H1 6458   1.959   6.346   1.223  1.0067 -2.3972 -2.3475
 2167TIP3    H2 6459   2.037   6.468   1.179 -0.6040 -0.5365 -0.3275
 2168TIP3   OH2 6460   5.526   6.276   0.594  0.2658  0.0081  0.1395
 2168TIP3    H1 6461   5.576   6.348   0.634  1.2506 -0.8095  0.4426
 2168TIP3    H2 6462   5.574   6.197   0.620  0.8413 -0.5961 -2.4899
 2169TIP3   OH2 6463   2.165   4.287   0.250  0.4234 -0.3918  0.2916
 2169TIP3    H1 6464   2.107   4.285   0.174  0.3581 -0.7508  0.3500
 2169TIP3    H2 6465   2.252   4.267   0.214  0.1161 -2.4314  0.5560
 2170TIP3   OH2 6466   1.736   6.124   3.193  0.4395  0.1907 -0.0414
 2170TIP3    H1 6467   1.698   6.067   3.260 -0.6795  1.4514  0.4285
 2170TIP3    H2 6468   1.668   6.133   3.127  0.4003  1.4117  0.1515
 2171TIP3   OH2 6469   1.211   5.476   2.614  0.7119 -0.0952  0.1848
 2171TIP3    H1 6470   1.296   5.433   2.614  0.7957  0.0025 -1.2570
 2171TIP3    H2 6471   1.152   5.415   2.659  0.5174 -2.4844 -2.9043
 2172TIP3   OH2 6472   6.335   2.326   2.630  0.0058 -0.2879  0.2206
 2172TIP3    H1 6473   6.318   2.237   2.661  0.9733 -1.0177 -1.2510
 2172TIP3    H2 6474   6.427   2.341   2.652  0.0426  0.0851 -0.1861
 2173TIP3   OH2 6475   7.690   7.226   1.472 -0.3527  0.2264  0.0893
 2173TIP3    H1 6476   7.633   7.222   1.549 -0.4547  2.3280  0.1871
 2173TIP3    H2 6477   7.707   7.319   1.460 -0.1889 -0.0470 -2.3314
 2174TIP3   OH2 6478   7.526   7.376   2.554 -0.9158  0.5481 -0.0594
 2174TIP3    H1 6479   7.536   7.384   2.649 -1.3434 -0.6642  0.0954
 2174TIP3    H2 6480   7.514   7.466   2.524  0.4594  1.0860  0.8824
 2175TIP3   OH2 6481   0.624   4.048   0.418  0.4771  0.2672 -0.5863
 2175TIP3    H1 6482   0.541   4.044   0.371  0.3990 -0.1459 -0.4201
 2175TIP3    H2 6483   0.598   4.056   0.510  0.5678 -1.8323 -0.3187
 2176TIP3   OH2 6484   4.801   6.428   4.682  0.3621 -0.5019 -0.3408
 2176TIP3    H1 6485   4.743   6.482   4.734  2.7520 -0.0326  2.0400
 2176TIP3    H2 6486   4.763   6.340   4.686 -0.8406  0.0250  0.0274
 2177TIP3   OH2 6487   2.809   1.250   3.625 -0.2917  0.0145 -0.1267
 2177TIP3    H1 6488   2.818   1.198   3.705  2.2614  2.8349  1.6917
 2177TIP3    H2 6489   2.896   1.247   3.585 -0.7420  0.9701 -1.2256
 2178TIP3   OH2 6490   7.685   6.291   6.397 -0.1836  0.0487 -0.0154
 2178TIP3    H1 6491   7.594   6.319   6.406  0.0358  0.3392  1.4718
 2178TIP3    H2 6492   7.735   6.373   6.391  0.0255 -0.1030 -0.3782
 2179TIP3   OH2 6493   4.742   3.145   4.177  0.4327 -0.0163 -0.0573
 2179TIP3    H1 6494   4.718   3.059   4.212 -0.1645 -0.1291 -0.7219
 2179TIP3    H2 6495   4.669   3.202   4.200 -0.1959 -0.2031 -1.4959
 2180TIP3   OH2 6496   7.562   1.872   5.025  0.2704 -0.0898  0.0648
 2180TIP3    H1 6497   7.490   1.904   5.080  0.5489 -1.7968  1.5255
 2180TIP3    H2 6498   7.520   1.843   4.945 -0.4959  0.1332  0.3754
 2181TIP3   OH2 6499   6.135   1.858   5.213 -0.3363  0.1844  0.1838
 2181TIP3    H1 6500   6.135   1.771   5.174 -1.0237  0.8205 -1.3389
 2181TIP3    H2 6501   6.223   1.892   5.197 -0.4997  0.2942 -0.5296
 2182TIP3   OH2 6502   7.928   5.935   1.934 -0.0544  0.9987  0.2257
 2182TIP3    H1 6503   7.893   6.019   1.906  0.5263  0.8714 -0.9540
 2182TIP3    H2 6504   8.021   5.938   1.910 -0.0992 -0.0989 -0.1478
 2183TIP3   OH2 6505   5.465   4.194   6.185  0.3931 -0.2577  0.1506
 2183TIP3    H1 6506   5.507   4.150   6.111 -0.4442 -1.2535  0.2609
 2183TIP3    H2 6507   5.403   4.254   6.145  1.8471  1.2178 -0.0159
 2184TIP3   OH2 6508   2.074   1.440   6.300  0.2094  0.1061  0.1359
 2184TIP3    H1 6509   2.118   1.431   6.385 -2.1722  1.0642  1.5776
 2184TIP3    H2 6510   2.054   1.534   6.293 -2.0875 -0.3523 -0.1228
 2185TIP3   OH2 6511   6.232   3.866   3.225  0.1475  0.2700 -0.0010
 2185TIP3    H1 6512   6.296   3.804   3.261  0.1326 -0.4513 -1.1679
 2185TIP3    H2 6513   6.275   3.902   3.147  0.1876  1.8140  0.7077
 2186TIP3   OH2 6514   2.594   0.390   3.948  0.3316 -0.1545  0.0183
 2186TIP3    H1 6515   2.539   0.315   3.969 -0.4541  0.6005  0.8017
 2186TIP3    H2 6516   2.657   0.357   3.885 -0.2944 -1.3441 -0.0238
 2187TIP3   OH2 6517   4.463   2.422   5.168  0.0069 -0.1992 -0.2442
 2187TIP3    H1 6518   4.509   2.379   5.096  0.0145 -0.3679 -0.1383
 2187TIP3    H2 6519   4.378   2.379   5.171 -0.9237  1.3781 -1.6850
 2188TIP3   OH2 6520   2.009   3.604   5.345  0.5904 -0.1932  0.1170
 2188TIP3    H1 6521   2.054   3.605   5.261 -0.2719 -1.4297 -0.3803
 2188TIP3    H2 6522   2.059   3.542   5.398  0.5414 -0.1871  0.1704
 2189TIP3   OH2 6523   7.783   0.482   2.874  0.1511 -0.2037  0.3505
 2189TIP3    H1 6524   7.717   0.421   2.909  0.8636 -1.1024  0.1741
 2189TIP3    H2 6525   7.866   0.447   2.906  0.8125 -0.8840 -1.9624
 2190TIP3   OH2 6526   5.017   0.783   3.627 -0.0809 -0.3569  0.4768
 2190TIP3    H1 6527   5.038   0.729   3.703  1.3957 -0.4152  0.0607
 2190TIP3    H2 6528   5.069   0.863   3.640  0.1964 -0.3779 -0.4718
 2191TIP3   OH2 6529   4.906   0.694   6.457 -0.6780  0.6553 -0.2203
 2191TIP3    H1 6530   4.937   0.631   6.392  2.2217  0.9422  0.7090
 2191TIP3    H2 6531   4.952   0.670   6.537 -2.6561  1.4920  1.2513
 2192TIP3   OH2 6532   5.504   5.733   6.060 -0.4076  0.2496  0.1762
 2192TIP3    H1 6533   5.577   5.697   6.111 -0.5589  0.4171  0.5134
 2192TIP3    H2 6534   5.533   5.821   6.035 -0.7539  0.5722  0.8749
 2193TIP3   OH2 6535   4.050   4.700   3.344 -0.3654 -0.4789  0.0744
 2193TIP3    H1 6536   3.972   4.696   3.398 -0.8486 -0.1633 -0.5821
 2193TIP3    H2 6537   4.121   4.718   3.406 -0.6931 -1.4658  0.7668
 2194TIP3   OH2 6538   6.159   5.520   2.925 -0.0099  0.2029  0.3874
 2194TIP3    H1 6539   6.156   5.472   2.842  0.6795 -1.8250  1.4655
 2194TIP3    H2 6540   6.069   5.519   2.956 -0.6000  2.3843 -1.0202
 2195TIP3   OH2 6541   2.221   4.151   3.802 -0.1548 -0.0780 -0.2326
 2195TIP3    H1 6542   2.313   4.170   3.786  0.2621 -1.5553  0.2361
 2195TIP3    H2 6543   2.214   4.140   3.897 -0.7111 -0.4379 -0.3071
 2196TIP3   OH2 6544   5.270   2.338   0.063 -0.3729 -0.2641 -0.2507
 2196TIP3    H1 6545   5.253   2.258   0.013  0.6861 -1.5414  1.3239
 2196TIP3    H2 6546   5.184   2.377   0.075 -0.7620 -0.3495 -2.2907
 2197TIP3   OH2 6547   7.445   2.546   5.501  0.2564 -0.3802  0.0247
 2197TIP3    H1 6548   7.427   2.637   5.475 -0.9141 -0.7466 -0.5078
 2197TIP3    H2 6549   7.400   2.536   5.585  2.2449  0.1648  1.2059
 2198TIP3   OH2 6550   1.168   3.193   3.654 -0.0111  0.8905 -0.5804
 2198TIP3    H1 6551   1.201   3.273   3.614 -0.7416  2.3020  1.4961
 2198TIP3    H2 6552   1.084   3.218   3.692  0.8029 -0.1703  2.1892
 2199TIP3   OH2 6553   2.057   5.115   0.356  0.2319  0.2639 -0.0092
 2199TIP3    H1 6554   2.015   5.200   0.371 -1.6225 -0.2368 -1.8650
 2199TIP3    H2 6555   2.138   5.137   0.311  1.3079  1.1649  2.2252
 2200TIP3   OH2 6556   1.699   0.103   0.219  0.0335  0.1623 -0.3840
 2200TIP3    H1 6557   1.767   0.140   0.162 -0.1014 -1.4532 -1.6907
 2200TIP3    H2 6558   1.625   0.162   0.210  1.1648  1.8707  0.9357
 2201TIP3   OH2 6559   4.523   0.723   4.537  0.2106 -0.1804  0.1757
 2201TIP3    H1 6560   4.516   0.628   4.529 -0.4033 -0.0199 -1.7991
 2201TIP3    H2 6561   4.489   0.743   4.624 -1.1122 -1.6517  0.0420
 2202TIP3   OH2 6562   4.658   5.112   2.394  0.5805 -0.5827  0.1015
 2202TIP3    H1 6563   4.730   5.089   2.453  0.1938  0.9616  1.2356
 2202TIP3    H2 6564   4.579   5.085   2.442  0.1635  2.0541  1.0835
 2203TIP3   OH2 6565   4.297   6.863   3.500 -0.0186 -0.0488 -0.3940
 2203TIP3    H1 6566   4.367   6.800   3.515  1.9357  1.3175 -2.9355
 2203TIP3    H2 6567   4.232   6.816   3.448  1.0817 -0.2151 -1.6581
 2204TIP3   OH2 6568   2.454   6.677   6.292 -0.6222 -0.3297  0.0925
 2204TIP3    H1 6569   2.543   6.653   6.319 -1.3524 -1.9106  1.2662
 2204TIP3    H2 6570   2.463   6.707   6.202  0.8906 -1.9910 -0.3490
 2205TIP3   OH2 6571   2.910   7.400   5.715 -0.0929 -0.2565  0.1794
 2205TIP3    H1 6572   2.856   7.428   5.642  0.0962 -1.3149 -0.3894
 2205TIP3    H2 6573   2.993   7.447   5.704 -0.1491 -0.2399 -0.1639
 2206TIP3   OH2 6574   3.670   5.782   4.068  0.2994 -0.0602 -0.7348
 2206TIP3    H1 6575   3.610   5.749   4.002 -1.1621  0.4092  0.3020
 2206TIP3    H2 6576   3.631   5.864   4.098  0.9688 -0.1937  0.6229
 2207TIP3   OH2 6577   6.061   6.838   1.870 -0.6449  0.0582  0.0968
 2207TIP3    H1 6578   6.063   6.815   1.777  4.0033  0.4214 -0.0853
 2207TIP3    H2 6579   6.104   6.923   1.875 -0.7689  0.0435  2.6267
 2208TIP3   OH2 6580   1.902   2.149   3.298 -0.3499 -0.1410  0.2225
 2208TIP3    H1 6581   1.853   2.198   3.363 -2.0216  0.4171 -1.3783
 2208TIP3    H2 6582   1.965   2.097   3.349  0.1120  2.1145  2.0790
 2209TIP3   OH2 6583   7.980   6.842   1.085  0.3778  0.2764 -0.3651
 2209TIP3    H1 6584   7.909   6.806   1.138  1.3491 -0.9102  0.1683
 2209TIP3    H2 6585   7.960   6.816   0.995  0.1372 -0.0505 -0.2169
 2210TIP3   OH2 6586   1.317   4.385   2.965  0.0088  0.0005  0.3922
 2210TIP3    H1 6587   1.261   4.383   3.042 -0.4519  0.8979  0.0954
 2210TIP3    H2 6588   1.379   4.313   2.978  0.0710  0.2735  1.6962
 2211TIP3   OH2 6589   7.789   6.263   2.068  0.5861 -0.2436 -0.4303
 2211TIP3    H1 6590   7.880   6.241   2.046  0.6201 -0.7996  0.2344
 2211TIP3    H2 6591   7.797   6.342   2.122  0.9385 -1.8196  2.0026
 2212TIP3   OH2 6592   0.198   5.775   3.122 -0.6099  0.5186  0.3334
 2212TIP3    H1 6593   0.259   5.769   3.049 -0.9737  1.4296 -0.0570
 2212TIP3    H2 6594   0.211   5.862   3.158 -0.4626  0.0916  1.3414
 2213TIP3   OH2 6595   6.158   0.036   5.668  0.5436  0.1106 -0.2959
 2213TIP3    H1 6596   6.106  -0.002   5.597 -0.9194  0.0414  0.7597
 2213TIP3    H2 6597   6.244   0.052   5.629  0.1633 -1.0718 -1.7235
 2214TIP3   OH2 6598   1.828   5.119   1.398  0.4266 -0.1756  0.2111
 2214TIP3    H1 6599   1.865   5.128   1.486  1.3530  0.5478 -0.2213
 2214TIP3    H2 6600   1.851   5.202   1.355 -2.0132  0.4557 -0.0039
 2215TIP3   OH2 6601   7.732   2.778   5.517  0.3507  0.1120  0.0666
 2215TIP3    H1 6602   7.784   2.781   5.436  1.6592 -3.3616  0.6060
 2215TIP3    H2 6603   7.641   2.785   5.487  0.7797 -1.4581 -1.8198
 2216TIP3   OH2 6604   7.845   5.688   2.390 -0.1424  0.1002 -0.2302
 2216TIP3    H1 6605   7.823   5.614   2.334  0.2758  1.9648 -3.0629
 2216TIP3    H2 6606   7.770   5.747   2.382  1.3886  1.9987 -1.8792
 2217TIP3   OH2 6607   5.699   5.317   6.114 -0.8778 -0.0499 -0.1923
 2217TIP3    H1 6608   5.674   5.338   6.204 -0.3153 -2.2671  0.5298
 2217TIP3    H2 6609   5.629   5.260   6.083  0.1768 -1.3559 -0.2462
 2218TIP3   OH2 6610   3.828   3.661   3.687  0.1853 -0.0231 -0.3644
 2218TIP3    H1 6611   3.736   3.634   3.687  0.2918 -0.4583  1.2382
 2218TIP3    H2 6612   3.866   3.615   3.612 -0.5087 -1.2361  0.0039
 2219TIP3   OH2 6613   6.803   4.491   5.132 -0.2240 -0.2493 -0.4622
 2219TIP3    H1 6614   6.829   4.420   5.190 -0.8353  0.3250  0.5428
 2219TIP3    H2 6615   6.742   4.450   5.070  0.1228 -0.7853 -0.4494
 2220TIP3   OH2 6616   3.803   7.173   5.491 -0.2347  0.0853 -0.3233
 2220TIP3    H1 6617   3.857   7.248   5.466  0.3464 -0.3487 -0.3961
 2220TIP3    H2 6618   3.852   7.131   5.562  0.8915 -1.8604 -2.1506
 2221TIP3   OH2 6619   0.355   3.253   3.365  0.0851 -0.0495 -0.5880
 2221TIP3    H1 6620   0.417   3.316   3.402  0.1839 -0.4168 -0.1252
 2221TIP3    H2 6621   0.302   3.305   3.305 -0.5628  0.7113  0.6016
 2222TIP3   OH2 6622   0.836   0.675   3.852  0.5229  0.3725  0.0122
 2222TIP3    H1 6623   0.835   0.741   3.783  0.5045 -0.8057 -1.1635
 2222TIP3    H2 6624   0.743   0.653   3.866  0.5932 -0.3176 -0.5384
 2223TIP3   OH2 6625   2.905   4.262   4.048 -0.3938 -0.3949  0.3010
 2223TIP3    H1 6626   2.972   4.305   4.102 -0.3911 -0.8141  0.6401
 2223TIP3    H2 6627   2.955   4.219   3.978 -0.4021  0.1989 -0.0719
 2224TIP3   OH2 6628   6.963   4.284   3.614 -0.5324 -0.1682 -0.2897
 2224TIP3    H1 6629   7.002   4.197   3.627  0.7327  0.4332  0.0587
 2224TIP3    H2 6630   6.972   4.301   3.521  0.1283 -0.0072 -0.2025
 2225TIP3   OH2 6631   5.657   7.296   3.562 -0.3270  0.5622 -0.3517
 2225TIP3    H1 6632   5.626   7.343   3.640 -1.2614  0.3479 -0.5849
 2225TIP3    H2 6633   5.577   7.263   3.521  0.3143 -1.7414  0.1230
 2226TIP3   OH2 6634   6.368   4.552   5.414 -0.3688  0.4320 -0.7654
 2226TIP3    H1 6635   6.370   4.525   5.322 -1.9174  1.8998 -1.2700
 2226TIP3    H2 6636   6.444   4.609   5.425  1.2345 -1.6308 -0.4386
 2227TIP3   OH2 6637   0.935   6.906   6.600 -0.2564  0.3478 -0.0279
 2227TIP3    H1 6638   0.847   6.942   6.614  0.4317  1.5236  1.7421
 2227TIP3    H2 6639   0.928   6.855   6.520 -2.0427  2.0934 -1.0922
 2228TIP3   OH2 6640   8.059   7.434   3.855  0.5779  0.0768  0.2539
 2228TIP3    H1 6641   8.007   7.354   3.847  0.8757 -0.4289  2.6941
 2228TIP3    H2 6642   8.022   7.493   3.789 -0.1324 -1.7854 -1.1026
 2229TIP3   OH2 6643   5.033   7.697   3.000 -0.3813 -0.1367 -0.3419
 2229TIP3    H1 6644   5.121   7.733   2.985 -0.0897 -1.0919 -0.9979
 2229TIP3    H2 6645   4.984   7.771   3.037  0.1825  0.9558 -1.6753
 2230TIP3   OH2 6646   4.560   4.435   6.331 -0.7164 -0.6125  0.4041
 2230TIP3    H1 6647   4.561   4.482   6.414 -1.9807  1.6289 -0.7591
 2230TIP3    H2 6648   4.642   4.459   6.289 -1.7433  1.4665 -0.5751
 2231TIP3   OH2 6649   8.090   6.394   0.529  0.2463 -0.1397 -0.7820
 2231TIP3    H1 6650   7.996   6.394   0.510 -0.0941  1.6972  0.6733
 2231TIP3    H2 6651   8.097   6.427   0.619  2.2600 -0.7447 -0.6692
 2232TIP3   OH2 6652   3.473   2.225   4.716  0.7526  0.5283  0.0239
 2232TIP3    H1 6653   3.524   2.230   4.635 -0.4615 -1.1314 -0.9062
 2232TIP3    H2 6654   3.438   2.136   4.717 -2.9580  1.7892  0.0222
 2233TIP3   OH2 6655   1.651   7.639   3.601 -0.3978 -0.4415  0.4013
 2233TIP3    H1 6656   1.583   7.691   3.559 -0.4055 -0.8263 -0.0661
 2233TIP3    H2 6657   1.713   7.703   3.634 -1.2446 -0.0561  1.2948
 2234TIP3   OH2 6658   0.055   0.679   6.471 -0.0852  0.9851 -0.3301
 2234TIP3    H1 6659   0.045   0.773   6.484  0.3738  1.2009 -1.4110
 2234TIP3    H2 6660   0.062   0.669   6.376  3.9422  0.3134 -0.1228
 2235TIP3   OH2 6661   4.472   2.041   0.213  0.2657 -0.7104  0.4682
 2235TIP3    H1 6662   4.483   2.119   0.159 -0.4440 -0.6011  0.4731
 2235TIP3    H2 6663   4.501   1.969   0.157  2.4129 -0.3255  0.9912
 2236TIP3   OH2 6664   6.803   6.663   1.422  0.3603 -0.1116 -0.0091
 2236TIP3    H1 6665   6.732   6.636   1.480  1.7746  1.3402  2.5494
 2236TIP3    H2 6666   6.882   6.660   1.476  1.3538  4.3844 -0.7725
 2237TIP3   OH2 6667   7.805   2.822   1.087 -0.4610  0.4240 -0.0701
 2237TIP3    H1 6668   7.799   2.910   1.122  3.1137  1.1002 -0.7173
 2237TIP3    H2 6669   7.760   2.767   1.151 -0.3822  2.4004  1.7785
 2238TIP3   OH2 6670   6.365   0.063   6.542 -0.5154  0.2270 -0.0638
 2238TIP3    H1 6671   6.356   0.071   6.637  1.9335 -2.6395  0.5633
 2238TIP3    H2 6672   6.458   0.077   6.526 -0.7357 -0.2281 -1.9365
 2239TIP3   OH2 6673   1.688   6.085   1.376 -0.0863  0.3481  0.4799
 2239TIP3    H1 6674   1.679   6.004   1.327 -3.8005  0.3431  0.8681
 2239TIP3    H2 6675   1.768   6.074   1.428  2.1633 -0.9638 -2.9415
 2240TIP3   OH2 6676   7.259   6.211   4.903  0.5057 -0.5045  0.1308
 2240TIP3    H1 6677   7.282   6.300   4.877 -0.4758  0.2251  1.6465
 2240TIP3    H2 6678   7.342   6.163   4.900  1.0897  0.5025 -0.4649
 2241TIP3   OH2 6679   5.673   1.193   3.292  0.8346  0.2838 -0.2404
 2241TIP3    H1 6680   5.766   1.176   3.300  1.0122  1.0582 -0.5713
 2241TIP3    H2 6681   5.659   1.274   3.340  0.0024 -0.7345  1.3385
 2242TIP3   OH2 6682   6.025   3.662   2.225  0.1615 -0.0382  0.2258
 2242TIP3    H1 6683   6.054   3.575   2.197 -3.7506 -1.2171 -0.7609
 2242TIP3    H2 6684   5.972   3.646   2.303 -0.1808  1.5674  0.3527
 2243TIP3   OH2 6685   2.028   5.990   6.042 -0.3555 -0.2523 -0.2191
 2243TIP3    H1 6686   2.055   6.064   6.097  0.4498 -0.7504  0.0721
 2243TIP3    H2 6687   1.976   5.935   6.099 -0.5106 -0.1786 -0.2885
 2244TIP3   OH2 6688   1.366   3.734   0.335  0.0768 -0.2320 -0.0331
 2244TIP3    H1 6689   1.321   3.658   0.372  1.2567 -0.1790  1.6251
 2244TIP3    H2 6690   1.321   3.809   0.373 -0.5660 -0.1007 -1.0313
 2245TIP3   OH2 6691   5.832   6.154   2.347 -0.6502 -0.1971 -0.3461
 2245TIP3    H1 6692   5.768   6.105   2.399 -1.2475  1.7647  0.8827
 2245TIP3    H2 6693   5.917   6.118   2.373 -1.1015 -1.0553 -0.0208
 2246TIP3   OH2 6694   5.892   1.359   5.078 -0.0624  0.1168 -0.0627
 2246TIP3    H1 6695   5.835   1.431   5.104 -1.1092 -0.4305 -0.7516
 2246TIP3    H2 6696   5.977   1.400   5.062 -0.7247  1.2703 -0.7921
 2247TIP3   OH2 6697   0.099   5.294   6.608  0.2810 -0.3836 -0.5033
 2247TIP3    H1 6698   0.155   5.319   6.682  0.1417  0.7723 -0.7632
 2247TIP3    H2 6699   0.145   5.220   6.568  0.6381 -0.6733  0.4083
 2248TIP3   OH2 6700   2.211   6.681   3.478  0.0943 -0.4768  0.1365
 2248TIP3    H1 6701   2.232   6.768   3.446  0.4679 -1.0549 -1.2306
 2248TIP3    H2 6702   2.289   6.654   3.527 -0.3560  0.2712  1.3297
 2249TIP3   OH2 6703   2.923   4.177   4.364  0.3413 -0.1703  0.1049
 2249TIP3    H1 6704   2.837   4.142   4.388  0.7257 -0.7030  0.7395
 2249TIP3    H2 6705   2.974   4.100   4.339  0.8026  0.0897  0.2430
 2250TIP3   OH2 6706   4.221   1.298   3.708 -0.2091 -0.5823  0.1328
 2250TIP3    H1 6707   4.158   1.346   3.762 -1.5675 -1.0077 -1.0104
 2250TIP3    H2 6708   4.172   1.275   3.629  1.0559 -1.9470 -0.2923
 2251TIP3   OH2 6709   6.010   3.419   1.607 -0.0253 -0.4824  0.0733
 2251TIP3    H1 6710   5.957   3.338   1.608  0.8163 -1.0619  2.0378
 2251TIP3    H2 6711   6.077   3.402   1.541 -1.0547 -0.5391 -1.0050
 2252TIP3   OH2 6712   5.135   7.802   6.611 -0.8608  0.0750  0.2188
 2252TIP3    H1 6713   5.179   7.840   6.534  0.3642  0.0391  0.8835
 2252TIP3    H2 6714   5.088   7.727   6.576 -2.9438  1.8295 -1.0523
 2253TIP3   OH2 6715   7.976   1.367   1.657 -0.5880  0.2593  0.0877
 2253TIP3    H1 6716   7.983   1.341   1.749  0.6895 -1.7229 -0.4950
 2253TIP3    H2 6717   8.024   1.299   1.609  0.2157  2.1057 -1.9225
 2254TIP3   OH2 6718   6.647   1.771   3.919 -0.2546 -0.0227 -0.2519
 2254TIP3    H1 6719   6.736   1.745   3.896 -0.3295  0.8743 -1.7035
 2254TIP3    H2 6720   6.645   1.866   3.905 -1.4026 -0.0135 -0.1682
 2255TIP3   OH2 6721   1.170   1.221   6.261 -0.0217  0.6026 -0.1078
 2255TIP3    H1 6722   1.260   1.219   6.228 -0.1137  1.5851 -0.4477
 2255TIP3    H2 6723   1.171   1.287   6.329 -0.7391  1.4924 -0.9243
 2256TIP3   OH2 6724   6.276   4.073   4.493 -0.5318 -0.2861  0.2568
 2256TIP3    H1 6725   6.332   4.004   4.460  1.6313  0.7261  1.5695
 2256TIP3    H2 6726   6.202   4.027   4.534  0.0869 -1.7263 -0.2048
 2257TIP3   OH2 6727   2.938   1.935   5.259  0.0652  0.2039  0.1933
 2257TIP3    H1 6728   2.865   1.875   5.273  0.1282  0.5689  2.3256
 2257TIP3    H2 6729   2.919   2.010   5.315  1.5410  0.7905 -0.0440
 2258TIP3   OH2 6730   0.603   4.697   4.485 -0.1577 -0.2305  0.2538
 2258TIP3    H1 6731   0.618   4.694   4.391  0.9001 -2.2256  0.4325
 2258TIP3    H2 6732   0.526   4.753   4.496 -0.8144 -0.6534 -1.8593
 2259TIP3   OH2 6733   8.238   3.468   6.718 -0.3433 -0.4221 -0.4755
 2259TIP3    H1 6734   8.299   3.506   6.781  0.3600 -1.0508 -0.7618
 2259TIP3    H2 6735   8.226   3.378   6.749 -0.4225 -0.5682 -0.9311
 2260TIP3   OH2 6736   0.629   7.144   1.939 -0.0452 -0.1262  0.6019
 2260TIP3    H1 6737   0.715   7.107   1.958 -0.4564 -1.8527 -0.6220
 2260TIP3    H2 6738   0.609   7.199   2.015  1.6698 -0.5375  1.3973
 2261TIP3   OH2 6739   5.523   3.268   5.081  0.0467 -0.1419 -0.1202
 2261TIP3    H1 6740   5.514   3.219   5.163  0.7170 -0.3194 -0.1473
 2261TIP3    H2 6741   5.456   3.336   5.087  0.6670  0.4022  0.9805
 2262TIP3   OH2 6742   0.462   5.497   5.164 -0.1458  0.7789 -0.2077
 2262TIP3    H1 6743   0.421   5.541   5.090  0.8858  2.1548 -0.0047
 2262TIP3    H2 6744   0.541   5.457   5.127 -1.3446 -1.4721 -0.5091
 2263TIP3   OH2 6745   2.955   7.215   2.433  0.0391  0.1112 -0.1272
 2263TIP3    H1 6746   2.899   7.212   2.511 -2.0222  0.0998 -1.5119
 2263TIP3    H2 6747   3.044   7.202   2.467 -0.7949 -0.1808  2.1712
 2264TIP3   OH2 6748   3.458   0.139   2.543 -0.1507 -0.2813 -0.2499
 2264TIP3    H1 6749   3.519   0.206   2.573  1.6482 -1.7378 -0.5160
 2264TIP3    H2 6750   3.513   0.065   2.519 -2.0853 -2.0193  0.3832
 2265TIP3   OH2 6751   3.396   5.547   5.245  0.0599  0.0517 -1.0054
 2265TIP3    H1 6752   3.412   5.640   5.226 -1.3374  0.5332  0.0500
 2265TIP3    H2 6753   3.456   5.526   5.316 -0.8365  0.6416 -0.0556
 2266TIP3   OH2 6754   4.328   6.027   5.001  0.1601  0.1864 -0.1098
 2266TIP3    H1 6755   4.248   6.080   4.997 -0.6272 -0.8450  1.1711
 2266TIP3    H2 6756   4.390   6.080   5.052 -0.2049  0.4006  0.1159
 2267TIP3   OH2 6757   0.594   0.064   1.670 -0.1684 -0.5973 -0.3538
 2267TIP3    H1 6758   0.672   0.019   1.635  0.9776 -0.8414  2.2746
 2267TIP3    H2 6759   0.612   0.157   1.657  0.3636 -0.6726 -0.1765
 2268TIP3   OH2 6760   1.051   3.093   0.241 -0.0275  0.3923 -0.3271
 2268TIP3    H1 6761   1.014   3.052   0.163 -0.5586  0.8018 -0.3023
 2268TIP3    H2 6762   0.974   3.118   0.293  0.3094  0.5747  0.0887
 2269TIP3   OH2 6763   5.229   6.399   3.545  0.0803 -0.2220  0.0498
 2269TIP3    H1 6764   5.321   6.423   3.536  0.4472 -1.1929  1.0264
 2269TIP3    H2 6765   5.223   6.312   3.506 -0.8328  0.5688 -1.6914
 2270TIP3   OH2 6766   7.803   7.132   4.021 -0.0155  0.2820 -0.0282
 2270TIP3    H1 6767   7.787   7.198   3.953  0.0291  0.2632 -0.0570
 2270TIP3    H2 6768   7.891   7.150   4.051 -0.8840  1.8732  1.7763
 2271TIP3   OH2 6769   2.685   0.132   6.364  0.3115 -0.5513  0.2211
 2271TIP3    H1 6770   2.636   0.210   6.338 -2.7185 -2.3317  0.0909
 2271TIP3    H2 6771   2.749   0.119   6.294  1.0284  1.8493  0.3494
 2272TIP3   OH2 6772   2.135   0.092   2.176 -0.1159 -0.7262  0.2758
 2272TIP3    H1 6773   2.087   0.166   2.138  1.1515  0.2254  0.4507
 2272TIP3    H2 6774   2.139   0.113   2.270  2.8543  0.6038 -0.0486
 2273TIP3   OH2 6775   0.744   6.292   2.707 -0.4007 -0.0901  0.2097
 2273TIP3    H1 6776   0.728   6.232   2.634  0.6109  1.5758 -1.4805
 2273TIP3    H2 6777   0.709   6.376   2.677  0.6450  0.7886  1.3348
 2274TIP3   OH2 6778   1.766   4.456   4.044  0.7341 -0.0667 -0.0930
 2274TIP3    H1 6779   1.818   4.492   3.972  1.9518 -0.6755  0.4529
 2274TIP3    H2 6780   1.710   4.528   4.072  0.5887  0.3245 -1.3160
 2275TIP3   OH2 6781   1.466   6.043   3.026  0.7797  0.0223  0.0216
 2275TIP3    H1 6782   1.419   6.091   2.958  0.2093  0.2156  0.5496
 2275TIP3    H2 6783   1.511   5.973   2.978 -0.4677 -0.4928 -0.4316
 2276TIP3   OH2 6784   0.255   6.745   3.835 -0.3185  0.0899 -0.1286
 2276TIP3    H1 6785   0.218   6.804   3.769 -2.0929 -1.2079 -0.3812
 2276TIP3    H2 6786   0.340   6.719   3.799 -1.4235 -0.9110 -2.1707
 2277TIP3   OH2 6787   6.904   2.283   4.514 -0.3639 -0.2527  0.0562
 2277TIP3    H1 6788   6.950   2.204   4.543  0.1546  0.3797  1.0495
 2277TIP3    H2 6789   6.918   2.287   4.420 -2.1625 -2.4476 -0.3681
 2278TIP3   OH2 6790   1.800   6.868   5.650 -0.9983 -0.1423  0.1175
 2278TIP3    H1 6791   1.890   6.886   5.621 -0.9423  0.4961  0.6650
 2278TIP3    H2 6792   1.772   6.793   5.597  0.3584 -1.2852  0.9174
 2279TIP3   OH2 6793   5.759   5.546   2.884 -0.6889  0.0184  0.5492
 2279TIP3    H1 6794   5.825   5.589   2.830 -0.8289  0.1581  0.4857
 2279TIP3    H2 6795   5.708   5.618   2.922 -1.2065 -0.0934  0.0874
 2280TIP3   OH2 6796   6.600   0.842   1.007 -0.6056  0.4017 -0.1111
 2280TIP3    H1 6797   6.680   0.847   0.956 -1.0869 -2.3079 -1.3079
 2280TIP3    H2 6798   6.626   0.799   1.089 -0.7360 -0.0896 -0.3225
 2281TIP3   OH2 6799   2.824   3.077   5.150 -0.1090  0.2528  0.0829
 2281TIP3    H1 6800   2.808   3.159   5.199  0.0438  1.0802 -1.2062
 2281TIP3    H2 6801   2.820   3.009   5.217  0.4300  1.3725  1.3188
 2282TIP3   OH2 6802   7.534   3.187   0.262  0.2543  0.2163  0.1160
 2282TIP3    H1 6803   7.605   3.139   0.306  0.9702  1.1398 -0.0140
 2282TIP3    H2 6804   7.496   3.123   0.202  1.0957 -0.2466  0.0537
 2283TIP3   OH2 6805   1.301   2.063   2.319 -0.6738 -0.5927 -0.3069
 2283TIP3    H1 6806   1.338   2.150   2.305  1.5020 -1.5770 -1.0984
 2283TIP3    H2 6807   1.233   2.077   2.385  0.9413  1.3941  1.0699
 2284TIP3   OH2 6808   6.048   3.613   6.296 -0.4402  0.1301 -0.3602
 2284TIP3    H1 6809   5.986   3.621   6.224 -0.1218 -2.6435 -1.0711
 2284TIP3    H2 6810   6.026   3.684   6.355 -2.3968  0.9530 -1.9647
 2285TIP3   OH2 6811   5.466   4.409   4.628  0.1747  0.0383  0.5073
 2285TIP3    H1 6812   5.559   4.428   4.640  0.3832  0.8598 -1.9157
 2285TIP3    H2 6813   5.421   4.481   4.673  0.8753  2.5145 -2.3813
 2286TIP3   OH2 6814   2.480   0.128   2.171  0.6186  0.0107 -0.1711
 2286TIP3    H1 6815   2.426   0.197   2.210  1.6333 -0.7077  2.8014
 2286TIP3    H2 6816   2.537   0.173   2.110  0.2371  1.5847  0.5893
 2287TIP3   OH2 6817   5.914   7.513   1.204  0.1357  0.6951  0.2481
 2287TIP3    H1 6818   6.002   7.487   1.230 -0.1028  0.2405  0.6082
 2287TIP3    H2 6819   5.910   7.607   1.223  1.6504  1.5139 -2.8133
 2288TIP3   OH2 6820   5.364   0.182   3.817 -0.2896  0.5059  0.1819
 2288TIP3    H1 6821   5.340   0.168   3.909 -0.6692  0.3434  0.0582
 2288TIP3    H2 6822   5.283   0.171   3.769 -0.4785  2.4100 -0.0064
 2289TIP3   OH2 6823   0.853   1.056   5.209  0.5440  0.4188 -0.4362
 2289TIP3    H1 6824   0.818   1.096   5.129 -1.2128  0.4657  0.3115
 2289TIP3    H2 6825   0.856   0.962   5.190  1.4782  0.5576 -1.0285
 2290TIP3   OH2 6826   5.037   0.279   4.250  0.4190 -0.0181 -0.4040
 2290TIP3    H1 6827   5.065   0.349   4.308  0.1508  0.1004 -0.4158
 2290TIP3    H2 6828   5.118   0.249   4.208  0.4237  0.9099 -1.0945
 2291TIP3   OH2 6829   0.674   3.510   6.270  0.2760 -0.2106 -0.6508
 2291TIP3    H1 6830   0.609   3.475   6.331 -0.3781 -0.0070 -1.2279
 2291TIP3    H2 6831   0.633   3.587   6.232  1.2338  0.4942 -0.3049
 2292TIP3   OH2 6832   3.984   3.312   1.910 -0.4553  0.0793  0.5194
 2292TIP3    H1 6833   3.918   3.369   1.869 -0.8451 -0.3350  0.5608
 2292TIP3    H2 6834   4.038   3.282   1.837 -0.8959 -0.3274  0.3524
 2293TIP3   OH2 6835   7.026   7.096   2.211 -0.6172 -0.2147  0.5110
 2293TIP3    H1 6836   7.116   7.066   2.201 -0.6879 -0.6950  1.1827
 2293TIP3    H2 6837   6.995   7.110   2.122 -0.4797 -1.9166  0.1603
 2294TIP3   OH2 6838   3.921   2.621   2.713 -0.0613 -0.1094  0.2675
 2294TIP3    H1 6839   3.845   2.570   2.683 -0.7533  0.3206  1.2214
 2294TIP3    H2 6840   3.979   2.625   2.637 -0.8942 -0.6370 -0.4178
 2295TIP3   OH2 6841   7.347   4.175   3.512 -0.3550 -0.9631 -0.5396
 2295TIP3    H1 6842   7.424   4.184   3.568 -0.8957 -1.8776  0.4081
 2295TIP3    H2 6843   7.338   4.080   3.499 -0.7494 -0.8105 -1.4688
 2296TIP3   OH2 6844   2.875   2.177   0.340 -0.1468 -0.5077 -0.1117
 2296TIP3    H1 6845   2.865   2.186   0.246  1.1837 -0.3935 -0.2645
 2296TIP3    H2 6846   2.954   2.227   0.361 -0.2730 -0.7425  1.0178
 2297TIP3   OH2 6847   2.557   2.074   1.239  0.0487 -0.1404  0.1666
 2297TIP3    H1 6848   2.609   1.995   1.253  0.8494  0.6566  2.1925
 2297TIP3    H2 6849   2.621   2.146   1.247 -0.8242  0.7534 -0.6411
 2298TIP3   OH2 6850   3.051   0.034   4.752  0.4476 -0.3886  0.3369
 2298TIP3    H1 6851   3.062   0.124   4.721  0.1269 -0.0119  1.2779
 2298TIP3    H2 6852   2.966   0.007   4.717  0.8935 -0.6210 -0.6086
 2299TIP3   OH2 6853   6.297   0.065   3.799 -0.3517 -0.1109 -0.1873
 2299TIP3    H1 6854   6.328  -0.016   3.839 -0.5433  0.0132  0.2188
 2299TIP3    H2 6855   6.375   0.103   3.759  0.0294  0.1852  0.7992
 2300TIP3   OH2 6856   0.486   7.695   2.650  0.4658  0.4013 -0.1283
 2300TIP3    H1 6857   0.582   7.700   2.655  0.5295 -0.5785 -0.1268
 2300TIP3    H2 6858   0.461   7.763   2.588  1.0221  1.7743  1.0781
 2301TIP3   OH2 6859   8.285   3.690   3.998 -0.0328 -0.0978 -0.5337
 2301TIP3    H1 6860   8.305   3.748   3.924 -0.9935 -0.4174 -1.0688
 2301TIP3    H2 6861   8.250   3.610   3.957  2.2183 -1.5041  0.1280
 2302TIP3   OH2 6862   2.029   6.678   6.474  0.3894  0.0280 -0.8087
 2302TIP3    H1 6863   2.109   6.706   6.519  1.5941 -1.8987 -1.6251
 2302TIP3    H2 6864   2.021   6.585   6.494 -1.8856  0.2429 -0.4574
 2303TIP3   OH2 6865   7.033   7.446   1.183  0.1758 -0.0893  0.4991
 2303TIP3    H1 6866   7.026   7.529   1.136  1.1612 -0.7788 -0.9523
 2303TIP3    H2 6867   7.116   7.409   1.154 -1.4815 -2.8696 -1.1424
 2304TIP3   OH2 6868   6.377   7.361   0.479  0.2446 -0.6037  0.0188
 2304TIP3    H1 6869   6.409   7.451   0.487 -0.3283 -0.3896 -0.0750
 2304TIP3    H2 6870   6.447   7.314   0.434  0.6234 -0.2471  0.2322
 2305TIP3   OH2 6871   6.760   7.319   3.970  0.1422  1.1240  0.2913
 2305TIP3    H1 6872   6.846   7.332   4.011 -0.3526  3.0703  0.8244
 2305TIP3    H2 6873   6.701   7.375   4.021 -1.1039  1.1457 -1.1202
 2306TIP3   OH2 6874   0.662   4.853   6.585  0.7057  0.2832 -0.3001
 2306TIP3    H1 6875   0.664   4.784   6.519  1.3893  0.8710 -0.9189
 2306TIP3    H2 6876   0.599   4.916   6.551  1.5444  0.9078 -0.7574
 2307TIP3   OH2 6877   1.826   7.189   1.194  0.3719 -0.4584 -0.3359
 2307TIP3    H1 6878   1.777   7.200   1.276 -1.0816 -1.4804 -1.0359
 2307TIP3    H2 6879   1.833   7.278   1.158  2.8796  0.3716  1.8572
 2308TIP3   OH2 6880   7.851   4.988   6.187 -0.2184  0.8562  0.5212
 2308TIP3    H1 6881   7.787   4.930   6.227 -0.0826  0.1544 -0.2497
 2308TIP3    H2 6882   7.910   4.930   6.139  1.0367  1.4935  1.2559
 2309TIP3   OH2 6883   7.561   0.587   5.775 -0.5250  0.1433 -0.5964
 2309TIP3    H1 6884   7.610   0.536   5.839 -0.5893 -0.1555 -0.7866
 2309TIP3    H2 6885   7.624   0.651   5.742 -0.0715 -0.6579 -1.3153
 2310TIP3   OH2 6886   2.463   2.347   5.511  0.4126  0.0500 -0.7011
 2310TIP3    H1 6887   2.550   2.337   5.471  0.9418 -2.0721  0.8287
 2310TIP3    H2 6888   2.481   2.387   5.596  0.2031 -2.1783  0.4713
 2311TIP3   OH2 6889   3.736   5.768   3.310 -0.2800 -0.2555  0.3813
 2311TIP3    H1 6890   3.680   5.694   3.335 -0.6478 -0.3445 -0.6362
 2311TIP3    H2 6891   3.778   5.795   3.391 -0.2899 -1.4603  0.8075
 2312TIP3   OH2 6892   5.094   3.714   1.063 -0.3088 -0.4096  0.4448
 2312TIP3    H1 6893   5.112   3.678   0.976  0.7097  0.2480  0.3686
 2312TIP3    H2 6894   5.160   3.674   1.119  0.9576  1.4273  0.3258
 2313TIP3   OH2 6895   1.235   7.701   2.502  0.0117 -0.0946 -0.3172
 2313TIP3    H1 6896   1.239   7.796   2.502 -2.9059  0.1220  0.5176
 2313TIP3    H2 6897   1.305   7.674   2.562 -0.5642  1.6637  1.2327
 2314TIP3   OH2 6898   0.457   2.320   4.947  0.3113 -0.0409  0.1133
 2314TIP3    H1 6899   0.445   2.326   4.852  1.3746  0.1384 -0.0174
 2314TIP3    H2 6900   0.397   2.251   4.974  1.0806 -1.1354 -0.8942
 2315TIP3   OH2 6901   6.051   2.400   2.645  1.1166 -0.1919 -0.0110
 2315TIP3    H1 6902   6.025   2.329   2.704  2.4719 -0.9434 -0.2735
 2315TIP3    H2 6903   6.137   2.374   2.612  0.7189  0.5575 -1.7723
 2316TIP3   OH2 6904   6.232   3.828   2.335 -0.3731  0.3936 -0.0053
 2316TIP3    H1 6905   6.169   3.769   2.296 -0.0310 -0.4035  0.6170
 2316TIP3    H2 6906   6.291   3.851   2.263  1.0214 -2.0744  0.2459
 2317TIP3   OH2 6907   0.904   1.403   6.056  0.0405 -0.0757 -0.4795
 2317TIP3    H1 6908   0.994   1.370   6.062 -0.0587 -0.5643 -1.5276
 2317TIP3    H2 6909   0.872   1.370   5.972 -1.3565 -0.4796  0.1907
 2318TIP3   OH2 6910   2.108   1.917   2.295  0.2415  0.1978  0.7183
 2318TIP3    H1 6911   2.063   1.999   2.276  0.3976 -0.1662 -1.4760
 2318TIP3    H2 6912   2.081   1.894   2.383 -2.4203  0.9368  0.1653
 2319TIP3   OH2 6913   5.748   7.367   0.338  0.0577 -0.3372  0.9505
 2319TIP3    H1 6914   5.671   7.424   0.344 -0.4330 -1.0406  1.5428
 2319TIP3    H2 6915   5.753   7.324   0.424  0.4916 -1.0846  0.5611
 2320TIP3   OH2 6916   7.520   7.542   6.312  0.1158  0.2083 -0.4305
 2320TIP3    H1 6917   7.547   7.622   6.266 -1.1671 -0.6162 -2.7323
 2320TIP3    H2 6918   7.544   7.471   6.254  1.9335 -1.2516  1.9197
 2321TIP3   OH2 6919   1.513   2.460   5.272  0.3453 -0.4865  0.3244
 2321TIP3    H1 6920   1.565   2.381   5.255  0.3317 -0.6968  1.2200
 2321TIP3    H2 6921   1.477   2.483   5.186  1.0832 -0.9234 -0.1177
 2322TIP3   OH2 6922   2.951   7.229   3.361 -0.2579 -0.5466  0.3964
 2322TIP3    H1 6923   3.029   7.258   3.409 -1.6681  1.5180  1.6299
 2322TIP3    H2 6924   2.948   7.285   3.284 -0.2401 -0.9918  0.0711
 2323TIP3   OH2 6925   7.929   0.832   5.425  0.5319  0.0008 -0.3034
 2323TIP3    H1 6926   8.007   0.880   5.454 -0.2789  1.2601 -0.1549
 2323TIP3    H2 6927   7.923   0.758   5.486  0.6430  0.8627  0.7988
 2324TIP3   OH2 6928   0.926   4.191   1.376 -0.4516  0.1263  0.1940
 2324TIP3    H1 6929   0.887   4.134   1.310 -0.0533  0.5956 -0.4610
 2324TIP3    H2 6930   0.977   4.132   1.432  0.9260 -0.0554 -1.1770
 2325TIP3   OH2 6931   7.500   6.664   0.178  0.0403  0.6876 -0.1302
 2325TIP3    H1 6932   7.504   6.570   0.197 -0.4392  0.6340 -0.2881
 2325TIP3    H2 6933   7.592   6.690   0.167  0.5118  0.9249  3.2688
 2326TIP3   OH2 6934   0.399   2.686   3.218  0.4813 -0.5651 -0.4839
 2326TIP3    H1 6935   0.454   2.609   3.230  0.4516 -0.8298 -1.8442
 2326TIP3    H2 6936   0.313   2.651   3.194 -0.0870 -0.1360  0.8180
 2327TIP3   OH2 6937   5.234   3.877   0.140  0.4884 -0.2333  0.0878
 2327TIP3    H1 6938   5.236   3.789   0.101  1.1522 -1.2883  2.3309
 2327TIP3    H2 6939   5.324   3.909   0.132  0.7281 -0.6334  1.0912
 2328TIP3   OH2 6940   6.625   6.692   2.790 -0.1159 -1.0897  0.4861
 2328TIP3    H1 6941   6.630   6.663   2.881 -0.5749  0.2407  0.9523
 2328TIP3    H2 6942   6.716   6.710   2.766 -0.0418 -1.0130  0.8220
 2329TIP3   OH2 6943   0.360   3.819   0.075 -0.2254 -0.1319  0.0405
 2329TIP3    H1 6944   0.436   3.779   0.033  0.1747  1.9480 -1.3811
 2329TIP3    H2 6945   0.297   3.832   0.003 -1.4513 -0.6979  0.9687
 2330TIP3   OH2 6946   8.065   2.721   0.528  0.0042 -0.1913 -0.0941
 2330TIP3    H1 6947   8.004   2.756   0.592  1.2622 -0.9329  1.5676
 2330TIP3    H2 6948   8.069   2.628   0.546  0.0519 -0.4971 -1.5586
 2331TIP3   OH2 6949   5.187   5.305   2.475  0.6787 -0.2793 -0.0062
 2331TIP3    H1 6950   5.211   5.268   2.390  2.6100 -2.0541  1.2327
 2331TIP3    H2 6951   5.152   5.232   2.525  1.5449  0.2531  1.4358
 2332TIP3   OH2 6952   2.418   3.939   2.241 -0.0227 -0.1583 -0.6507
 2332TIP3    H1 6953   2.491   3.948   2.179  1.6567  0.3934  1.3226
 2332TIP3    H2 6954   2.438   3.860   2.290  0.1507  0.8776  1.0070
 2333TIP3   OH2 6955   7.598   7.618   3.981  0.1595  0.0911  0.2586
 2333TIP3    H1 6956   7.693   7.612   3.988  0.2607  0.6863 -0.5534
 2333TIP3    H2 6957   7.572   7.676   4.053  0.4104 -0.0645  0.4746
 2334TIP3   OH2 6958   3.966   0.072   5.979 -0.6546  0.5402 -0.2631
 2334TIP3    H1 6959   4.054   0.092   6.011 -0.3147  0.4394 -1.0969
 2334TIP3    H2 6960   3.976  -0.013   5.936 -0.3604  1.9349 -3.2416
 2335TIP3   OH2 6961   6.834   7.283   5.943  0.2072  0.0502 -0.4617
 2335TIP3    H1 6962   6.835   7.188   5.959 -1.8496  0.1832  0.8728
 2335TIP3    H2 6963   6.773   7.317   6.008  1.9615  2.5146  0.0329
 2336TIP3   OH2 6964   6.219   3.707   3.588  0.1819 -0.3361 -0.2937
 2336TIP3    H1 6965   6.299   3.662   3.560 -1.0869 -3.0806  0.1954
 2336TIP3    H2 6966   6.218   3.697   3.684  1.1727  3.2322  0.2460
 2337TIP3   OH2 6967   6.760   6.294   1.390  0.7775 -0.2576  0.4004
 2337TIP3    H1 6968   6.759   6.261   1.300 -1.2265  0.7950 -0.0401
 2337TIP3    H2 6969   6.748   6.217   1.445  1.0604 -0.8116 -0.3090
 2338TIP3   OH2 6970   1.990   4.411   1.404 -0.0239 -0.6825 -0.3657
 2338TIP3    H1 6971   2.007   4.354   1.329  0.2839  0.9581 -1.6100
 2338TIP3    H2 6972   1.904   4.449   1.386 -0.3034 -0.8712  0.5296
 2339TIP3   OH2 6973   2.531   2.622   0.883  0.2747 -0.7592 -0.1427
 2339TIP3    H1 6974   2.458   2.609   0.944 -3.2059  2.1361 -3.1929
 2339TIP3    H2 6975   2.552   2.715   0.890  2.5309 -1.1649 -0.6710
 2340TIP3   OH2 6976   0.536   2.453   0.298  0.5666  0.3307  0.7935
 2340TIP3    H1 6977   0.592   2.453   0.220  0.3149  0.1245  0.6139
 2340TIP3    H2 6978   0.493   2.539   0.296  1.2893  0.7123  1.2301
 2341TIP3   OH2 6979   3.582   5.831   3.077  0.0810  0.1309  0.2620
 2341TIP3    H1 6980   3.620   5.842   3.164  0.9010 -2.6429  0.3390
 2341TIP3    H2 6981   3.629   5.757   3.039 -0.2193  1.2819 -2.6000
 2342TIP3   OH2 6982   2.716   2.294   0.877  0.0413 -0.0743  0.5370
 2342TIP3    H1 6983   2.627   2.290   0.911  0.1888 -1.9059  0.7873
 2342TIP3    H2 6984   2.707   2.337   0.792 -1.1123 -0.5089  0.4224
 2343TIP3   OH2 6985   2.729   2.131   4.633 -0.0490  0.0469 -0.3638
 2343TIP3    H1 6986   2.754   2.181   4.556 -1.2943  1.7338  0.2652
 2343TIP3    H2 6987   2.634   2.136   4.635 -0.1015 -1.0294  0.5974
 2344TIP3   OH2 6988   2.206   1.476   4.989  0.0795  0.2507  0.6807
 2344TIP3    H1 6989   2.217   1.545   5.055  0.0508  2.5114 -1.5169
 2344TIP3    H2 6990   2.117   1.445   5.001  0.4218 -0.1801  2.3734
 2345TIP3   OH2 6991   0.777   3.510   2.550 -0.0788 -0.5428 -0.5412
 2345TIP3    H1 6992   0.751   3.600   2.572  1.5337 -0.1618 -0.0603
 2345TIP3    H2 6993   0.704   3.477   2.497 -0.7868  0.9789 -0.5922
 2346TIP3   OH2 6994   6.691   4.033   1.293  0.2648 -0.5392 -0.4794
 2346TIP3    H1 6995   6.780   4.020   1.260 -0.2388 -2.1502 -1.3079
 2346TIP3    H2 6996   6.680   4.128   1.295  1.0588 -0.3111 -3.0255
 2347TIP3   OH2 6997   5.690   7.468  -0.015  0.0317  0.0127  0.0897
 2347TIP3    H1 6998   5.613   7.498   0.033 -0.3003 -0.0884 -0.3627
 2347TIP3    H2 6999   5.693   7.373   0.000  0.5747  0.1399  0.8115
 2348TIP3   OH2 7000   2.997   6.921   1.701  0.0490 -0.2239  0.0565
 2348TIP3    H1 7001   3.088   6.895   1.716 -0.5894 -1.3696  2.4864
 2348TIP3    H2 7002   2.960   6.851   1.648  0.5989  0.3415 -1.1036
 2349TIP3   OH2 7003   4.027   4.602   5.482  0.3870  0.1131  0.0358
 2349TIP3    H1 7004   4.040   4.586   5.388  0.9194  1.1525 -0.0688
 2349TIP3    H2 7005   4.083   4.537   5.525 -0.5850 -1.0192 -0.3327
 2350TIP3   OH2 7006   1.508   2.036   3.321 -0.3389  0.2161 -0.2573
 2350TIP3    H1 7007   1.435   2.044   3.259 -2.9996 -1.4094  2.4333
 2350TIP3    H2 7008   1.504   1.945   3.351  1.0816  0.8340  1.9944
 2351TIP3   OH2 7009   6.293   6.385   2.108  0.1140 -0.1297 -0.2517
 2351TIP3    H1 7010   6.324   6.346   2.190  0.8516  1.1327  0.1021
 2351TIP3    H2 7011   6.236   6.457   2.137  0.3697  0.3134 -0.8345
 2352TIP3   OH2 7012   7.165   3.624   3.705 -0.4643  0.3123 -0.1209
 2352TIP3    H1 7013   7.158   3.662   3.617 -2.1252  1.2664  0.3916
 2352TIP3    H2 7014   7.171   3.700   3.763 -2.4697 -0.1814  0.8145
 2353TIP3   OH2 7015   3.994   6.468   2.357 -0.2799 -0.2673  0.6297
 2353TIP3    H1 7016   3.950   6.387   2.383 -1.8044  0.4793  0.4627
 2353TIP3    H2 7017   3.980   6.473   2.262 -0.5012  0.3752  0.6959
 2354TIP3   OH2 7018   6.912   4.971   4.708  0.1188 -0.1870 -0.6349
 2354TIP3    H1 7019   6.824   4.996   4.681  0.0618 -0.1659 -0.4281
 2354TIP3    H2 7020   6.970   5.017   4.646 -0.0221 -0.4051 -0.9294
 2355TIP3   OH2 7021   5.620   2.972   0.189 -0.8076  0.4518  0.6640
 2355TIP3    H1 7022   5.624   2.896   0.247  0.5725 -2.2655 -2.6541
 2355TIP3    H2 7023   5.711   2.993   0.169 -1.2185  0.4412 -1.4412
 2356TIP3   OH2 7024   5.169   0.124   1.950 -0.0902 -0.3910  0.0967
 2356TIP3    H1 7025   5.182   0.205   1.900 -1.5577 -0.9571 -1.2911
 2356TIP3    H2 7026   5.233   0.129   2.021 -0.5087  2.2184  0.3655
 2357TIP3   OH2 7027   3.747   0.841   1.241 -0.1142 -0.0916  0.7343
 2357TIP3    H1 7028   3.724   0.815   1.330 -1.1296 -1.9006  0.0023
 2357TIP3    H2 7029   3.748   0.759   1.191  0.2598  0.8848 -0.9646
 2358TIP3   OH2 7030   2.567   1.249   3.843  0.3004  0.3344 -0.9577
 2358TIP3    H1 7031   2.522   1.321   3.797 -0.4357 -0.5302 -1.6137
 2358TIP3    H2 7032   2.496   1.193   3.875  0.8910 -0.7227 -1.4738
 2359TIP3   OH2 7033   6.618   6.889   1.410  0.0727  0.2561 -0.3630
 2359TIP3    H1 7034   6.700   6.844   1.430 -1.0668 -2.6987 -1.7366
 2359TIP3    H2 7035   6.644   6.964   1.357  1.8491 -1.1211 -1.5364
 2360TIP3   OH2 7036   3.765   6.318   2.183 -0.3106 -0.0191 -0.5123
 2360TIP3    H1 7037   3.805   6.400   2.154  1.9203 -0.7323  0.3323
 2360TIP3    H2 7038   3.788   6.255   2.116  1.5853 -0.8305  0.8359
 2361TIP3   OH2 7039   2.616   3.800   0.407  0.2824 -0.3573 -0.0577
 2361TIP3    H1 7040   2.540   3.802   0.466  0.1157 -0.6180 -0.2641
 2361TIP3    H2 7041   2.672   3.872   0.438 -0.2833  0.1675 -0.2268
 2362TIP3   OH2 7042   2.164   6.456   3.136  0.2148 -0.0934 -0.1502
 2362TIP3    H1 7043   2.070   6.469   3.129  0.0729 -0.2702  1.2512
 2362TIP3    H2 7044   2.182   6.452   3.230  1.7702  0.9979 -0.3510
 2363TIP3   OH2 7045   0.443   6.810   1.112  0.1358 -0.0875 -0.2494
 2363TIP3    H1 7046   0.373   6.874   1.110  0.6669  0.5825  1.0335
 2363TIP3    H2 7047   0.444   6.772   1.024  0.1267  2.0117 -1.2159
 2364TIP3   OH2 7048   3.173   1.648   3.138  0.7225 -0.1870  0.3086
 2364TIP3    H1 7049   3.126   1.719   3.095 -0.2310 -0.1734  1.3248
 2364TIP3    H2 7050   3.142   1.568   3.095  0.5753 -0.1012  0.2560
 2365TIP3   OH2 7051   3.754   3.020   0.819 -0.1567  0.4413  0.3778
 2365TIP3    H1 7052   3.749   3.075   0.741 -3.8336 -0.4981 -0.2510
 2365TIP3    H2 7053   3.771   2.932   0.784 -1.7294  0.0311  0.5735
 2366TIP3   OH2 7054   6.079   1.341   4.422  0.2894  0.3398  0.3101
 2366TIP3    H1 7055   6.155   1.284   4.412 -0.7048 -1.1094  0.8575
 2366TIP3    H2 7056   6.058   1.338   4.515  0.2168  1.6364  0.3607
 2367TIP3   OH2 7057   0.310   4.245   6.445  0.3240 -0.7444 -0.3352
 2367TIP3    H1 7058   0.287   4.169   6.498 -0.0290 -0.1925  0.3234
 2367TIP3    H2 7059   0.361   4.301   6.504 -0.7175  0.2322 -0.3250
 2368TIP3   OH2 7060   5.644   0.478   6.582 -0.2546  0.2742 -0.6466
 2368TIP3    H1 7061   5.575   0.416   6.607  0.9697 -0.4539  1.1337
 2368TIP3    H2 7062   5.710   0.425   6.538 -0.6686  0.9319 -2.1385
 2369TIP3   OH2 7063   3.645   5.391   4.890 -0.5561 -0.1201  0.1898
 2369TIP3    H1 7064   3.680   5.435   4.812 -0.0459  1.4340  1.2433
 2369TIP3    H2 7065   3.681   5.303   4.886  1.0171  0.5086 -0.3637
 2370TIP3   OH2 7066   1.296   3.220   6.113 -0.1508 -0.4068 -0.5375
 2370TIP3    H1 7067   1.264   3.223   6.023  0.9542 -0.0717 -0.9433
 2370TIP3    H2 7068   1.364   3.288   6.116 -1.6188  1.0810  1.1497
 2371TIP3   OH2 7069   5.643   5.211   3.821 -0.2831 -0.3120 -0.2156
 2371TIP3    H1 7070   5.548   5.204   3.809 -0.4016  1.5783 -0.7652
 2371TIP3    H2 7071   5.680   5.194   3.735 -0.4455  2.8297 -1.0288
 2372TIP3   OH2 7072   1.000   7.576   2.266 -0.4115  0.0617  0.2194
 2372TIP3    H1 7073   1.091   7.606   2.263 -0.3658 -0.1331 -1.2762
 2372TIP3    H2 7074   0.985   7.537   2.180 -1.9823  0.2901  0.3582
 2373TIP3   OH2 7075   7.349   2.206   0.636 -0.4415 -0.3138  0.0207
 2373TIP3    H1 7076   7.282   2.214   0.568 -0.0252 -1.3942 -0.5520
 2373TIP3    H2 7077   7.425   2.171   0.590  0.3777  0.4947  0.7495
 2374TIP3   OH2 7078   5.843   5.781   4.519 -0.3127 -0.4635 -0.0176
 2374TIP3    H1 7079   5.889   5.858   4.486 -3.0276  1.4219  0.2808
 2374TIP3    H2 7080   5.911   5.714   4.527  2.2032  1.9043 -0.1640
 2375TIP3   OH2 7081   7.115   6.667   3.147 -0.1157 -0.0497  0.0309
 2375TIP3    H1 7082   7.119   6.761   3.165  0.7470  0.0618 -0.6610
 2375TIP3    H2 7083   7.075   6.630   3.225 -0.2617  0.8680  0.4139
 2376TIP3   OH2 7084   0.909   6.602   0.154  0.6727  0.3436 -0.0655
 2376TIP3    H1 7085   0.937   6.692   0.173 -0.7266  0.7590  0.1112
 2376TIP3    H2 7086   0.875   6.607   0.064  3.0178 -0.6197 -1.1062
 2377TIP3   OH2 7087   8.248   0.736   3.621 -0.2892 -0.1604  0.4546
 2377TIP3    H1 7088   8.249   0.656   3.675 -0.6923  0.9800  2.2354
 2377TIP3    H2 7089   8.157   0.742   3.591 -0.8869  0.8471  2.3124
 2378TIP3   OH2 7090   7.466   0.384   3.349  0.0646  0.2681 -0.1680
 2378TIP3    H1 7091   7.533   0.318   3.327  1.5619  1.6535 -0.0011
 2378TIP3    H2 7092   7.414   0.343   3.418  1.8412 -0.2559  0.9525
 2379TIP3   OH2 7093   7.514   1.046   2.334 -0.1566 -0.5991  0.6308
 2379TIP3    H1 7094   7.601   1.085   2.323  0.2398 -1.2791  1.2881
 2379TIP3    H2 7095   7.470   1.061   2.250  0.5320 -0.1052  0.3516
 2380TIP3   OH2 7096   3.759   0.960   5.809  0.4486  0.0634  0.3725
 2380TIP3    H1 7097   3.703   0.974   5.885  1.6263  0.2508  1.2466
 2380TIP3    H2 7098   3.720   1.013   5.740  0.3122  1.2904  1.3541
 2381TIP3   OH2 7099   5.066   1.733   5.672 -0.6643  0.4317  0.3874
 2381TIP3    H1 7100   5.031   1.787   5.742 -2.1023 -0.4315  0.3800
 2381TIP3    H2 7101   5.070   1.645   5.710 -1.2047  0.0072 -0.5231
 2382TIP3   OH2 7102   1.594   6.769   4.289  0.7540 -0.7577 -0.1869
 2382TIP3    H1 7103   1.671   6.785   4.234  0.7112 -2.0451 -0.6544
 2382TIP3    H2 7104   1.525   6.744   4.227 -0.4580  1.6693  0.0895
 2383TIP3   OH2 7105   7.618   7.789   5.278  0.5069 -0.0051 -0.9653
 2383TIP3    H1 7106   7.651   7.751   5.359  0.4730  1.4084 -0.2685
 2383TIP3    H2 7107   7.685   7.851   5.251 -0.1217  0.5547 -1.2623
 2384TIP3   OH2 7108   3.579   0.345   3.419 -0.3185  0.0788  0.3901
 2384TIP3    H1 7109   3.555   0.294   3.342 -1.1443  0.6734  0.2351
 2384TIP3    H2 7110   3.656   0.301   3.454 -0.7724 -1.0263  0.0420
 2385TIP3   OH2 7111   2.452   6.546   0.413  0.8245  0.0084 -0.0056
 2385TIP3    H1 7112   2.461   6.515   0.504  1.2926  1.7885  0.5849
 2385TIP3    H2 7113   2.537   6.526   0.373  0.4472 -1.2396 -0.2233
 2386TIP3   OH2 7114   4.545   6.007   0.981 -0.2796 -0.1730  0.6195
 2386TIP3    H1 7115   4.478   5.946   0.948 -1.5465  0.3715  2.0983
 2386TIP3    H2 7116   4.581   5.963   1.058 -1.6901  1.1874  2.1122
 2387TIP3   OH2 7117   5.704   3.422   1.781  0.0346 -0.1440  0.2151
 2387TIP3    H1 7118   5.743   3.502   1.815  1.7575 -0.0244 -1.8113
 2387TIP3    H2 7119   5.623   3.450   1.738  0.3332  0.4152  0.0187
 2388TIP3   OH2 7120   5.163   2.777   0.976  0.0824  0.2285  0.4536
 2388TIP3    H1 7121   5.120   2.797   0.893  0.3518 -1.5678 -0.1677
 2388TIP3    H2 7122   5.228   2.847   0.987 -0.2795  0.7512 -0.6136
 2389TIP3   OH2 7123   0.988   6.210   4.014 -0.4569  0.2926 -0.5127
 2389TIP3    H1 7124   1.045   6.277   4.052  1.2589 -0.1320 -2.1858
 2389TIP3    H2 7125   0.995   6.136   4.074  0.8854  0.2153 -0.7334
 2390TIP3   OH2 7126   2.326   0.837   0.194 -0.4789  0.1170  0.0733
 2390TIP3    H1 7127   2.233   0.832   0.170 -0.3486  0.6565 -0.5587
 2390TIP3    H2 7128   2.356   0.746   0.187 -1.2717 -0.3044  1.6374
 2391TIP3   OH2 7129   1.949   1.257   5.485  0.4117 -0.3523 -0.1717
 2391TIP3    H1 7130   1.914   1.177   5.445 -1.1501  0.0837  0.2342
 2391TIP3    H2 7131   1.887   1.325   5.459  1.7133  0.7507 -0.5055
 2392TIP3   OH2 7132   3.020   6.392   0.148  0.7207 -0.2934 -0.1352
 2392TIP3    H1 7133   3.074   6.471   0.146  0.2891  0.0168 -2.7712
 2392TIP3    H2 7134   3.066   6.329   0.094  1.7422 -2.4725  2.9624
 2393TIP3   OH2 7135   6.883   7.249   6.286  0.8613  0.5809 -0.0134
 2393TIP3    H1 7136   6.908   7.162   6.255 -0.7962 -0.1280  0.5278
 2393TIP3    H2 7137   6.807   7.273   6.233  0.7732  1.3227  0.4314
 2394TIP3   OH2 7138   2.782   6.380   6.610  0.3863  0.2588 -0.2691
 2394TIP3    H1 7139   2.859   6.328   6.631 -0.7539 -1.0565  0.9040
 2394TIP3    H2 7140   2.779   6.447   6.678  0.3148  0.1086 -0.1244
 2395TIP3   OH2 7141   6.954   0.355   4.070 -0.2355  0.3774  0.0212
 2395TIP3    H1 7142   7.038   0.308   4.069  0.2486  1.2028 -1.2764
 2395TIP3    H2 7143   6.961   0.415   4.145 -0.6105 -1.1427  1.3055
 2396TIP3   OH2 7144   6.203   5.541   3.585  0.0490 -0.0247 -0.2042
 2396TIP3    H1 7145   6.214   5.536   3.680  1.1221  1.2310 -0.2255
 2396TIP3    H2 7146   6.112   5.515   3.569  0.1214 -1.1346  1.0650
 2397TIP3   OH2 7147   2.431   4.026   2.889  0.2662 -0.0859 -0.6430
 2397TIP3    H1 7148   2.444   3.999   2.980  0.4395  1.8191 -0.0566
 2397TIP3    H2 7149   2.504   4.086   2.871  0.0717 -0.2135 -1.9467
 2398TIP3   OH2 7150   3.317   2.921   3.781 -0.2324 -0.0294 -0.0265
 2398TIP3    H1 7151   3.258   2.850   3.757 -0.6855 -0.1991  1.4787
 2398TIP3    H2 7152   3.398   2.877   3.807  0.2495  0.1491 -1.1823
 2399TIP3   OH2 7153   4.429   3.841   6.359 -0.1489 -0.6461 -0.0042
 2399TIP3    H1 7154   4.421   3.870   6.450  0.8854  0.4471 -0.2323
 2399TIP3    H2 7155   4.466   3.917   6.313 -2.9755 -0.2223 -1.8595
 2400TIP3   OH2 7156   6.906   2.987   5.599  0.4837 -0.1061 -0.8762
 2400TIP3    H1 7157   6.994   2.993   5.636  1.1650  1.3731 -2.5865
 2400TIP3    H2 7158   6.919   2.956   5.510 -0.8967 -1.3473 -0.6833
 2401TIP3   OH2 7159   5.147   1.609   2.737 -0.2648  0.2618 -0.1610
 2401TIP3    H1 7160   5.060   1.646   2.752 -0.0321 -0.1198  2.9795
 2401TIP3    H2 7161   5.207   1.682   2.748 -0.0979  0.2034 -0.6518
 2402TIP3   OH2 7162   7.326   4.414   0.781 -0.2708  0.3623  0.2838
 2402TIP3    H1 7163   7.244   4.421   0.829 -0.5714  0.5457 -0.2482
 2402TIP3    H2 7164   7.300   4.415   0.689  0.1213 -2.0609  0.0834
 2403TIP3   OH2 7165  -0.010   2.631   1.455  0.1266 -0.1403 -0.5994
 2403TIP3    H1 7166  -0.048   2.718   1.469 -1.2048 -1.0270  1.7492
 2403TIP3    H2 7167   0.071   2.632   1.507  0.2226 -0.2577 -0.7447
 2404TIP3   OH2 7168   4.070   1.304   3.491  0.4611  0.5827  0.1152
 2404TIP3    H1 7169   4.122   1.362   3.436  0.6859  1.4140  1.1796
 2404TIP3    H2 7170   3.979   1.328   3.473  0.3893 -0.8203 -1.6904
 2405TIP3   OH2 7171   4.123   4.103   5.579 -0.5901  0.0443  0.3708
 2405TIP3    H1 7172   4.160   4.026   5.622 -0.6324 -0.7580 -0.9768
 2405TIP3    H2 7173   4.040   4.073   5.542  0.3741  0.0787 -2.0323
 2406TIP3   OH2 7174   6.972   2.182   4.243 -0.3854 -0.5385  0.1891
 2406TIP3    H1 7175   7.061   2.184   4.277 -0.4738 -1.1834  0.4625
 2406TIP3    H2 7176   6.979   2.221   4.156  0.0315  0.0852  0.4962
 2407TIP3   OH2 7177   6.135   3.072   1.748 -1.4949 -0.4222  0.9360
 2407TIP3    H1 7178   6.140   2.982   1.717  0.6920  0.1479 -0.6095
 2407TIP3    H2 7179   6.096   3.121   1.675 -0.7400  0.1963  0.9306
 2408TIP3   OH2 7180   0.265   1.845   1.023  0.3057 -0.3435  0.2354
 2408TIP3    H1 7181   0.313   1.928   1.022  0.8613 -0.6463  1.0120
 2408TIP3    H2 7182   0.174   1.870   1.036  0.3902  0.1766 -0.1344
 2409TIP3   OH2 7183   2.709   7.167   6.235  0.3766 -0.1404 -0.3359
 2409TIP3    H1 7184   2.687   7.253   6.201 -0.8361  1.0835  3.1329
 2409TIP3    H2 7185   2.625   7.120   6.237  0.1742  0.2237  1.7849
 2410TIP3   OH2 7186   3.377   7.413   0.952 -0.5350  0.2919  0.2801
 2410TIP3    H1 7187   3.450   7.405   1.013 -0.3255 -1.8221 -0.1678
 2410TIP3    H2 7188   3.387   7.500   0.914  0.1744  1.0806  2.1592
 2411TIP3   OH2 7189   6.948   3.246   1.789  0.4924  0.0739  0.1757
 2411TIP3    H1 7190   6.997   3.234   1.871  0.5377 -1.5750 -0.0637
 2411TIP3    H2 7191   6.961   3.164   1.741 -1.3464  0.1448 -0.5140
 2412TIP3   OH2 7192   4.425   4.399   4.831  0.0139  0.4066  0.1472
 2412TIP3    H1 7193   4.365   4.345   4.780 -0.2378  1.0731 -0.2756
 2412TIP3    H2 7194   4.507   4.400   4.780  0.3404 -0.3694  0.6430
 2413TIP3   OH2 7195   0.198   2.987   2.144 -0.2151  0.1557 -0.5369
 2413TIP3    H1 7196   0.118   2.952   2.106 -0.4434 -0.6973  0.7008
 2413TIP3    H2 7197   0.180   2.994   2.237  1.3337 -0.5938 -0.1448
 2414TIP3   OH2 7198   0.463   3.404   6.414 -0.1014 -0.3649  0.2004
 2414TIP3    H1 7199   0.429   3.355   6.340  0.5835  0.7448 -0.8973
 2414TIP3    H2 7200   0.387   3.451   6.449 -0.7606 -2.1507  1.2701
 2415TIP3   OH2 7201   6.523   7.017   2.437 -0.8878  0.1528 -0.3270
 2415TIP3    H1 7202   6.589   7.063   2.385 -1.5549 -0.1488 -1.4871
 2415TIP3    H2 7203   6.540   7.044   2.527 -0.1253  1.2495 -0.7765
 2416TIP3   OH2 7204   6.085   4.207   3.978  0.1906  0.1942 -0.0387
 2416TIP3    H1 7205   6.141   4.147   4.028 -1.2191  0.6083  2.1481
 2416TIP3    H2 7206   5.996   4.177   3.996 -0.3955  0.2509 -2.5366
 2417TIP3   OH2 7207   3.735   0.211   0.349 -0.9255  0.8462  0.3663
 2417TIP3    H1 7208   3.818   0.259   0.349 -0.7599  0.7887 -3.0404
 2417TIP3    H2 7209   3.678   0.260   0.290 -2.3132 -0.7388  0.2891
 2418TIP3   OH2 7210   5.261   7.102   6.752 -0.5534 -0.1244 -0.1655
 2418TIP3    H1 7211   5.282   7.021   6.800  0.0784  0.0049 -0.2261
 2418TIP3    H2 7212   5.345   7.137   6.724 -0.8219  0.5828 -0.1123
 2419TIP3   OH2 7213   4.725   2.580   3.074 -0.0153  0.1862  0.3667
 2419TIP3    H1 7214   4.688   2.506   3.026  1.5922 -0.9325  0.7691
 2419TIP3    H2 7215   4.736   2.649   3.009 -0.6813 -0.2529 -0.2134
 2420TIP3   OH2 7216   0.102   6.773   5.114 -0.1223  0.4747  0.2009
 2420TIP3    H1 7217   0.183   6.776   5.063 -1.3514  0.2920 -1.8620
 2420TIP3    H2 7218   0.099   6.683   5.148 -1.6111 -1.1344 -3.6137
 2421TIP3   OH2 7219   2.549   0.279   3.318  0.1419  0.3033  0.2490
 2421TIP3    H1 7220   2.564   0.231   3.236  1.0497  1.2245 -0.1472
 2421TIP3    H2 7221   2.457   0.304   3.315 -0.9590 -3.0878  1.4027
 2422TIP3   OH2 7222   0.365   1.421   2.717 -0.3351  0.3195 -0.0948
 2422TIP3    H1 7223   0.309   1.498   2.707 -0.7879  0.1238  0.8007
 2422TIP3    H2 7224   0.374   1.410   2.812  0.9009  0.1102 -0.2255
 2423TIP3   OH2 7225   1.233   3.432   4.897 -0.1246 -0.4261 -0.0733
 2423TIP3    H1 7226   1.303   3.485   4.934 -0.7507  0.1170  0.3582
 2423TIP3    H2 7227   1.277   3.356   4.859  0.7890  0.4021 -0.7157
 2424TIP3   OH2 7228   0.710   5.863   2.744 -0.4382  0.4470  0.4546
 2424TIP3    H1 7229   0.736   5.919   2.672 -1.1655  0.0004 -0.1748
 2424TIP3    H2 7230   0.628   5.901   2.777 -1.4961 -0.7732 -0.6407
 2425TIP3   OH2 7231   5.244   5.807   1.380 -0.3399  0.4058 -0.1672
 2425TIP3    H1 7232   5.318   5.851   1.338  1.0412 -2.2419 -0.6864
 2425TIP3    H2 7233   5.247   5.836   1.471  1.4592  0.2207 -0.1453
 2426TIP3   OH2 7234   6.440   6.459   2.982  0.2894 -0.1075 -0.1144
 2426TIP3    H1 7235   6.434   6.374   3.027  1.4013 -0.0042  0.2668
 2426TIP3    H2 7236   6.457   6.437   2.891  0.9553 -0.3115  0.0497
 2427TIP3   OH2 7237   5.335   6.425   6.206 -0.0822  0.0417  0.5668
 2427TIP3    H1 7238   5.288   6.509   6.211 -0.9698 -0.3064 -1.1952
 2427TIP3    H2 7239   5.417   6.441   6.253 -0.8817  1.4288  1.5742
 2428TIP3   OH2 7240   8.239   5.907   6.347 -0.2302 -0.1366  0.2004
 2428TIP3    H1 7241   8.259   5.818   6.375 -0.0247  0.2482  1.3576
 2428TIP3    H2 7242   8.201   5.948   6.425 -0.5798  0.6991 -0.3990
 2429TIP3   OH2 7243   4.088   7.378   6.736 -0.5416  0.3065 -0.8289
 2429TIP3    H1 7244   3.999   7.412   6.744  0.2823  2.3382  0.5135
 2429TIP3    H2 7245   4.093   7.306   6.799 -1.1621  0.3211 -0.7625
 2430TIP3   OH2 7246   3.758   7.238   6.125  0.0662  0.4542  0.9592
 2430TIP3    H1 7247   3.768   7.145   6.147  0.0176  0.4572  0.9962
 2430TIP3    H2 7248   3.690   7.240   6.058  3.0495  0.0423 -2.3044
 2431TIP3   OH2 7249   6.821   2.479   3.326  0.2024  0.2311  0.1006
 2431TIP3    H1 7250   6.840   2.392   3.361  0.2365  0.2626  0.1616
 2431TIP3    H2 7251   6.829   2.469   3.231  1.4835  0.4698  0.1699
 2432TIP3   OH2 7252   4.673   7.258   4.018 -0.1664  0.0345 -0.4458
 2432TIP3    H1 7253   4.633   7.331   3.970 -1.2801  0.4922  1.0954
 2432TIP3    H2 7254   4.614   7.184   4.002 -0.4355  0.1394  0.0571
 2433TIP3   OH2 7255   5.702   6.473   4.901 -0.1953  0.1755  0.0318
 2433TIP3    H1 7256   5.698   6.544   4.965  0.6398  0.4530 -0.2127
 2433TIP3    H2 7257   5.783   6.489   4.852 -2.1358  1.6084 -3.0320
 2434TIP3   OH2 7258   7.069   6.225   5.106 -0.0498 -0.1767  0.5855
 2434TIP3    H1 7259   7.064   6.307   5.155  0.3912  1.0185 -1.2670
 2434TIP3    H2 7260   7.128   6.244   5.032 -1.9947 -1.3422 -1.3945
 2435TIP3   OH2 7261   4.336   2.435   3.746  0.8678 -0.7772  0.3989
 2435TIP3    H1 7262   4.262   2.434   3.807  0.3651 -0.6022 -0.1888
 2435TIP3    H2 7263   4.350   2.528   3.726  0.4038 -0.8802 -0.4685
 2436TIP3   OH2 7264   2.821   5.924   1.913 -0.3053 -0.1450 -0.4939
 2436TIP3    H1 7265   2.748   5.939   1.853  0.3727  0.5122 -1.1811
 2436TIP3    H2 7266   2.795   5.967   1.994 -0.4225  0.6516 -0.9399
 2437TIP3   OH2 7267   6.822   0.134   0.480  0.5789 -0.2528 -0.3816
 2437TIP3    H1 7268   6.896   0.074   0.471 -0.5178 -1.7011 -0.1353
 2437TIP3    H2 7269   6.774   0.126   0.398 -0.8221 -1.5059  0.5034
 2438TIP3   OH2 7270   0.713   5.992   6.689 -0.1683 -0.1043  0.2769
 2438TIP3    H1 7271   0.756   6.075   6.710 -0.3367  0.4583 -1.4933
 2438TIP3    H2 7272   0.739   5.974   6.599 -0.8337 -1.5489  0.3573
 2439TIP3   OH2 7273   0.514   2.639   3.810  0.1972 -0.1629  0.1936
 2439TIP3    H1 7274   0.432   2.610   3.769  0.3341 -0.3521  0.0527
 2439TIP3    H2 7275   0.531   2.725   3.772 -1.0364  0.8377  1.7588
 2440TIP3   OH2 7276   3.969   3.320   1.369  0.4627 -0.9455 -0.2813
 2440TIP3    H1 7277   3.941   3.228   1.370  1.0077 -1.1139 -0.0291
 2440TIP3    H2 7278   3.919   3.359   1.298 -1.7206 -0.8164  1.2187
 2441TIP3   OH2 7279   4.183   4.523   5.808  0.7903 -0.2619  0.2446
 2441TIP3    H1 7280   4.190   4.428   5.796  0.3899 -0.4618  1.5119
 2441TIP3    H2 7281   4.274   4.553   5.809  1.0155 -0.8998  1.7400
 2442TIP3   OH2 7282   2.651   4.789   4.902 -0.1211 -0.1217  0.1487
 2442TIP3    H1 7283   2.596   4.719   4.937  0.2494  0.3634  1.8039
 2442TIP3    H2 7284   2.623   4.867   4.950  0.8581  0.4551 -0.1991
 2443TIP3   OH2 7285   7.865   2.300   0.300  0.0462 -0.6258  0.4726
 2443TIP3    H1 7286   7.837   2.335   0.384  0.8737  0.7312  0.2215
 2443TIP3    H2 7287   7.795   2.323   0.239  1.5620  2.9378 -0.1994
 2444TIP3   OH2 7288   7.996   6.010   6.701 -0.0556 -0.7206 -0.1774
 2444TIP3    H1 7289   8.088   5.998   6.678 -0.0730  1.8420 -2.0325
 2444TIP3    H2 7290   7.949   5.989   6.620 -0.7088  1.8787 -0.5569
 2445TIP3   OH2 7291   6.675   0.213   3.174  0.1372 -0.1980  0.4849
 2445TIP3    H1 7292   6.647   0.171   3.093 -1.2673 -1.0005  1.3414
 2445TIP3    H2 7293   6.770   0.217   3.168  0.1229 -1.1759 -0.7569
 2446TIP3   OH2 7294   5.045   0.540   2.761 -0.1392 -0.3604  0.8654
 2446TIP3    H1 7295   5.108   0.574   2.697 -1.1145 -0.4509 -0.1605
 2446TIP3    H2 7296   4.988   0.482   2.711  0.7361 -2.6388  2.3435
 2447TIP3   OH2 7297   2.813   6.111   1.084  0.3830  0.0609  0.4006
 2447TIP3    H1 7298   2.809   6.207   1.082 -0.1365  0.1366 -3.6687
 2447TIP3    H2 7299   2.906   6.091   1.076  0.7272  0.0778  3.4145
 2448TIP3   OH2 7300   5.501   4.072   6.775  0.6525  0.2066  0.0182
 2448TIP3    H1 7301   5.513   4.121   6.694  0.1236  0.5824  0.1622
 2448TIP3    H2 7302   5.414   4.034   6.768  0.9821 -0.5697 -0.0097
 2449TIP3   OH2 7303   7.060   4.778   6.062 -0.0149  0.5806  0.0100
 2449TIP3    H1 7304   7.061   4.772   5.966 -0.6246  0.4751  0.0072
 2449TIP3    H2 7305   7.133   4.723   6.090  0.5878  1.1489 -0.4154
 2450TIP3   OH2 7306   0.542   0.699   3.463  0.0694 -0.6792  0.1741
 2450TIP3    H1 7307   0.521   0.792   3.473 -0.3775 -0.6930 -0.5487
 2450TIP3    H2 7308   0.504   0.675   3.378 -0.2102 -1.6326  0.5550
 2451TIP3   OH2 7309   7.477   3.556   2.088  0.5319  0.2104  0.1553
 2451TIP3    H1 7310   7.421   3.609   2.031  0.5284  0.2491  0.1952
 2451TIP3    H2 7311   7.504   3.482   2.033 -1.1039 -0.8501  0.6861
 2452TIP3   OH2 7312   1.909   0.495   2.792 -0.1194  0.6554 -0.4308
 2452TIP3    H1 7313   1.832   0.517   2.739 -1.1638 -0.8587  0.3559
 2452TIP3    H2 7314   1.945   0.417   2.751 -0.0551  0.3366  0.2193
 2453TIP3   OH2 7315   2.478   6.545   5.286 -0.0448 -0.3112 -0.1369
 2453TIP3    H1 7316   2.482   6.460   5.244 -0.9224 -0.0584 -0.7562
 2453TIP3    H2 7317   2.467   6.525   5.379  1.5006 -0.8681 -0.0507
 2454TIP3   OH2 7318   0.355   5.190   5.136  0.2116  1.1027  0.2983
 2454TIP3    H1 7319   0.441   5.150   5.148 -0.4045 -0.5233 -0.3407
 2454TIP3    H2 7320   0.360   5.234   5.051 -0.2952 -1.2369 -1.0690
 2455TIP3   OH2 7321   6.117   2.107   1.241 -0.1497 -0.4534  0.3359
 2455TIP3    H1 7322   6.075   2.060   1.313  1.2918 -1.6325  0.4568
 2455TIP3    H2 7323   6.139   2.039   1.177 -0.8274  0.4907 -0.9352
 2456TIP3   OH2 7324   8.242   6.842   2.177 -0.1616 -0.2993  0.3440
 2456TIP3    H1 7325   8.309   6.885   2.229 -0.2153 -0.3208  0.4314
 2456TIP3    H2 7326   8.165   6.899   2.185  0.2099  0.3830 -0.7601
 2457TIP3   OH2 7327   6.603   1.008   1.265  0.8074 -0.4750  0.0356
 2457TIP3    H1 7328   6.556   1.009   1.349 -0.0838 -2.2071 -0.3803
 2457TIP3    H2 7329   6.606   0.915   1.241 -0.8668  0.1113 -2.8714
 2458TIP3   OH2 7330   7.070   1.044   6.673  0.0558 -0.1292  0.0906
 2458TIP3    H1 7331   7.161   1.068   6.657  0.4560 -1.2189  0.6109
 2458TIP3    H2 7332   7.075   0.970   6.734 -1.1215 -1.1443 -0.9863
 2459TIP3   OH2 7333   3.206   5.134   0.404 -0.0355  0.3413 -0.4110
 2459TIP3    H1 7334   3.138   5.186   0.361 -0.3846  0.5694  0.3903
 2459TIP3    H2 7335   3.194   5.046   0.370 -1.3170  0.1892  0.3612
 2460TIP3   OH2 7336   1.453   1.814   4.093  0.0234 -0.1660  0.1285
 2460TIP3    H1 7337   1.461   1.802   4.188 -0.6552 -1.2927  0.0561
 2460TIP3    H2 7338   1.360   1.835   4.079  0.3574  1.2636 -0.1855
 2461TIP3   OH2 7339   7.687   2.817   4.030 -0.4219 -0.4598  0.0128
 2461TIP3    H1 7340   7.664   2.881   4.098  1.0406  0.2100 -0.0802
 2461TIP3    H2 7341   7.603   2.792   3.992 -1.3121 -1.0037  2.1631
 2462TIP3   OH2 7342   2.673   6.381   2.747 -0.1082  0.4755  0.3155
 2462TIP3    H1 7343   2.616   6.330   2.804  2.0180 -1.2012  1.0922
 2462TIP3    H2 7344   2.710   6.449   2.803  0.1208  0.3350  0.3402
 2463TIP3   OH2 7345   3.931   4.650   3.007 -0.1683  0.2079  0.1823
 2463TIP3    H1 7346   3.877   4.727   3.024  1.0875  1.3030 -0.5723
 2463TIP3    H2 7347   3.897   4.584   3.067 -1.5398  1.2140  0.5770
 2464TIP3   OH2 7348   1.618   7.204   4.100 -0.6323  0.2904  0.3935
 2464TIP3    H1 7349   1.618   7.300   4.105 -1.5461  0.3142  0.1634
 2464TIP3    H2 7350   1.580   7.185   4.014  0.5243 -0.2747 -0.0079
 2465TIP3   OH2 7351   6.094   6.562   1.755  0.0645 -0.8860 -0.0016
 2465TIP3    H1 7352   6.120   6.550   1.847 -1.1146 -0.0889  0.4524
 2465TIP3    H2 7353   6.149   6.632   1.723  0.9400 -1.6056 -0.1134
 2466TIP3   OH2 7354   6.379   5.100   2.104  0.1196 -0.5947  0.0675
 2466TIP3    H1 7355   6.364   5.183   2.150  4.2115  0.4062 -0.0526
 2466TIP3    H2 7356   6.385   5.035   2.174 -0.8538 -0.4499  0.3136
 2467TIP3   OH2 7357   1.170   2.507   1.883 -0.1217  0.2865 -0.0228
 2467TIP3    H1 7358   1.130   2.552   1.957  1.0625  2.1142 -0.4369
 2467TIP3    H2 7359   1.096   2.483   1.826 -0.8208  1.3014  0.4444
 2468TIP3   OH2 7360   4.988   4.344   3.891  0.1414  0.1650 -0.0049
 2468TIP3    H1 7361   5.012   4.357   3.982  0.8167 -1.5610  0.1039
 2468TIP3    H2 7362   5.016   4.255   3.871  1.5510  1.0466 -2.3932
 2469TIP3   OH2 7363   6.980   5.560   1.962  0.4604  0.2371  0.7213
 2469TIP3    H1 7364   6.968   5.596   2.051  0.4058 -0.6584  1.0828
 2469TIP3    H2 7365   7.068   5.588   1.937  1.1248 -0.8851  1.7250
 2470TIP3   OH2 7366   5.977   2.993   2.040 -0.2648  0.3233  0.4300
 2470TIP3    H1 7367   5.936   2.993   1.954  0.1590 -1.9206  0.1507
 2470TIP3    H2 7368   5.918   3.044   2.096 -0.6139  1.6967 -1.1172
 2471TIP3   OH2 7369   4.864   3.772   5.654 -0.3218 -0.0081 -0.7554
 2471TIP3    H1 7370   4.776   3.752   5.686  0.2424 -0.6793  0.4356
 2471TIP3    H2 7371   4.858   3.862   5.621 -1.0097  0.6305  1.0103
 2472TIP3   OH2 7372   6.856   1.528   3.576  0.5437  0.0902 -0.8128
 2472TIP3    H1 7373   6.785   1.496   3.520  1.9746 -2.1656 -1.4741
 2472TIP3    H2 7374   6.919   1.567   3.515  0.3836  1.1382 -0.3354
 2473TIP3   OH2 7375   4.345   4.796   5.961  0.5209  0.1255  0.1601
 2473TIP3    H1 7376   4.383   4.724   5.910 -0.2471  0.2825 -0.6667
 2473TIP3    H2 7377   4.402   4.870   5.943  0.9948 -0.1334  0.5684
 2474TIP3   OH2 7378   1.251   0.447   1.523 -0.3389  0.7568  0.4219
 2474TIP3    H1 7379   1.332   0.481   1.483 -1.3040  0.1412 -2.3245
 2474TIP3    H2 7380   1.182   0.501   1.486 -1.3599 -0.1857  0.9007
 2475TIP3   OH2 7381   6.279   3.281   4.663  0.5906  0.3589 -0.4817
 2475TIP3    H1 7382   6.205   3.228   4.695 -0.7350  1.9746 -0.7478
 2475TIP3    H2 7383   6.274   3.273   4.568  0.1248  1.2557 -0.5435
 2476TIP3   OH2 7384   3.390   7.010   3.182  0.5913 -0.4644 -0.3939
 2476TIP3    H1 7385   3.317   6.958   3.147  0.2946  0.3524 -1.0528
 2476TIP3    H2 7386   3.469   6.965   3.152  0.3404 -0.2207 -1.4858
 2477TIP3   OH2 7387   2.730   6.625   5.920  0.0851 -0.4580  0.6092
 2477TIP3    H1 7388   2.714   6.532   5.905 -1.0983  0.0076 -1.3899
 2477TIP3    H2 7389   2.650   6.657   5.962  0.2884 -0.2527  0.8400
 2478TIP3   OH2 7390   6.864   7.776   0.394  0.0290 -0.1146  0.4165
 2478TIP3    H1 7391   6.855   7.827   0.313  0.0559  1.2191  1.2257
 2478TIP3    H2 7392   6.775   7.746   0.413  0.0384 -0.5054 -0.1505
 2479TIP3   OH2 7393   2.718   1.811   6.637  0.4488 -0.0611  0.2544
 2479TIP3    H1 7394   2.679   1.857   6.563 -0.3913  1.1082  1.3958
 2479TIP3    H2 7395   2.734   1.722   6.604 -0.5825  0.2335 -1.0974
 2480TIP3   OH2 7396   4.739   1.778   3.700 -0.8963  0.1716 -0.0289
 2480TIP3    H1 7397   4.714   1.723   3.774 -1.4364  0.4516  0.0027
 2480TIP3    H2 7398   4.683   1.856   3.707 -0.9882  0.1820 -0.7513
 2481TIP3   OH2 7399   4.729   0.987   5.751  0.2689  0.5409  0.1322
 2481TIP3    H1 7400   4.760   1.076   5.765  1.4657  0.5242 -1.9393
 2481TIP3    H2 7401   4.809   0.934   5.749 -0.2989 -0.3406 -0.1431
 2482TIP3   OH2 7402   6.331   6.685   1.673  0.9099  0.0992  0.3886
 2482TIP3    H1 7403   6.346   6.725   1.758 -0.4354  0.3818  0.5277
 2482TIP3    H2 7404   6.293   6.755   1.620  0.4979 -0.4199 -0.0184
 2483TIP3   OH2 7405   5.814   3.319   5.863 -0.1263  0.5080 -0.2524
 2483TIP3    H1 7406   5.880   3.302   5.931 -1.2350  0.2411  0.8032
 2483TIP3    H2 7407   5.805   3.414   5.862  1.3031  0.6711 -1.4577
 2484TIP3   OH2 7408   7.350   4.162   4.675 -0.3419 -0.5113  0.0462
 2484TIP3    H1 7409   7.273   4.146   4.729 -0.5790  0.1995 -0.0805
 2484TIP3    H2 7410   7.325   4.131   4.588  0.1348 -1.9106  0.3834
 2485TIP3   OH2 7411   4.171   0.816   0.390 -0.5419 -0.2343 -0.0812
 2485TIP3    H1 7412   4.223   0.843   0.315 -1.6380  0.6399 -0.5390
 2485TIP3    H2 7413   4.165   0.894   0.445  0.6907 -1.0008  1.2081
 2486TIP3   OH2 7414   3.747   6.252   2.934  0.4032 -0.2519 -0.0272
 2486TIP3    H1 7415   3.826   6.279   2.888 -0.0784  0.6572 -0.3442
 2486TIP3    H2 7416   3.735   6.160   2.911  1.4578 -0.4434  0.1652
 2487TIP3   OH2 7417   3.273   0.192   4.439 -0.2173 -0.4958  0.0806
 2487TIP3    H1 7418   3.260   0.180   4.345  2.4141  0.0354 -0.4352
 2487TIP3    H2 7419   3.348   0.136   4.460  0.1450  0.4820  1.5627
 2488TIP3   OH2 7420   4.532   4.173   0.902 -0.2402 -0.1624 -0.1045
 2488TIP3    H1 7421   4.618   4.170   0.945 -1.0164 -2.5007  1.4556
 2488TIP3    H2 7422   4.549   4.142   0.813  0.7199  0.6029 -0.2006
 2489TIP3   OH2 7423   3.346   2.401   2.583  0.1870  0.0255 -0.0000
 2489TIP3    H1 7424   3.299   2.367   2.507 -1.1052 -0.5934  1.0400
 2489TIP3    H2 7425   3.338   2.332   2.649  1.3933  0.4989  0.6577
 2490TIP3   OH2 7426   3.372   7.315   3.006 -0.7239  0.4100 -0.7915
 2490TIP3    H1 7427   3.298   7.266   3.041  0.2204 -0.3580  0.1969
 2490TIP3    H2 7428   3.362   7.403   3.043  0.6515 -0.5558  2.2041
 2491TIP3   OH2 7429   6.195   5.233   3.012 -0.0649  0.1132  0.3495
 2491TIP3    H1 7430   6.108   5.228   3.054  0.4767  2.4188  1.9436
 2491TIP3    H2 7431   6.183   5.295   2.940  0.8631  3.4333  2.7699
 2492TIP3   OH2 7432   5.369   2.751   6.316  0.1707 -0.3682  0.2970
 2492TIP3    H1 7433   5.338   2.802   6.391 -0.1674 -0.8090  0.4561
 2492TIP3    H2 7434   5.311   2.776   6.245  0.6216  0.2082  0.1226
 2493TIP3   OH2 7435   6.729   0.318   2.186 -0.1753 -0.7520 -0.1363
 2493TIP3    H1 7436   6.679   0.265   2.248 -1.2854  0.8537  0.3900
 2493TIP3    H2 7437   6.675   0.320   2.107 -1.1043  1.1159  0.4862
 2494TIP3   OH2 7438   1.337   1.690   0.992  0.4153  0.5887 -0.0627
 2494TIP3    H1 7439   1.314   1.637   1.068  1.3512 -0.0184 -0.1833
 2494TIP3    H2 7440   1.270   1.758   0.988  0.5975  0.9011  1.5614
 2495TIP3   OH2 7441   0.464   3.213   2.572  0.1502  0.4377 -0.1339
 2495TIP3    H1 7442   0.506   3.282   2.522  0.4856 -0.1272 -0.6344
 2495TIP3    H2 7443   0.375   3.246   2.589  0.5193  1.2805  0.2321
 2496TIP3   OH2 7444   6.888   4.061   1.016  0.5085  0.3201  0.5345
 2496TIP3    H1 7445   6.832   4.007   0.961  0.3805 -0.8365  1.7430
 2496TIP3    H2 7446   6.848   4.148   1.013 -0.3051 -0.0585 -0.0399
 2497TIP3   OH2 7447   8.303   2.603   0.589 -0.2821 -0.5859  0.1117
 2497TIP3    H1 7448   8.227   2.656   0.566 -0.4551 -0.2406  1.4038
 2497TIP3    H2 7449   8.317   2.621   0.682 -0.5847 -3.1045  0.6934
 2498TIP3   OH2 7450   0.645   7.019   0.939  0.3171  0.2989  0.0038
 2498TIP3    H1 7451   0.674   7.109   0.954 -0.3129  0.5126 -0.0244
 2498TIP3    H2 7452   0.562   7.028   0.893  0.7391 -0.3147 -0.8970
 2499TIP3   OH2 7453   3.211   1.787   3.650  0.1482 -0.2650  0.2594
 2499TIP3    H1 7454   3.137   1.830   3.606 -1.2135 -0.0959  2.5630
 2499TIP3    H2 7455   3.175   1.704   3.681  0.9428 -0.2137  1.3561
 2500TIP3   OH2 7456   3.370   2.924   2.053 -0.3017 -0.2528 -0.3132
 2500TIP3    H1 7457   3.333   2.884   2.132  0.0682  1.7267  0.9430
 2500TIP3    H2 7458   3.297   2.972   2.014 -0.1104  0.0701 -0.2792
 2501TIP3   OH2 7459   7.473   3.209   1.264 -0.1344 -0.7168 -0.2219
 2501TIP3    H1 7460   7.444   3.276   1.327  2.0882 -0.7201  0.9170
 2501TIP3    H2 7461   7.456   3.247   1.178  2.0966  1.9209  0.3615
 2502TIP3   OH2 7462   7.413   2.933   1.458 -0.0603  0.0398 -0.0498
 2502TIP3    H1 7463   7.401   2.842   1.483  0.5504 -0.0695 -0.1502
 2502TIP3    H2 7464   7.402   2.934   1.363  1.7559 -0.2516 -0.2940
 2503TIP3   OH2 7465   7.488   4.080   1.876  0.5135 -0.1796 -0.1581
 2503TIP3    H1 7466   7.519   4.166   1.905  2.3178 -0.9209  0.2262
 2503TIP3    H2 7467   7.459   4.036   1.955  0.0334 -0.1050 -0.2899
 2504TIP3   OH2 7468   0.257   0.486   3.578  0.4772  0.3253 -0.0101
 2504TIP3    H1 7469   0.252   0.580   3.564  0.4723  0.6985  2.1637
 2504TIP3    H2 7470   0.348   0.464   3.558  0.4259  0.7388 -0.7307
 2505TIP3   OH2 7471   7.898   7.076   1.413 -0.9504  0.1764 -0.0478
 2505TIP3    H1 7472   7.951   7.145   1.453 -0.6803 -0.0837  0.0478
 2505TIP3    H2 7473   7.809   7.109   1.417 -1.0120 -0.0918  1.3401
 2506TIP3   OH2 7474   7.428   6.789   3.842 -0.3916  0.1440  0.0132
 2506TIP3    H1 7475   7.402   6.813   3.931 -1.1288 -0.0864 -0.1324
 2506TIP3    H2 7476   7.490   6.858   3.817  1.0310 -0.6211  1.2436
 2507TIP3   OH2 7477   7.843   2.560   5.240  0.3041 -0.1115 -0.5616
 2507TIP3    H1 7478   7.765   2.519   5.278 -0.2946  1.2507 -0.2557
 2507TIP3    H2 7479   7.916   2.525   5.292 -0.2983  0.0432  0.4158
 2508TIP3   OH2 7480   3.046   0.365   2.240 -0.1460  0.5875  0.1092
 2508TIP3    H1 7481   3.093   0.445   2.262  0.9481  0.4118 -1.4373
 2508TIP3    H2 7482   3.106   0.294   2.262 -1.2272  0.1236  1.7676
 2509TIP3   OH2 7483   7.862   3.204   5.548  0.2642  0.1224 -0.0586
 2509TIP3    H1 7484   7.778   3.171   5.580 -0.2878  0.6746 -0.8884
 2509TIP3    H2 7485   7.872   3.164   5.462  0.2024  1.0931 -0.5272
 2510TIP3   OH2 7486   3.712   3.714   3.965  0.4584  0.2481  0.1547
 2510TIP3    H1 7487   3.721   3.639   3.907  0.5679  0.2294  0.1957
 2510TIP3    H2 7488   3.741   3.683   4.051 -1.1780 -0.1800  0.5870
 2511TIP3   OH2 7489   5.149   5.447   6.413 -0.6261  0.0126  0.4679
 2511TIP3    H1 7490   5.066   5.401   6.400 -0.3328  0.3546 -4.0632
 2511TIP3    H2 7491   5.124   5.537   6.431 -1.2784  0.1143 -0.8894
 2512TIP3   OH2 7492   8.289   6.395   2.986  0.6202  0.1080 -0.0931
 2512TIP3    H1 7493   8.344   6.470   2.963  0.4531  0.4358  0.5688
 2512TIP3    H2 7494   8.208   6.408   2.937  0.8647 -0.0273 -0.5442
 2513TIP3   OH2 7495   1.960   7.310   3.635  0.2848  0.0668 -0.4189
 2513TIP3    H1 7496   1.916   7.247   3.579 -0.4768 -0.2456  0.4979
 2513TIP3    H2 7497   2.041   7.331   3.589  1.6678 -3.2586  0.2761
 2514TIP3   OH2 7498   0.210   1.898   5.382 -0.0290  0.5513 -0.3213
 2514TIP3    H1 7499   0.285   1.838   5.377 -0.3284  0.1363  0.1098
 2514TIP3    H2 7500   0.135   1.841   5.398 -0.4371  0.9678 -0.7127
 2515TIP3   OH2 7501   3.839   5.811   1.876 -0.5197  0.1193 -0.0287
 2515TIP3    H1 7502   3.902   5.769   1.935  0.8830  1.7680 -0.2508
 2515TIP3    H2 7503   3.754   5.780   1.905  0.3703 -2.3312  0.1996
 2516TIP3   OH2 7504   1.514   3.615   2.056 -0.2824 -0.2095  0.0800
 2516TIP3    H1 7505   1.536   3.683   2.120 -0.0073 -0.7287  0.5458
 2516TIP3    H2 7506   1.517   3.533   2.106 -0.8972 -0.5382 -0.4102
 2517TIP3   OH2 7507   2.654   2.993   0.753 -0.3082  0.2862  0.0754
 2517TIP3    H1 7508   2.604   2.944   0.817 -1.5286 -0.6358 -1.5260
 2517TIP3    H2 7509   2.728   2.936   0.732 -2.3518 -1.6115 -2.6780
 2518TIP3   OH2 7510   5.671   2.994   1.295  0.6974  0.4300 -0.2290
 2518TIP3    H1 7511   5.629   3.040   1.223  0.8237  2.1817  0.7578
 2518TIP3    H2 7512   5.643   3.041   1.374  1.6081 -0.6045  0.7543
 2519TIP3   OH2 7513   5.898   4.900   3.475  0.3546  0.1838  0.1663
 2519TIP3    H1 7514   5.984   4.858   3.476 -0.7398 -2.2628 -0.3828
 2519TIP3    H2 7515   5.871   4.898   3.383 -0.5747  0.2543  0.4230
 2520TIP3   OH2 7516   6.421   7.774   1.069  0.0348 -0.0864 -0.1937
 2520TIP3    H1 7517   6.391   7.855   1.109  0.0320  0.0060 -0.3824
 2520TIP3    H2 7518   6.460   7.801   0.986  0.3037 -0.2447 -0.1197
 2521TIP3   OH2 7519   4.473   2.641   0.927  0.2296 -0.2299 -0.2539
 2521TIP3    H1 7520   4.494   2.632   0.835  1.7839  2.2274 -0.2187
 2521TIP3    H2 7521   4.383   2.608   0.935 -0.5882  1.1093 -2.9778
 2522TIP3   OH2 7522   6.922   5.344   6.399  0.5431  0.2230  0.5237
 2522TIP3    H1 7523   6.857   5.292   6.352  1.0330  0.5825 -0.6026
 2522TIP3    H2 7524   6.941   5.295   6.478  0.9794 -1.3169 -0.4851
 2523TIP3   OH2 7525   1.653   3.147   3.470  0.0776  0.1936 -0.1213
 2523TIP3    H1 7526   1.745   3.136   3.497  0.3488  0.3305 -0.9433
 2523TIP3    H2 7527   1.658   3.164   3.376 -0.9143 -1.6777 -0.5524
 2524TIP3   OH2 7528   2.413   6.900   4.261 -0.9252  0.2317  0.2335
 2524TIP3    H1 7529   2.495   6.859   4.289 -0.5294  0.4204 -0.5932
 2524TIP3    H2 7530   2.365   6.828   4.220  1.1512  1.0298 -4.2438
 2525TIP3   OH2 7531   2.611   0.934   2.143  0.0159  0.2428 -0.6039
 2525TIP3    H1 7532   2.559   1.013   2.130 -1.9463 -1.0103 -0.6033
 2525TIP3    H2 7533   2.567   0.866   2.093  1.1626 -1.0754  0.0860
 2526TIP3   OH2 7534   5.634   6.183   6.610 -0.4824  0.2313 -0.3568
 2526TIP3    H1 7535   5.671   6.099   6.584 -1.1335 -0.1838  0.0433
 2526TIP3    H2 7536   5.648   6.240   6.534  0.1817 -0.1602 -0.5371
 2527TIP3   OH2 7537   7.816   1.661   5.220  0.4105 -0.5102  0.3539
 2527TIP3    H1 7538   7.787   1.744   5.259  2.7916  0.4523  0.2719
 2527TIP3    H2 7539   7.751   1.597   5.248 -0.4849  1.0196  1.9916
 2528TIP3   OH2 7540   3.861   6.966   6.208  0.4789 -0.1290 -0.1180
 2528TIP3    H1 7541   3.879   6.994   6.298  2.9775  0.8128 -0.8218
 2528TIP3    H2 7542   3.846   6.872   6.215  0.6647 -0.0822  1.2970
 2529TIP3   OH2 7543   5.955   6.188   0.144  0.4701 -0.2889 -0.7510
 2529TIP3    H1 7544   5.980   6.276   0.173  1.6463 -0.6168 -0.7173
 2529TIP3    H2 7545   5.916   6.148   0.222 -0.4104  0.3183 -0.8710
 2530TIP3   OH2 7546   5.119   2.003   3.162  0.1997  0.5116  0.0063
 2530TIP3    H1 7547   5.109   1.919   3.118 -0.2429  0.8268 -0.5045
 2530TIP3    H2 7548   5.195   1.992   3.219  1.2433  0.3231 -1.3691
 2531TIP3   OH2 7549   2.796   3.494   1.921 -0.4906  0.3128 -0.1437
 2531TIP3    H1 7550   2.803   3.477   2.015 -1.4221 -0.4443 -0.1930
 2531TIP3    H2 7551   2.820   3.411   1.880  1.4024  1.0805 -0.6426
 2532TIP3   OH2 7552   3.631   0.936   4.569  0.8630 -0.5694 -0.5676
 2532TIP3    H1 7553   3.559   0.880   4.541 -1.1742  1.3335  0.4935
 2532TIP3    H2 7554   3.667   0.893   4.647  0.2879 -1.1095 -0.6005
 2533TIP3   OH2 7555   0.655   3.050   2.282 -0.2376  0.0149 -0.6787
 2533TIP3    H1 7556   0.692   2.997   2.212 -0.3139 -0.0039 -0.7047
 2533TIP3    H2 7557   0.581   2.999   2.314  0.1363 -0.2426 -0.2026
 2534TIP3   OH2 7558   4.493   4.719   1.069 -0.6658  0.0130 -0.4756
 2534TIP3    H1 7559   4.587   4.726   1.052 -0.7012  2.0917 -0.1314
 2534TIP3    H2 7560   4.486   4.720   1.164 -0.9617 -2.5289 -0.3967
 2535TIP3   OH2 7561   0.649   0.295   6.409 -0.4094  0.2935 -0.2639
 2535TIP3    H1 7562   0.554   0.312   6.414 -0.4390 -0.2066  2.0390
 2535TIP3    H2 7563   0.689   0.381   6.422 -0.5475  0.3704 -0.3426
 2536TIP3   OH2 7564   1.673   5.386   2.412  0.5944  0.5250 -0.3783
 2536TIP3    H1 7565   1.738   5.316   2.407  1.4686  1.2346  0.6415
 2536TIP3    H2 7566   1.653   5.407   2.321  0.2545 -1.0812 -0.7044
 2537TIP3   OH2 7567   1.020   2.532   1.455 -0.2805 -0.2065 -0.0852
 2537TIP3    H1 7568   1.087   2.588   1.494 -0.9951  0.7691 -0.2191
 2537TIP3    H2 7569   0.993   2.473   1.526  1.9931 -1.9090 -0.5111
 2538TIP3   OH2 7570   0.559   5.388   2.420  0.4177 -0.2474 -0.1020
 2538TIP3    H1 7571   0.628   5.453   2.431 -0.1732  0.7828 -2.0683
 2538TIP3    H2 7572   0.591   5.329   2.352 -0.3064 -0.2097 -0.4918
 2539TIP3   OH2 7573   2.205   3.602   3.980 -0.1374  0.1667 -0.1506
 2539TIP3    H1 7574   2.196   3.507   3.969 -0.8528  0.2536 -0.3463
 2539TIP3    H2 7575   2.261   3.611   4.058 -1.9196 -0.4351  1.2844
 2540TIP3   OH2 7576   1.739   2.188   5.812 -0.2730 -0.2324  0.3921
 2540TIP3    H1 7577   1.742   2.123   5.741 -0.7039  0.5380 -0.3544
 2540TIP3    H2 7578   1.647   2.190   5.838 -0.9833  2.2918 -1.7717
 2541TIP3   OH2 7579   3.720   2.132   1.376 -0.5656 -0.0162  0.4792
 2541TIP3    H1 7580   3.678   2.151   1.292 -0.9086 -0.3169  0.5778
 2541TIP3    H2 7581   3.667   2.062   1.413  0.3653 -0.8129  0.3454
 2542TIP3   OH2 7582   1.993   4.054   6.470 -0.0677  0.5349 -0.3740
 2542TIP3    H1 7583   1.960   4.144   6.478 -0.0202  0.6121 -0.9565
 2542TIP3    H2 7584   1.914   4.000   6.471 -0.1234  0.6151 -0.4008
 2543TIP3   OH2 7585   5.188   7.028   4.544 -0.1478  0.0327  0.1009
 2543TIP3    H1 7586   5.146   6.958   4.494 -2.8404  1.4614  0.1938
 2543TIP3    H2 7587   5.234   7.080   4.479 -1.4378  0.3840 -0.5647
 2544TIP3   OH2 7588   1.508   2.798   4.892 -0.3701 -0.2511 -0.5208
 2544TIP3    H1 7589   1.469   2.748   4.820 -0.0817 -1.3951  0.0933
 2544TIP3    H2 7590   1.592   2.828   4.857 -0.2750 -0.7207 -0.7053
 2545TIP3   OH2 7591   3.864   6.831   1.893  0.4655 -0.0289 -0.0374
 2545TIP3    H1 7592   3.805   6.880   1.951  2.5369  0.0487  2.1700
 2545TIP3    H2 7593   3.896   6.896   1.831  0.2917  0.5674  0.4815
 2546TIP3   OH2 7594   6.291   1.288   4.845  0.0449 -0.2413  0.0551
 2546TIP3    H1 7595   6.209   1.304   4.797  1.0399 -2.3225 -2.5964
 2546TIP3    H2 7596   6.336   1.373   4.843 -1.7233  0.8072  1.1121
 2547TIP3   OH2 7597   3.100   3.312   2.750  0.0782 -0.3521  0.0118
 2547TIP3    H1 7598   3.124   3.399   2.719  1.9936 -1.1453 -0.9334
 2547TIP3    H2 7599   3.172   3.286   2.808 -1.5447 -0.4658  2.1057
 2548TIP3   OH2 7600   5.579   4.580   6.489 -0.6108  0.2882  0.1655
 2548TIP3    H1 7601   5.602   4.645   6.423 -0.1989  0.9553  0.9367
 2548TIP3    H2 7602   5.612   4.497   6.454  2.0312  1.0300  0.6804
 2549TIP3   OH2 7603   4.126   5.821   6.101 -0.2119 -0.0895 -0.5076
 2549TIP3    H1 7604   4.147   5.785   6.187 -0.1026 -0.5371 -0.7179
 2549TIP3    H2 7605   4.049   5.772   6.072 -0.7679  0.6467 -0.3018
 2550TIP3   OH2 7606   2.707   4.615   5.198  0.9707 -0.3741  0.2712
 2550TIP3    H1 7607   2.714   4.700   5.154  2.5099 -1.1353 -1.0728
 2550TIP3    H2 7608   2.745   4.629   5.284  0.9292  0.3717  0.1725
 2551TIP3   OH2 7609   7.795   7.395   5.514 -0.0746  0.1926  0.2480
 2551TIP3    H1 7610   7.757   7.317   5.555  1.8375 -0.5865  0.5988
 2551TIP3    H2 7611   7.837   7.363   5.435  1.3509  0.7216  0.7595
 2552TIP3   OH2 7612   7.885   0.989   0.745  0.3562 -0.4518  0.4348
 2552TIP3    H1 7613   7.799   0.959   0.773 -0.1171  0.9695  0.5962
 2552TIP3    H2 7614   7.918   1.041   0.818  1.5637 -1.3480  0.5569
 2553TIP3   OH2 7615   5.728   7.741   2.817  0.3918  0.1023 -0.0602
 2553TIP3    H1 7616   5.734   7.663   2.873  0.6319 -0.0338 -0.2741
 2553TIP3    H2 7617   5.665   7.715   2.748  0.0864  0.2744  0.1516
 2554TIP3   OH2 7618   6.194   1.060   5.801  0.2286  0.2120 -0.0957
 2554TIP3    H1 7619   6.234   1.108   5.728 -0.6114  0.4518 -0.4167
 2554TIP3    H2 7620   6.194   1.123   5.873  2.1411 -0.4028  0.5080
 2555TIP3   OH2 7621   4.439   7.749   4.706 -0.1542 -0.4076 -0.2164
 2555TIP3    H1 7622   4.503   7.820   4.697 -1.1145  0.3774 -1.0629
 2555TIP3    H2 7623   4.425   7.717   4.617 -0.9986 -0.5181 -0.0544
 2556TIP3   OH2 7624   6.858   6.002   6.283 -0.1099 -0.4164  0.2866
 2556TIP3    H1 7625   6.931   5.940   6.285  1.8357  1.3656 -3.9404
 2556TIP3    H2 7626   6.799   5.968   6.217 -0.6465  0.6082  0.2122
 2557TIP3   OH2 7627   5.128   2.115   1.497 -0.4121 -0.1498  0.2130
 2557TIP3    H1 7628   5.174   2.171   1.433  1.3507 -1.9080 -0.1812
 2557TIP3    H2 7629   5.043   2.099   1.457  0.4595 -0.7917 -1.5298
 2558TIP3   OH2 7630   5.334   0.180   5.315  0.1665 -0.1859  0.0910
 2558TIP3    H1 7631   5.320   0.219   5.228 -1.3108  2.6175  1.4427
 2558TIP3    H2 7632   5.268   0.111   5.321 -2.6162  2.2945  0.3569
 2559TIP3   OH2 7633   6.814   6.893   0.397  0.0499 -0.0906  0.4104
 2559TIP3    H1 7634   6.747   6.824   0.397  0.7898 -0.8249  0.8736
 2559TIP3    H2 7635   6.882   6.860   0.456  1.7711 -0.3146 -1.5845
 2560TIP3   OH2 7636   6.183   7.433   3.630 -1.0729 -0.6834 -0.2583
 2560TIP3    H1 7637   6.203   7.510   3.577  1.1136  0.9337  2.6479
 2560TIP3    H2 7638   6.257   7.374   3.615 -1.2234 -0.9039 -0.1480
 2561TIP3   OH2 7639   0.026   4.041   2.941 -0.1790  0.0212 -0.1206
 2561TIP3    H1 7640   0.071   4.045   3.026 -0.0427 -1.9848 -0.0388
 2561TIP3    H2 7641   0.094   4.060   2.877  0.2706 -0.6776  0.1319
 2562TIP3   OH2 7642   0.072   7.765   5.513  0.5358  0.0780 -0.5184
 2562TIP3    H1 7643  -0.008   7.735   5.471  1.3625  0.2333 -2.3117
 2562TIP3    H2 7644   0.056   7.755   5.607 -0.5828 -2.4706 -0.8978
 2563TIP3   OH2 7645   4.056   3.423   5.823  0.2003  0.0518 -0.0596
 2563TIP3    H1 7646   4.070   3.418   5.728 -0.8091  1.4426 -0.3197
 2563TIP3    H2 7647   4.050   3.332   5.851  2.9507 -0.4688 -0.9041
 2564TIP3   OH2 7648   3.259   3.974   5.704  0.0858 -0.0465 -0.4117
 2564TIP3    H1 7649   3.279   4.039   5.772  2.1653 -0.9883 -0.0643
 2564TIP3    H2 7650   3.254   3.891   5.752 -0.7143 -0.4223 -1.1201
 2565TIP3   OH2 7651   6.767   3.438   1.097 -0.8887 -0.0810 -0.3458
 2565TIP3    H1 7652   6.845   3.460   1.046 -0.8756  0.9389  0.0922
 2565TIP3    H2 7653   6.745   3.519   1.144 -0.9115 -0.9813  1.2515
 2566TIP3   OH2 7654   4.386   2.190   1.771 -0.4805 -0.3944  0.0412
 2566TIP3    H1 7655   4.425   2.181   1.858 -1.5830 -0.6357  0.5230
 2566TIP3    H2 7656   4.332   2.269   1.777  0.8801  0.6659 -1.0001
 2567TIP3   OH2 7657   5.171   4.819   6.109  0.1069 -0.2793 -0.0074
 2567TIP3    H1 7658   5.167   4.909   6.076  0.8781  0.0204  0.7036
 2567TIP3    H2 7659   5.229   4.823   6.184  1.5478 -1.6857 -0.9800
 2568TIP3   OH2 7660   6.632   5.647   3.710  0.2222  0.7405  0.0459
 2568TIP3    H1 7661   6.536   5.653   3.711  0.1398 -0.2814 -0.2871
 2568TIP3    H2 7662   6.654   5.607   3.794  0.2659 -0.0299 -0.3239
 2569TIP3   OH2 7663   0.693   7.319   5.046  0.2604 -0.1354  0.2317
 2569TIP3    H1 7664   0.748   7.396   5.032 -0.5394  0.1418 -1.8128
 2569TIP3    H2 7665   0.754   7.248   5.063  1.1683  0.4686 -0.4292
 2570TIP3   OH2 7666   3.119   2.590   6.534  0.2445 -0.4289 -0.2435
 2570TIP3    H1 7667   3.105   2.528   6.463 -1.8311 -1.5699  1.0620
 2570TIP3    H2 7668   3.031   2.612   6.565  1.0494  0.8846  1.2628
 2571TIP3   OH2 7669   4.651   4.710   3.502 -0.0495 -0.1250  0.8092
 2571TIP3    H1 7670   4.653   4.637   3.440  1.5661  0.2940  0.3361
 2571TIP3    H2 7671   4.742   4.723   3.528 -0.2370  1.9773  0.5930
 2572TIP3   OH2 7672   0.664   7.628   2.228 -0.1156 -0.0407 -0.0774
 2572TIP3    H1 7673   0.734   7.692   2.219 -1.3196  1.6434  1.7079
 2572TIP3    H2 7674   0.698   7.564   2.291 -0.5245  1.4591  1.7858
 2573TIP3   OH2 7675   0.387   3.895   2.347 -0.0350  0.2458  0.2138
 2573TIP3    H1 7676   0.295   3.912   2.368  0.0415 -0.3549  1.1150
 2573TIP3    H2 7677   0.407   3.955   2.276 -0.9893  0.7297  0.3352
 2574TIP3   OH2 7678   3.806   5.074   6.668  0.3985 -0.5890 -0.3808
 2574TIP3    H1 7679   3.741   5.036   6.609 -0.3467  1.3460 -0.9052
 2574TIP3    H2 7680   3.770   5.062   6.755  0.6924 -1.9683 -0.4300
 2575TIP3   OH2 7681   3.310   1.914   1.923 -0.0724  1.1318  0.4747
 2575TIP3    H1 7682   3.394   1.871   1.913  0.3697  2.0924 -0.1442
 2575TIP3    H2 7683   3.271   1.875   2.001  0.6150  0.1487  0.3385
 2576TIP3   OH2 7684   1.802   4.300   4.310  0.7157  0.3636  0.1706
 2576TIP3    H1 7685   1.801   4.366   4.241  1.8750 -0.1854 -0.4078
 2576TIP3    H2 7686   1.711   4.270   4.316  0.2762  1.6102  0.0752
 2577TIP3   OH2 7687   0.882   6.574   5.254 -0.2049 -0.0523  0.3568
 2577TIP3    H1 7688   0.907   6.588   5.162 -0.7111 -2.7981 -0.3132
 2577TIP3    H2 7689   0.802   6.626   5.266  1.6706  3.0562  0.3599
 2578TIP3   OH2 7690   1.934   3.572   1.342  0.6242  0.1899 -0.3480
 2578TIP3    H1 7691   1.879   3.494   1.344 -2.5498  2.2130  2.5984
 2578TIP3    H2 7692   2.011   3.549   1.394 -0.0839 -1.0818  0.1856
 2579TIP3   OH2 7693   6.698   3.686   5.562  0.0017 -0.2603 -0.2975
 2579TIP3    H1 7694   6.646   3.627   5.509 -1.3651 -0.7008  1.4464
 2579TIP3    H2 7695   6.789   3.667   5.537 -0.4407 -2.5535 -0.3458
 2580TIP3   OH2 7696   3.423   5.829   0.068 -0.8975  0.5911  0.2755
 2580TIP3    H1 7697   3.342   5.807   0.114 -0.1959 -0.6555  0.9627
 2580TIP3    H2 7698   3.436   5.922   0.086 -1.2762  0.4127  1.6354
 2581TIP3   OH2 7699   6.372   3.553   4.869  0.0405 -0.6707  0.5712
 2581TIP3    H1 7700   6.315   3.575   4.943 -1.2669  0.0380 -0.5972
 2581TIP3    H2 7701   6.362   3.626   4.809  1.4565 -1.0082 -0.1136
 2582TIP3   OH2 7702   4.236   3.967   2.807  0.0189  0.3996  0.2510
 2582TIP3    H1 7703   4.196   4.052   2.793 -0.2782  0.6393  2.1947
 2582TIP3    H2 7704   4.186   3.929   2.880  1.2731 -0.6785  0.5963
 2583TIP3   OH2 7705   2.062   3.329   6.446  0.2228  0.5150 -0.1668
 2583TIP3    H1 7706   2.055   3.259   6.381 -0.5761 -0.7626  1.2257
 2583TIP3    H2 7707   2.018   3.294   6.523 -0.5012  2.7080  0.4911
 2584TIP3   OH2 7708   3.376   4.466   2.197  0.1470 -0.2184 -0.2672
 2584TIP3    H1 7709   3.393   4.424   2.113  1.0751  0.3237 -0.3568
 2584TIP3    H2 7710   3.419   4.551   2.191  1.3790 -0.6917  1.2210
 2585TIP3   OH2 7711   7.390   2.160   2.339  0.1296  0.0927  0.3502
 2585TIP3    H1 7712   7.407   2.228   2.405  2.2324 -0.7332  0.7571
 2585TIP3    H2 7713   7.423   2.199   2.257  1.1215 -0.3002  0.5420
 2586TIP3   OH2 7714   7.608   1.186   6.542 -0.0903  0.1987  0.2270
 2586TIP3    H1 7715   7.619   1.274   6.580  0.4473  0.2656 -0.0697
 2586TIP3    H2 7716   7.663   1.187   6.463 -1.1905  0.0599 -0.5620
 2587TIP3   OH2 7717   4.679   7.740   1.752 -0.1781 -0.0435 -0.3085
 2587TIP3    H1 7718   4.652   7.649   1.759  0.3802 -0.3157 -1.3541
 2587TIP3    H2 7719   4.769   7.741   1.786  0.2340 -0.1305 -1.3482
 2588TIP3   OH2 7720   6.773   2.923   0.463 -1.1950 -0.0972 -0.4187
 2588TIP3    H1 7721   6.821   2.860   0.408 -1.8891 -1.0571  0.0387
 2588TIP3    H2 7722   6.815   2.915   0.549  0.1818  1.7213 -0.8663
 2589TIP3   OH2 7723   1.593   1.915   5.044  0.1588 -0.1354  0.2730
 2589TIP3    H1 7724   1.542   1.948   5.119 -2.2656  2.4765 -2.2512
 2589TIP3    H2 7725   1.666   1.977   5.036 -1.3667  1.5914 -1.2521
 2590TIP3   OH2 7726   1.237   3.310   3.186  0.5607 -0.7039  0.0899
 2590TIP3    H1 7727   1.291   3.367   3.241 -1.5721  0.3035  1.2838
 2590TIP3    H2 7728   1.224   3.360   3.105 -0.0017 -0.1596  0.5045
 2591TIP3   OH2 7729   2.806   2.612   5.297  0.4156 -0.3873  0.0659
 2591TIP3    H1 7730   2.901   2.611   5.285  0.1150 -0.5467 -3.2231
 2591TIP3    H2 7731   2.784   2.703   5.316  1.0795 -0.0194 -0.9059
 2592TIP3   OH2 7732   3.388   0.168   0.781  0.1146  0.1519 -0.1721
 2592TIP3    H1 7733   3.416   0.172   0.872 -0.0772  1.4165 -0.1602
 2592TIP3    H2 7734   3.463   0.128   0.735  1.5322  2.3913  0.0499
 2593TIP3   OH2 7735   5.330   3.744   6.721  0.1203 -0.4097  0.1041
 2593TIP3    H1 7736   5.300   3.832   6.745 -0.3148 -0.1172 -1.4130
 2593TIP3    H2 7737   5.306   3.735   6.629  0.1091 -2.1509  0.2520
 2594TIP3   OH2 7738   2.302   2.243   6.648 -0.1213  0.2962 -0.1242
 2594TIP3    H1 7739   2.261   2.326   6.625  0.2499  1.0504  1.7407
 2594TIP3    H2 7740   2.356   2.263   6.725  1.7225 -1.2035 -0.9436
 2595TIP3   OH2 7741   4.012   6.230   0.983 -0.1399  0.0921  0.0149
 2595TIP3    H1 7742   4.058   6.309   1.012 -1.6231  0.5070  1.4290
 2595TIP3    H2 7743   4.079   6.162   0.982  1.1288  1.3026 -1.0247
 2596TIP3   OH2 7744   4.646   1.669   1.843 -0.3099 -0.4568  0.2222
 2596TIP3    H1 7745   4.694   1.689   1.762 -0.3053  0.4062  0.4327
 2596TIP3    H2 7746   4.607   1.583   1.827 -1.5617  0.3349 -1.2995
 2597TIP3   OH2 7747   0.261   0.943   3.057  0.2188  0.1343  0.0519
 2597TIP3    H1 7748   0.262   0.975   3.147 -0.8319 -0.4814  0.2906
 2597TIP3    H2 7749   0.217   1.011   3.007 -0.1334  0.0014  0.1844
 2598TIP3   OH2 7750   4.424   7.339   1.188 -0.0889 -0.0787  0.2611
 2598TIP3    H1 7751   4.444   7.250   1.158 -0.0085  0.1806 -0.4852
 2598TIP3    H2 7752   4.506   7.387   1.175  0.0825 -0.0644  1.3451
 2599TIP3   OH2 7753   5.739   6.644   3.565 -0.6266 -0.0400  0.2844
 2599TIP3    H1 7754   5.800   6.585   3.520 -1.2562  0.0254 -0.6806
 2599TIP3    H2 7755   5.654   6.601   3.558 -1.1865  1.1802 -0.8702
 2600TIP3   OH2 7756   2.049   6.567   0.044  0.3570  0.3221  0.6396
 2600TIP3    H1 7757   2.101   6.634  -0.001  1.2112 -0.5598  0.2561
 2600TIP3    H2 7758   1.960   6.581   0.012  0.4181  1.6024  0.9819
 2601TIP3   OH2 7759   4.892   0.893   2.253 -0.2877 -0.3153  0.5742
 2601TIP3    H1 7760   4.929   0.937   2.177  0.0490 -2.1460 -0.3527
 2601TIP3    H2 7761   4.961   0.898   2.319 -0.5820  1.2771  0.8142
 2602TIP3   OH2 7762   0.669   4.601   5.940  0.0188  0.3646 -0.0919
 2602TIP3    H1 7763   0.589   4.625   5.987 -0.1060  0.1383 -0.1834
 2602TIP3    H2 7764   0.639   4.540   5.872  0.0944  1.2619 -0.9529
 2603TIP3   OH2 7765   3.289   4.280   2.384 -0.2468 -0.1927  0.2829
 2603TIP3    H1 7766   3.311   4.345   2.317 -0.7337 -0.4094 -0.0894
 2603TIP3    H2 7767   3.366   4.223   2.388 -0.0407  0.0806  0.2199
 2604TIP3   OH2 7768   1.632   4.922   2.919 -0.3035  0.4066 -0.0218
 2604TIP3    H1 7769   1.545   4.922   2.879 -1.6305 -0.5584  2.6058
 2604TIP3    H2 7770   1.673   5.003   2.888 -1.3983  0.0436 -2.7012
 2605TIP3   OH2 7771   2.694   0.546   4.168 -0.5010 -0.2195  0.1901
 2605TIP3    H1 7772   2.679   0.487   4.095  0.2534 -1.6911  1.1701
 2605TIP3    H2 7773   2.718   0.629   4.127  0.2008 -1.0885 -1.2371
 2606TIP3   OH2 7774   6.785   6.771   4.502  0.5318 -0.0622  0.5004
 2606TIP3    H1 7775   6.743   6.835   4.445 -0.0321 -0.5239  0.3869
 2606TIP3    H2 7776   6.735   6.776   4.584  1.6720  0.9846  1.1557
 2607TIP3   OH2 7777   5.773   3.573   6.600  0.6393  0.3801  0.3903
 2607TIP3    H1 7778   5.755   3.584   6.507  0.1678  0.7470  0.5181
 2607TIP3    H2 7779   5.813   3.487   6.607  0.1413  0.1075 -0.0801
 2608TIP3   OH2 7780   4.180   7.179   5.842 -0.4067 -0.2333  0.3208
 2608TIP3    H1 7781   4.263   7.144   5.876 -0.4812 -2.7181 -1.7783
 2608TIP3    H2 7782   4.113   7.135   5.894 -0.4381 -0.4418  0.1067
 2609TIP3   OH2 7783   4.577   1.002   5.532  0.3736  0.3086  0.3581
 2609TIP3    H1 7784   4.547   1.092   5.548  0.8258  0.5494 -0.1562
 2609TIP3    H2 7785   4.638   0.984   5.604  1.4941  0.9774 -0.4008
 2610TIP3   OH2 7786   2.127   6.603   4.781  0.3677  0.1630  0.1384
 2610TIP3    H1 7787   2.052   6.628   4.727  0.2738 -0.5291 -0.0603
 2610TIP3    H2 7788   2.090   6.593   4.869  0.4046  0.6974  0.2182
 2611TIP3   OH2 7789   7.373   3.711   4.993  0.0754  0.1602 -0.3649
 2611TIP3    H1 7790   7.301   3.679   4.938 -0.6046 -0.2867  0.7612
 2611TIP3    H2 7791   7.341   3.703   5.082  1.4192  0.2574  0.1479
 2612TIP3   OH2 7792   0.661   6.179   1.919 -0.1805  0.0230 -0.2578
 2612TIP3    H1 7793   0.641   6.241   1.849 -1.6017 -1.1585 -0.9459
 2612TIP3    H2 7794   0.615   6.212   1.995 -0.3393  0.1968 -0.4300
 2613TIP3   OH2 7795   6.287   2.716   1.583 -0.0212 -0.2312 -0.4613
 2613TIP3    H1 7796   6.293   2.811   1.571 -0.4097 -0.0597  0.5565
 2613TIP3    H2 7797   6.229   2.705   1.659  1.7547 -1.1892  0.8321
 2614TIP3   OH2 7798   4.684   3.676   4.732  0.3387  0.5883 -0.2802
 2614TIP3    H1 7799   4.718   3.659   4.820  0.0703 -0.0185 -0.2933
 2614TIP3    H2 7800   4.745   3.631   4.674 -0.2673 -0.1918 -0.3239
 2615TIP3   OH2 7801   5.289   5.705   0.699 -0.5514  0.2489 -0.0886
 2615TIP3    H1 7802   5.377   5.688   0.666 -1.0958  1.3632 -2.3500
 2615TIP3    H2 7803   5.252   5.618   0.715 -0.0596 -0.3830 -2.1067
 2616TIP3   OH2 7804   1.085   6.662   5.749 -0.0710 -0.2162 -0.0989
 2616TIP3    H1 7805   1.122   6.575   5.765 -0.5866 -0.4120  0.0585
 2616TIP3    H2 7806   1.015   6.647   5.686  1.6623  0.4888 -2.3195
 2617TIP3   OH2 7807   1.727   5.234   4.498  0.1276 -0.3997 -0.6460
 2617TIP3    H1 7808   1.659   5.180   4.537  0.3480  0.1835  0.6258
 2617TIP3    H2 7809   1.694   5.324   4.505  1.4171  0.0111  0.9753
 2618TIP3   OH2 7810   0.366   1.282   2.272 -0.1475  0.9318 -0.2801
 2618TIP3    H1 7811   0.341   1.218   2.339 -0.6970  0.7455 -0.6627
 2618TIP3    H2 7812   0.461   1.271   2.262 -0.1465  0.6006  0.0913
 2619TIP3   OH2 7813   8.282   3.269   2.529 -0.5807  0.4621  0.3785
 2619TIP3    H1 7814   8.217   3.284   2.460 -0.4336  1.4523  0.4326
 2619TIP3    H2 7815   8.272   3.344   2.588  0.1561  0.2815  0.7482
 2620TIP3   OH2 7816   6.611   3.072   1.019 -0.0153  0.1090 -0.2919
 2620TIP3    H1 7817   6.697   3.089   1.057 -0.8514  0.1740  1.6552
 2620TIP3    H2 7818   6.605   2.977   1.016 -0.3839  0.0894  0.8141
 2621TIP3   OH2 7819   5.274   2.830   4.189  0.0682 -0.5062  0.0135
 2621TIP3    H1 7820   5.187   2.831   4.149  0.5236 -1.0623 -1.0338
 2621TIP3    H2 7821   5.315   2.911   4.158 -0.1976 -0.0392  0.8349
 2622TIP3   OH2 7822   5.884   5.684   4.142  0.0251 -0.5341  0.0988
 2622TIP3    H1 7823   5.886   5.596   4.179  2.6884  0.1937  2.0570
 2622TIP3    H2 7824   5.823   5.732   4.199  1.4662 -0.2674  1.4930
 2623TIP3   OH2 7825   7.338   0.278   2.889 -0.1093 -0.1670 -0.3083
 2623TIP3    H1 7826   7.270   0.345   2.881  0.6925  0.6487 -0.4369
 2623TIP3    H2 7827   7.329   0.226   2.809 -2.6219 -2.0856  1.0713
 2624TIP3   OH2 7828   1.155   0.432   4.417 -0.2167  0.2129 -0.0181
 2624TIP3    H1 7829   1.098   0.480   4.356 -1.1612 -1.0844 -0.2095
 2624TIP3    H2 7830   1.100   0.361   4.449  1.0458 -0.5516  0.4946
 2625TIP3   OH2 7831   0.937   3.579   1.395  0.8090 -0.2195 -0.4962
 2625TIP3    H1 7832   0.962   3.599   1.305 -1.3949  0.3840 -1.0507
 2625TIP3    H2 7833   0.844   3.554   1.389 -0.2406  2.4883  1.8759
 2626TIP3   OH2 7834   4.459   5.586   4.185  0.5181  0.4590 -0.0008
 2626TIP3    H1 7835   4.519   5.627   4.122  0.7714  2.1947  1.3054
 2626TIP3    H2 7836   4.373   5.621   4.162 -0.0090 -1.6635 -1.5709
 2627TIP3   OH2 7837   3.095   2.176   6.463 -0.0768 -0.1500  0.0809
 2627TIP3    H1 7838   3.077   2.086   6.490  1.4828 -0.3312  0.6287
 2627TIP3    H2 7839   3.100   2.225   6.545  0.1806  0.2121 -0.1474
 2628TIP3   OH2 7840   4.764   6.052   2.141  0.1495 -0.0644 -0.4153
 2628TIP3    H1 7841   4.835   6.105   2.178  0.7473 -2.6436  2.6049
 2628TIP3    H2 7842   4.714   6.023   2.217 -0.0849 -3.7606 -1.7786
 2629TIP3   OH2 7843   2.378   3.768   5.726  0.7978  0.0742 -0.0268
 2629TIP3    H1 7844   2.297   3.721   5.707 -0.0205  1.3755  0.0763
 2629TIP3    H2 7845   2.429   3.762   5.645 -0.0097  0.4153 -0.5712
 2630TIP3   OH2 7846   0.297   1.938   6.711 -0.1957 -0.2580  0.1724
 2630TIP3    H1 7847   0.306   1.922   6.804  0.4591 -0.9230 -0.0016
 2630TIP3    H2 7848   0.308   2.033   6.701 -1.0862 -0.0671  0.8509
 2631TIP3   OH2 7849   3.496   0.980   6.766 -0.4464  0.0040  0.5019
 2631TIP3    H1 7850   3.550   0.981   6.686 -0.8304 -0.0620  0.2381
 2631TIP3    H2 7851   3.433   1.051   6.752 -1.7303 -1.1990 -0.1073
 2632TIP3   OH2 7852   4.084   4.586   1.791  0.2103 -0.2611  0.0814
 2632TIP3    H1 7853   4.037   4.669   1.794  1.4940  0.4802  0.6893
 2632TIP3    H2 7854   4.132   4.589   1.708 -1.1491 -1.2376 -0.7843
 2633TIP3   OH2 7855   2.567   3.708   6.746  0.8466 -0.0092 -0.8330
 2633TIP3    H1 7856   2.602   3.771   6.809 -1.0458  1.1975 -0.9144
 2633TIP3    H2 7857   2.472   3.719   6.751  0.5838 -0.8158 -2.9474
 2634TIP3   OH2 7858   3.924   2.273   2.617  0.0671  0.6251  0.1124
 2634TIP3    H1 7859   3.948   2.331   2.544 -0.4738  0.8291  0.0885
 2634TIP3    H2 7860   4.003   2.224   2.636  0.8827  2.1708  0.8683
 2635TIP3   OH2 7861   1.242   1.064   0.503 -0.5131 -0.0672 -0.3487
 2635TIP3    H1 7862   1.193   1.031   0.427  1.2997 -0.0362 -1.6049
 2635TIP3    H2 7863   1.199   1.024   0.579 -1.6182 -1.1156 -1.4735
 2636TIP3   OH2 7864   2.942   6.286   3.777  0.1271 -0.2288  0.0546
 2636TIP3    H1 7865   2.932   6.322   3.689  0.1988 -1.0968 -0.3137
 2636TIP3    H2 7866   3.028   6.317   3.806 -0.6948  1.6732  0.6012
 2637TIP3   OH2 7867   0.116   2.886   4.709  0.8999  0.7508  0.5657
 2637TIP3    H1 7868   0.175   2.937   4.655  1.1144 -0.5955 -0.5213
 2637TIP3    H2 7869   0.173   2.841   4.771  1.2132 -1.3386 -1.1260
 2638TIP3   OH2 7870   0.269   7.416   6.611 -0.1017 -0.0876  0.0682
 2638TIP3    H1 7871   0.251   7.433   6.518  0.1677 -0.2229 -0.0116
 2638TIP3    H2 7872   0.311   7.496   6.642 -1.7175  0.6299  0.5145
 2639TIP3   OH2 7873   3.669   5.994   0.956 -0.6783  0.4438  0.5491
 2639TIP3    H1 7874   3.728   5.931   0.916 -0.0018 -1.0096  3.5251
 2639TIP3    H2 7875   3.675   6.072   0.901  1.7773 -0.6478 -0.8765
 2640TIP3   OH2 7876   7.614   1.404   4.955  0.0705 -0.2493  0.1940
 2640TIP3    H1 7877   7.528   1.446   4.958 -0.4880 -0.8073 -3.5053
 2640TIP3    H2 7878   7.676   1.477   4.960 -0.7667  0.6216 -1.2450
 2641TIP3   OH2 7879   7.407   7.590   4.501  0.2696 -0.4540  0.6584
 2641TIP3    H1 7880   7.476   7.653   4.480 -1.0017  0.3540 -1.3957
 2641TIP3    H2 7881   7.431   7.511   4.454 -0.5480  0.0764 -0.7013
 2642TIP3   OH2 7882   0.122   0.242   6.407 -0.0073 -0.1201 -0.4607
 2642TIP3    H1 7883   0.138   0.150   6.388  2.6327  0.3605 -1.0716
 2642TIP3    H2 7884   0.069   0.242   6.487  0.9814 -2.1729  0.2649
 2643TIP3   OH2 7885   7.724   6.173   4.077  0.9292 -0.1601 -0.6015
 2643TIP3    H1 7886   7.699   6.132   4.160 -0.1647 -0.8495 -1.2472
 2643TIP3    H2 7887   7.807   6.131   4.055  0.2955 -1.3980 -0.7793
 2644TIP3   OH2 7888   3.411   0.485   2.523  0.7544 -0.4757  0.8970
 2644TIP3    H1 7889   3.437   0.553   2.585  1.7857  0.3826 -0.4372
 2644TIP3    H2 7890   3.493   0.459   2.481  0.0803 -1.1072 -0.0451
 2645TIP3   OH2 7891   1.481   6.705   0.090 -0.3503 -0.1547 -0.0476
 2645TIP3    H1 7892   1.546   6.774   0.100  1.7003 -2.0289  0.4382
 2645TIP3    H2 7893   1.477   6.663   0.176 -1.2248 -0.9081 -0.4378
 2646TIP3   OH2 7894   3.767   0.389   1.896  0.0089 -0.2902 -0.5884
 2646TIP3    H1 7895   3.688   0.418   1.850  0.2487  0.0397 -0.8040
 2646TIP3    H2 7896   3.770   0.444   1.974  0.8706  0.8419 -1.3734
 2647TIP3   OH2 7897   5.948   7.435   6.049  0.5799 -0.6042  0.0852
 2647TIP3    H1 7898   5.978   7.394   5.968  1.0203  0.1966 -0.1670
 2647TIP3    H2 7899   5.873   7.488   6.023  1.2978  0.4035  0.0124
 2648TIP3   OH2 7900   3.956   6.370   5.603  0.1527  0.6557 -0.3054
 2648TIP3    H1 7901   3.958   6.281   5.567  0.2241  1.3454 -2.0927
 2648TIP3    H2 7902   3.866   6.400   5.588  0.0834  0.8464  0.4367
 2649TIP3   OH2 7903   2.652   4.408   0.326  0.0960  0.2282 -0.5455
 2649TIP3    H1 7904   2.609   4.478   0.375 -0.3412 -0.0116 -0.5750
 2649TIP3    H2 7905   2.739   4.441   0.306 -0.4218  1.1299 -1.3774
 2650TIP3   OH2 7906   1.538   6.791   1.444  0.4797  0.2116 -0.3472
 2650TIP3    H1 7907   1.545   6.833   1.530 -0.5222 -3.0895  1.5165
 2650TIP3    H2 7908   1.629   6.770   1.420  0.6517 -0.8097  1.0541
 2651TIP3   OH2 7909   2.560   7.182   3.734  0.0973  0.0035 -0.7024
 2651TIP3    H1 7910   2.626   7.203   3.800  0.8855 -0.0752 -1.4630
 2651TIP3    H2 7911   2.608   7.143   3.662 -0.9857 -1.7363 -0.5527
 2652TIP3   OH2 7912   7.656   4.334   5.887 -0.3709 -0.1141  0.0627
 2652TIP3    H1 7913   7.563   4.352   5.876 -0.2343  2.2722  2.0002
 2652TIP3    H2 7914   7.678   4.371   5.972  2.6365  0.5462 -0.8735
 2653TIP3   OH2 7915   4.268   3.503   3.757 -0.1562 -0.1027  0.5505
 2653TIP3    H1 7916   4.250   3.416   3.723 -1.2322 -0.2426  1.4306
 2653TIP3    H2 7917   4.198   3.520   3.820  0.1720  1.2977  0.5812
 2654TIP3   OH2 7918   3.067   4.647   2.253  0.4197 -0.5764  0.1504
 2654TIP3    H1 7919   2.997   4.695   2.210  0.4223 -0.9590 -0.2912
 2654TIP3    H2 7920   3.026   4.608   2.331 -0.0768 -1.4897 -0.5492
 2655TIP3   OH2 7921   2.641   5.805   3.380 -0.1770  0.4927  0.6513
 2655TIP3    H1 7922   2.704   5.768   3.442  0.2520  0.5329  0.2463
 2655TIP3    H2 7923   2.560   5.814   3.430 -0.1888 -0.6388  0.8638
 2656TIP3   OH2 7924   5.256   6.170   1.217  0.5627  0.0442 -0.0623
 2656TIP3    H1 7925   5.328   6.109   1.231  0.6146 -0.5854 -2.4717
 2656TIP3    H2 7926   5.241   6.167   1.122 -2.2423  0.5997  0.2748
 2657TIP3   OH2 7927   1.955   3.331   0.445  0.3049  0.7273  0.5340
 2657TIP3    H1 7928   1.963   3.415   0.399  0.7652  0.2191 -0.3407
 2657TIP3    H2 7929   2.033   3.327   0.500  0.2025  0.9463  0.6946
 2658TIP3   OH2 7930   7.619   1.108   6.249  0.5409 -0.1705  0.6522
 2658TIP3    H1 7931   7.537   1.112   6.298  0.1129  1.3950 -0.1324
 2658TIP3    H2 7932   7.615   1.183   6.190  1.3512 -1.5899 -1.2996
 2659TIP3   OH2 7933   5.700   0.990   1.568  0.5414  0.1883 -0.5774
 2659TIP3    H1 7934   5.700   0.897   1.591  0.9153  0.5486  1.0281
 2659TIP3    H2 7935   5.784   1.022   1.600 -0.1031  1.3223  0.0409
 2660TIP3   OH2 7936   0.346   2.846   1.479 -0.0714 -0.2640  0.4413
 2660TIP3    H1 7937   0.332   2.934   1.445  1.1078  0.1398  0.9613
 2660TIP3    H2 7938   0.259   2.817   1.507 -0.9167 -0.2280 -1.9416
 2661TIP3   OH2 7939   2.904   3.842   3.378 -0.2556 -0.6210  0.0243
 2661TIP3    H1 7940   2.903   3.909   3.310 -0.3631 -0.3261  0.3136
 2661TIP3    H2 7941   2.853   3.769   3.341 -0.0486 -0.5843 -0.3311
 2662TIP3   OH2 7942   8.176   0.640   0.432 -0.4257 -0.4402  0.0261
 2662TIP3    H1 7943   8.116   0.690   0.488  0.0540  0.2258 -0.0464
 2662TIP3    H2 7944   8.129   0.559   0.415 -0.3550 -0.9215  1.8643
 2663TIP3   OH2 7945   5.798   2.265   1.751 -0.0815  0.6127 -0.0320
 2663TIP3    H1 7946   5.822   2.301   1.836 -1.7773  0.5887  0.4901
 2663TIP3    H2 7947   5.879   2.269   1.700  1.4279 -0.8571  2.0547
 2664TIP3   OH2 7948   1.496   5.956   0.813  0.1079 -0.0117 -0.0708
 2664TIP3    H1 7949   1.507   6.014   0.737 -1.2110  1.1220  0.5528
 2664TIP3    H2 7950   1.494   5.868   0.775  0.9646  0.4190 -1.1759
 2665TIP3   OH2 7951   6.713   5.905   3.661 -0.6508 -0.4014 -0.1843
 2665TIP3    H1 7952   6.772   5.902   3.586 -0.5313 -0.5517 -0.0845
 2665TIP3    H2 7953   6.683   5.815   3.672  0.8136 -0.7679  1.1265
 2666TIP3   OH2 7954   7.534   5.458   3.379  1.0392  0.1259 -0.0021
 2666TIP3    H1 7955   7.611   5.429   3.330  0.6975 -0.7076 -0.0532
 2666TIP3    H2 7956   7.464   5.401   3.351  0.4565  0.6970  0.2592
 2667TIP3   OH2 7957   6.395   2.066   3.793  0.0200  0.4411 -0.3294
 2667TIP3    H1 7958   6.435   2.058   3.880 -0.1482 -1.6396 -0.3777
 2667TIP3    H2 7959   6.452   2.126   3.746  1.4532 -0.1869  0.5233
 2668TIP3   OH2 7960   3.535   6.058   3.964 -0.7576  0.2245  0.5946
 2668TIP3    H1 7961   3.505   6.048   4.054 -0.5788 -0.7542  0.5541
 2668TIP3    H2 7962   3.628   6.079   3.972 -1.3109  3.0787  0.7132
 2669TIP3   OH2 7963   4.860   6.755   6.672 -0.1345 -0.4371  0.5420
 2669TIP3    H1 7964   4.799   6.692   6.711 -3.3672  1.8019 -0.4706
 2669TIP3    H2 7965   4.819   6.840   6.688  1.5669  1.0336 -2.2926
 2670TIP3   OH2 7966   7.324   6.895   4.073  0.0556 -0.2802  0.1668
 2670TIP3    H1 7967   7.276   6.844   4.138 -0.2556 -1.1143 -0.6785
 2670TIP3    H2 7968   7.268   6.970   4.056 -0.5345 -0.7714 -0.1313
 2671TIP3   OH2 7969   1.059   0.604   1.375  0.5070 -0.2013  0.2084
 2671TIP3    H1 7970   0.984   0.596   1.433 -0.6445 -1.7734 -1.4042
 2671TIP3    H2 7971   1.088   0.694   1.386 -1.6396  0.4656  0.8487
 2672TIP3   OH2 7972   1.436   5.520   2.067  0.1362 -0.1210 -0.2226
 2672TIP3    H1 7973   1.455   5.589   2.004 -0.2354  0.3152  0.1372
 2672TIP3    H2 7974   1.340   5.520   2.075  0.2241  0.5519  1.1258
 2673TIP3   OH2 7975   0.512   2.822   0.567  0.0732 -0.0058 -0.1761
 2673TIP3    H1 7976   0.522   2.916   0.552  1.9959 -0.0878  0.3238
 2673TIP3    H2 7977   0.441   2.815   0.632  0.5137  1.1686  0.4549
 2674TIP3   OH2 7978   0.875   5.187   3.426  0.4207 -0.0149 -0.3348
 2674TIP3    H1 7979   0.794   5.142   3.450  0.3911  0.2651  0.1234
 2674TIP3    H2 7980   0.864   5.210   3.334  0.0367 -0.1046 -0.3131
 2675TIP3   OH2 7981   5.232   0.687   5.625 -0.0832  0.1283  0.1208
 2675TIP3    H1 7982   5.325   0.677   5.609  0.1975 -0.1149  1.7047
 2675TIP3    H2 7983   5.201   0.597   5.638 -0.1168  0.3296  1.5947
 2676TIP3   OH2 7984   6.910   5.784   5.336 -0.6675 -0.1100 -0.3267
 2676TIP3    H1 7985   6.921   5.877   5.313 -0.9704  0.1235  0.4375
 2676TIP3    H2 7986   6.826   5.760   5.296 -1.1269  0.2586  0.3876
 2677TIP3   OH2 7987   6.492   5.891   6.684  0.3551 -0.1723  0.5485
 2677TIP3    H1 7988   6.580   5.889   6.723  0.5480  0.2336  0.1456
 2677TIP3    H2 7989   6.433   5.877   6.758  0.6696  1.4659  1.1655
 2678TIP3   OH2 7990   5.692   3.025   4.976  0.2012 -0.0032  0.1965
 2678TIP3    H1 7991   5.724   2.959   4.913 -0.7595 -0.6523  0.3726
 2678TIP3    H2 7992   5.621   2.981   5.023  0.0521  0.9125  0.8532
 2679TIP3   OH2 7993   8.117   0.242   4.287 -0.2901  0.0184  0.3517
 2679TIP3    H1 7994   8.172   0.168   4.264 -1.6082 -1.3010  1.2291
 2679TIP3    H2 7995   8.118   0.298   4.210 -0.0499 -1.4185 -0.7331
 2680TIP3   OH2 7996   1.579   3.343   1.295  0.6667 -0.0369  0.0307
 2680TIP3    H1 7997   1.630   3.415   1.257 -0.1998  0.7838  0.3813
 2680TIP3    H2 7998   1.488   3.366   1.278  0.3295 -0.5053  1.0976
 2681TIP3   OH2 7999   7.282   3.747   2.006  0.1631  0.3202 -0.0844
 2681TIP3    H1 8000   7.193   3.739   2.041  0.1948 -0.1595 -0.0978
 2681TIP3    H2 8001   7.330   3.794   2.075 -0.1724  0.8677 -0.2177
 2682TIP3   OH2 8002   8.012   3.478   0.263 -0.9415 -0.1855  0.2283
 2682TIP3    H1 8003   7.921   3.454   0.244 -0.7467  0.0143 -1.0705
 2682TIP3    H2 8004   8.046   3.510   0.179 -0.0063  0.8296  0.9687
 2683TIP3   OH2 8005   5.643   5.022   0.428 -0.0118 -0.4109 -0.6066
 2683TIP3    H1 8006   5.730   4.988   0.411  0.4984  0.3425  0.3417
 2683TIP3    H2 8007   5.653   5.117   0.423 -0.9081 -0.3231 -1.0268
 2684TIP3   OH2 8008   0.750   0.810   0.653  0.1553 -0.0454  0.3617
 2684TIP3    H1 8009   0.846   0.811   0.660  0.1813  0.7967  0.0642
 2684TIP3    H2 8010   0.732   0.868   0.578 -0.6436  0.9095  1.2723
 2685TIP3   OH2 8011   6.184   0.470   4.970 -0.0294 -0.1762  0.2696
 2685TIP3    H1 8012   6.202   0.545   4.914  0.3467 -0.6326 -0.2312
 2685TIP3    H2 8013   6.222   0.493   5.055 -2.4782  1.4502  1.0436
 2686TIP3   OH2 8014   3.872   6.540   0.431 -0.8909  0.1648  0.6596
 2686TIP3    H1 8015   3.923   6.482   0.487 -0.0023 -0.1438 -0.4245
 2686TIP3    H2 8016   3.934   6.572   0.366 -2.1468 -0.6192 -1.0244
 2687TIP3   OH2 8017   5.533   6.252   2.513 -0.1766  0.0444 -0.0358
 2687TIP3    H1 8018   5.522   6.165   2.475  1.9353 -1.2993  2.1458
 2687TIP3    H2 8019   5.483   6.250   2.594 -2.3465  1.9112 -1.1871
 2688TIP3   OH2 8020   5.114   6.285   0.537  0.1770 -0.5701  0.7188
 2688TIP3    H1 8021   5.117   6.198   0.577  1.1788 -0.8940 -0.0308
 2688TIP3    H2 8022   5.179   6.281   0.466 -0.1978  0.5963  0.2947
 2689TIP3   OH2 8023   1.122   3.066   3.312 -0.4076  0.1922 -0.4215
 2689TIP3    H1 8024   1.129   3.154   3.274  0.8858 -0.4356 -1.7519
 2689TIP3    H2 8025   1.157   3.008   3.244 -1.4118 -1.3836  0.3522
 2690TIP3   OH2 8026   3.917   6.199   3.507 -0.4243  0.2128  0.5870
 2690TIP3    H1 8027   3.905   6.158   3.593  0.6281  0.1662  0.7270
 2690TIP3    H2 8028   3.995   6.156   3.471 -0.2572  0.9612  0.0462
 2691TIP3   OH2 8029   0.186   4.088   1.005  0.2982  0.1785 -0.7087
 2691TIP3    H1 8030   0.282   4.089   1.003  0.3035  1.0605 -0.1651
 2691TIP3    H2 8031   0.164   4.059   1.093  0.0456 -0.6831 -1.0363
 2692TIP3   OH2 8032   6.073   7.440   4.624 -0.5426 -0.5556  0.1598
 2692TIP3    H1 8033   6.048   7.487   4.544  2.3252 -0.5525 -0.8692
 2692TIP3    H2 8034   6.168   7.426   4.614  0.0381 -0.1116  3.8176
 2693TIP3   OH2 8035   1.675   2.211   3.454 -0.2051 -0.3732  0.5443
 2693TIP3    H1 8036   1.632   2.197   3.539 -0.6628 -0.8418  0.2390
 2693TIP3    H2 8037   1.622   2.161   3.392  1.7635 -2.4118  0.3965
 2694TIP3   OH2 8038   2.022   5.337   5.917  0.4682 -0.1519 -0.5156
 2694TIP3    H1 8039   1.979   5.289   5.988 -0.7595  2.2505  0.4836
 2694TIP3    H2 8040   1.951   5.358   5.856  0.4167  2.4056  0.3039
 2695TIP3   OH2 8041   5.801   4.233   0.252  0.2078 -0.1381 -0.3842
 2695TIP3    H1 8042   5.846   4.181   0.318  0.8951 -1.5122 -1.8735
 2695TIP3    H2 8043   5.790   4.174   0.178  0.0580  1.5254 -1.7582
 2696TIP3   OH2 8044   2.749   7.153   0.114  0.7866  0.5064  0.0859
 2696TIP3    H1 8045   2.710   7.079   0.067 -1.7073  1.4083  0.6088
 2696TIP3    H2 8046   2.837   7.160   0.078  0.2962 -1.2644 -1.6245
 2697TIP3   OH2 8047   2.623   5.883   5.879 -0.2696  0.2545 -0.2811
 2697TIP3    H1 8048   2.562   5.926   5.819  0.2434  1.7050  0.1867
 2697TIP3    H2 8049   2.645   5.951   5.943  1.7818 -0.2443 -0.3955
 2698TIP3   OH2 8050   6.288   7.506   0.986 -0.0690  0.5198  0.1237
 2698TIP3    H1 8051   6.317   7.597   0.997 -0.3667  0.8851 -1.7339
 2698TIP3    H2 8052   6.363   7.461   0.949 -0.2169  0.2377  0.1698
 2699TIP3   OH2 8053   3.065   2.680   1.244  0.7141 -0.1285 -0.1941
 2699TIP3    H1 8054   3.102   2.695   1.331 -1.6640  1.8584  0.6026
 2699TIP3    H2 8055   3.123   2.727   1.185  1.4777 -0.1336  0.5345
 2700TIP3   OH2 8056   2.155   4.218   6.721  0.1525 -0.5907  0.1302
 2700TIP3    H1 8057   2.171   4.292   6.780  2.0689 -0.4615 -0.4618
 2700TIP3    H2 8058   2.064   4.193   6.737  0.7044 -0.9308  3.5512
 2701TIP3   OH2 8059   3.362   0.114   1.145  0.1865 -0.2236 -0.5966
 2701TIP3    H1 8060   3.409   0.127   1.227  0.2919  0.0010 -0.6914
 2701TIP3    H2 8061   3.403   0.175   1.084  0.4919 -0.7917 -0.9718
 2702TIP3   OH2 8062   1.590   6.586   0.884 -0.0171  0.2592 -0.3643
 2702TIP3    H1 8063   1.628   6.545   0.806  0.0844 -0.7365  0.1923
 2702TIP3    H2 8064   1.639   6.668   0.893 -0.5651  0.7897 -1.7820
 2703TIP3   OH2 8065   5.883   1.169   4.859 -0.3891  0.7295  0.1127
 2703TIP3    H1 8066   5.871   1.221   4.780  1.2131  1.9259  0.6050
 2703TIP3    H2 8067   5.897   1.233   4.929 -1.0558 -0.3169  1.2560
 2704TIP3   OH2 8068   4.538   7.060   3.629 -0.5018 -0.7696  0.4858
 2704TIP3    H1 8069   4.496   7.144   3.644  1.4832 -0.1497  3.3278
 2704TIP3    H2 8070   4.554   7.058   3.534 -2.5010  1.0385  0.0386
 2705TIP3   OH2 8071   4.685   1.593   6.027  0.3701  0.1482 -0.0720
 2705TIP3    H1 8072   4.631   1.594   6.106  1.0969 -0.4870  0.4396
 2705TIP3    H2 8073   4.628   1.555   5.960  0.1476 -0.4344  0.4387
 2706TIP3   OH2 8074   0.773   4.015   2.971 -1.1409 -0.0178 -0.0512
 2706TIP3    H1 8075   0.867   4.026   2.961 -0.9802 -1.1829  0.0321
 2706TIP3    H2 8076   0.746   4.090   3.024  0.3083 -1.3287  2.8272
 2707TIP3   OH2 8077   3.205   1.458   3.733 -0.1720  0.0361  0.6715
 2707TIP3    H1 8078   3.227   1.433   3.823  0.5844 -2.2996 -0.0930
 2707TIP3    H2 8079   3.112   1.480   3.736 -0.0674  0.3700  2.0801
 2708TIP3   OH2 8080   4.680   3.081   2.874 -0.5584  0.1080  0.5648
 2708TIP3    H1 8081   4.598   3.129   2.858 -1.5407 -1.4805  0.6411
 2708TIP3    H2 8082   4.748   3.138   2.839 -1.9041  0.4619 -1.6747
 2709TIP3   OH2 8083   5.811   7.689   4.552  0.1020  0.1435  0.2632
 2709TIP3    H1 8084   5.836   7.671   4.643 -1.2983 -0.2310  0.6096
 2709TIP3    H2 8085   5.811   7.785   4.545 -0.4935  0.1966  0.8878
 2710TIP3   OH2 8086   4.215   6.903   1.827  0.2495 -0.5434 -0.5933
 2710TIP3    H1 8087   4.267   6.937   1.754 -0.5276 -0.1328 -0.9679
 2710TIP3    H2 8088   4.170   6.980   1.863  0.3057 -0.8095  0.0542
 2711TIP3   OH2 8089   0.768   7.784   0.669  0.5739 -0.0222  0.0509
 2711TIP3    H1 8090   0.744   7.706   0.719  1.6025 -0.5557 -0.2635
 2711TIP3    H2 8091   0.704   7.787   0.598 -0.4366  0.3176  0.9541
 2712TIP3   OH2 8092   6.208   7.437   1.259 -0.1136 -0.6112  0.4178
 2712TIP3    H1 8093   6.228   7.495   1.186  1.2825  2.1041  2.7447
 2712TIP3    H2 8094   6.259   7.358   1.242 -0.7445 -0.5705 -2.0494
 2713TIP3   OH2 8095   4.751   6.865   5.402 -0.1373  0.1341  0.3113
 2713TIP3    H1 8096   4.784   6.887   5.488 -0.4277  2.8181 -0.1993
 2713TIP3    H2 8097   4.830   6.856   5.348 -0.0399  1.3020  0.2446
 2714TIP3   OH2 8098   1.751   3.424   3.286  0.2629 -0.0382 -0.6141
 2714TIP3    H1 8099   1.711   3.426   3.198 -1.4553  1.0380  0.1493
 2714TIP3    H2 8100   1.678   3.439   3.346  1.7774  1.6460  0.8978
 2715TIP3   OH2 8101   2.771   5.435   4.601 -0.0959 -0.2508  0.3381
 2715TIP3    H1 8102   2.807   5.408   4.516  0.5396  0.1404  0.4706
 2715TIP3    H2 8103   2.753   5.529   4.589 -0.4276 -0.2957  0.4933
 2716TIP3   OH2 8104   3.713   5.985   1.673 -0.0488 -0.1117  0.6658
 2716TIP3    H1 8105   3.729   5.949   1.760  0.9612 -2.6054 -0.4585
 2716TIP3    H2 8106   3.623   5.960   1.654 -0.1526  0.1212  0.8447
 2717TIP3   OH2 8107   6.245   4.295   1.494 -0.2524 -0.3528 -0.0025
 2717TIP3    H1 8108   6.291   4.237   1.554  1.5399 -0.3442 -1.2878
 2717TIP3    H2 8109   6.308   4.365   1.475 -0.3311 -0.8866 -2.6600
 2718TIP3   OH2 8110  -0.001   5.626   5.334  0.0442 -0.7027 -0.1248
 2718TIP3    H1 8111  -0.047   5.543   5.350 -1.7116 -0.2275 -2.2424
 2718TIP3    H2 8112   0.073   5.601   5.278 -0.0373 -0.9322 -0.1329
 2719TIP3   OH2 8113   4.943   1.265   0.263  0.0260 -0.1792  0.7325
 2719TIP3    H1 8114   4.906   1.351   0.243  1.4018 -0.0335 -1.5572
 2719TIP3    H2 8115   5.022   1.285   0.314  0.3827 -0.0593  0.1433
 2720TIP3   OH2 8116   0.672   7.388   5.373  0.0072  0.6258 -0.0344
 2720TIP3    H1 8117   0.732   7.420   5.441  0.8092 -2.5154  0.8894
 2720TIP3    H2 8118   0.727   7.382   5.295  1.0711 -2.2237  0.8033
 2721TIP3   OH2 8119   7.689   0.334   4.858  0.0285 -0.1941  0.9039
 2721TIP3    H1 8120   7.664   0.248   4.822 -4.3652  0.6082  1.5684
 2721TIP3    H2 8121   7.704   0.317   4.951 -0.5051 -0.2764  0.9737
 2722TIP3   OH2 8122   7.908   6.936   2.823 -0.5545  0.4506  0.4141
 2722TIP3    H1 8123   7.883   7.022   2.788 -0.0710  0.4985  0.1799
 2722TIP3    H2 8124   7.971   6.902   2.759 -0.0008  0.3445  1.0121
 2723TIP3   OH2 8125   1.985   1.440   4.355 -0.5836 -0.0043  0.5908
 2723TIP3    H1 8126   1.952   1.529   4.352  1.4688  0.8146  0.7042
 2723TIP3    H2 8127   2.029   1.427   4.270 -0.8029 -0.8936  0.5966
 2724TIP3   OH2 8128   5.896   5.174   1.106  0.3115 -0.2615  0.2001
 2724TIP3    H1 8129   5.880   5.097   1.160 -1.1153  0.1823  0.4416
 2724TIP3    H2 8130   5.956   5.144   1.037  0.7930 -1.2485  1.0348
 2725TIP3   OH2 8131   3.001   4.872   5.287 -0.1267  0.1952  0.5035
 2725TIP3    H1 8132   3.032   4.962   5.292  0.1941  0.1867 -0.9627
 2725TIP3    H2 8133   2.917   4.878   5.243  0.0700 -0.2623  0.0663
 2726TIP3   OH2 8134   0.124   3.366   6.315  0.4275  0.0653  0.4586
 2726TIP3    H1 8135   0.139   3.440   6.375  1.4059 -0.1933  0.5446
 2726TIP3    H2 8136   0.151   3.398   6.229 -2.4254  0.9633 -0.2020
 2727TIP3   OH2 8137   5.852   1.638   0.404 -0.1131 -0.3808 -1.0290
 2727TIP3    H1 8138   5.771   1.686   0.387 -0.5697  0.2022  2.0968
 2727TIP3    H2 8139   5.830   1.546   0.388 -0.9263 -0.0745 -1.6897
 2728TIP3   OH2 8140   3.347   6.294   5.788 -0.3569  0.3932 -0.6014
 2728TIP3    H1 8141   3.359   6.217   5.732  1.2932 -1.9374  2.5954
 2728TIP3    H2 8142   3.252   6.310   5.786 -0.9480 -2.4722 -0.5917
 2729TIP3   OH2 8143   4.792   2.915   6.324 -0.3434 -0.0893  0.1718
 2729TIP3    H1 8144   4.770   2.914   6.231 -0.0301  0.4914  0.0905
 2729TIP3    H2 8145   4.869   2.858   6.331  0.6050  1.1077 -0.1803
 2730TIP3   OH2 8146   6.498   4.686   1.113 -0.6292  0.7282  0.4847
 2730TIP3    H1 8147   6.498   4.762   1.054 -0.7030 -0.2416 -0.7955
 2730TIP3    H2 8148   6.581   4.642   1.096 -0.1054  1.0673  1.9902
 2731TIP3   OH2 8149   5.423   6.371   5.027  0.3428  0.3287 -0.0433
 2731TIP3    H1 8150   5.412   6.292   5.080 -1.0338 -1.1689 -2.3814
 2731TIP3    H2 8151   5.454   6.438   5.089 -0.4399 -1.4738  2.4394
 2732TIP3   OH2 8152   7.803   0.695   5.080  0.1796 -0.5684  0.1794
 2732TIP3    H1 8153   7.834   0.664   4.995  0.9103  0.4116  0.0671
 2732TIP3    H2 8154   7.849   0.639   5.143  1.9593  0.6165 -0.0012
 2733TIP3   OH2 8155   5.020   2.896   6.643 -0.6762 -0.1104 -0.1484
 2733TIP3    H1 8156   5.018   2.951   6.721 -0.5679 -0.1706 -0.1026
 2733TIP3    H2 8157   4.933   2.857   6.638 -0.2423 -1.2481  0.7592
 2734TIP3   OH2 8158   4.229   2.935   4.176  0.2357 -0.4986 -0.3467
 2734TIP3    H1 8159   4.189   2.984   4.248  1.9830  0.2418  0.1726
 2734TIP3    H2 8160   4.213   2.988   4.099  0.0336 -0.3172 -0.1812
 2735TIP3   OH2 8161   3.095   0.282   6.016 -0.2041  0.2127 -0.0810
 2735TIP3    H1 8162   3.090   0.243   5.929 -1.1836  0.3357 -0.0868
 2735TIP3    H2 8163   3.061   0.371   6.005  2.5738  1.3540 -0.1937
 2736TIP3   OH2 8164   0.571   2.678   1.198 -0.4625  0.0109  0.1986
 2736TIP3    H1 8165   0.567   2.607   1.133 -0.1415  0.1677  0.0029
 2736TIP3    H2 8166   0.653   2.723   1.178 -1.0514  0.9301 -0.1862
 2737TIP3   OH2 8167   2.394   0.908   4.666  0.4404 -0.1907  0.4742
 2737TIP3    H1 8168   2.467   0.959   4.702 -0.3231 -1.1675  3.7565
 2737TIP3    H2 8169   2.370   0.848   4.737 -3.1238 -0.3675 -0.7231
 2738TIP3   OH2 8170   1.267   6.079   5.966  0.0436 -0.1624  0.5697
 2738TIP3    H1 8171   1.234   6.167   5.981 -1.4855 -0.7045  0.6250
 2738TIP3    H2 8172   1.210   6.044   5.896 -0.7175 -1.7662  1.9153
 2739TIP3   OH2 8173   3.121   7.646   5.721 -0.1078  0.3256 -0.0672
 2739TIP3    H1 8174   3.179   7.718   5.744  0.3063 -0.6309  2.1091
 2739TIP3    H2 8175   3.180   7.572   5.703 -0.5947 -0.4045  1.2396
 2740TIP3   OH2 8176   4.827   4.940   4.997 -0.4396  0.5825 -0.7411
 2740TIP3    H1 8177   4.782   5.024   5.006 -0.7158  0.3867 -0.3094
 2740TIP3    H2 8178   4.772   4.877   5.043  0.7329  0.5128  0.6113
 2741TIP3   OH2 8179   5.771   3.758   3.447 -0.4808 -0.8717 -0.0385
 2741TIP3    H1 8180   5.731   3.675   3.423 -0.5291 -0.3333 -1.9565
 2741TIP3    H2 8181   5.865   3.745   3.431 -0.3870 -0.7728  0.3934
 2742TIP3   OH2 8182   5.141   4.240   0.178 -0.2554 -0.1402 -0.3571
 2742TIP3    H1 8183   5.091   4.319   0.195 -0.0544 -0.3264  1.2133
 2742TIP3    H2 8184   5.164   4.246   0.085  0.9528  2.3432  0.0049
 2743TIP3   OH2 8185   1.105   5.187   6.723 -0.4098 -0.1093  0.1266
 2743TIP3    H1 8186   1.023   5.225   6.690 -0.6066  0.1102  0.8592
 2743TIP3    H2 8187   1.165   5.195   6.649 -0.9096  0.1761 -0.2598
 2744TIP3   OH2 8188   8.153   4.796   5.468 -0.1254  0.0083 -0.1233
 2744TIP3    H1 8189   8.081   4.776   5.528 -0.6175  0.8120 -0.4265
 2744TIP3    H2 8190   8.178   4.886   5.489 -0.3585  0.3261 -1.1683
 2745TIP3   OH2 8191   0.827   2.032   3.352  0.0525 -0.1786 -0.1854
 2745TIP3    H1 8192   0.819   2.058   3.261 -1.8274  2.6294  0.6514
 2745TIP3    H2 8193   0.884   2.098   3.391  1.3460 -1.6924  0.6298
 2746TIP3   OH2 8194   0.163   6.939   3.590 -0.0699 -0.2517  0.2388
 2746TIP3    H1 8195   0.237   6.977   3.637  1.0269 -0.2381 -1.4409
 2746TIP3    H2 8196   0.101   7.011   3.580  1.3112  0.7632 -1.5504
 2747TIP3   OH2 8197   2.528   0.633   3.753 -1.0317  0.3334 -0.2704
 2747TIP3    H1 8198   2.526   0.539   3.734 -1.2128  0.4346 -0.7708
 2747TIP3    H2 8199   2.542   0.674   3.668 -0.7144  0.7501 -0.0187
 2748TIP3   OH2 8200   2.960   0.164   1.367 -0.1609  0.0517 -0.4993
 2748TIP3    H1 8201   3.038   0.160   1.422 -1.0401  1.1140  0.8622
 2748TIP3    H2 8202   2.995   0.159   1.277  1.5765  1.6057  0.0146
 2749TIP3   OH2 8203   2.752   5.227   0.338 -0.1114 -0.5543  0.3998
 2749TIP3    H1 8204   2.685   5.199   0.401  0.8533 -2.2230  0.7494
 2749TIP3    H2 8205   2.732   5.319   0.321 -1.7967 -0.6994  1.3583
 2750TIP3   OH2 8206   0.436   1.573   6.702  0.4077 -0.4078  0.8438
 2750TIP3    H1 8207   0.518   1.616   6.677  0.0567  0.3080  0.8924
 2750TIP3    H2 8208   0.424   1.596   6.794  0.5908 -1.2377  1.0809
 2751TIP3   OH2 8209   5.702   5.463   3.711  0.2307 -0.4962 -0.3248
 2751TIP3    H1 8210   5.679   5.383   3.758  1.0876  0.3974  1.7419
 2751TIP3    H2 8211   5.622   5.488   3.664 -0.0150 -2.5744 -1.0953
 2752TIP3   OH2 8212   5.307   4.837   6.350 -0.2629  0.4042 -0.1356
 2752TIP3    H1 8213   5.380   4.897   6.367  1.0884 -0.5857 -2.0189
 2752TIP3    H2 8214   5.325   4.761   6.406  0.3676  0.0212 -0.8422
 2753TIP3   OH2 8215   2.104   2.627   5.056 -0.9510  0.2341  0.1016
 2753TIP3    H1 8216   2.148   2.669   5.130 -0.4914  1.2544 -0.7275
 2753TIP3    H2 8217   2.109   2.534   5.075  1.4433  0.3056  0.1435
 2754TIP3   OH2 8218   1.702   6.781   2.380  0.0356 -0.4528 -0.7671
 2754TIP3    H1 8219   1.751   6.781   2.298 -0.2733  0.6695 -0.9770
 2754TIP3    H2 8220   1.613   6.759   2.355 -0.0774 -0.0223 -0.7553
 2755TIP3   OH2 8221   6.966   2.455   2.071  0.0038  0.5789 -0.7770
 2755TIP3    H1 8222   6.938   2.413   1.989  2.1572  0.6867 -1.6288
 2755TIP3    H2 8223   6.886   2.460   2.123 -0.9612 -1.8395 -1.8302
 2756TIP3   OH2 8224   3.252   0.636   0.762  0.3496  0.1990 -0.4427
 2756TIP3    H1 8225   3.277   0.727   0.744  1.9503 -0.5300 -2.2428
 2756TIP3    H2 8226   3.162   0.630   0.732  0.2362  1.1797 -0.3389
 2757TIP3   OH2 8227   0.051   0.569   4.520  0.1940 -0.8171 -0.3295
 2757TIP3    H1 8228   0.074   0.569   4.613 -0.4895  0.2960 -0.1391
 2757TIP3    H2 8229   0.060   0.478   4.493  0.4100 -1.1589  0.8287
 2758TIP3   OH2 8230   3.164   3.574   1.025 -0.0306  0.2199  0.6724
 2758TIP3    H1 8231   3.212   3.578   0.942  0.1494 -3.6036  0.4096
 2758TIP3    H2 8232   3.111   3.494   1.017 -1.6103  0.8884  3.4547
 2759TIP3   OH2 8233   0.797   6.785   6.161  0.1401 -0.0676 -0.0083
 2759TIP3    H1 8234   0.845   6.748   6.087 -0.3051  1.8405 -1.3494
 2759TIP3    H2 8235   0.706   6.765   6.142 -0.0626  1.2248 -0.5192
 2760TIP3   OH2 8236   6.768   7.640   5.691  0.0374  0.5006  0.1319
 2760TIP3    H1 8237   6.832   7.572   5.667 -0.9750 -0.9277  1.3125
 2760TIP3    H2 8238   6.797   7.717   5.643  0.3506 -1.1233 -2.5392
 2761TIP3   OH2 8239   3.373   0.823   6.224  0.5807 -0.0955  0.6869
 2761TIP3    H1 8240   3.445   0.766   6.199  1.4140  1.9375 -1.8451
 2761TIP3    H2 8241   3.409   0.878   6.294  0.6279 -0.8052  1.2329
 2762TIP3   OH2 8242   3.627   4.534   2.043  0.1561 -0.0355 -0.1944
 2762TIP3    H1 8243   3.622   4.630   2.040  0.5829 -0.0217 -0.4842
 2762TIP3    H2 8244   3.630   4.508   1.951  1.5310 -0.2485 -0.1029
 2763TIP3   OH2 8245   0.700   1.503   2.404  0.4212 -0.1294 -0.3337
 2763TIP3    H1 8246   0.750   1.564   2.459  3.8747 -1.8546 -1.2809
 2763TIP3    H2 8247   0.614   1.498   2.446  2.1274  0.2703  3.6724
 2764TIP3   OH2 8248   2.077   3.665   3.752 -0.0150  0.4304  0.1982
 2764TIP3    H1 8249   2.139   3.641   3.820  1.4888 -0.3106 -1.3336
 2764TIP3    H2 8250   1.992   3.658   3.793  0.8847  1.0236  2.2604
 2765TIP3   OH2 8251   7.421   5.993   6.059  0.1926  0.2295 -0.1793
 2765TIP3    H1 8252   7.396   5.903   6.080  0.3801  0.7278  2.5380
 2765TIP3    H2 8253   7.511   6.002   6.090 -0.4892  1.8768  1.5341
 2766TIP3   OH2 8254   0.378   5.055   2.133 -0.4902  0.1568  0.1456
 2766TIP3    H1 8255   0.285   5.041   2.153 -0.5032 -0.5133 -0.3621
 2766TIP3    H2 8256   0.381   5.065   2.038 -0.2982  2.3276  0.3285
 2767TIP3   OH2 8257   5.260   2.934   6.500 -0.0040 -0.3768 -0.7192
 2767TIP3    H1 8258   5.289   3.014   6.457 -1.2496 -0.9298 -2.7101
 2767TIP3    H2 8259   5.275   2.950   6.593 -0.6837  2.3534 -0.9984
 2768TIP3   OH2 8260   4.404   7.614   4.466 -0.3525 -0.0296  0.2581
 2768TIP3    H1 8261   4.484   7.563   4.477  0.6142  1.0454 -1.3227
 2768TIP3    H2 8262   4.395   7.625   4.372 -2.1732  0.2154  0.4183
 2769TIP3   OH2 8263   6.157   5.909   5.685  0.4427  0.9034  0.0301
 2769TIP3    H1 8264   6.114   5.921   5.600 -2.0426  0.6770  1.1643
 2769TIP3    H2 8265   6.249   5.896   5.664 -0.5364 -2.9788 -3.0152
 2770TIP3   OH2 8266  -0.005   6.517   5.847  0.6859 -0.3080 -0.0427
 2770TIP3    H1 8267   0.034   6.442   5.891 -2.1485 -0.2441  2.9719
 2770TIP3    H2 8268   0.065   6.583   5.845  2.5085 -2.1606 -0.6604
 2771TIP3   OH2 8269   4.349   1.166   4.252 -0.7545  0.4311 -0.6443
 2771TIP3    H1 8270   4.340   1.208   4.166 -1.7001  2.1716  0.2643
 2771TIP3    H2 8271   4.287   1.213   4.308 -1.2134 -1.6214  0.6682
 2772TIP3   OH2 8272   2.168   3.936   4.155 -0.1192 -0.1884 -0.7002
 2772TIP3    H1 8273   2.254   3.955   4.193 -0.8086  1.1908  0.2478
 2772TIP3    H2 8274   2.141   4.018   4.114 -0.7787 -0.7572 -1.4463
 2773TIP3   OH2 8275   0.473   3.037   1.131 -0.5356 -0.4493  0.2052
 2773TIP3    H1 8276   0.543   3.023   1.067  1.6360 -0.3077  2.3970
 2773TIP3    H2 8277   0.418   2.959   1.123 -1.0358  0.0978 -2.5643
 2774TIP3   OH2 8278   8.042   5.040   3.417  0.1429 -0.1459  0.0125
 2774TIP3    H1 8279   8.136   5.055   3.425  0.1072  0.1847 -0.1655
 2774TIP3    H2 8280   8.002   5.104   3.477 -0.0119  0.5053 -0.7611
 2775TIP3   OH2 8281   7.419   2.080   4.242  0.3034  0.0192  0.5673
 2775TIP3    H1 8282   7.492   2.108   4.297  0.2440 -1.5070  1.4935
 2775TIP3    H2 8283   7.341   2.101   4.293  0.1806 -0.0968  0.4274
 2776TIP3   OH2 8284   0.253   2.493   2.104 -0.2186  0.2811  0.0380
 2776TIP3    H1 8285   0.161   2.509   2.124 -0.5804 -1.0581 -0.4237
 2776TIP3    H2 8286   0.294   2.579   2.108 -1.2883  0.7605  1.2728
 2777TIP3   OH2 8287   2.487   2.502   0.194  0.9503  0.3182  0.2471
 2777TIP3    H1 8288   2.486   2.441   0.268 -0.5231 -0.6094 -0.4839
 2777TIP3    H2 8289   2.453   2.584   0.230 -0.3028 -0.2860  0.4981
 2778TIP3   OH2 8290   5.489   0.463   1.824 -0.1262  0.0996 -0.8241
 2778TIP3    H1 8291   5.523   0.387   1.775  0.9777 -0.0358  0.0924
 2778TIP3    H2 8292   5.428   0.425   1.888  1.4213 -0.2361  0.5361
 2779TIP3   OH2 8293   0.521   0.301   1.367 -0.3119 -0.4597 -0.0362
 2779TIP3    H1 8294   0.563   0.331   1.448 -0.0890 -1.1359  0.1009
 2779TIP3    H2 8295   0.563   0.217   1.348  2.2387  1.2414 -2.7995
 2780TIP3   OH2 8296   4.500   1.161   1.883  0.2377  0.5413  0.3828
 2780TIP3    H1 8297   4.416   1.118   1.892  0.6906 -0.6220 -0.6755
 2780TIP3    H2 8298   4.540   1.154   1.970 -0.6410  0.9077  0.8299
 2781TIP3   OH2 8299   1.767   7.412   0.997  0.1097  0.0288 -0.4563
 2781TIP3    H1 8300   1.834   7.462   0.949 -0.8523  2.1916  0.3381
 2781TIP3    H2 8301   1.684   7.447   0.965 -0.6480 -1.7846 -0.5582
 2782TIP3   OH2 8302   0.385   6.897   2.560  0.6971 -0.0486  0.4211
 2782TIP3    H1 8303   0.437   6.940   2.492 -0.1376 -0.5702 -0.5691
 2782TIP3    H2 8304   0.388   6.804   2.538 -1.4399  0.0066 -0.2307
 2783TIP3   OH2 8305   2.355   0.941   3.108 -0.6423 -0.1047  0.0698
 2783TIP3    H1 8306   2.316   0.914   3.191  0.1411  0.2774  0.5647
 2783TIP3    H2 8307   2.318   0.881   3.043 -0.6626 -0.8924  0.8067
 2784TIP3   OH2 8308   0.096   0.711   5.023 -0.1494  0.0026 -0.6535
 2784TIP3    H1 8309   0.165   0.761   4.980  1.7604 -0.0587  2.0686
 2784TIP3    H2 8310   0.016   0.760   5.006  0.7595  0.8519 -2.7401
 2785TIP3   OH2 8311   7.553   3.156   2.682 -0.0856  0.2781  0.5163
 2785TIP3    H1 8312   7.470   3.115   2.705  0.2916 -0.8746 -0.0613
 2785TIP3    H2 8313   7.545   3.175   2.588  0.4686 -0.2961  0.3445
 2786TIP3   OH2 8314   2.977   5.557   1.748 -0.2589  0.0186  0.2462
 2786TIP3    H1 8315   2.972   5.463   1.764 -0.6369  0.0424  0.2752
 2786TIP3    H2 8316   3.058   5.569   1.699  0.0015 -0.2726  0.6011
 2787TIP3   OH2 8317   7.580   4.294   2.101 -0.1309 -0.3055  0.2241
 2787TIP3    H1 8318   7.559   4.364   2.040 -0.0858 -0.9651 -0.5583
 2787TIP3    H2 8319   7.527   4.313   2.179 -2.1042 -0.7889 -0.9340
 2788TIP3   OH2 8320   5.093   3.304   1.385 -0.2392  0.2087  0.1650
 2788TIP3    H1 8321   5.079   3.232   1.447 -0.5944  1.0430  1.0782
 2788TIP3    H2 8322   5.006   3.341   1.370  0.1082  1.3564  0.8496
 2789TIP3   OH2 8323   6.074   2.252   3.581 -0.2201  0.1477 -0.0823
 2789TIP3    H1 8324   6.104   2.241   3.491 -0.2815  1.0360 -0.2141
 2789TIP3    H2 8325   6.020   2.331   3.579 -1.8629 -0.8940  0.3243
 2790TIP3   OH2 8326   3.314   4.797   6.147 -0.0366 -0.4907 -0.2076
 2790TIP3    H1 8327   3.306   4.807   6.242  0.1952 -0.3541 -0.1995
 2790TIP3    H2 8328   3.392   4.849   6.124 -0.8435  0.5735 -0.6428
 2791TIP3   OH2 8329   0.502   3.917   4.327 -0.0115 -0.1532 -0.1691
 2791TIP3    H1 8330   0.411   3.897   4.302 -0.9923  1.1209  2.0300
 2791TIP3    H2 8331   0.493   3.972   4.405  2.6633  0.7319 -0.3952
 2792TIP3   OH2 8332   3.773   6.588   1.159 -0.1402 -0.0793  0.9715
 2792TIP3    H1 8333   3.762   6.589   1.064 -3.1410 -1.3897  1.1902
 2792TIP3    H2 8334   3.865   6.562   1.172 -0.0381 -1.3808 -1.5776
 2793TIP3   OH2 8335   3.710   6.678   2.161 -0.1438  1.2274  0.3921
 2793TIP3    H1 8336   3.681   6.648   2.248 -2.2575 -1.3322 -1.0667
 2793TIP3    H2 8337   3.670   6.765   2.152 -3.4676 -0.1539  0.4775
 2794TIP3   OH2 8338   2.117   1.145   1.724  0.1564  0.2896  0.2068
 2794TIP3    H1 8339   2.057   1.185   1.661 -0.5079 -0.0813  0.5873
 2794TIP3    H2 8340   2.091   1.182   1.809 -0.3457 -0.7770  0.5384
 2795TIP3   OH2 8341   3.966   3.801   6.386  0.2340  0.1958 -0.2992
 2795TIP3    H1 8342   4.044   3.857   6.383 -0.3841  1.1970  1.0414
 2795TIP3    H2 8343   3.903   3.850   6.440 -1.8459  0.0498 -2.4352
 2796TIP3   OH2 8344   1.510   3.663   6.677  0.1093  0.5060 -0.2992
 2796TIP3    H1 8345   1.588   3.620   6.711 -0.2852  1.0433  1.3313
 2796TIP3    H2 8346   1.489   3.614   6.597  0.6819 -1.2080  0.5580
 2797TIP3   OH2 8347   2.252   6.051   3.298  0.0134  0.1821  0.1821
 2797TIP3    H1 8348   2.192   6.125   3.288 -3.1073 -2.0210  0.7656
 2797TIP3    H2 8349   2.274   6.025   3.209  0.4743  1.2952 -0.0368
 2798TIP3   OH2 8350   5.454   5.330   3.161 -0.1110  0.0461  0.5482
 2798TIP3    H1 8351   5.414   5.249   3.130 -1.4154  0.6448  0.5706
 2798TIP3    H2 8352   5.478   5.313   3.252  0.6500 -0.6589  0.2206
 2799TIP3   OH2 8353   4.938   2.222   2.355  0.0707 -0.4859  0.5686
 2799TIP3    H1 8354   5.010   2.238   2.293 -0.5793  1.2580  0.2144
 2799TIP3    H2 8355   4.862   2.204   2.300  0.1000 -1.8495  0.9359
 2800TIP3   OH2 8356   0.672   5.218   3.206 -0.8777  0.4967 -0.4966
 2800TIP3    H1 8357   0.600   5.246   3.262  0.1238 -0.1481  1.1645
 2800TIP3    H2 8358   0.640   5.138   3.163 -0.4912 -0.9816  1.8072
 2801TIP3   OH2 8359   4.504   2.413   5.931 -0.4731 -0.0241 -0.5026
 2801TIP3    H1 8360   4.466   2.329   5.957  1.1452 -0.6373  0.0433
 2801TIP3    H2 8361   4.565   2.391   5.861  0.0652  0.6838 -0.2656
 2802TIP3   OH2 8362   3.449   7.186   1.284 -0.3724  0.8128  0.0805
 2802TIP3    H1 8363   3.381   7.211   1.347  0.0212  0.4693  0.6533
 2802TIP3    H2 8364   3.465   7.093   1.302  1.1957  1.2078  0.8820
 2803TIP3   OH2 8365   6.223   6.096   1.278 -0.1814 -0.3780 -0.0784
 2803TIP3    H1 8366   6.136   6.059   1.261 -0.5732  1.0995 -1.5431
 2803TIP3    H2 8367   6.214   6.189   1.261  1.2534  0.1269  1.6137
 2804TIP3   OH2 8368   1.706   0.905   1.322 -0.4943  0.2483  0.2738
 2804TIP3    H1 8369   1.766   0.972   1.355 -1.2738  1.1395 -0.0825
 2804TIP3    H2 8370   1.643   0.953   1.268  0.1980 -1.0428 -1.7893
 2805TIP3   OH2 8371   0.040   6.369   1.874  0.4404  0.4882  0.3718
 2805TIP3    H1 8372   0.132   6.343   1.885  0.2761 -0.5448 -0.5084
 2805TIP3    H2 8373   0.045   6.458   1.838  1.1291  0.1379 -0.4428
 2806TIP3   OH2 8374   8.008   7.434   0.075 -0.7978  0.2251 -0.3408
 2806TIP3    H1 8375   8.030   7.358   0.021 -0.5842  0.0579 -0.0153
 2806TIP3    H2 8376   8.035   7.509   0.022 -1.1940  0.0896 -0.7514
 2807TIP3   OH2 8377   7.974   6.579   1.904  0.3426  0.3229  0.8040
 2807TIP3    H1 8378   7.967   6.639   1.831  1.7785  1.0224  1.2092
 2807TIP3    H2 8379   7.917   6.616   1.972 -1.0384 -0.3611  0.0594
 2808TIP3   OH2 8380   7.571   4.276   4.478 -0.4123 -0.0519 -0.5045
 2808TIP3    H1 8381   7.495   4.218   4.475  0.3105 -0.9870 -1.0847
 2808TIP3    H2 8382   7.573   4.318   4.392 -0.6102  0.4138 -0.2829
 2809TIP3   OH2 8383   8.048   7.035   5.306 -0.1582 -0.1257  0.2330
 2809TIP3    H1 8384   8.135   6.996   5.301 -0.0576  0.2264 -1.6307
 2809TIP3    H2 8385   8.002   6.983   5.372  1.1949 -0.8637  0.6295
 2810TIP3   OH2 8386   6.424   4.216   4.308 -0.2362 -0.3269 -0.1109
 2810TIP3    H1 8387   6.495   4.160   4.277 -0.1443 -0.3639  0.1616
 2810TIP3    H2 8388   6.356   4.155   4.335  0.8882 -0.4539  2.7306
 2811TIP3   OH2 8389   4.579   0.056   2.156  0.6764  0.5105 -0.1912
 2811TIP3    H1 8390   4.645   0.012   2.211 -0.2973  0.2747  0.8366
 2811TIP3    H2 8391   4.629   0.091   2.082  1.7807 -0.6291 -0.0268
 2812TIP3   OH2 8392   7.053   0.832   3.443  0.0059 -0.3431 -0.2166
 2812TIP3    H1 8393   7.038   0.785   3.525  1.7551 -0.0758  0.3144
 2812TIP3    H2 8394   6.967   0.866   3.418 -0.4295  0.3352  1.9899
 2813TIP3   OH2 8395   4.864   4.569   1.779  0.1162 -0.3095  0.0084
 2813TIP3    H1 8396   4.840   4.515   1.855 -0.2983  0.4045  0.3997
 2813TIP3    H2 8397   4.959   4.580   1.787 -0.0443  0.5485  0.9725
 2814TIP3   OH2 8398   6.988   0.737   2.692  0.4522 -0.3831  0.2987
 2814TIP3    H1 8399   6.933   0.714   2.617 -0.8838 -1.0315  1.4340
 2814TIP3    H2 8400   7.067   0.773   2.653  0.9343 -3.1076 -1.5248
 2815TIP3   OH2 8401   1.574   4.819   4.380 -0.0873  0.1103 -0.5738
 2815TIP3    H1 8402   1.522   4.775   4.312 -2.5016  0.4078  0.9619
 2815TIP3    H2 8403   1.515   4.884   4.417  1.3853  0.4577  1.3137
 2816TIP3   OH2 8404   6.879   4.577   4.566  0.3591  0.0811  0.6329
 2816TIP3    H1 8405   6.927   4.497   4.543  1.6994  1.4140 -1.5666
 2816TIP3    H2 8406   6.908   4.597   4.655 -0.2425 -2.0038  1.3580
 2817TIP3   OH2 8407   3.547   3.532   0.893  0.0487 -0.0596 -0.4602
 2817TIP3    H1 8408   3.493   3.603   0.857 -1.4859 -0.4895  0.8891
 2817TIP3    H2 8409   3.533   3.537   0.988  0.4024 -1.7700 -0.2904
 2818TIP3   OH2 8410   7.450   0.892   6.060  0.0121  0.3542  0.0220
 2818TIP3    H1 8411   7.525   0.951   6.053  1.2295 -1.1606 -0.3344
 2818TIP3    H2 8412   7.482   0.819   6.113 -1.5886  0.1900  0.8348
 2819TIP3   OH2 8413   1.420   5.766   3.069 -0.1437 -0.2659 -0.1617
 2819TIP3    H1 8414   1.409   5.828   3.141  0.8532  0.3835 -0.5388
 2819TIP3    H2 8415   1.334   5.727   3.057 -0.9335  1.4030 -0.2157
 2820TIP3   OH2 8416   6.024   3.731   2.687 -0.4184  0.0075  0.1974
 2820TIP3    H1 8417   6.044   3.803   2.628  1.2744  0.1134  0.8319
 2820TIP3    H2 8418   6.040   3.767   2.775 -0.0930 -0.9742  0.5502
 2821TIP3   OH2 8419   7.839   6.016   1.419  0.2240 -0.0670 -0.1229
 2821TIP3    H1 8420   7.746   6.022   1.438  0.1004 -0.5119 -0.5371
 2821TIP3    H2 8421   7.850   5.927   1.383  0.2832  0.9176 -2.7930
 2822TIP3   OH2 8422   6.916   1.134   5.121 -0.2104 -0.1429 -0.2606
 2822TIP3    H1 8423   6.895   1.114   5.213  1.7241  0.3074  0.3425
 2822TIP3    H2 8424   6.991   1.193   5.127  0.9303 -1.3083 -2.1574
 2823TIP3   OH2 8425   5.114   6.086   4.300  0.4241 -0.0217 -0.4745
 2823TIP3    H1 8426   5.039   6.115   4.352  0.5033 -0.7282  0.0513
 2823TIP3    H2 8427   5.188   6.137   4.334  0.7647 -1.5058  1.1576
 2824TIP3   OH2 8428   7.151   0.937   4.539 -0.0498  0.5800 -0.2820
 2824TIP3    H1 8429   7.185   0.852   4.513  1.4494  1.5336 -1.6040
 2824TIP3    H2 8430   7.101   0.919   4.619  0.3834 -1.4882 -0.4197
 2825TIP3   OH2 8431   3.953   1.106   6.233  0.2219 -0.5038 -0.4987
 2825TIP3    H1 8432   3.943   1.200   6.246  0.8508 -0.5742  0.6457
 2825TIP3    H2 8433   4.048   1.092   6.232  0.1413 -1.0533 -1.2789
 2826TIP3   OH2 8434   6.841   4.725   6.223 -0.3017 -0.1580 -0.2653
 2826TIP3    H1 8435   6.895   4.771   6.158  0.3244  0.9378  0.9721
 2826TIP3    H2 8436   6.756   4.715   6.181  0.2186  0.0939 -1.4245
 2827TIP3   OH2 8437   5.450   1.505   5.391 -0.0789  0.1096 -0.2601
 2827TIP3    H1 8438   5.404   1.428   5.357 -0.2670  0.5392 -1.0041
 2827TIP3    H2 8439   5.422   1.511   5.482 -0.1372 -0.6479 -0.2242
 2828TIP3   OH2 8440   5.427   2.240   1.111 -0.2012 -0.1956 -0.4170
 2828TIP3    H1 8441   5.522   2.229   1.122 -0.2244  1.0395  1.5132
 2828TIP3    H2 8442   5.418   2.320   1.059 -0.1256  1.2687  1.6790
 2829TIP3   OH2 8443   7.502   3.665   3.586  0.2981 -0.4732 -0.2021
 2829TIP3    H1 8444   7.579   3.694   3.636 -0.2360  1.0773 -0.2243
 2829TIP3    H2 8445   7.524   3.576   3.559  1.8289 -0.2908  0.3088
 2830TIP3   OH2 8446   4.726   4.837   5.317 -0.2021 -0.0551  0.4360
 2830TIP3    H1 8447   4.645   4.846   5.267  0.7431  1.7226 -0.9068
 2830TIP3    H2 8448   4.706   4.874   5.403 -1.3240 -1.4249  0.7903
 2831TIP3   OH2 8449   6.465   4.964   3.015 -0.4676  0.2254 -0.0027
 2831TIP3    H1 8450   6.457   5.045   3.066 -0.0691 -0.3209  0.9424
 2831TIP3    H2 8451   6.474   4.994   2.925 -0.4873  1.2361  0.3186
 2832TIP3   OH2 8452   7.911   0.522   4.880  0.0358  0.3386  0.1567
 2832TIP3    H1 8453   7.992   0.475   4.863 -0.5466  0.4084 -3.9165
 2832TIP3    H2 8454   7.842   0.455   4.872 -0.4423  0.3877  2.9619
 2833TIP3   OH2 8455   0.182   1.005   0.050 -0.3232 -0.5247  0.1328
 2833TIP3    H1 8456   0.133   0.970   0.125  2.0165  0.7553  2.4419
 2833TIP3    H2 8457   0.174   1.100   0.059  0.8263 -0.3432 -0.6563
 2834TIP3   OH2 8458   5.092   6.893   1.917 -0.2057  0.6370 -0.3331
 2834TIP3    H1 8459   5.020   6.940   1.960  0.9608  1.0467  1.2654
 2834TIP3    H2 8460   5.170   6.921   1.964  0.8773 -0.7133 -1.2479
 2835TIP3   OH2 8461   5.249   4.221   4.322 -0.0651 -0.4663 -0.1107
 2835TIP3    H1 8462   5.200   4.237   4.242  1.2518 -1.4696 -1.1506
 2835TIP3    H2 8463   5.246   4.305   4.369 -1.5230 -0.1028 -0.7940
 2836TIP3   OH2 8464   7.239   7.490   6.242 -0.5590  0.1933  0.1800
 2836TIP3    H1 8465   7.163   7.467   6.296  0.5724 -0.3737  1.6157
 2836TIP3    H2 8466   7.299   7.532   6.303  0.7526 -0.4192 -0.6446
 2837TIP3   OH2 8467   3.326   6.040   4.422  0.1723  0.0495 -0.2371
 2837TIP3    H1 8468   3.313   5.959   4.472  3.3134 -0.3941  0.0426
 2837TIP3    H2 8469   3.328   6.109   4.488 -2.3063  0.4486 -0.4604
 2838TIP3   OH2 8470   0.937   3.448   2.018 -0.0784  0.2570  0.2276
 2838TIP3    H1 8471   0.902   3.426   2.104 -0.2179 -2.0548 -0.3632
 2838TIP3    H2 8472   1.025   3.411   2.017 -1.0563 -2.2872 -1.5372
 2839TIP3   OH2 8473   7.000   7.506   2.814  0.6251 -0.4669 -0.7085
 2839TIP3    H1 8474   6.948   7.586   2.815 -0.2572 -1.0015 -1.5804
 2839TIP3    H2 8475   7.011   7.483   2.906  3.0529  1.9761 -0.2536
 2840TIP3   OH2 8476   3.371   5.849   6.249  0.3985  0.2952  0.4113
 2840TIP3    H1 8477   3.331   5.922   6.202  0.9324  1.2395  1.3929
 2840TIP3    H2 8478   3.320   5.772   6.221 -0.4056  1.0846 -0.3581
 2841TIP3   OH2 8479   0.754   5.561   4.836 -0.3193 -0.1166 -0.0199
 2841TIP3    H1 8480   0.784   5.600   4.754 -1.0999  0.6001  0.0193
 2841TIP3    H2 8481   0.766   5.631   4.901  0.4461 -0.7292  0.5185
 2842TIP3   OH2 8482   4.089   1.372   5.337  0.0293  0.2909  0.4359
 2842TIP3    H1 8483   4.152   1.409   5.275 -2.1499  2.6026 -0.5847
 2842TIP3    H2 8484   4.016   1.342   5.283 -0.5501 -0.6866  1.6915
 2843TIP3   OH2 8485   2.851   7.079   0.712  0.1494  0.5563  0.4111
 2843TIP3    H1 8486   2.834   7.100   0.620  0.1270  0.2598  0.3441
 2843TIP3    H2 8487   2.935   7.032   0.711  0.2561  0.7430  0.5677
 2844TIP3   OH2 8488   0.231   1.864   5.688 -0.1538 -0.2433 -0.0044
 2844TIP3    H1 8489   0.312   1.828   5.723 -0.7234 -0.2858  1.3090
 2844TIP3    H2 8490   0.173   1.788   5.677  0.1718 -0.3027 -1.5346
 2845TIP3   OH2 8491   6.491   2.678   6.137 -0.1816 -0.4994  0.0863
 2845TIP3    H1 8492   6.401   2.662   6.110 -0.3413 -1.7924  1.2435
 2845TIP3    H2 8493   6.541   2.608   6.095  0.0618 -0.5817  0.5045
 2846TIP3   OH2 8494   5.485   6.329   1.891  0.4029 -0.2750  0.2827
 2846TIP3    H1 8495   5.552   6.310   1.957  3.5317  0.6871 -2.3395
 2846TIP3    H2 8496   5.517   6.408   1.847 -2.9562  0.7299 -0.6455
 2847TIP3   OH2 8497   5.543   5.867   3.265  0.4260 -0.2922  0.0078
 2847TIP3    H1 8498   5.577   5.836   3.181 -1.4947  1.5105 -1.5428
 2847TIP3    H2 8499   5.566   5.959   3.267 -2.2522  0.4701 -0.1104
 2848TIP3   OH2 8500   2.413   0.628   1.684 -0.4099  0.0952  0.6439
 2848TIP3    H1 8501   2.442   0.625   1.593  0.4305  0.0276  0.9134
 2848TIP3    H2 8502   2.407   0.537   1.711  0.7913  0.1419  1.1089
 2849TIP3   OH2 8503   0.762   5.389   0.964 -0.1011 -0.5557  0.0047
 2849TIP3    H1 8504   0.708   5.465   0.943  1.3704  0.2482 -1.1297
 2849TIP3    H2 8505   0.751   5.376   1.058 -1.9231 -0.1894 -0.1309
 2850TIP3   OH2 8506   1.775   3.885   6.465 -0.5587 -0.1537 -0.3009
 2850TIP3    H1 8507   1.818   3.802   6.486 -0.7093  0.0720  0.9798
 2850TIP3    H2 8508   1.700   3.859   6.410 -0.3982 -0.8311 -0.2160
 2851TIP3   OH2 8509   7.495   7.391   5.404 -0.2629 -0.2424  0.5454
 2851TIP3    H1 8510   7.501   7.426   5.493  1.6735  3.0072 -0.6741
 2851TIP3    H2 8511   7.553   7.447   5.353 -0.0035 -3.0287 -2.5109
 2852TIP3   OH2 8512   4.735   0.597   4.418  0.0858  0.0520  0.5518
 2852TIP3    H1 8513   4.696   0.664   4.474 -0.2282 -0.4498  0.9458
 2852TIP3    H2 8514   4.756   0.642   4.337 -0.8882  0.4313  0.5037
 2853TIP3   OH2 8515   7.470   3.847   2.629  0.1065  0.4738 -0.6284
 2853TIP3    H1 8516   7.558   3.843   2.667  0.0337 -0.6394 -0.5268
 2853TIP3    H2 8517   7.484   3.830   2.535 -0.0625 -0.6417 -0.4725
 2854TIP3   OH2 8518   8.268   3.308   3.593  0.1687  0.7520  0.8142
 2854TIP3    H1 8519   8.206   3.266   3.652 -0.2468  0.5452  0.2431
 2854TIP3    H2 8520   8.221   3.384   3.559 -0.7157 -0.7087 -1.4662
 2855TIP3   OH2 8521   3.140   7.693   2.082  0.2541 -0.2140  0.1375
 2855TIP3    H1 8522   3.170   7.694   1.991  0.1041  2.2456  0.0490
 2855TIP3    H2 8523   3.212   7.734   2.130  0.6842 -2.2363  1.2925
 2856TIP3   OH2 8524   2.474   3.524   5.796  0.2431 -0.0938 -0.0374
 2856TIP3    H1 8525   2.513   3.517   5.883 -0.4742 -0.6166  0.2524
 2856TIP3    H2 8526   2.454   3.617   5.786  0.5701  0.0070  0.2493
 2857TIP3   OH2 8527   1.022   4.622   3.241  0.5045 -0.0879  0.7830
 2857TIP3    H1 8528   0.997   4.650   3.153 -2.0878  0.1231  1.4973
 2857TIP3    H2 8529   1.023   4.527   3.237  1.5401 -0.0662  0.2690
 2858TIP3   OH2 8530   1.825   7.574   4.371 -0.0636  0.3853 -0.1723
 2858TIP3    H1 8531   1.899   7.535   4.324  0.3485 -0.5212  1.1755
 2858TIP3    H2 8532   1.844   7.667   4.373  1.6774  0.0486  1.1520
 2859TIP3   OH2 8533   1.039   1.175   3.652  0.1042  0.0124 -0.1041
 2859TIP3    H1 8534   1.066   1.262   3.623 -2.0460  0.7849  0.0626
 2859TIP3    H2 8535   1.121   1.132   3.677  1.2513  1.8414 -0.5040
 2860TIP3   OH2 8536   4.509   3.942   2.857 -0.1517 -0.2360 -0.0175
 2860TIP3    H1 8537   4.426   3.977   2.824 -0.5621  0.3486  1.5226
 2860TIP3    H2 8538   4.576   3.992   2.812 -0.6774  0.3173 -0.1976
 2861TIP3   OH2 8539   7.140   1.164   3.403  0.2728 -0.1479 -0.4125
 2861TIP3    H1 8540   7.211   1.179   3.466 -1.5906  0.5645  1.6469
 2861TIP3    H2 8541   7.073   1.118   3.453 -1.6466  1.2204 -1.6160
 2862TIP3   OH2 8542   3.496   2.441   3.743 -1.0079  0.4905  0.2928
 2862TIP3    H1 8543   3.489   2.349   3.718  0.3412  0.1340  1.1502
 2862TIP3    H2 8544   3.412   2.461   3.785 -0.4945 -1.0120  2.1795
 2863TIP3   OH2 8545   0.947   0.778   1.557 -0.3115 -0.0338  0.2719
 2863TIP3    H1 8546   0.862   0.816   1.582 -1.7563 -0.9586 -2.8003
 2863TIP3    H2 8547   1.004   0.854   1.546 -1.0055  0.6862  1.3650
 2864TIP3   OH2 8548   6.292   3.348   5.642  0.1119  0.2095  0.1584
 2864TIP3    H1 8549   6.297   3.430   5.692  0.0351  0.2296  0.1326
 2864TIP3    H2 8550   6.233   3.293   5.694 -2.0841  1.1565 -1.2289
 2865TIP3   OH2 8551   8.051   5.500   4.586  0.3883 -0.1349  0.1201
 2865TIP3    H1 8552   8.000   5.446   4.648  0.2510  0.0875  0.2030
 2865TIP3    H2 8553   8.039   5.590   4.618 -0.5832  0.1044 -0.8601
 2866TIP3   OH2 8554   2.273   1.376   2.788  0.7345  0.2880 -0.6043
 2866TIP3    H1 8555   2.270   1.321   2.867 -1.1610 -3.3719 -2.9724
 2866TIP3    H2 8556   2.196   1.432   2.795  1.3541  1.0234  0.7277
 2867TIP3   OH2 8557   5.839   0.923   1.998  0.3972  0.2999 -0.2644
 2867TIP3    H1 8558   5.761   0.931   2.052  0.7309  1.4440  0.0831
 2867TIP3    H2 8559   5.821   0.979   1.922  1.6462  2.2351  0.7871
 2868TIP3   OH2 8560   0.919   5.057   5.265  0.3651 -0.4932 -0.0319
 2868TIP3    H1 8561   0.844   5.100   5.308 -0.5977 -0.8296 -1.3062
 2868TIP3    H2 8562   0.986   5.125   5.260 -0.0710 -0.0014  0.6064
 2869TIP3   OH2 8563   3.994   0.156   0.186 -0.4214  0.2246  0.6591
 2869TIP3    H1 8564   3.935   0.115   0.249 -0.2262 -1.4872 -0.2256
 2869TIP3    H2 8565   4.000   0.094   0.114  1.1999  1.0797 -0.0050
 2870TIP3   OH2 8566   1.408   0.134   5.997 -0.5083 -0.4999  0.1524
 2870TIP3    H1 8567   1.419   0.042   6.020  1.1113 -0.0873  1.1651
 2870TIP3    H2 8568   1.442   0.183   6.072 -0.2990  0.9281 -0.8219
 2871TIP3   OH2 8569   2.592   2.606   3.055 -0.3995 -0.8668 -0.0073
 2871TIP3    H1 8570   2.610   2.512   3.046 -2.1957 -1.2210 -0.3645
 2871TIP3    H2 8571   2.602   2.641   2.967  0.8844 -0.5812  0.2371
 2872TIP3   OH2 8572   5.800   2.313   2.429 -0.4055  0.2561  0.2739
 2872TIP3    H1 8573   5.750   2.377   2.479 -3.2247 -1.1717 -0.5088
 2872TIP3    H2 8574   5.757   2.230   2.447  2.7931 -1.4546  0.8505
 2873TIP3   OH2 8575   5.004   1.015   1.318 -0.0266 -0.3770  0.1492
 2873TIP3    H1 8576   5.046   1.019   1.404 -1.3096 -2.0109  0.8958
 2873TIP3    H2 8577   4.991   1.107   1.294 -0.3429  0.1076  2.0507
 2874TIP3   OH2 8578   8.093   6.797   6.583 -0.3623  0.5365 -0.4993
 2874TIP3    H1 8579   8.077   6.735   6.512  1.1131  0.0586 -0.4520
 2874TIP3    H2 8580   8.096   6.742   6.662 -1.4387  0.9932 -0.1203
 2875TIP3   OH2 8581   1.073   6.258   1.382  0.0501 -0.0033  0.0419
 2875TIP3    H1 8582   1.097   6.182   1.435  1.7956  0.3894 -0.1388
 2875TIP3    H2 8583   1.145   6.268   1.321 -0.9594  0.8088 -1.0482
 2876TIP3   OH2 8584   3.639   2.260   1.662 -0.8154 -0.1083  0.4643
 2876TIP3    H1 8585   3.559   2.207   1.664 -0.9183 -0.0011  3.6790
 2876TIP3    H2 8586   3.710   2.196   1.655 -1.0948 -0.2672 -1.3002
 2877TIP3   OH2 8587   0.402   3.513   4.262 -0.1098 -0.0642 -0.4067
 2877TIP3    H1 8588   0.401   3.497   4.167  0.2142  0.3182 -0.4762
 2877TIP3    H2 8589   0.464   3.449   4.296  0.5036  0.4261 -0.5759
 2878TIP3   OH2 8590   5.676   5.491   0.451  0.1398 -0.2102 -0.4738
 2878TIP3    H1 8591   5.615   5.515   0.521  0.1733 -1.5538  0.0474
 2878TIP3    H2 8592   5.652   5.547   0.378 -0.1545  0.9602  0.4758
 2879TIP3   OH2 8593   1.759   4.300   2.786 -0.3948 -0.1879  0.5121
 2879TIP3    H1 8594   1.728   4.237   2.721 -1.1555  0.3889  0.3020
 2879TIP3    H2 8595   1.852   4.281   2.795 -0.5375 -1.0978  0.1837
 2880TIP3   OH2 8596   6.361   4.408   6.450  0.2848 -0.1576  0.5385
 2880TIP3    H1 8597   6.367   4.500   6.424  1.5904 -0.2809  0.3198
 2880TIP3    H2 8598   6.449   4.388   6.483  0.1213 -1.4370  0.2165
 2881TIP3   OH2 8599   3.265   4.499   5.264  0.2680 -0.4094  0.1208
 2881TIP3    H1 8600   3.334   4.490   5.199 -2.2523 -1.2167 -2.6344
 2881TIP3    H2 8601   3.241   4.591   5.262  1.0175 -0.1951  0.8306
 2882TIP3   OH2 8602   0.325   7.486   4.408  0.1968  1.0927  0.5862
 2882TIP3    H1 8603   0.367   7.433   4.476  0.0949  0.0464 -0.1573
 2882TIP3    H2 8604   0.236   7.501   4.441 -0.0329  0.1094  0.4342
 2883TIP3   OH2 8605   4.919   3.845   3.086  0.0227 -0.5081  0.0557
 2883TIP3    H1 8606   4.969   3.811   3.160 -0.9752  0.9423  1.4693
 2883TIP3    H2 8607   4.981   3.897   3.036  1.1888 -3.0306 -1.2939
 2884TIP3   OH2 8608   3.205   3.288   4.210 -0.5749 -0.1313  0.0055
 2884TIP3    H1 8609   3.200   3.217   4.146 -1.5727  0.5113 -0.6463
 2884TIP3    H2 8610   3.259   3.252   4.280  0.1042 -1.0357 -0.9490
 2885TIP3   OH2 8611   1.089   3.152   0.621  0.1988  0.1653  0.6371
 2885TIP3    H1 8612   1.088   3.057   0.634 -0.8115  0.1915  0.8273
 2885TIP3    H2 8613   1.142   3.165   0.543 -2.1455 -0.8229 -1.2253
 2886TIP3   OH2 8614   8.216   0.054   2.264  0.0869 -0.4748 -0.2648
 2886TIP3    H1 8615   8.308   0.078   2.261  0.2815 -1.1985 -0.1021
 2886TIP3    H2 8616   8.176   0.102   2.191  0.6353 -0.3806 -0.5049
 2887TIP3   OH2 8617   6.797   2.664   4.094 -0.1013 -0.3145  0.0380
 2887TIP3    H1 8618   6.706   2.636   4.099 -0.8670  1.9265 -0.3982
 2887TIP3    H2 8619   6.799   2.726   4.022  1.3872  1.0754  1.2064
 2888TIP3   OH2 8620   4.917   5.101   5.683 -0.2941  0.0193  0.2791
 2888TIP3    H1 8621   4.874   5.096   5.768  0.2535 -0.6976  0.5146
 2888TIP3    H2 8622   5.010   5.113   5.703 -0.1200 -0.4759 -0.2048
 2889TIP3   OH2 8623   0.952   3.749   4.912  0.3587  0.1007 -0.1330
 2889TIP3    H1 8624   1.043   3.777   4.918 -0.0688  1.4578  0.2009
 2889TIP3    H2 8625   0.924   3.774   4.824  0.2124 -0.0092 -0.1190
 2890TIP3   OH2 8626   1.082   1.720   0.172  0.6836  0.0552  0.5464
 2890TIP3    H1 8627   0.993   1.748   0.191 -0.7576 -0.5455 -4.0546
 2890TIP3    H2 8628   1.137   1.794   0.200 -1.2728  0.8248  2.6366
 2891TIP3   OH2 8629   4.392   4.863   4.919 -0.3218  0.0810 -0.0360
 2891TIP3    H1 8630   4.329   4.932   4.896  0.0679  0.4095 -0.1206
 2891TIP3    H2 8631   4.369   4.790   4.861 -2.4714 -0.8756  1.8541
 2892TIP3   OH2 8632   3.292   4.462   1.033  0.1811  0.0524 -0.1692
 2892TIP3    H1 8633   3.238   4.402   0.982  0.0842  1.0553 -1.2653
 2892TIP3    H2 8634   3.246   4.470   1.117 -0.8720  0.1740 -0.7481
 2893TIP3   OH2 8635   5.356   2.922   1.346 -0.0634  0.1789  0.0845
 2893TIP3    H1 8636   5.373   2.836   1.384  1.7277  0.1027 -0.7827
 2893TIP3    H2 8637   5.263   2.920   1.324 -0.4964 -0.8173  1.7888
 2894TIP3   OH2 8638   2.461   4.443   3.548 -0.0274 -0.0984  0.1547
 2894TIP3    H1 8639   2.373   4.436   3.585 -0.3995 -1.6264 -0.9324
 2894TIP3    H2 8640   2.460   4.526   3.501 -1.9279 -1.3958 -2.3168
 2895TIP3   OH2 8641   7.713   2.816   3.401 -0.5392 -0.0625 -0.4394
 2895TIP3    H1 8642   7.730   2.761   3.477  0.0455  0.4528 -0.1962
 2895TIP3    H2 8643   7.657   2.886   3.434 -0.2146  0.2089 -0.4676
 2896TIP3   OH2 8644   1.660   4.714   4.068  0.1055 -0.3204 -0.4437
 2896TIP3    H1 8645   1.641   4.748   3.981  0.8343  1.9085  0.2232
 2896TIP3    H2 8646   1.588   4.745   4.123 -0.1711 -1.4269 -0.1424
 2897TIP3   OH2 8647   5.685   6.215   2.911 -0.1798  0.2972  0.1812
 2897TIP3    H1 8648   5.749   6.250   2.973 -1.9947  0.6210  1.9895
 2897TIP3    H2 8649   5.708   6.255   2.827  1.4779  1.0235  0.9465
 2898TIP3   OH2 8650   0.950   4.441   5.605  0.0497  0.0619 -0.3153
 2898TIP3    H1 8651   0.933   4.462   5.513 -1.4307  1.7834  0.2703
 2898TIP3    H2 8652   0.983   4.523   5.642  1.1235 -0.7568  0.5930
 2899TIP3   OH2 8653   6.858   6.915   3.786  0.1192  0.2207  0.2991
 2899TIP3    H1 8654   6.891   6.867   3.862  0.9499 -0.0920 -0.2444
 2899TIP3    H2 8655   6.826   6.847   3.726 -1.0920  0.4957  0.6045
 2900TIP3   OH2 8656   3.602   5.728   4.454 -0.1958 -0.3053  0.1319
 2900TIP3    H1 8657   3.685   5.776   4.447  0.6283 -1.8168 -1.0091
 2900TIP3    H2 8658   3.567   5.728   4.365 -0.2336 -1.6831  0.1304
 2901TIP3   OH2 8659   1.304   7.319   5.758 -0.1892 -0.3352 -0.3075
 2901TIP3    H1 8660   1.394   7.337   5.730 -0.5171  0.7068 -0.7451
 2901TIP3    H2 8661   1.299   7.223   5.761  1.2683 -0.4063  0.8748
 2902TIP3   OH2 8662   6.415   2.796   0.291  0.1829  0.3215  0.3977
 2902TIP3    H1 8663   6.457   2.882   0.291 -0.2378  0.5521 -1.2981
 2902TIP3    H2 8664   6.348   2.803   0.360 -0.2155  1.5548 -0.0846
 2903TIP3   OH2 8665   3.663   0.501   5.765 -0.3876  0.4295 -0.2932
 2903TIP3    H1 8666   3.732   0.566   5.777  0.0252 -0.3257  2.0177
 2903TIP3    H2 8667   3.618   0.498   5.849 -1.5339 -0.9933 -0.9150
 2904TIP3   OH2 8668   6.090   2.911   6.651 -0.6150 -1.1767  0.6914
 2904TIP3    H1 8669   6.121   2.999   6.670 -1.2775 -1.0854  1.4363
 2904TIP3    H2 8670   6.080   2.870   6.738 -2.2212 -1.2998  0.4830
 2905TIP3   OH2 8671   7.265   2.701   1.401 -0.2806 -0.0799  0.9344
 2905TIP3    H1 8672   7.264   2.617   1.354  0.1638  1.5823 -2.3359
 2905TIP3    H2 8673   7.173   2.728   1.403 -0.6467 -1.2620  3.4103
 2906TIP3   OH2 8674   4.223   0.929   4.466  0.0483  0.4823  0.2831
 2906TIP3    H1 8675   4.272   0.892   4.393  0.1864 -1.5612  1.3330
 2906TIP3    H2 8676   4.288   0.977   4.517  0.2290  0.7503 -0.2005
 2907TIP3   OH2 8677   1.258   3.887   5.967  0.2844  0.2943  0.1853
 2907TIP3    H1 8678   1.312   3.833   5.909 -0.1875 -0.7985  0.7342
 2907TIP3    H2 8679   1.179   3.904   5.916  1.7795  3.4440 -1.3492
 2908TIP3   OH2 8680   0.953   6.557   4.616 -0.2263  0.1133 -0.0936
 2908TIP3    H1 8681   0.879   6.498   4.629  0.9358 -1.5766 -0.7942
 2908TIP3    H2 8682   1.026   6.514   4.660  0.2235  2.1473  1.3104
 2909TIP3   OH2 8683   5.124   2.969   1.747  0.2598  0.1875  0.5411
 2909TIP3    H1 8684   5.213   2.934   1.743  0.4190  0.5612  0.7343
 2909TIP3    H2 8685   5.134   3.052   1.794 -0.2678 -0.0274  1.0471
 2910TIP3   OH2 8686   5.913   5.472   3.077 -0.0301 -0.0616 -0.4773
 2910TIP3    H1 8687   5.880   5.537   3.139 -2.1975 -0.4538 -1.1321
 2910TIP3    H2 8688   5.838   5.451   3.022  0.6830 -2.8568 -0.5306
 2911TIP3   OH2 8689   7.493   0.127   3.813 -0.2377  0.1695 -0.1385
 2911TIP3    H1 8690   7.543   0.176   3.878  0.6556  0.0145 -0.6973
 2911TIP3    H2 8691   7.559   0.082   3.760 -1.0241 -2.2183  0.7755
 2912TIP3   OH2 8692   1.033   2.050   3.883 -0.3486  0.6643  0.7121
 2912TIP3    H1 8693   0.955   2.004   3.850  0.4083  0.2548 -0.5826
 2912TIP3    H2 8694   1.018   2.142   3.859  0.3131  0.3332 -1.1054
 2913TIP3   OH2 8695   2.724   1.249   5.463  0.3888 -0.8123 -0.4081
 2913TIP3    H1 8696   2.795   1.286   5.410 -0.0832  0.4577 -0.2008
 2913TIP3    H2 8697   2.668   1.324   5.482  0.4702 -1.2585  1.7856
 2914TIP3   OH2 8698   6.911   6.395   0.503  0.0354 -0.2658 -0.4064
 2914TIP3    H1 8699   6.997   6.402   0.545  0.4753 -0.3439 -1.2769
 2914TIP3    H2 8700   6.856   6.351   0.568  0.0379  1.7283  1.0376
 2915TIP3   OH2 8701   0.486   6.199   3.499 -0.9797  0.3119 -0.0562
 2915TIP3    H1 8702   0.410   6.146   3.523 -0.3221 -0.1927  0.9809
 2915TIP3    H2 8703   0.507   6.248   3.579  0.2615 -0.1499 -0.0836
 2916TIP3   OH2 8704   1.678   5.355   6.147  0.1018 -0.1012  0.3147
 2916TIP3    H1 8705   1.590   5.333   6.117  0.4100  0.1984 -0.8463
 2916TIP3    H2 8706   1.677   5.335   6.241 -1.2540  0.0834  0.3566
 2917TIP3   OH2 8707   5.963   0.932   4.732 -0.3846 -0.2994 -0.5907
 2917TIP3    H1 8708   6.018   0.956   4.657  1.5455  0.8398  1.0824
 2917TIP3    H2 8709   5.952   1.014   4.780 -0.4178 -1.2371  1.0722
 2918TIP3   OH2 8710   5.836   2.560   6.065 -0.1101  0.3029  0.3151
 2918TIP3    H1 8711   5.741   2.573   6.060 -0.2784 -1.0950 -0.4832
 2918TIP3    H2 8712   5.862   2.542   5.975  0.5171 -1.8253  0.8729
 2919TIP3   OH2 8713   6.471   0.191   4.087  0.0776 -0.1891  0.2452
 2919TIP3    H1 8714   6.394   0.184   4.030  0.4827 -1.3085 -0.1871
 2919TIP3    H2 8715   6.514   0.271   4.059 -1.1352  0.6784  0.7668
 2920TIP3   OH2 8716   3.657   1.146   2.615  0.1777 -0.0937  0.0732
 2920TIP3    H1 8717   3.662   1.069   2.672 -1.0611  0.5217  1.0486
 2920TIP3    H2 8718   3.607   1.210   2.665 -0.6303  0.6143 -1.5714
 2921TIP3   OH2 8719   3.386   5.500   1.454 -0.2936  0.0048  0.0945
 2921TIP3    H1 8720   3.360   5.408   1.460  1.3569 -0.4691  0.4993
 2921TIP3    H2 8721   3.477   5.498   1.426  0.0465  1.4795  0.9465
 2922TIP3   OH2 8722   4.345   7.354   5.079 -0.3138 -0.1226  0.2844
 2922TIP3    H1 8723   4.265   7.311   5.048 -0.9251 -0.4280  2.1647
 2922TIP3    H2 8724   4.336   7.445   5.049  1.1121 -1.1626 -3.9561
 2923TIP3   OH2 8725   5.062   5.796   5.755 -0.1463  0.6467  0.3026
 2923TIP3    H1 8726   5.146   5.757   5.778 -0.5216 -0.9519 -0.8868
 2923TIP3    H2 8727   5.083   5.885   5.729  0.6528  1.6885  3.8567
 2924TIP3   OH2 8728   1.714   7.405   2.294 -0.4505  0.4885 -0.1954
 2924TIP3    H1 8729   1.701   7.440   2.206 -1.7111 -0.2019 -0.3065
 2924TIP3    H2 8730   1.704   7.311   2.285 -2.7057  0.5344  0.9751
 2925TIP3   OH2 8731   6.472   0.930   3.724 -0.0554  0.1396  0.1777
 2925TIP3    H1 8732   6.395   0.879   3.748 -0.8348  2.0918  2.1364
 2925TIP3    H2 8733   6.492   0.902   3.634 -1.1164 -2.6642  0.6973
 2926TIP3   OH2 8734   4.044   1.222   1.863 -0.0827 -0.4098 -0.0841
 2926TIP3    H1 8735   4.058   1.166   1.787 -0.7107 -2.3862  1.1761
 2926TIP3    H2 8736   4.041   1.310   1.827  3.3802 -0.8417 -1.9037
 2927TIP3   OH2 8737   4.304   4.532   3.902 -0.1911  0.1616 -0.2422
 2927TIP3    H1 8738   4.345   4.576   3.827 -0.4137  0.6219 -0.0938
 2927TIP3    H2 8739   4.212   4.526   3.879 -0.2543  0.2718 -0.0172
 2928TIP3   OH2 8740   2.578   5.095   6.372  0.2696  0.3322 -0.2148
 2928TIP3    H1 8741   2.666   5.064   6.351  0.3623 -0.0608  0.7005
 2928TIP3    H2 8742   2.591   5.150   6.450 -0.4858 -0.9845  0.8754
 2929TIP3   OH2 8743   0.475   1.666   4.753 -0.0094  0.2535  0.0691
 2929TIP3    H1 8744   0.498   1.619   4.673  0.7912  1.0146 -0.1684
 2929TIP3    H2 8745   0.538   1.636   4.818 -0.7111 -0.4246  0.4443
 2930TIP3   OH2 8746   2.230   0.776   5.914  0.6416  0.0744 -0.0618
 2930TIP3    H1 8747   2.198   0.738   5.832  1.9674  0.6530 -0.8777
 2930TIP3    H2 8748   2.191   0.864   5.917 -1.5761 -0.8565  1.3097
 2931TIP3   OH2 8749   3.861   3.441   4.154 -0.1603  0.0558  0.4092
 2931TIP3    H1 8750   3.769   3.466   4.160 -0.7580 -2.2198  2.1154
 2931TIP3    H2 8751   3.876   3.387   4.232  1.9477 -1.6933 -1.1086
 2932TIP3   OH2 8752   3.812   5.742   6.592  0.1668  0.3641  0.0516
 2932TIP3    H1 8753   3.725   5.765   6.559  0.4030  0.0754 -0.8111
 2932TIP3    H2 8754   3.849   5.825   6.622  0.3695  0.8706 -1.4869
 2933TIP3   OH2 8755   2.950   1.714   3.958 -0.8809  0.1178  0.1753
 2933TIP3    H1 8756   3.042   1.696   3.981 -0.7859  1.0929  0.5918
 2933TIP3    H2 8757   2.912   1.750   4.037 -1.2047  1.1943 -0.4454
 2934TIP3   OH2 8758   0.973   7.656   3.811 -0.5199  0.4050 -0.5834
 2934TIP3    H1 8759   0.906   7.640   3.746  0.7920  0.9681 -2.1449
 2934TIP3    H2 8760   1.010   7.741   3.787  1.0546 -0.0978 -0.0898
 2935TIP3   OH2 8761   2.266   6.679   5.580  0.1758  0.6122 -0.6039
 2935TIP3    H1 8762   2.247   6.756   5.526  0.4035  1.4771  0.5019
 2935TIP3    H2 8763   2.190   6.622   5.569 -0.7337  1.7098 -0.2429
 2936TIP3   OH2 8764   2.184   6.200   6.601 -0.5047 -0.2883 -0.3096
 2936TIP3    H1 8765   2.128   6.239   6.668  0.4540 -0.1665  0.4397
 2936TIP3    H2 8766   2.263   6.254   6.601 -0.4737 -0.3025 -1.5228
 2937TIP3   OH2 8767   5.390   2.909   4.936 -1.1389  1.1191  0.3589
 2937TIP3    H1 8768   5.406   2.817   4.913  0.9383  1.7880 -1.2100
 2937TIP3    H2 8769   5.405   2.914   5.030 -0.6913 -0.0366  0.3568
 2938TIP3   OH2 8770   2.118   4.874   4.988 -0.5562  0.2090 -0.1076
 2938TIP3    H1 8771   2.050   4.879   5.056 -0.0133 -0.6988  0.5251
 2938TIP3    H2 8772   2.127   4.781   4.969  0.5124  0.3094 -0.1678
 2939TIP3   OH2 8773   7.438   1.653   5.674  0.0697 -0.0935  0.3777
 2939TIP3    H1 8774   7.419   1.607   5.755  0.2136 -1.2639 -0.2434
 2939TIP3    H2 8775   7.533   1.657   5.669  0.0722 -0.7006 -0.1069
 2940TIP3   OH2 8776   1.463   3.207   2.401 -0.1948  0.2141  0.3282
 2940TIP3    H1 8777   1.525   3.279   2.396  1.1531 -0.9331  0.1029
 2940TIP3    H2 8778   1.440   3.189   2.310  0.6197 -0.6079  0.2823
 2941TIP3   OH2 8779   3.969   7.697   2.843 -0.4212  0.5023  0.1625
 2941TIP3    H1 8780   3.976   7.766   2.909 -2.3912  0.4760  0.4698
 2941TIP3    H2 8781   4.038   7.634   2.866  3.0579  3.3346 -1.4976
 2942TIP3   OH2 8782   6.396   4.859   3.383 -1.0088 -0.0813  0.1783
 2942TIP3    H1 8783   6.434   4.931   3.433  0.3927 -0.8753  0.2818
 2942TIP3    H2 8784   6.462   4.837   3.318 -2.5456  0.5280 -1.6988
 2943TIP3   OH2 8785   7.206   4.860   2.496  0.0482  0.1356 -0.1368
 2943TIP3    H1 8786   7.279   4.816   2.452 -0.2828 -0.3786 -0.1792
 2943TIP3    H2 8787   7.160   4.906   2.425 -0.5655 -0.8047 -0.3627
 2944TIP3   OH2 8788   4.928   2.574   5.726 -0.0621 -0.9989  0.1600
 2944TIP3    H1 8789   4.836   2.598   5.731 -0.3245 -1.4304 -1.6670
 2944TIP3    H2 8790   4.967   2.610   5.805 -1.0527  2.5024 -0.7689
 2945TIP3   OH2 8791   2.172   6.689   1.328  0.5015 -0.3306 -0.5555
 2945TIP3    H1 8792   2.267   6.701   1.320  0.4114 -0.1624 -1.4988
 2945TIP3    H2 8793   2.161   6.643   1.411  1.2466  1.5572  0.6707
 2946TIP3   OH2 8794   7.796   0.195   0.904  0.0368 -0.3959 -0.0782
 2946TIP3    H1 8795   7.848   0.181   0.983  0.0896  0.0907 -0.0246
 2946TIP3    H2 8796   7.738   0.119   0.899  0.2558 -0.5837  0.2545
 2947TIP3   OH2 8797   8.262   3.217   2.117  0.0899 -0.2477 -0.2099
 2947TIP3    H1 8798   8.233   3.275   2.188 -0.1397 -1.0367  0.3515
 2947TIP3    H2 8799   8.221   3.133   2.137  0.8857 -0.7582 -0.7049
 2948TIP3   OH2 8800   0.235   2.265   2.957  0.5209  0.2839  0.1436
 2948TIP3    H1 8801   0.188   2.294   3.035 -0.2948 -1.2846  0.2850
 2948TIP3    H2 8802   0.187   2.302   2.884  0.0816  0.0884  0.3338
 2949TIP3   OH2 8803   2.152   4.868   1.950  0.2916  0.3986 -0.0917
 2949TIP3    H1 8804   2.178   4.904   2.034  1.9014 -1.0909  0.0990
 2949TIP3    H2 8805   2.062   4.838   1.963  1.0751 -1.3655  1.6655
 2950TIP3   OH2 8806   7.910   7.459   4.947 -0.0691 -0.3180  0.3487
 2950TIP3    H1 8807   7.953   7.461   4.861  1.4829  0.2710  1.0993
 2950TIP3    H2 8808   7.886   7.550   4.964 -2.0617 -0.6776 -0.2200
 2951TIP3   OH2 8809   6.117   2.419   5.890 -0.4426 -0.5115  0.0529
 2951TIP3    H1 8810   6.206   2.448   5.870 -0.5872 -0.2922 -0.2774
 2951TIP3    H2 8811   6.074   2.409   5.805 -1.4401  1.6209  0.2358
 2952TIP3   OH2 8812   4.069   6.019   1.632  0.4067 -0.1793 -0.5392
 2952TIP3    H1 8813   4.034   6.065   1.708 -0.1198 -1.5197  0.0450
 2952TIP3    H2 8814   3.991   5.991   1.583  0.7318  0.0213 -1.1910
 2953TIP3   OH2 8815   6.241   1.790   4.248 -0.0813 -0.5904 -0.0721
 2953TIP3    H1 8816   6.166   1.738   4.277 -0.1836 -0.7960 -0.6973
 2953TIP3    H2 8817   6.207   1.843   4.177 -0.2663  1.1725  1.2541
 2954TIP3   OH2 8818   3.749   1.889   6.065  0.0369 -0.4769 -0.0895
 2954TIP3    H1 8819   3.754   1.946   6.141 -0.8063 -1.9921  1.1740
 2954TIP3    H2 8820   3.823   1.828   6.075 -0.8615 -1.5473  0.3095
 2955TIP3   OH2 8821   3.415   1.959   4.668 -0.3313 -0.5757  0.0231
 2955TIP3    H1 8822   3.475   1.895   4.630 -1.2702 -0.5918 -1.5429
 2955TIP3    H2 8823   3.352   1.977   4.598  0.1264  2.3614  0.2047
 2956TIP3   OH2 8824   7.233   7.445   6.599  0.5469  0.4764 -0.0359
 2956TIP3    H1 8825   7.149   7.472   6.562  0.9436  0.0133 -1.3001
 2956TIP3    H2 8826   7.246   7.504   6.673 -1.2696  0.0406  0.6928
 2957TIP3   OH2 8827   6.326   6.707   4.360 -0.4613 -0.2632 -0.4808
 2957TIP3    H1 8828   6.335   6.763   4.283  1.6124  0.4973  0.2620
 2957TIP3    H2 8829   6.260   6.752   4.413 -0.6429  0.1314 -1.0230
 2958TIP3   OH2 8830   8.066   2.403   2.574 -0.2549  0.2133  0.0499
 2958TIP3    H1 8831   8.047   2.313   2.601  3.0061 -0.5775  0.0775
 2958TIP3    H2 8832   8.105   2.394   2.487  1.2174  1.4695  0.5399
 2959TIP3   OH2 8833   6.903   4.838   5.072 -0.0260 -0.3277 -0.0079
 2959TIP3    H1 8834   6.951   4.760   5.045  1.2277  0.2897  0.3656
 2959TIP3    H2 8835   6.960   4.911   5.048 -1.0070  0.4550  0.0001
 2960TIP3   OH2 8836   6.655   5.560   4.582  0.0368  0.0373 -0.1126
 2960TIP3    H1 8837   6.720   5.535   4.517  0.3094  1.2727 -0.3453
 2960TIP3    H2 8838   6.600   5.624   4.537  0.5649  1.3298  1.0078
 2961TIP3   OH2 8839   2.317   0.804   3.357  0.1935 -0.4726  0.4104
 2961TIP3    H1 8840   2.324   0.743   3.430 -0.6272  0.3560  1.2104
 2961TIP3    H2 8841   2.227   0.793   3.325  1.2509 -2.6765 -2.2026
 2962TIP3   OH2 8842   5.096   7.009   5.447 -0.0093  0.2361 -0.0004
 2962TIP3    H1 8843   5.047   6.958   5.382 -1.4463 -0.1754  1.3491
 2962TIP3    H2 8844   5.105   6.949   5.521 -0.0671  1.3295  0.8994
 2963TIP3   OH2 8845   3.756   5.085   5.600 -0.0698 -0.3416  0.0715
 2963TIP3    H1 8846   3.758   4.993   5.574 -0.4164 -0.1883 -0.4930
 2963TIP3    H2 8847   3.690   5.125   5.544  0.9538  0.5237 -0.5662
 2964TIP3   OH2 8848   1.137   2.132   5.682  0.0795  0.2018  0.3589
 2964TIP3    H1 8849   1.077   2.111   5.753 -1.4357  1.0543 -0.5935
 2964TIP3    H2 8850   1.213   2.076   5.696 -1.0491 -1.1094  1.4881
 2965TIP3   OH2 8851   6.518   3.178   5.592  0.2626  0.1621  0.3517
 2965TIP3    H1 8852   6.455   3.250   5.586  1.1643  0.8794 -2.0099
 2965TIP3    H2 8853   6.489   3.115   5.526  0.3867 -0.9019  1.2936
 2966TIP3   OH2 8854   5.730   6.930   0.731  0.1106 -0.0775 -0.6065
 2966TIP3    H1 8855   5.635   6.930   0.727  0.1380 -0.6596 -2.4064
 2966TIP3    H2 8856   5.752   6.846   0.772 -0.1575 -0.0269 -0.3616
 2967TIP3   OH2 8857   4.068   0.234   2.773  0.5246  0.0829  0.0766
 2967TIP3    H1 8858   4.076   0.319   2.729 -0.5975 -0.4062 -1.1028
 2967TIP3    H2 8859   4.067   0.257   2.867 -1.1146  1.5093 -0.2403
 2968TIP3   OH2 8860   5.245   6.263   6.556 -0.1154  0.1892 -0.5535
 2968TIP3    H1 8861   5.315   6.257   6.490 -0.3918  0.0575 -0.8367
 2968TIP3    H2 8862   5.165   6.244   6.508 -0.4331  1.0244 -0.3726
 2969TIP3   OH2 8863   4.923   1.172   1.707  0.2723  0.3346 -0.1828
 2969TIP3    H1 8864   4.916   1.077   1.700  0.5612  0.2420  0.6577
 2969TIP3    H2 8865   5.002   1.186   1.759  0.4495  1.0482 -0.6366
 2970TIP3   OH2 8866   3.115   3.646   3.392 -0.1696  0.5601 -0.1269
 2970TIP3    H1 8867   3.032   3.685   3.365 -0.1046 -0.5462 -2.0646
 2970TIP3    H2 8868   3.170   3.721   3.416 -1.0525  1.4376 -0.7605
 2971TIP3   OH2 8869   1.769   3.168   6.444  0.3404 -0.1341  0.1304
 2971TIP3    H1 8870   1.819   3.127   6.515 -0.7680 -0.2662  0.8570
 2971TIP3    H2 8871   1.809   3.133   6.364  2.2788  0.7977  0.6373
 2972TIP3   OH2 8872   1.059   4.294   3.902 -0.3676  0.1711  0.0442
 2972TIP3    H1 8873   1.006   4.229   3.949 -0.2328  0.5541  0.7318
 2972TIP3    H2 8874   1.145   4.291   3.943 -0.3396  0.7379  0.0438
 2973TIP3   OH2 8875   3.802   2.785   1.784  0.0421 -0.5122  0.0430
 2973TIP3    H1 8876   3.766   2.740   1.708 -1.2715 -0.4815  0.6172
 2973TIP3    H2 8877   3.872   2.840   1.750 -0.9938  0.0433 -1.2503
 2974TIP3   OH2 8878   6.067   3.970   2.517  0.4108 -0.0802  0.4761
 2974TIP3    H1 8879   6.133   3.949   2.451  0.3827  1.6238 -0.1430
 2974TIP3    H2 8880   6.102   4.048   2.561 -1.5408  1.4068 -0.4594
 2975TIP3   OH2 8881   7.270   5.643   1.559  0.4336 -0.0857  0.3089
 2975TIP3    H1 8882   7.244   5.562   1.602 -1.3458  0.7713  0.9503
 2975TIP3    H2 8883   7.364   5.634   1.544  0.6536 -1.3978  2.2478
 2976TIP3   OH2 8884   2.808   2.190   5.395  0.9269  0.2386 -0.7409
 2976TIP3    H1 8885   2.826   2.158   5.484 -0.8404 -1.1624 -0.8347
 2976TIP3    H2 8886   2.778   2.280   5.408  2.3909  0.6631 -0.1097
 2977TIP3   OH2 8887   3.616   1.451   1.284  0.1591 -0.2025  0.1360
 2977TIP3    H1 8888   3.579   1.398   1.214  0.3600  2.3915 -2.1371
 2977TIP3    H2 8889   3.540   1.482   1.333 -0.1242 -0.6344 -0.0244
 2978TIP3   OH2 8890   0.224   1.573   4.812  0.5745  0.3969 -0.2518
 2978TIP3    H1 8891   0.258   1.511   4.876  1.0237  3.0323  2.2936
 2978TIP3    H2 8892   0.296   1.587   4.752  1.2697  0.1189  0.4955
 2979TIP3   OH2 8893   0.100   0.047   4.702  0.8203  0.0821  0.0327
 2979TIP3    H1 8894   0.068  -0.021   4.642  1.3093  0.0052 -0.1451
 2979TIP3    H2 8895   0.127   0.118   4.645 -0.2604  0.6909  0.2442
 2980TIP3   OH2 8896   7.530   3.177   2.372 -0.0600  0.4210 -0.3380
 2980TIP3    H1 8897   7.535   3.116   2.299  0.9016  0.2299 -0.1195
 2980TIP3    H2 8898   7.585   3.251   2.347  0.2796  0.3536  0.1921
 2981TIP3   OH2 8899  -0.003   1.234   4.365  0.1446  0.0019  0.1357
 2981TIP3    H1 8900  -0.065   1.201   4.429  0.0687 -1.9425 -0.8627
 2981TIP3    H2 8901   0.083   1.218   4.404  0.0830 -0.6775  0.0082
 2982TIP3   OH2 8902   2.213   4.261   6.450  0.2327  0.0562  0.3301
 2982TIP3    H1 8903   2.144   4.328   6.445 -0.3792 -0.6486 -1.1693
 2982TIP3    H2 8904   2.190   4.209   6.527  0.1370  0.9404  0.9149
 2983TIP3   OH2 8905   4.541   3.173   1.412 -0.1975  0.3883 -0.7371
 2983TIP3    H1 8906   4.453   3.204   1.390 -0.3094 -1.4734 -3.3165
 2983TIP3    H2 8907   4.584   3.159   1.328  0.6470 -3.9146  0.1488
 2984TIP3   OH2 8908   2.479   6.786   3.130  0.3685  0.1526 -0.7038
 2984TIP3    H1 8909   2.467   6.849   3.200  1.4626 -2.3338  1.9083
 2984TIP3    H2 8910   2.560   6.812   3.086 -0.8262  2.2820 -1.8008
 2985TIP3   OH2 8911   2.943   7.636   3.820 -0.2109 -0.2150  0.0082
 2985TIP3    H1 8912   2.968   7.545   3.836  1.5713  0.5257  1.7929
 2985TIP3    H2 8913   2.999   7.663   3.747 -0.0955 -0.2752  0.0741
 2986TIP3   OH2 8914   7.744   2.437   1.797 -0.1825  0.5404 -0.0553
 2986TIP3    H1 8915   7.665   2.435   1.852 -1.4444 -0.0434 -1.7796
 2986TIP3    H2 8916   7.765   2.344   1.783 -0.1359  0.6659 -0.8620
 2987TIP3   OH2 8917   5.461   3.602   0.802  0.6487 -0.1193 -0.1355
 2987TIP3    H1 8918   5.524   3.542   0.840 -0.1176 -0.7837  0.1165
 2987TIP3    H2 8919   5.376   3.571   0.834  0.1023  0.1405 -1.2695
 2988TIP3   OH2 8920   2.238   7.211   0.257  0.6930  0.0086  0.0330
 2988TIP3    H1 8921   2.203   7.225   0.345 -0.7510 -1.8278 -0.1860
 2988TIP3    H2 8922   2.185   7.269   0.201  0.1165 -0.4348  0.1115
 2989TIP3   OH2 8923   8.261   5.098   0.646 -0.0129  0.0319 -0.3210
 2989TIP3    H1 8924   8.275   5.054   0.729 -0.6668  0.3080 -0.0591
 2989TIP3    H2 8925   8.332   5.067   0.590  0.4516 -0.1294  0.3465
 2990TIP3   OH2 8926   7.946   4.415   6.598 -0.3085  0.0842 -0.5646
 2990TIP3    H1 8927   8.040   4.431   6.591 -0.3287  0.6923  0.3979
 2990TIP3    H2 8928   7.940   4.329   6.640 -0.1596  0.4941  0.3333
 2991TIP3   OH2 8929   5.816   6.873   0.164  0.1486  0.0062 -0.3085
 2991TIP3    H1 8930   5.821   6.778   0.173 -2.6840 -0.3225 -1.0348
 2991TIP3    H2 8931   5.886   6.895   0.102  1.7706 -1.3616  0.9452
 2992TIP3   OH2 8932   6.231   1.917   6.425 -0.5390  0.1685 -0.1057
 2992TIP3    H1 8933   6.233   1.831   6.468 -0.2166 -0.9472 -2.2365
 2992TIP3    H2 8934   6.262   1.978   6.492 -2.1087 -1.1246  1.9413
 2993TIP3   OH2 8935   4.686   7.756   3.022 -0.5871 -0.0247  0.2407
 2993TIP3    H1 8936   4.694   7.785   2.931  0.1259  2.8630  1.1010
 2993TIP3    H2 8937   4.609   7.802   3.055  0.7325  1.2253  1.7667
 2994TIP3   OH2 8938   7.040   0.457   2.374 -0.0523 -0.1495 -0.5095
 2994TIP3    H1 8939   6.961   0.492   2.415 -0.3113 -0.4886 -0.7190
 2994TIP3    H2 8940   7.089   0.535   2.347  0.6948  0.1404  1.4779
 2995TIP3   OH2 8941   0.485   1.160   1.616 -0.2257 -0.3600  0.0907
 2995TIP3    H1 8942   0.443   1.096   1.673 -0.3737  0.1970  0.6242
 2995TIP3    H2 8943   0.517   1.228   1.675  0.6506 -0.3323 -0.3889
 2996TIP3   OH2 8944   6.099   7.196   0.635  0.3506 -0.0813  0.1054
 2996TIP3    H1 8945   6.146   7.268   0.677  1.4387  0.0026 -1.1627
 2996TIP3    H2 8946   6.118   7.120   0.689 -0.5300  0.5013  1.2693
 2997TIP3   OH2 8947   7.838   2.915   5.766 -0.6295  0.5117 -0.1244
 2997TIP3    H1 8948   7.831   2.835   5.715 -0.2707 -0.0804  0.7376
 2997TIP3    H2 8949   7.773   2.974   5.727  0.2080  0.3882 -1.7892
 2998TIP3   OH2 8950   5.923   6.124   0.653 -0.6343  0.0023  0.2443
 2998TIP3    H1 8951   5.926   6.084   0.567  0.7046  0.4206  0.0827
 2998TIP3    H2 8952   6.003   6.095   0.696 -0.6690  0.8268  0.8832
 2999TIP3   OH2 8953   0.189   1.257   1.122  0.1922  0.6115 -0.4297
 2999TIP3    H1 8954   0.257   1.236   1.186 -1.1568 -0.1295  0.8060
 2999TIP3    H2 8955   0.109   1.263   1.173 -1.1350 -1.0646 -2.1895
 3000TIP3   OH2 8956   0.796   6.797   0.940  0.3617  0.3918 -0.0217
 3000TIP3    H1 8957   0.752   6.726   0.894  0.6004 -1.2393  2.0871
 3000TIP3    H2 8958   0.733   6.869   0.942 -1.6019 -1.2704  1.4016
 3001TIP3   OH2 8959   2.680   3.382   5.984 -0.2259  0.4299 -0.8450
 3001TIP3    H1 8960   2.767   3.404   6.015  0.0097  0.9572 -1.8487
 3001TIP3    H2 8961   2.621   3.407   6.055  0.3273  1.2456 -0.6731
 3002TIP3   OH2 8962   4.906   7.822   3.640  0.1676  0.0232  0.2801
 3002TIP3    H1 8963   4.911   7.727   3.632 -0.7211 -0.0713  0.7447
 3002TIP3    H2 8964   4.981   7.854   3.589  0.2204 -0.9031 -0.2516
 3003TIP3   OH2 8965   0.032   7.517   1.570 -0.0140  0.3041 -0.0278
 3003TIP3    H1 8966   0.009   7.478   1.486  0.7309  0.3408 -0.2598
 3003TIP3    H2 8967   0.122   7.548   1.558  0.4793 -0.5976  1.0936
 3004TIP3   OH2 8968   6.182   2.781   0.476  0.2151 -0.2871 -0.4020
 3004TIP3    H1 8969   6.176   2.687   0.461 -0.8165 -0.8182  2.5599
 3004TIP3    H2 8970   6.091   2.811   0.481  0.4784  0.4054  0.8588
 3005TIP3   OH2 8971   7.000   7.129   1.639 -0.6682 -0.2016 -0.4331
 3005TIP3    H1 8972   7.085   7.128   1.595 -0.3440  0.2391  0.1740
 3005TIP3    H2 8973   6.963   7.215   1.617 -1.0655 -0.4836 -0.8903
 3006TIP3   OH2 8974   0.441   4.737   5.214 -0.0813  0.3432  0.1460
 3006TIP3    H1 8975   0.501   4.682   5.163 -1.5646 -0.6932 -0.5684
 3006TIP3    H2 8976   0.417   4.683   5.289  0.5395  1.0927  0.8976
 3007TIP3   OH2 8977   1.050   1.233   1.794  0.1881 -0.1583  0.0749
 3007TIP3    H1 8978   0.981   1.284   1.753 -1.1486 -1.5475  0.5204
 3007TIP3    H2 8979   1.019   1.218   1.883  1.1505 -0.6702  0.3399
 3008TIP3   OH2 8980   0.907   1.176   2.113  0.5819 -0.2915  0.2074
 3008TIP3    H1 8981   0.852   1.252   2.091  0.8098 -0.5323 -1.2811
 3008TIP3    H2 8982   0.994   1.212   2.125  0.6192 -0.2627 -0.1378
 3009TIP3   OH2 8983   8.286   5.409   2.495 -0.1743 -0.4182  0.6265
 3009TIP3    H1 8984   8.204   5.455   2.479 -0.0690 -0.8498 -1.4122
 3009TIP3    H2 8985   8.261   5.331   2.544 -0.9755 -0.5194  0.0663
 3010TIP3   OH2 8986   3.571   5.217   5.422 -0.1751 -0.2291 -0.1330
 3010TIP3    H1 8987   3.584   5.312   5.420 -0.6871 -0.1641 -0.4773
 3010TIP3    H2 8988   3.476   5.205   5.424 -0.1637 -0.7591 -1.6430
 3011TIP3   OH2 8989   3.396   2.616   1.112  0.0759 -0.2304  0.0183
 3011TIP3    H1 8990   3.439   2.680   1.169  0.6569  0.2672 -0.9686
 3011TIP3    H2 8991   3.320   2.662   1.077 -0.7624 -0.8098  1.0285
 3012TIP3   OH2 8992   1.803   6.393   4.827  0.7058 -0.3076 -0.0680
 3012TIP3    H1 8993   1.862   6.406   4.753 -1.1527  0.3779 -1.5298
 3012TIP3    H2 8994   1.783   6.299   4.825  1.9953 -0.6097  0.6657
 3013TIP3   OH2 8995   7.149   4.897   0.701  0.3860 -0.5922  0.0663
 3013TIP3    H1 8996   7.210   4.847   0.756  1.1489 -1.2899 -1.3603
 3013TIP3    H2 8997   7.134   4.841   0.625 -2.0339 -0.4181  0.3506
 3014TIP3   OH2 8998   6.535   2.815   1.264  0.0764  0.4126  0.6068
 3014TIP3    H1 8999   6.464   2.752   1.255 -0.2271  1.0318 -2.4003
 3014TIP3    H2 9000   6.491   2.898   1.284 -0.3625  1.1132 -2.6829
 3015TIP3   OH2 9001   5.032   7.498   6.689  0.1685  0.2457 -0.3030
 3015TIP3    H1 9002   5.036   7.478   6.595  0.7715  0.9309 -0.4364
 3015TIP3    H2 9003   5.116   7.540   6.707  0.6357 -1.1363  0.8511
 3016TIP3   OH2 9004   6.809   5.793   1.342 -0.4330 -0.0186  0.5926
 3016TIP3    H1 9005   6.902   5.779   1.357 -0.5848 -0.4984  1.1347
 3016TIP3    H2 9006   6.767   5.713   1.374 -0.8694 -0.7645 -1.6441
 3017TIP3   OH2 9007   4.606   6.441   3.034 -0.2322 -0.3697 -0.5792
 3017TIP3    H1 9008   4.542   6.401   2.974 -1.1122 -0.0994  0.1610
 3017TIP3    H2 9009   4.584   6.406   3.120 -1.2122  1.8449  0.1609
 3018TIP3   OH2 9010   2.254   5.388   6.079 -0.1659  0.2581  0.1424
 3018TIP3    H1 9011   2.295   5.302   6.088 -1.0026 -0.0870  0.7815
 3018TIP3    H2 9012   2.181   5.372   6.019 -0.7786  0.3477  0.8494
 3019TIP3   OH2 9013   0.996   4.063   0.532  0.5280  0.1417 -0.3988
 3019TIP3    H1 9014   0.968   4.154   0.525 -0.9885 -0.3395 -0.9978
 3019TIP3    H2 9015   0.956   4.032   0.614 -0.1038 -0.3551 -0.8892
 3020TIP3   OH2 9016   7.883   6.965   6.613 -0.1494  0.0944  0.2699
 3020TIP3    H1 9017   7.912   7.056   6.621 -0.0995  0.1340 -0.3430
 3020TIP3    H2 9018   7.961   6.917   6.584 -0.2904 -0.0709  0.1615
 3021TIP3   OH2 9019   2.100   1.017   0.025 -0.3315 -0.3875  0.1064
 3021TIP3    H1 9020   2.110   0.931   0.066 -1.8062 -0.6914 -0.1309
 3021TIP3    H2 9021   2.092   0.998  -0.068  0.3127  0.1008 -0.0584
 3022TIP3   OH2 9022   7.082   5.164   1.150 -0.2854 -0.1122  0.2323
 3022TIP3    H1 9023   7.066   5.073   1.128  1.9599 -0.3036 -0.9614
 3022TIP3    H2 9024   7.087   5.166   1.245 -1.3350 -1.0298  0.3218
 3023TIP3   OH2 9025   4.853   6.189   0.228  0.2589 -0.3353  0.0106
 3023TIP3    H1 9026   4.889   6.266   0.271  1.0905  0.2741 -1.6805
 3023TIP3    H2 9027   4.832   6.129   0.300 -1.6440  1.9136  1.4776
 3024TIP3   OH2 9028   3.082   6.942   3.052  0.7020 -0.2781 -0.0505
 3024TIP3    H1 9029   3.018   6.922   3.121 -0.9899  0.2158 -1.4098
 3024TIP3    H2 9030   3.106   6.857   3.016 -1.0918 -0.3657 -1.1411
 3025TIP3   OH2 9031   2.560   2.840   3.926  0.5075 -0.3472  0.7755
 3025TIP3    H1 9032   2.535   2.905   3.862 -0.2081 -1.4782 -0.1347
 3025TIP3    H2 9033   2.604   2.771   3.876  1.3604 -0.5289  1.7207
 3026TIP3   OH2 9034   2.301   7.734   2.446  0.1761 -0.1246  0.3639
 3026TIP3    H1 9035   2.299   7.643   2.475  1.0583 -0.6286 -1.0381
 3026TIP3    H2 9036   2.345   7.781   2.517  0.6026 -0.9760  0.6774
 3027TIP3   OH2 9037   2.889   1.127   5.188 -0.5081 -0.4793  0.1807
 3027TIP3    H1 9038   2.879   1.043   5.232 -1.4908  0.1288  1.1691
 3027TIP3    H2 9039   2.920   1.104   5.100  1.7088 -1.7105  1.2039
 3028TIP3   OH2 9040   5.065   4.039   6.541  0.2631 -0.5497  0.0195
 3028TIP3    H1 9041   5.050   4.111   6.479 -0.9994 -0.3697  0.5093
 3028TIP3    H2 9042   4.991   3.980   6.527  0.6776 -1.1780  0.4388
 3029TIP3   OH2 9043   5.543   4.909   0.667 -0.5072  0.1195 -0.0771
 3029TIP3    H1 9044   5.625   4.911   0.717 -0.6613 -1.4410  0.3098
 3029TIP3    H2 9045   5.566   4.945   0.581  0.4913  0.0689  0.1547
 3030TIP3   OH2 9046   7.287   7.277   0.284 -0.5277 -0.0250 -0.9113
 3030TIP3    H1 9047   7.371   7.314   0.259  0.3232 -1.1466  0.2136
 3030TIP3    H2 9048   7.269   7.211   0.217  0.3804 -1.0555 -0.1515
 3031TIP3   OH2 9049   3.517   4.104   2.332  0.7088 -0.2838 -0.6897
 3031TIP3    H1 9050   3.530   4.095   2.426  0.8830  1.5289 -0.4974
 3031TIP3    H2 9051   3.494   4.017   2.302  1.1239 -0.9914  0.9554
 3032TIP3   OH2 9052   3.716   0.590   1.186 -0.0629  0.0166  0.1313
 3032TIP3    H1 9053   3.641   0.567   1.240  0.1929  0.6343  0.7540
 3032TIP3    H2 9054   3.792   0.564   1.238  0.1725 -1.5370 -0.9073
 3033TIP3   OH2 9055   7.546   2.611   0.236 -0.3080  0.0451 -0.2291
 3033TIP3    H1 9056   7.619   2.652   0.190  0.1676  0.0031  0.4734
 3033TIP3    H2 9057   7.533   2.666   0.313 -2.0926  1.0007 -1.1541
 3034TIP3   OH2 9058   1.522   5.092   0.413  0.0863  0.1995 -0.0100
 3034TIP3    H1 9059   1.434   5.069   0.382  0.2253  1.2407 -1.2297
 3034TIP3    H2 9060   1.577   5.019   0.385  0.2768  1.2676 -2.6717
 3035TIP3   OH2 9061   6.637   5.251   4.518 -0.2520 -0.4837  0.0802
 3035TIP3    H1 9062   6.701   5.317   4.493 -1.2684  0.2443 -0.7032
 3035TIP3    H2 9063   6.558   5.302   4.540 -1.1587 -1.4456 -0.8793
 3036TIP3   OH2 9064   6.641   7.199   2.216  0.3575 -0.0818 -0.3182
 3036TIP3    H1 9065   6.706   7.187   2.147 -1.1945  1.3126 -2.1190
 3036TIP3    H2 9066   6.556   7.194   2.171 -0.7040  1.8062  1.3094
 3037TIP3   OH2 9067   2.483   6.536   3.242 -1.0050 -0.2312  0.3244
 3037TIP3    H1 9068   2.416   6.502   3.183 -0.2557 -0.9786 -0.1258
 3037TIP3    H2 9069   2.506   6.621   3.205 -0.6572 -0.6221 -0.3838
 3038TIP3   OH2 9070   4.991   1.923   0.374 -0.4300 -0.4290 -0.3342
 3038TIP3    H1 9071   4.966   1.841   0.331  0.3683 -1.0334  0.3216
 3038TIP3    H2 9072   5.008   1.984   0.302 -2.3169 -0.4159 -0.8298
 3039TIP3   OH2 9073   0.247   7.687   0.744 -0.0099  0.2833 -0.4699
 3039TIP3    H1 9074   0.285   7.757   0.691 -0.1079 -0.1245 -1.1030
 3039TIP3    H2 9075   0.299   7.686   0.824  0.1882  0.8752 -0.5859
 3040TIP3   OH2 9076   5.915   0.671   2.077 -0.5772  0.1050  0.6208
 3040TIP3    H1 9077   5.862   0.607   2.030  1.4370 -0.8589 -0.4686
 3040TIP3    H2 9078   5.869   0.754   2.064 -2.0592 -0.7522  0.1723
 3041TIP3   OH2 9079   6.090   7.830   6.645 -0.2677 -0.4354 -0.6763
 3041TIP3    H1 9080   6.117   7.830   6.553  0.8681 -0.4671 -0.3560
 3041TIP3    H2 9081   6.109   7.741   6.675  0.7481 -0.0216 -0.0357
 3042TIP3   OH2 9082   2.831   4.812   1.855 -0.3189 -0.2995  0.5647
 3042TIP3    H1 9083   2.924   4.803   1.832  0.1382  0.2468  2.0559
 3042TIP3    H2 9084   2.795   4.725   1.843 -0.4222  0.0938 -3.1199
 3043TIP3   OH2 9085   0.655   6.330   0.425  0.4984 -0.1250 -0.0935
 3043TIP3    H1 9086   0.730   6.304   0.478 -0.2620 -2.7648 -0.2015
 3043TIP3    H2 9087   0.582   6.279   0.459 -0.8582  0.9675 -1.2235
 3044TIP3   OH2 9088   2.840   2.422   4.770 -0.4439  0.1006  0.1297
 3044TIP3    H1 9089   2.903   2.360   4.734 -1.1476 -0.7037  0.2398
 3044TIP3    H2 9090   2.794   2.458   4.694 -0.7971 -0.3561  0.1242
 3045TIP3   OH2 9091   1.576   5.565   2.915 -0.3023 -0.0664  0.4745
 3045TIP3    H1 9092   1.531   5.613   2.985  0.5867 -0.6781  1.5053
 3045TIP3    H2 9093   1.510   5.554   2.847 -0.8570  1.5833  0.7041
 3046TIP3   OH2 9094   5.649   3.742   1.665 -0.0500  0.0042 -0.3937
 3046TIP3    H1 9095   5.699   3.685   1.607  0.6442 -1.2039  1.3139
 3046TIP3    H2 9096   5.579   3.686   1.699 -0.0994  0.5099  0.3676
 3047TIP3   OH2 9097   6.417   5.896   1.724  0.2351  0.3278  0.2246
 3047TIP3    H1 9098   6.406   5.989   1.704 -0.9778  0.2414  0.3679
 3047TIP3    H2 9099   6.493   5.892   1.782 -0.7092  1.4430  1.6074
 3048TIP3   OH2 9100   5.475   6.222   4.769 -0.1005  0.5083  0.2559
 3048TIP3    H1 9101   5.389   6.237   4.729 -0.9446  0.1972  1.8688
 3048TIP3    H2 9102   5.468   6.260   4.857  0.5043 -1.8168  1.3976
 3049TIP3   OH2 9103   6.174   3.641   1.362  0.3260  0.6038 -0.2849
 3049TIP3    H1 9104   6.193   3.733   1.380  0.4527  0.2264  1.7803
 3049TIP3    H2 9105   6.200   3.595   1.442 -1.3524 -1.0147 -0.6042
 3050TIP3   OH2 9106   7.596   4.304   1.543 -0.3791 -0.0880 -0.3468
 3050TIP3    H1 9107   7.577   4.220   1.501 -1.2999  1.0689 -2.3979
 3050TIP3    H2 9108   7.691   4.308   1.548 -0.3346 -1.5228  0.4283
 3051TIP3   OH2 9109   7.823   6.434   0.702 -0.6501 -0.4832  0.0143
 3051TIP3    H1 9110   7.820   6.512   0.757 -2.0722  0.7832 -1.7520
 3051TIP3    H2 9111   7.790   6.462   0.617 -0.0461 -2.7364 -1.0599
 3052TIP3   OH2 9112   3.543   0.741   2.254  0.3790  0.1716  0.1790
 3052TIP3    H1 9113   3.452   0.741   2.281  0.7022 -0.4685  1.3667
 3052TIP3    H2 9114   3.584   0.809   2.308  0.7280  0.0255  0.1012
 3053TIP3   OH2 9115   6.265   6.893   4.632 -0.2451  0.0459  0.3450
 3053TIP3    H1 9116   6.193   6.909   4.693 -1.2859 -2.6396 -0.0304
 3053TIP3    H2 9117   6.233   6.925   4.548  0.5972  2.3718  0.8461
 3054TIP3   OH2 9118   7.663   2.332   0.769  0.1224 -0.0645 -0.0416
 3054TIP3    H1 9119   7.569   2.353   0.762 -0.2168 -1.8028 -1.4141
 3054TIP3    H2 9120   7.682   2.339   0.863 -1.9763 -1.9159  0.6165
 3055TIP3   OH2 9121   5.521   5.993   6.260  0.0183  0.1121 -0.2064
 3055TIP3    H1 9122   5.548   5.985   6.168  0.6872 -2.3690  0.1404
 3055TIP3    H2 9123   5.426   6.004   6.255  0.1292  0.7883 -1.2061
 3056TIP3   OH2 9124   5.897   1.561   3.869  0.0957 -0.4286 -0.6713
 3056TIP3    H1 9125   5.979   1.609   3.879 -1.0670  1.9079 -1.5521
 3056TIP3    H2 9126   5.845   1.585   3.946  0.3109 -2.1767  0.0691
 3057TIP3   OH2 9127   1.272   3.233   1.852 -0.0782 -0.1462 -0.5376
 3057TIP3    H1 9128   1.254   3.142   1.830  1.4826 -0.4171 -0.8127
 3057TIP3    H2 9129   1.214   3.252   1.926 -0.5395 -1.3053 -0.5858
 3058TIP3   OH2 9130   7.992   5.208   2.816  0.2356  0.2160  0.1469
 3058TIP3    H1 9131   7.963   5.295   2.790 -0.9702  0.5116  2.2249
 3058TIP3    H2 9132   7.966   5.200   2.908  3.5595 -0.9618  1.1444
 3059TIP3   OH2 9133   2.471   7.772   0.476  0.7839  0.3073  0.0014
 3059TIP3    H1 9134   2.482   7.766   0.571  0.0784 -2.3118 -0.0068
 3059TIP3    H2 9135   2.377   7.783   0.464  0.4942 -2.1333 -0.3880
 3060TIP3   OH2 9136   3.629   4.333   3.310 -0.0189  0.2234 -0.6498
 3060TIP3    H1 9137   3.675   4.269   3.365  0.3725  1.1681  0.1592
 3060TIP3    H2 9138   3.542   4.340   3.349 -0.4613 -0.6746 -1.4525
 3061TIP3   OH2 9139   0.820   5.698   1.332  0.2621  0.2643  0.0886
 3061TIP3    H1 9140   0.887   5.677   1.398 -0.6778  1.8826  1.6294
 3061TIP3    H2 9141   0.870   5.734   1.259  1.1296  1.1040  1.0583
 3062TIP3   OH2 9142   0.476   6.486   1.988 -0.2679  0.2478 -0.2532
 3062TIP3    H1 9143   0.533   6.560   1.969 -0.9178  1.2871  1.5908
 3062TIP3    H2 9144   0.496   6.464   2.079 -0.7001 -1.3063 -0.5162
 3063TIP3   OH2 9145   3.822   3.222   0.273 -0.0744 -0.0098 -0.6508
 3063TIP3    H1 9146   3.805   3.131   0.298  1.5531 -0.2863 -0.4510
 3063TIP3    H2 9147   3.858   3.216   0.185 -1.2066  0.5760 -1.1744
 3064TIP3   OH2 9148   4.524   2.209   0.946  0.2231 -0.1755 -0.4171
 3064TIP3    H1 9149   4.594   2.265   0.913 -0.5591  1.6172  0.7798
 3064TIP3    H2 9150   4.473   2.185   0.869  1.1062  0.0000 -1.0686
 3065TIP3   OH2 9151   6.616   4.003   0.561 -0.2889  0.6380 -0.3014
 3065TIP3    H1 9152   6.624   4.065   0.633 -0.3322 -0.5735  0.7775
 3065TIP3    H2 9153   6.706   3.992   0.528 -0.3905  1.8662 -1.0427
 3066TIP3   OH2 9154   7.089   2.399   3.163  0.6200  0.2077  0.1166
 3066TIP3    H1 9155   7.120   2.381   3.074 -0.7255 -1.4130 -0.0845
 3066TIP3    H2 9156   7.113   2.321   3.213  0.1953  0.5234  0.8377
 3067TIP3   OH2 9157   1.461   0.157   6.484  0.1954 -0.2419 -0.3049
 3067TIP3    H1 9158   1.540   0.104   6.495  0.4936 -0.6737 -3.6476
 3067TIP3    H2 9159   1.390   0.094   6.472 -0.5797  0.1596  1.7342
 3068TIP3   OH2 9160   0.962   5.771   6.731  0.5735 -0.1492  0.6668
 3068TIP3    H1 9161   0.892   5.830   6.703  1.3957  0.7659  0.5000
 3068TIP3    H2 9162   0.961   5.700   6.666  0.3526  0.2878  0.1829
 3069TIP3   OH2 9163   5.153   1.181   6.163  0.2510  0.5118 -0.1761
 3069TIP3    H1 9164   5.202   1.113   6.209  0.3934  1.2061  0.7200
 3069TIP3    H2 9165   5.146   1.148   6.074 -0.5790 -1.1673  0.4658
 3070TIP3   OH2 9166   0.355   2.543   0.582  0.2673  0.0350 -0.2076
 3070TIP3    H1 9167   0.344   2.517   0.490  1.6213  1.1896 -0.7292
 3070TIP3    H2 9168   0.267   2.571   0.609 -0.1476 -0.3026 -1.1418
 3071TIP3   OH2 9169   2.255   7.183   5.438  0.7291  0.4028  0.3566
 3071TIP3    H1 9170   2.184   7.119   5.449  1.1717  0.2486  2.9928
 3071TIP3    H2 9171   2.334   7.130   5.426  0.7097  0.5335 -0.3840
 3072TIP3   OH2 9172   6.964   1.148   2.761 -0.7962  0.4758 -0.0790
 3072TIP3    H1 9173   6.988   1.203   2.835  1.0474  0.4089 -0.5639
 3072TIP3    H2 9174   7.039   1.088   2.750 -1.0619  0.4022 -1.8911
 3073TIP3   OH2 9175   2.761   5.441   0.768  0.6540 -0.4806 -0.1346
 3073TIP3    H1 9176   2.678   5.426   0.722 -1.7130  0.4902  3.4520
 3073TIP3    H2 9177   2.795   5.523   0.730 -1.1669  0.2749 -0.2141
 3074TIP3   OH2 9178   3.272   3.336   5.588 -0.4877 -0.7138  0.3776
 3074TIP3    H1 9179   3.238   3.337   5.498  0.2453  3.6956 -0.0832
 3074TIP3    H2 9180   3.195   3.353   5.642 -0.7951 -2.5769  0.5852
 3075TIP3   OH2 9181   3.630   5.566   6.172  0.1942 -0.2528  0.7145
 3075TIP3    H1 9182   3.579   5.571   6.252 -0.8511 -0.9650  0.1181
 3075TIP3    H2 9183   3.594   5.634   6.115 -0.8057 -1.4041 -0.0809
 3076TIP3   OH2 9184   7.812   3.288   2.473  0.1977  0.2766  0.2641
 3076TIP3    H1 9185   7.737   3.344   2.495 -0.5324 -0.3304 -0.6259
 3076TIP3    H2 9186   7.887   3.332   2.513 -0.3892  1.7866 -0.2225
 3077TIP3   OH2 9187   6.419   5.807   4.196  0.1205  0.2926  0.0486
 3077TIP3    H1 9188   6.490   5.819   4.133  1.4387 -1.7467  1.0568
 3077TIP3    H2 9189   6.347   5.770   4.145  1.1330 -1.2343 -0.3204
 3078TIP3   OH2 9190   6.475   2.358   5.522  0.1776  0.1484  0.3545
 3078TIP3    H1 9191   6.552   2.313   5.557  0.7748 -0.5678 -1.6939
 3078TIP3    H2 9192   6.480   2.446   5.558  0.9363 -0.4168  1.6918
 3079TIP3   OH2 9193   6.704   1.924   2.349 -0.3637 -0.4528 -0.4990
 3079TIP3    H1 9194   6.760   1.849   2.325 -2.2584 -1.9416 -0.4954
 3079TIP3    H2 9195   6.667   1.954   2.267  0.2372  0.4136 -0.4743
 3080TIP3   OH2 9196   4.778   7.214   4.476  0.3238 -0.2508 -0.0779
 3080TIP3    H1 9197   4.796   7.156   4.402  2.8749 -0.2733  0.4639
 3080TIP3    H2 9198   4.857   7.267   4.485 -0.8826  1.4671  1.1316
 3081TIP3   OH2 9199   3.361   5.936   3.473  0.5429  0.1042 -0.7902
 3081TIP3    H1 9200   3.285   5.993   3.484 -0.0080 -1.0199  2.2888
 3081TIP3    H2 9201   3.437   5.994   3.479 -0.0476  0.7811  0.5193
 3082TIP3   OH2 9202   5.572   7.277   6.011  0.3549  0.2088  0.3223
 3082TIP3    H1 9203   5.490   7.289   6.059 -0.9842 -0.0480 -1.7628
 3082TIP3    H2 9204   5.545   7.240   5.927  2.6559 -0.0994 -0.3514
 3083TIP3   OH2 9205   5.312   6.192   1.506  0.6482  0.3997 -0.1129
 3083TIP3    H1 9206   5.312   6.278   1.549 -0.2847  0.6456 -0.5783
 3083TIP3    H2 9207   5.294   6.212   1.414 -0.2450 -0.3487 -0.1114
 3084TIP3   OH2 9208   3.057   2.620   2.638 -0.0285  0.1053  0.1644
 3084TIP3    H1 9209   3.146   2.647   2.662 -0.2485  1.4241 -0.4018
 3084TIP3    H2 9210   3.010   2.703   2.626 -0.7790 -0.5212 -1.5574
 3085TIP3   OH2 9211   0.245   0.332   2.812 -0.8872  0.2470 -0.7585
 3085TIP3    H1 9212   0.267   0.322   2.905 -1.3320 -0.1896 -0.6960
 3085TIP3    H2 9213   0.283   0.256   2.770 -1.5977 -0.1100 -0.7683
 3086TIP3   OH2 9214   6.267   0.844   2.777 -0.4954  0.0931  0.1648
 3086TIP3    H1 9215   6.240   0.934   2.793 -1.2687 -0.5868  3.4945
 3086TIP3    H2 9216   6.362   0.844   2.786 -0.5911  0.4157  1.1967
 3087TIP3   OH2 9217   3.218   7.237   3.428 -0.3837 -0.0561 -0.2253
 3087TIP3    H1 9218   3.205   7.329   3.408  0.9091 -0.3679 -2.8579
 3087TIP3    H2 9219   3.313   7.224   3.424 -0.6512 -1.9139 -2.2530
 3088TIP3   OH2 9220   4.598   7.342   6.683 -0.3371 -0.2612  0.4544
 3088TIP3    H1 9221   4.656   7.408   6.721 -0.3684 -0.4928  0.9093
 3088TIP3    H2 9222   4.511   7.382   6.686 -0.2152  0.0820 -0.2186
 3089TIP3   OH2 9223   6.933   3.358   2.375 -0.3148 -0.0473 -0.1192
 3089TIP3    H1 9224   6.921   3.338   2.283  0.4367  0.4925 -0.3515
 3089TIP3    H2 9225   6.917   3.275   2.421 -0.5583 -0.3467 -0.7427
 3090TIP3   OH2 9226   2.105   4.345   2.714  0.1749 -0.4161  0.0577
 3090TIP3    H1 9227   2.136   4.260   2.747 -0.2732 -0.4039  0.5240
 3090TIP3    H2 9228   2.172   4.372   2.652 -0.3012 -1.7311 -1.0928
 3091TIP3   OH2 9229   4.123   7.739   6.677  0.0794 -0.1707  0.0039
 3091TIP3    H1 9230   4.160   7.704   6.757  0.3061  1.6395  0.7457
 3091TIP3    H2 9231   4.116   7.664   6.618  1.4845 -1.2277  1.1241
 3092TIP3   OH2 9232   3.918   5.777   5.046 -0.4258  0.4028  0.4139
 3092TIP3    H1 9233   3.950   5.789   4.957  0.4752  0.9226  0.7870
 3092TIP3    H2 9234   3.944   5.857   5.092 -0.4847 -0.0428  1.2507
 3093TIP3   OH2 9235   2.224   5.143   5.816 -0.0467 -0.4070  0.2378
 3093TIP3    H1 9236   2.142   5.192   5.825  0.2784  0.2584 -0.3512
 3093TIP3    H2 9237   2.237   5.103   5.903  0.0784  1.1886  0.9878
 3094TIP3   OH2 9238  -0.016   1.087   4.712 -0.3046 -0.8472 -0.6214
 3094TIP3    H1 9239  -0.011   0.991   4.713 -0.8850 -0.8850  0.3943
 3094TIP3    H2 9240   0.070   1.116   4.744  0.1608 -1.0013 -1.7084
 3095TIP3   OH2 9241   1.950   7.301   4.446 -0.2339 -0.2562 -0.1078
 3095TIP3    H1 9242   1.915   7.231   4.501 -2.3042 -0.4009 -1.4735
 3095TIP3    H2 9243   1.928   7.275   4.356  0.8591  1.1300 -0.8262
 3096TIP3   OH2 9244   2.079   2.191   2.199 -0.3801  0.2055  0.5328
 3096TIP3    H1 9245   2.069   2.281   2.230  1.2545  0.6206 -0.0518
 3096TIP3    H2 9246   2.164   2.190   2.155  0.7032 -2.2029  2.4880
 3097TIP3   OH2 9247   5.220   0.724   1.826  0.0154 -0.7808  0.3517
 3097TIP3    H1 9248   5.170   0.775   1.889  2.0882  0.0923  1.3903
 3097TIP3    H2 9249   5.197   0.762   1.741  0.8491  1.4149  1.0218
 3098TIP3   OH2 9250   7.089   4.735   4.447  0.1841 -0.6261 -0.3132
 3098TIP3    H1 9251   7.046   4.782   4.376 -0.8193  0.1864  0.7961
 3098TIP3    H2 9252   7.022   4.674   4.479 -0.0707  0.3788  1.1815
 3099TIP3   OH2 9253   3.136   4.473   0.457  0.5239 -0.4954 -0.4295
 3099TIP3    H1 9254   3.193   4.402   0.488  0.5191 -1.3965 -2.3562
 3099TIP3    H2 9255   3.187   4.553   0.473 -0.3431 -0.5794  3.8474
 3100TIP3   OH2 9256   2.765   0.618   5.883 -0.1396  0.5795  0.2838
 3100TIP3    H1 9257   2.770   0.552   5.815 -1.8415  0.5868  0.1101
 3100TIP3    H2 9258   2.729   0.695   5.840 -0.5740  0.8020  1.0155
 3101TIP3   OH2 9259   6.757   1.496   4.955 -0.3611 -0.0619 -0.1511
 3101TIP3    H1 9260   6.792   1.577   4.992  0.5710 -0.9120  0.8978
 3101TIP3    H2 9261   6.831   1.456   4.909 -0.6786 -0.5514 -0.2459
 3102TIP3   OH2 9262   2.019   0.935   1.259  0.4075 -0.1949 -0.0296
 3102TIP3    H1 9263   1.939   0.883   1.251  0.0395  0.1661  1.1015
 3102TIP3    H2 9264   2.055   0.937   1.170 -1.5707  0.8072 -0.8805
 3103TIP3   OH2 9265   1.313   7.122   3.394 -1.3445  0.1508  0.2122
 3103TIP3    H1 9266   1.290   7.029   3.401  0.4852 -0.2748  0.9425
 3103TIP3    H2 9267   1.267   7.151   3.315 -1.7999 -1.4098 -0.1502
 3104TIP3   OH2 9268   4.258   6.088   1.842  0.0041  0.2665 -0.1218
 3104TIP3    H1 9269   4.196   6.160   1.854 -0.7287 -0.1355 -1.3196
 3104TIP3    H2 9270   4.207   6.020   1.799  0.6776 -0.9963  0.9987
 3105TIP3   OH2 9271   1.128   4.099   2.287  0.1404  0.0529 -0.1799
 3105TIP3    H1 9272   1.077   4.028   2.325 -1.6367  1.8812  1.0273
 3105TIP3    H2 9273   1.215   4.090   2.328 -0.0375 -1.4171 -0.0792
 3106TIP3   OH2 9274   2.012   0.876   0.323 -0.4911  0.0166 -0.4689
 3106TIP3    H1 9275   2.082   0.858   0.386  0.3474 -0.6084 -1.5386
 3106TIP3    H2 9276   2.023   0.809   0.255 -3.2871 -1.3007  0.2215
 3107TIP3   OH2 9277   5.308   0.898   2.190  0.1397 -0.1065 -0.2950
 3107TIP3    H1 9278   5.219   0.867   2.208 -0.0326  0.2595 -0.4982
 3107TIP3    H2 9279   5.349   0.907   2.276  0.2762 -1.1168 -0.2344
 3108TIP3   OH2 9280   7.174   2.289   2.926  0.1325  0.3179  0.0505
 3108TIP3    H1 9281   7.244   2.292   2.861  0.7986 -2.6527  0.4925
 3108TIP3    H2 9282   7.099   2.253   2.879 -0.0121  0.1082  0.4426
 3109TIP3   OH2 9283   0.750   3.844   1.042 -0.5031  0.7799  0.3797
 3109TIP3    H1 9284   0.824   3.785   1.057 -0.0968  1.4503  1.0641
 3109TIP3    H2 9285   0.679   3.786   1.012  0.2453  0.1182 -0.1475
 3110TIP3   OH2 9286   2.271   0.102   1.904 -0.8280 -0.1677  0.1891
 3110TIP3    H1 9287   2.337   0.034   1.890 -1.6363 -0.6097 -1.8769
 3110TIP3    H2 9288   2.271   0.117   1.998  0.0047 -2.4009  0.6044
 3111TIP3   OH2 9289   0.021   0.495   0.886  0.2345 -0.0488 -0.2562
 3111TIP3    H1 9290   0.108   0.459   0.903 -0.4732 -0.8441  2.1416
 3111TIP3    H2 9291  -0.038   0.419   0.891 -1.0908  0.9782  3.1626
 3112TIP3   OH2 9292   8.147   3.745   0.769  0.2685 -0.1497  0.1095
 3112TIP3    H1 9293   8.058   3.720   0.794 -0.0507 -1.0110 -1.7233
 3112TIP3    H2 9294   8.180   3.794   0.844 -1.2722 -0.9527  1.3807
 3113TIP3   OH2 9295   4.111   4.233   5.845 -0.5945  0.0449  0.0790
 3113TIP3    H1 9296   4.123   4.218   5.751 -0.7733  0.8278 -0.0822
 3113TIP3    H2 9297   4.200   4.228   5.881 -0.5954 -0.8340 -0.0377
 3114TIP3   OH2 9298   5.099   5.660   4.577 -0.6152  0.3750  0.1180
 3114TIP3    H1 9299   5.117   5.752   4.557 -0.6277  0.3198 -0.1522
 3114TIP3    H2 9300   5.142   5.645   4.662  0.7780  0.1939 -0.5924
 3115TIP3   OH2 9301   2.057   0.557   0.485  0.3944 -0.6061 -0.0367
 3115TIP3    H1 9302   2.141   0.544   0.529  1.2381  1.2645 -0.9654
 3115TIP3    H2 9303   2.005   0.606   0.549  0.5044 -0.5733  0.0288
 3116TIP3   OH2 9304   2.723   2.348   3.063 -0.4319 -0.1637  0.0986
 3116TIP3    H1 9305   2.790   2.280   3.056 -0.6300 -0.4739  1.0706
 3116TIP3    H2 9306   2.669   2.320   3.136 -0.7761  0.8282  0.2303
 3117TIP3   OH2 9307   6.759   2.036   1.282 -0.2473 -1.1330 -0.0149
 3117TIP3    H1 9308   6.668   2.064   1.276 -0.2039 -1.2467 -1.4639
 3117TIP3    H2 9309   6.800   2.067   1.202  0.8875 -1.4700  0.4096
 3118TIP3   OH2 9310   4.243   0.441   5.484 -0.1724 -0.4882  0.3596
 3118TIP3    H1 9311   4.334   0.450   5.511 -0.0590 -0.4256 -0.0421
 3118TIP3    H2 9312   4.197   0.513   5.527 -0.3077 -1.3626  1.7567
 3119TIP3   OH2 9313   0.350   5.535   3.878  0.0665 -0.3170  0.7324
 3119TIP3    H1 9314   0.376   5.625   3.898  0.0188 -0.2171  0.3507
 3119TIP3    H2 9315   0.429   5.484   3.894  0.7487  0.0797 -1.0929
 3120TIP3   OH2 9316   5.523   7.328   6.667 -0.1190 -0.0658 -0.1883
 3120TIP3    H1 9317   5.474   7.394   6.618  1.0682  0.6279 -0.4973
 3120TIP3    H2 9318   5.501   7.345   6.758 -0.4723  0.2197 -0.3238
 3121TIP3   OH2 9319   8.217   3.918   4.450  0.6944  0.0132 -0.1622
 3121TIP3    H1 9320   8.128   3.890   4.428  1.2028 -1.3752 -0.5714
 3121TIP3    H2 9321   8.207   4.008   4.481 -0.5724  0.7245 -2.3723
 3122TIP3   OH2 9322   2.897   1.695   4.736  0.0271  0.5485  0.2337
 3122TIP3    H1 9323   2.866   1.648   4.814  0.9562  1.7812  1.3898
 3122TIP3    H2 9324   2.816   1.721   4.691 -0.5207 -0.5204  0.5419
 3123TIP3   OH2 9325   5.016   0.672   3.894  0.3204  0.1542 -0.8172
 3123TIP3    H1 9326   5.027   0.691   3.987 -0.9015 -1.7984 -0.1993
 3123TIP3    H2 9327   4.955   0.598   3.892  1.1078 -0.5275 -3.1253
 3124TIP3   OH2 9328   1.047   7.046   6.012  0.1087 -0.3572 -0.0156
 3124TIP3    H1 9329   1.045   7.048   5.917 -1.0056  1.6653  0.0009
 3124TIP3    H2 9330   1.140   7.053   6.035  0.2463  1.2994 -0.9671
 3125TIP3   OH2 9331   6.999   1.734   5.531 -0.4456 -0.5241  0.1441
 3125TIP3    H1 9332   6.904   1.750   5.533 -0.5133 -0.8608 -0.2451
 3125TIP3    H2 9333   7.038   1.819   5.550 -0.8330 -0.5233  0.9885
 3126TIP3   OH2 9334   2.185   1.035   4.937  0.2482  0.0522  0.2934
 3126TIP3    H1 9335   2.119   1.089   4.894  0.2409 -1.8994 -2.4109
 3126TIP3    H2 9336   2.254   1.097   4.961 -2.3771  2.1770  3.2524
 3127TIP3   OH2 9337   6.267   1.030   4.933 -0.0561 -0.1771 -0.1299
 3127TIP3    H1 9338   6.312   1.005   4.852  0.3991 -0.6675  0.2684
 3127TIP3    H2 9339   6.281   1.125   4.940  2.7615 -0.5788  1.0594
 3128TIP3   OH2 9340   4.139   0.239   3.062  0.2821  0.0913  1.0418
 3128TIP3    H1 9341   4.108   0.253   3.151 -2.4970  1.7411 -0.0631
 3128TIP3    H2 9342   4.215   0.296   3.053  0.2970  0.2677  2.1819
 3129TIP3   OH2 9343   0.425   6.340   6.280  0.3602 -0.0669 -0.3975
 3129TIP3    H1 9344   0.449   6.252   6.310  1.0719  0.6060  1.1202
 3129TIP3    H2 9345   0.385   6.381   6.358 -0.0987  0.9054 -1.1282
 3130TIP3   OH2 9346   1.496   2.525   4.753 -0.1644 -0.0427 -0.1208
 3130TIP3    H1 9347   1.401   2.529   4.748 -0.1035  0.5894 -1.1877
 3130TIP3    H2 9348   1.523   2.490   4.668  0.5838  0.5845 -0.1610
 3131TIP3   OH2 9349   7.687   0.086   3.198  0.2818  0.4285 -0.1442
 3131TIP3    H1 9350   7.644   0.122   3.120 -1.4733  0.1756  0.6495
 3131TIP3    H2 9351   7.614   0.060   3.255  1.5220 -0.7365  0.9660
 3132TIP3   OH2 9352   2.432   0.507   0.941 -0.5896  0.0286  0.5502
 3132TIP3    H1 9353   2.388   0.587   0.971 -1.2665  0.2168 -0.8535
 3132TIP3    H2 9354   2.526   0.525   0.953 -0.5852  1.8955 -1.6099
 3133TIP3   OH2 9355   2.225   6.850   6.252 -0.1897 -0.1077 -0.2038
 3133TIP3    H1 9356   2.138   6.811   6.256 -0.6913  0.9692 -0.3205
 3133TIP3    H2 9357   2.284   6.780   6.280 -1.1113 -0.7791  0.1001
 3134TIP3   OH2 9358   3.077   2.339   6.680 -0.9001  0.1347  0.5227
 3134TIP3    H1 9359   3.095   2.432   6.666  0.6462 -0.2878 -0.4919
 3134TIP3    H2 9360   3.122   2.318   6.762  0.2573 -0.1040 -0.1605
 3135TIP3   OH2 9361   0.165   6.634   2.929 -1.0181  0.0139  0.3216
 3135TIP3    H1 9362   0.257   6.613   2.947 -1.0301 -1.0606 -0.7448
 3135TIP3    H2 9363   0.164   6.729   2.920 -0.4834  0.3285  2.7428
 3136TIP3   OH2 9364   8.165   2.428   1.047 -0.4701  0.1453 -0.4184
 3136TIP3    H1 9365   8.121   2.495   1.100 -0.9061  1.4802 -2.3691
 3136TIP3    H2 9366   8.149   2.346   1.094  0.7410  1.4360  2.4825
 3137TIP3   OH2 9367   5.545   6.029   2.358  0.2500 -0.3215  0.3873
 3137TIP3    H1 9368   5.593   5.950   2.334  0.4239 -0.1572  0.1838
 3137TIP3    H2 9369   5.453   6.005   2.351  0.3045 -0.7383  1.1133
 3138TIP3   OH2 9370   2.399   2.842   3.246 -0.3721  0.2262  0.3879
 3138TIP3    H1 9371   2.348   2.819   3.168 -0.9959  0.5698  0.6836
 3138TIP3    H2 9372   2.486   2.865   3.212 -0.6946  0.5780 -0.2273
 3139TIP3   OH2 9373   4.966   6.196   0.991 -0.5514 -0.2584 -0.4859
 3139TIP3    H1 9374   4.923   6.121   1.031 -0.4379  0.3781  0.8673
 3139TIP3    H2 9375   5.059   6.172   0.990 -0.6355 -0.5834 -1.0826
 3140TIP3   OH2 9376   7.456   4.309   5.231  0.1573  0.1716 -0.3575
 3140TIP3    H1 9377   7.465   4.396   5.269 -0.1587  0.2714 -0.5160
 3140TIP3    H2 9378   7.514   4.254   5.285  1.8521  0.8338 -1.4071
 3141TIP3   OH2 9379   5.033   0.486   0.526 -0.6916  0.0804  0.4161
 3141TIP3    H1 9380   5.017   0.459   0.616  0.5294 -0.4589  0.5065
 3141TIP3    H2 9381   5.039   0.581   0.530  0.0339  0.0200  1.0406
 3142TIP3   OH2 9382   2.550   4.704   2.059 -0.0199 -0.6297  0.5619
 3142TIP3    H1 9383   2.563   4.785   2.010  2.4459 -0.8669  0.6661
 3142TIP3    H2 9384   2.471   4.718   2.110 -1.2407  0.5859 -1.5428
 3143TIP3   OH2 9385   2.123   5.964   2.758 -0.2563  0.1995  0.6708
 3143TIP3    H1 9386   2.045   5.969   2.814 -0.6412 -2.6169  0.5204
 3143TIP3    H2 9387   2.098   5.906   2.687  2.5813 -2.6778  1.8111
 3144TIP3   OH2 9388   4.001   6.202   6.589 -0.0152  0.1399  0.4608
 3144TIP3    H1 9389   4.013   6.144   6.514 -0.1179  0.6893  0.0202
 3144TIP3    H2 9390   3.930   6.260   6.564 -2.7961 -2.1078  2.4429
 3145TIP3   OH2 9391   7.919   2.208   4.855 -0.3638 -0.0792  0.2370
 3145TIP3    H1 9392   7.995   2.192   4.910  0.3072  2.0147 -0.0090
 3145TIP3    H2 9393   7.849   2.155   4.894  0.1278  1.1599  2.9873
 3146TIP3   OH2 9394   1.375   4.848   5.237  0.2784  0.5062  0.5080
 3146TIP3    H1 9395   1.325   4.767   5.225 -0.0739  0.3984  2.3717
 3146TIP3    H2 9396   1.343   4.884   5.320  0.6375  2.4221 -0.1365
 3147TIP3   OH2 9397   5.807   3.112   6.132  0.1116  0.0259  0.1539
 3147TIP3    H1 9398   5.866   3.179   6.168 -0.8209  1.1902 -0.4120
 3147TIP3    H2 9399   5.745   3.095   6.202  0.7134 -0.7191  0.5172
 3148TIP3   OH2 9400   6.184   5.565   1.710  0.3936  0.4835 -0.4338
 3148TIP3    H1 9401   6.238   5.633   1.671  1.6037  0.2835  0.8313
 3148TIP3    H2 9402   6.105   5.611   1.740 -0.3189  0.7370 -2.4916
 3149TIP3   OH2 9403   6.934   2.522   3.901 -0.3256 -0.6277  0.0929
 3149TIP3    H1 9404   7.008   2.569   3.862  0.8241 -1.4684  1.1836
 3149TIP3    H2 9405   6.898   2.583   3.965 -0.9326 -0.0237 -0.7940
 3150TIP3   OH2 9406   4.607   0.691   3.771 -0.3527  0.5601  0.0713
 3150TIP3    H1 9407   4.660   0.624   3.814 -0.3766  0.6994  0.3167
 3150TIP3    H2 9408   4.608   0.666   3.679 -1.0564 -0.2708  0.2618
 3151TIP3   OH2 9409   4.776   7.597   4.436 -0.2390  0.0527  0.4083
 3151TIP3    H1 9410   4.750   7.601   4.345  1.6921 -4.1529 -0.5576
 3151TIP3    H2 9411   4.861   7.643   4.439  1.5218 -2.8473 -0.9161
 3152TIP3   OH2 9412   5.654   5.883   2.599  0.7850  0.0645  0.1800
 3152TIP3    H1 9413   5.727   5.910   2.544 -0.1578  2.0532 -0.2150
 3152TIP3    H2 9414   5.618   5.806   2.556  1.3659  0.3292 -0.8102
 3153TIP3   OH2 9415  -0.004   4.463   0.361 -1.0143 -0.0422 -0.0414
 3153TIP3    H1 9416  -0.023   4.393   0.422 -1.2018 -0.6272 -0.7595
 3153TIP3    H2 9417   0.092   4.468   0.358 -1.0023 -0.2624  0.0196
 3154TIP3   OH2 9418   4.431   2.345   3.363 -0.3377 -0.2592  0.0896
 3154TIP3    H1 9419   4.355   2.323   3.309  0.4262 -0.9601 -0.7521
 3154TIP3    H2 9420   4.494   2.276   3.343  1.5149  1.7014 -1.2696
 3155TIP3   OH2 9421   1.112   4.995   4.304  0.0941 -0.6922 -0.2611
 3155TIP3    H1 9422   1.102   5.004   4.399  0.2070  0.9751 -0.3911
 3155TIP3    H2 9423   1.024   5.009   4.269 -0.0078 -1.6154 -0.3940
 3156TIP3   OH2 9424   4.850   3.644   2.630  0.0652  0.6020 -0.5930
 3156TIP3    H1 9425   4.782   3.712   2.630  1.2351  1.8690  1.2057
 3156TIP3    H2 9426   4.932   3.693   2.622  0.8278 -0.8720 -2.3893
 3157TIP3   OH2 9427   7.896   1.899   4.704 -0.2536  0.0003 -0.2517
 3157TIP3    H1 9428   7.949   1.928   4.630 -2.0807  0.1175 -1.5883
 3157TIP3    H2 9429   7.951   1.914   4.781  1.3167  0.8371 -1.4907
 3158TIP3   OH2 9430   6.902   3.810   6.086  0.2765 -0.6690  0.0380
 3158TIP3    H1 9431   6.857   3.738   6.131 -0.2124 -0.7020 -0.4996
 3158TIP3    H2 9432   6.876   3.801   5.994 -0.3018  0.5662  0.0576
 3159TIP3   OH2 9433   2.163   6.026   1.348  0.0264  0.1904 -0.5666
 3159TIP3    H1 9434   2.119   5.986   1.423  1.1420 -0.1536 -0.0809
 3159TIP3    H2 9435   2.091   6.054   1.290 -0.8072 -0.8760 -0.0748
 3160TIP3   OH2 9436   3.681   6.174   6.461  0.7905  0.2249 -0.5984
 3160TIP3    H1 9437   3.648   6.180   6.371 -0.4907 -0.4915 -0.1914
 3160TIP3    H2 9438   3.739   6.098   6.460 -0.4423 -0.7421 -0.4698
 3161TIP3   OH2 9439   7.966   7.787   2.398 -0.4865 -0.6067  1.0575
 3161TIP3    H1 9440   7.984   7.857   2.336 -0.7456  0.0999  1.7625
 3161TIP3    H2 9441   8.020   7.714   2.368 -1.0192 -0.4567 -0.2995
 3162TIP3   OH2 9442   4.722   7.808   2.757 -0.7600 -0.0881 -0.0620
 3162TIP3    H1 9443   4.692   7.843   2.673  0.9796  0.3498 -0.5293
 3162TIP3    H2 9444   4.768   7.727   2.734  2.8785  1.7577 -0.0796
 3163TIP3   OH2 9445   1.137   3.123   6.326  0.2962 -0.3861 -0.0864
 3163TIP3    H1 9446   1.155   3.176   6.404  1.5761  1.7898 -1.7548
 3163TIP3    H2 9447   1.201   3.152   6.262 -0.5782 -2.2612 -1.9084
 3164TIP3   OH2 9448   8.115   7.312   3.088 -0.0958 -0.5712  0.4566
 3164TIP3    H1 9449   8.173   7.379   3.051  0.0432 -0.8166  0.2297
 3164TIP3    H2 9450   8.101   7.251   3.016 -0.0820 -0.8805  0.7170
 3165TIP3   OH2 9451   8.146   0.696   5.740  0.3651 -0.8827  0.0697
 3165TIP3    H1 9452   8.093   0.773   5.762  2.0909  0.1133  0.9995
 3165TIP3    H2 9453   8.082   0.628   5.719 -1.2405  0.5155  0.1915
 3166TIP3   OH2 9454   2.430   3.786   0.629 -0.0655  0.4323  0.8642
 3166TIP3    H1 9455   2.468   3.733   0.699 -2.5245 -0.8432  1.3613
 3166TIP3    H2 9456   2.367   3.843   0.673 -0.3940  0.8597 -0.1150
 3167TIP3   OH2 9457   1.081   4.796   6.295  0.3667  0.5035  0.2219
 3167TIP3    H1 9458   1.139   4.866   6.264  0.6529  0.0521 -0.2857
 3167TIP3    H2 9459   1.005   4.802   6.238  1.4193 -1.1114 -1.4400
 3168TIP3   OH2 9460   4.409   5.938   6.271  0.1671  0.1744 -0.9515
 3168TIP3    H1 9461   4.415   5.857   6.320 -1.9357  0.4433 -0.1389
 3168TIP3    H2 9462   4.427   5.913   6.180  0.8158 -0.9277 -0.5370
 3169TIP3   OH2 9463   7.349   4.742   0.845  0.3377  0.1258 -0.3197
 3169TIP3    H1 9464   7.339   4.821   0.898 -2.4914  0.5122 -1.2883
 3169TIP3    H2 9465   7.417   4.765   0.781  1.1495  0.9422  0.8039
 3170TIP3   OH2 9466   0.107   2.385   2.707 -0.0564  0.1667 -0.1826
 3170TIP3    H1 9467   0.171   2.422   2.647  0.3714 -0.4202 -0.0965
 3170TIP3    H2 9468   0.053   2.328   2.652  0.9068 -1.0945  0.1170
 3171TIP3   OH2 9469   3.662   6.176   5.703  0.0064  0.0768  0.5108
 3171TIP3    H1 9470   3.568   6.180   5.684  0.0894  0.9724  0.2362
 3171TIP3    H2 9471   3.695   6.109   5.642 -0.7534 -1.7925  2.0409
 3172TIP3   OH2 9472   0.931   5.298   0.304  0.5268 -0.5356 -0.1807
 3172TIP3    H1 9473   0.838   5.301   0.280 -0.0021 -1.8609  1.5234
 3172TIP3    H2 9474   0.956   5.206   0.291  1.3679 -0.3776  0.2409
 3173TIP3   OH2 9475   3.990   0.533   5.355 -0.5790 -0.0709  0.5811
 3173TIP3    H1 9476   4.065   0.577   5.314 -2.2509  0.9954 -1.5242
 3173TIP3    H2 9477   3.932   0.604   5.381 -1.9769 -0.9434 -0.0743
 3174TIP3   OH2 9478   1.374   3.981   2.990  0.1299  0.1393 -0.0318
 3174TIP3    H1 9479   1.443   3.916   3.004  0.3665  0.2620 -0.6056
 3174TIP3    H2 9480   1.421   4.059   2.961 -0.3481 -0.2052 -1.8428
 3175TIP3   OH2 9481   2.208   7.721   0.555 -0.1325 -0.2837 -0.0579
 3175TIP3    H1 9482   2.195   7.762   0.641  0.4055  1.5317 -0.7918
 3175TIP3    H2 9483   2.137   7.657   0.549 -0.8187  0.2859  1.3125
 3176TIP3   OH2 9484   2.363   2.114   0.206 -0.1466  0.8137 -0.0857
 3176TIP3    H1 9485   2.318   2.139   0.286 -0.4003  2.5183 -0.7221
 3176TIP3    H2 9486   2.426   2.046   0.234 -1.1734  0.3759  1.2781
 3177TIP3   OH2 9487   2.259   1.185   2.982  0.5075 -0.4560  0.1842
 3177TIP3    H1 9488   2.224   1.224   3.062 -1.0456  0.1506 -0.7397
 3177TIP3    H2 9489   2.301   1.104   3.011 -1.0959 -0.8753  1.4859
 3178TIP3   OH2 9490   8.256   1.134   0.856 -0.4294 -0.1760 -0.1527
 3178TIP3    H1 9491   8.282   1.084   0.778 -0.6573 -0.1691 -0.2353
 3178TIP3    H2 9492   8.308   1.097   0.927 -0.0187  0.0013 -0.3585
 3179TIP3   OH2 9493   3.888   4.369   1.672  0.4468 -0.3898  0.6932
 3179TIP3    H1 9494   3.961   4.416   1.712 -0.4691  1.3082  0.4708
 3179TIP3    H2 9495   3.928   4.295   1.627  2.0596  0.6681  0.3191
 3180TIP3   OH2 9496   6.231   3.417   4.212  0.2062 -0.2515  0.2849
 3180TIP3    H1 9497   6.305   3.357   4.203  0.3163 -0.2277  1.0141
 3180TIP3    H2 9498   6.185   3.388   4.291  0.4450  0.8074  0.8398
 3181TIP3   OH2 9499   4.448   4.299   3.907  0.0340 -0.3264 -0.6617
 3181TIP3    H1 9500   4.433   4.390   3.882  0.4992 -0.2152 -0.5423
 3181TIP3    H2 9501   4.539   4.282   3.884  0.5136 -0.1987  0.9909
 3182TIP3   OH2 9502   5.789   0.658   5.441 -0.2215  0.1725  0.0707
 3182TIP3    H1 9503   5.879   0.626   5.441 -0.3249 -0.2023  1.4959
 3182TIP3    H2 9504   5.787   0.726   5.509 -1.0529  0.0217  0.2120
 3183TIP3   OH2 9505   7.372   3.092   3.806  0.2741 -0.1285  0.1323
 3183TIP3    H1 9506   7.379   3.143   3.886 -0.1723 -0.3314  0.3011
 3183TIP3    H2 9507   7.407   3.150   3.738 -1.1340  0.7889  0.1589
 3184TIP3   OH2 9508   5.854   3.635   1.910 -0.4431  0.7788 -0.3395
 3184TIP3    H1 9509   5.945   3.617   1.932 -0.6439  0.2960  0.1163
 3184TIP3    H2 9510   5.857   3.714   1.857  0.2956  0.4319 -0.8285
 3185TIP3   OH2 9511   2.934   6.541   4.783  0.8321  0.4329 -0.5475
 3185TIP3    H1 9512   2.970   6.574   4.865  1.5213  2.1255 -1.4838
 3185TIP3    H2 9513   2.839   6.556   4.790  0.7540 -0.3923  0.3321
 3186TIP3   OH2 9514   0.662   4.113   2.033 -0.3552 -0.2221 -0.4543
 3186TIP3    H1 9515   0.680   4.072   2.118 -2.7516  0.0875  0.2615
 3186TIP3    H2 9516   0.649   4.039   1.974 -2.7001 -0.5582  0.3979
 3187TIP3   OH2 9517   0.551   4.036   6.469  0.2014 -0.5008  0.1628
 3187TIP3    H1 9518   0.574   4.087   6.392 -1.0250  0.0189  0.1191
 3187TIP3    H2 9519   0.634   3.998   6.499  0.8277  0.0150 -0.8786
 3188TIP3   OH2 9520   2.554   0.841   0.670  0.0138 -0.0256  1.0219
 3188TIP3    H1 9521   2.646   0.867   0.677  0.6522 -2.2378  1.7950
 3188TIP3    H2 9522   2.552   0.782   0.594 -0.5762 -0.6434  1.5039
 3189TIP3   OH2 9523   4.744   7.561   0.895 -0.1087 -0.1731  0.2214
 3189TIP3    H1 9524   4.711   7.507   0.966 -0.3630 -0.5234 -0.1549
 3189TIP3    H2 9525   4.696   7.531   0.818 -0.4156  0.7452  0.0448
 3190TIP3   OH2 9526   7.607   1.901   4.525 -0.5750  0.1379 -0.0125
 3190TIP3    H1 9527   7.536   1.870   4.469 -1.0184 -1.0034  1.1679
 3190TIP3    H2 9528   7.675   1.834   4.517  0.0572  0.8126 -0.4785
 3191TIP3   OH2 9529   6.143   6.616   0.019 -0.2246  0.1527  0.0930
 3191TIP3    H1 9530   6.197   6.674   0.072  0.1510 -0.3923  0.3151
 3191TIP3    H2 9531   6.145   6.655  -0.068 -1.2557  1.3306  0.5679
 3192TIP3   OH2 9532   1.408   2.963   4.628 -0.3514 -0.4454  0.1166
 3192TIP3    H1 9533   1.394   2.869   4.633  0.2368 -0.5553 -0.1724
 3192TIP3    H2 9534   1.500   2.972   4.602 -0.2304  0.2126  0.7484
 3193TIP3   OH2 9535   0.638   4.028   1.612 -0.4717 -0.0443  0.6896
 3193TIP3    H1 9536   0.563   3.969   1.604 -2.4509  2.4231 -0.2626
 3193TIP3    H2 9537   0.709   3.984   1.564 -1.1023 -2.6464  1.9848
 3194TIP3   OH2 9538   4.683   3.981   0.447 -0.7268  0.0268  0.4031
 3194TIP3    H1 9539   4.648   4.056   0.398 -0.2076 -0.1285 -0.2061
 3194TIP3    H2 9540   4.777   3.982   0.429 -0.7487 -0.9035  0.2162
 3195TIP3   OH2 9541   0.996   7.765   0.254  0.4594 -0.3087 -0.6145
 3195TIP3    H1 9542   0.910   7.740   0.220  0.0230 -0.5643  0.6374
 3195TIP3    H2 9543   0.977   7.834   0.318  1.1610 -0.5900 -0.0959
 3196TIP3   OH2 9544   3.940   0.659   4.010 -0.1476 -0.5410 -0.8963
 3196TIP3    H1 9545   3.852   0.692   3.992 -1.0682 -2.2123  0.2225
 3196TIP3    H2 9546   3.998   0.732   3.991 -1.7867  0.6588 -1.5013
 3197TIP3   OH2 9547   3.717   7.680   3.098 -0.1827  0.0167 -0.4716
 3197TIP3    H1 9548   3.702   7.762   3.051  0.7058 -1.4435 -3.5790
 3197TIP3    H2 9549   3.673   7.614   3.045  0.5806 -1.7573  1.0077
 3198TIP3   OH2 9550   0.884   0.419   0.928  0.3770 -0.3803  0.1251
 3198TIP3    H1 9551   0.955   0.467   0.884  0.4693 -0.0963  0.5745
 3198TIP3    H2 9552   0.807   0.434   0.874  0.8881 -1.6189 -0.9918
 3199TIP3   OH2 9553   3.004   3.723   6.363  0.3442  0.1271  0.5863
 3199TIP3    H1 9554   3.073   3.659   6.378 -0.4472 -0.5839  1.3265
 3199TIP3    H2 9555   3.017   3.751   6.273  1.4916 -0.1101  0.6629
 3200TIP3   OH2 9556   7.619  -0.020   0.577 -0.2854  0.1257 -0.2582
 3200TIP3    H1 9557   7.647  -0.035   0.667  1.9117  1.6553 -0.5841
 3200TIP3    H2 9558   7.584   0.069   0.577 -1.6745 -0.3963 -0.6609
 3201TIP3   OH2 9559   2.686   3.230   1.639  0.7087 -0.0589  0.0866
 3201TIP3    H1 9560   2.600   3.271   1.642  0.7661  0.0237  1.6348
 3201TIP3    H2 9561   2.717   3.234   1.730  2.4016  0.0404 -0.4703
 3202TIP3   OH2 9562   7.536   0.559   4.867 -0.7430 -0.3863  0.6743
 3202TIP3    H1 9563   7.609   0.498   4.873 -0.0128  0.0729 -1.9545
 3202TIP3    H2 9564   7.574   0.638   4.828 -2.2363  0.6584  1.2155
 3203TIP3   OH2 9565   8.132   4.449   1.921  0.0721 -0.4620  0.1638
 3203TIP3    H1 9566   8.058   4.401   1.959 -0.8270  1.3622  0.8462
 3203TIP3    H2 9567   8.126   4.431   1.827 -0.7405 -0.9870  0.3066
 3204TIP3   OH2 9568   6.471   1.485   3.225  0.6294  0.1104 -0.3587
 3204TIP3    H1 9569   6.408   1.553   3.247  1.5606 -0.1674  4.3090
 3204TIP3    H2 9570   6.423   1.403   3.236  0.6671 -0.0614 -1.4127
 3205TIP3   OH2 9571   1.805   5.570   6.026 -0.2444 -0.2917  0.4792
 3205TIP3    H1 9572   1.750   5.606   5.957 -0.2264  0.4887  0.8673
 3205TIP3    H2 9573   1.757   5.494   6.058  0.1121 -1.1298 -0.9110
 3206TIP3   OH2 9574   0.749   1.063   6.088 -0.4413 -0.0289 -0.0604
 3206TIP3    H1 9575   0.819   1.040   6.149 -0.0066  0.9398 -0.1702
 3206TIP3    H2 9576   0.669   1.033   6.130  0.0939 -1.9055 -0.3060
 3207TIP3   OH2 9577   1.180   4.428   0.245  0.3747  0.2530  0.1734
 3207TIP3    H1 9578   1.272   4.437   0.267  0.3803 -0.8057  0.6167
 3207TIP3    H2 9579   1.175   4.348   0.192 -0.3281  0.1006  0.4552
 3208TIP3   OH2 9580   0.494   7.412   0.639  0.8281 -0.2360 -0.5445
 3208TIP3    H1 9581   0.458   7.395   0.552  0.7450  1.6640 -0.9256
 3208TIP3    H2 9582   0.436   7.364   0.699  0.6968 -1.3041 -1.4910
 3209TIP3   OH2 9583   2.220   7.037   2.595 -0.5706 -0.5540  0.0605
 3209TIP3    H1 9584   2.263   6.956   2.567  0.9200  0.6230 -1.2968
 3209TIP3    H2 9585   2.127   7.022   2.579 -0.3706 -2.1355  0.2415
 3210TIP3   OH2 9586   7.034   6.112   1.359 -0.4557 -0.3391  0.0640
 3210TIP3    H1 9587   6.998   6.151   1.438  0.8009  0.3385  0.3152
 3210TIP3    H2 9588   7.008   6.171   1.289 -0.0940 -0.0152  0.2032
 3211TIP3   OH2 9589   6.245   4.554   0.987 -0.0288  0.2221 -0.5271
 3211TIP3    H1 9590   6.317   4.575   1.046 -0.0418 -1.9791  0.3381
 3211TIP3    H2 9591   6.288   4.533   0.904  0.2640 -0.2952 -0.2461
 3212TIP3   OH2 9592   0.693   0.800   1.074  0.3626 -0.1065  0.8171
 3212TIP3    H1 9593   0.749   0.731   1.110  0.6504 -1.6105 -2.1695
 3212TIP3    H2 9594   0.754   0.859   1.030 -0.1459  0.0039  0.2501
 3213TIP3   OH2 9595   7.813   7.465   6.284 -0.3735 -0.1040  0.1094
 3213TIP3    H1 9596   7.879   7.440   6.349 -1.1598  2.5521  2.1356
 3213TIP3    H2 9597   7.862   7.513   6.217  0.1355 -0.8333 -0.0556
 3214TIP3   OH2 9598   5.889   4.501   0.821 -0.2470 -0.0178 -0.4117
 3214TIP3    H1 9599   5.923   4.430   0.875 -0.3880  0.4903  0.3713
 3214TIP3    H2 9600   5.830   4.459   0.759  1.7760 -0.9338 -1.8226
 3215TIP3   OH2 9601   2.632   7.708   4.252 -0.3021 -0.3296  0.9153
 3215TIP3    H1 9602   2.580   7.665   4.320 -0.0783 -2.0230  0.0765
 3215TIP3    H2 9603   2.716   7.726   4.294 -1.2409  1.7312  2.0494
 3216TIP3   OH2 9604   7.895   3.404   3.206  0.4900  0.0973  0.2356
 3216TIP3    H1 9605   7.942   3.486   3.193 -1.2445  1.0608 -0.3726
 3216TIP3    H2 9606   7.926   3.347   3.137  1.3082  0.4402  0.3118
 3217TIP3   OH2 9607   1.742   1.861   5.996 -0.4433 -0.3563 -0.1178
 3217TIP3    H1 9608   1.786   1.946   5.998 -1.7202  0.3649 -0.9454
 3217TIP3    H2 9609   1.687   1.861   6.074 -2.2947  0.6820 -1.3297
 3218TIP3   OH2 9610   1.562   7.488   4.983  0.1157  0.0768  0.1490
 3218TIP3    H1 9611   1.470   7.482   5.008  0.3726 -1.0211  0.8934
 3218TIP3    H2 9612   1.610   7.489   5.066  0.7852  0.6673 -0.2282
 3219TIP3   OH2 9613   2.478   2.700   4.170 -0.0767 -0.2825  0.1874
 3219TIP3    H1 9614   2.526   2.618   4.158 -0.6070 -0.7444  1.1533
 3219TIP3    H2 9615   2.517   2.760   4.105  0.4039 -1.2460 -0.4381
 3220TIP3   OH2 9616   4.500   2.729   4.897  0.2666  0.4923  0.3729
 3220TIP3    H1 9617   4.588   2.724   4.935  0.3318 -0.3728  0.1350
 3220TIP3    H2 9618   4.444   2.689   4.963  0.1246  0.6001  0.3163
 3221TIP3   OH2 9619   4.479   4.265   2.397  0.1156  0.0267  0.3461
 3221TIP3    H1 9620   4.425   4.198   2.355  0.6649  0.1475 -0.5833
 3221TIP3    H2 9621   4.434   4.347   2.376 -0.4585 -0.0229  1.3311
 3222TIP3   OH2 9622   4.068   4.603   2.088  0.2289 -0.0691  0.6413
 3222TIP3    H1 9623   4.026   4.519   2.103  1.0659 -0.2462  2.2230
 3222TIP3    H2 9624   4.090   4.603   1.995  0.5619 -1.7745  0.6929
 3223TIP3   OH2 9625   1.405   4.901   0.669  0.5058 -0.3772 -0.1895
 3223TIP3    H1 9626   1.478   4.841   0.656  0.9375  0.0773  0.1378
 3223TIP3    H2 9627   1.445   4.987   0.682 -0.0941 -0.0673 -0.3203
 3224TIP3   OH2 9628   6.007   2.350   6.170  0.0389  0.2688 -0.2129
 3224TIP3    H1 9629   5.937   2.291   6.141  0.3602 -0.5065  0.5226
 3224TIP3    H2 9630   6.046   2.383   6.090 -0.6854  0.1195 -0.6346
 3225TIP3   OH2 9631   5.333   4.038   2.746  0.0867 -0.5424  0.4949
 3225TIP3    H1 9632   5.315   3.983   2.670 -0.1752  0.8646 -0.5053
 3225TIP3    H2 9633   5.288   3.995   2.818 -0.3609 -1.4678 -0.3148
 3226TIP3   OH2 9634   0.922   3.557   3.056 -0.2029  0.4201 -0.8916
 3226TIP3    H1 9635   0.954   3.541   2.967  0.5544  1.3340 -0.7864
 3226TIP3    H2 9636   0.842   3.608   3.044 -0.0984  0.5472 -1.0466
 3227TIP3   OH2 9637   5.918   5.106   6.732 -0.4216 -0.2490 -0.2899
 3227TIP3    H1 9638   5.879   5.099   6.819 -0.9813 -0.1139 -0.5262
 3227TIP3    H2 9639   5.893   5.025   6.688  0.9154 -0.8858  0.0846
 3228TIP3   OH2 9640   7.801   4.830   1.913  0.0736  0.5563  0.3585
 3228TIP3    H1 9641   7.888   4.802   1.885  1.0943  2.7672  1.1348
 3228TIP3    H2 9642   7.798   4.809   2.006  0.4780  2.0236  0.7254
 3229TIP3   OH2 9643   5.918   6.251   6.052 -0.2593  0.2484  0.0935
 3229TIP3    H1 9644   5.875   6.181   6.003  1.6789 -1.4647  0.6978
 3229TIP3    H2 9645   6.006   6.258   6.013 -0.0546  1.6475  0.7240
 3230TIP3   OH2 9646   5.969   1.034   0.829 -0.3529 -0.4350 -0.6534
 3230TIP3    H1 9647   6.061   1.033   0.855 -0.8338  1.4409  1.4565
 3230TIP3    H2 9648   5.928   1.100   0.886 -3.3043 -2.2167 -0.4686
 3231TIP3   OH2 9649   7.230   5.114   3.040 -0.4045  0.3642  0.1400
 3231TIP3    H1 9650   7.302   5.052   3.050 -1.1249 -0.8224 -1.5321
 3231TIP3    H2 9651   7.152   5.064   3.064 -0.9846  0.5917 -1.1751
 3232TIP3   OH2 9652   4.087   3.211   0.948 -0.5462  0.1866 -0.2956
 3232TIP3    H1 9653   4.033   3.237   0.874 -0.6305  0.7896 -0.0278
 3232TIP3    H2 9654   4.114   3.294   0.989 -2.3262 -0.1040  1.6611
 3233TIP3   OH2 9655   5.250   5.628   1.779  0.0664  0.2810 -0.4015
 3233TIP3    H1 9656   5.230   5.713   1.740 -0.4827  0.0240 -0.6934
 3233TIP3    H2 9657   5.230   5.639   1.872 -0.0097  0.4706 -0.4410
 3234TIP3   OH2 9658   0.598   1.146   3.037 -0.1821  0.2023  0.1064
 3234TIP3    H1 9659   0.514   1.181   3.006 -0.8916 -1.9731 -0.5841
 3234TIP3    H2 9660   0.664   1.204   2.999 -1.3207  1.4225 -0.0754
 3235TIP3   OH2 9661   7.459   0.783   1.792 -0.3123  0.4144 -0.2205
 3235TIP3    H1 9662   7.514   0.859   1.810  0.1358  0.3992 -1.4304
 3235TIP3    H2 9663   7.372   0.820   1.776 -0.1708  0.6406 -0.4714
 3236TIP3   OH2 9664   2.633   2.316   4.914 -0.5890  0.5184 -0.1099
 3236TIP3    H1 9665   2.647   2.344   5.004 -1.1273  0.4768 -0.0062
 3236TIP3    H2 9666   2.712   2.343   4.867  0.6996 -1.4640  0.8136
 3237TIP3   OH2 9667   5.838   2.871   6.550 -0.1475 -0.3362  0.0954
 3237TIP3    H1 9668   5.912   2.918   6.589 -1.0300  0.8601  0.3462
 3237TIP3    H2 9669   5.810   2.810   6.618  1.0309 -1.3081 -0.2496
 3238TIP3   OH2 9670   6.704   1.172   6.305  0.4005 -0.0623 -0.2417
 3238TIP3    H1 9671   6.742   1.153   6.219  1.2115  0.1096  0.0679
 3238TIP3    H2 9672   6.696   1.086   6.347  1.9402  0.0136  0.2853
 3239TIP3   OH2 9673   3.588   2.847   3.873  0.0669 -0.3414 -1.2891
 3239TIP3    H1 9674   3.679   2.848   3.904  0.5010 -1.6643 -2.4109
 3239TIP3    H2 9675   3.593   2.810   3.784 -1.5972 -0.7727 -1.2412
 3240TIP3   OH2 9676   6.355   7.262   6.357  0.0750 -0.3253  0.0537
 3240TIP3    H1 9677   6.396   7.344   6.387 -0.7368  0.4170 -0.8121
 3240TIP3    H2 9678   6.371   7.260   6.263  0.7455 -1.5746  0.1653
 3241TIP3   OH2 9679   0.878   2.533   3.366 -0.3206  0.6363  0.0065
 3241TIP3    H1 9680   0.843   2.614   3.330 -0.7379  1.4399  2.0629
 3241TIP3    H2 9681   0.961   2.559   3.407 -0.0969 -0.1170  0.0498
 3242TIP3   OH2 9682   4.059   7.560   2.344  0.0181  0.5538 -0.2819
 3242TIP3    H1 9683   4.126   7.620   2.377 -2.8992  2.5792  2.4395
 3242TIP3    H2 9684   4.082   7.475   2.384  2.0925  0.6169 -1.1885
 3243TIP3   OH2 9685   0.587   1.288   6.556 -0.1268 -0.4969 -0.4177
 3243TIP3    H1 9686   0.643   1.360   6.528  0.8783 -1.0760  0.0470
 3243TIP3    H2 9687   0.581   1.297   6.652  0.2958 -1.2225 -0.3143
 3244TIP3   OH2 9688   0.959   2.864   5.870 -0.1670  0.4083  0.2802
 3244TIP3    H1 9689   0.931   2.772   5.865 -0.8166  0.5529  1.0780
 3244TIP3    H2 9690   1.035   2.862   5.929  0.1892  0.3097 -0.1750
 3245TIP3   OH2 9691   2.184   4.125   5.081  0.0081 -0.1403 -0.1111
 3245TIP3    H1 9692   2.108   4.122   5.022  0.3176  0.2156 -0.5343
 3245TIP3    H2 9693   2.151   4.091   5.164 -0.5872 -0.0960 -0.3229
 3246TIP3   OH2 9694   4.598   2.177   1.600 -0.6807  0.2771  0.4445
 3246TIP3    H1 9695   4.604   2.082   1.590  0.0172  0.4013 -0.5094
 3246TIP3    H2 9696   4.509   2.192   1.631 -0.5337 -0.7419  1.4025
 3247TIP3   OH2 9697   0.195   5.321   1.987 -0.1759 -0.2392 -0.2575
 3247TIP3    H1 9698   0.155   5.367   2.061 -2.1678  0.6230 -1.7635
 3247TIP3    H2 9699   0.285   5.355   1.984 -0.4240  0.6097  1.0153
 3248TIP3   OH2 9700   2.433   2.520   0.673  0.7309  0.0346  1.0467
 3248TIP3    H1 9701   2.480   2.552   0.750 -0.7206 -0.8618  2.3590
 3248TIP3    H2 9702   2.367   2.460   0.708 -0.0461 -0.3153 -0.8920
 3249TIP3   OH2 9703   0.430   1.675   1.603 -0.4294  0.0352 -0.3857
 3249TIP3    H1 9704   0.519   1.640   1.596 -0.3874  0.3054 -1.4386
 3249TIP3    H2 9705   0.374   1.602   1.578 -0.4626  0.0511 -0.3564
 3250TIP3   OH2 9706   0.518   2.366   0.727 -0.3396 -0.6942 -0.4078
 3250TIP3    H1 9707   0.499   2.303   0.657 -0.6225 -1.2672  0.1753
 3250TIP3    H2 9708   0.479   2.448   0.696 -0.2578 -0.8862 -1.0262
 3251TIP3   OH2 9709   7.013   1.831   2.659  0.0573 -0.3664  0.1423
 3251TIP3    H1 9710   6.956   1.907   2.642 -1.3756 -1.2153  0.9418
 3251TIP3    H2 9711   7.061   1.854   2.738  1.9498  0.9363 -1.2979
 3252TIP3   OH2 9712   7.667   0.431   6.047  0.3965 -0.0689 -0.0683
 3252TIP3    H1 9713   7.585   0.381   6.048  0.2772  0.1275 -0.0806
 3252TIP3    H2 9714   7.644   0.517   6.082  0.7408 -0.2317  0.5886
 3253TIP3   OH2 9715   6.954   4.836   4.229 -0.1854  0.1547  0.1280
 3253TIP3    H1 9716   6.928   4.775   4.160 -0.1612  1.1263 -0.7633
 3253TIP3    H2 9717   6.874   4.849   4.280 -0.2787 -0.3409  0.1218
 3254TIP3   OH2 9718   5.983   5.561   4.652  0.0850 -0.5457 -0.0673
 3254TIP3    H1 9719   6.019   5.474   4.669  1.1798  0.2685  2.2597
 3254TIP3    H2 9720   5.920   5.575   4.723 -0.2612  0.4638 -0.5570
 3255TIP3   OH2 9721   0.952   7.639   4.078  0.0454 -0.1194 -0.1405
 3255TIP3    H1 9722   0.948   7.641   3.983 -1.6404  0.3437 -0.1036
 3255TIP3    H2 9723   0.873   7.591   4.104 -1.1697  2.2963  1.0425
 3256TIP3   OH2 9724   7.754   6.547   5.032 -0.2962  0.1163  0.2527
 3256TIP3    H1 9725   7.795   6.562   4.947 -0.8499 -0.4442 -0.1237
 3256TIP3    H2 9726   7.809   6.595   5.094  0.8455 -0.5011 -0.2429
 3257TIP3   OH2 9727   6.145   5.099   3.614  0.5405 -0.0412  0.2454
 3257TIP3    H1 9728   6.129   5.015   3.572 -0.3678  0.2170  0.0598
 3257TIP3    H2 9729   6.087   5.161   3.569 -0.0587  0.3571  1.4851
 3258TIP3   OH2 9730   1.447   4.492   0.324  0.3059 -0.0636 -0.1470
 3258TIP3    H1 9731   1.458   4.448   0.407  1.2882 -0.2593 -0.3748
 3258TIP3    H2 9732   1.529   4.479   0.278  0.2652  1.1659 -0.6164
 3259TIP3   OH2 9733   6.992   6.781   5.896  0.1122 -0.2673 -0.0652
 3259TIP3    H1 9734   6.913   6.828   5.925  0.9525  1.1589  0.0459
 3259TIP3    H2 9735   7.005   6.713   5.961 -1.7700 -1.4183 -0.8241
 3260TIP3   OH2 9736   0.549   7.375   6.352  0.2642 -0.2201 -0.0985
 3260TIP3    H1 9737   0.596   7.326   6.284  0.7757 -1.1913  0.9117
 3260TIP3    H2 9738   0.464   7.331   6.358 -1.2978  2.1265 -2.5999
 3261TIP3   OH2 9739   1.971   3.337   4.786  0.0617 -0.1698  0.4103
 3261TIP3    H1 9740   1.998   3.426   4.808 -1.0033  0.4431 -0.6431
 3261TIP3    H2 9741   1.978   3.333   4.690  0.4986 -1.3580  0.4744
 3262TIP3   OH2 9742   2.694   0.555   0.034  0.1337 -0.5856 -0.0932
 3262TIP3    H1 9743   2.684   0.519  -0.053 -1.4557 -1.1376  0.2865
 3262TIP3    H2 9744   2.701   0.479   0.092 -1.3798 -0.3069  0.5097
 3263TIP3   OH2 9745   5.925   7.625   2.578 -0.4050  0.6014 -0.0741
 3263TIP3    H1 9746   5.936   7.548   2.522  1.0275  1.8373 -1.5898
 3263TIP3    H2 9747   5.839   7.661   2.554 -1.5222 -0.9619  1.3167
 3264TIP3   OH2 9748   7.186   1.841   2.151  0.3257  0.5787 -0.1221
 3264TIP3    H1 9749   7.208   1.775   2.217 -3.5755 -0.3233  0.5335
 3264TIP3    H2 9750   7.150   1.791   2.078 -1.6548  1.8073 -0.0800
 3265TIP3   OH2 9751   0.211   2.944   3.153  0.2184 -0.2703 -0.0835
 3265TIP3    H1 9752   0.146   2.884   3.190  1.0128 -0.4342  1.1180
 3265TIP3    H2 9753   0.243   2.901   3.074  0.5084 -1.2596  0.5640
 3266TIP3   OH2 9754   7.435   0.261   0.081  0.2374 -0.4217  0.0211
 3266TIP3    H1 9755   7.382   0.313   0.021  1.1647  0.1957 -0.2921
 3266TIP3    H2 9756   7.391   0.269   0.166  0.8330  1.6947  0.2093
 3267TIP3   OH2 9757   4.215   2.011   3.914  0.1219 -0.1790 -0.2842
 3267TIP3    H1 9758   4.225   2.022   3.819 -0.4455  1.0763 -0.2282
 3267TIP3    H2 9759   4.122   2.030   3.930  0.0265 -1.1769  0.4360
 3268TIP3   OH2 9760   2.241  -0.026   3.666  0.1369  0.4719  0.5592
 3268TIP3    H1 9761   2.297  -0.035   3.743  0.1606  0.7655  0.5790
 3268TIP3    H2 9762   2.240   0.069   3.649 -0.9230  0.5464  0.9763
 3269TIP3   OH2 9763   3.760   3.363   2.826 -0.7629  0.2643  0.3387
 3269TIP3    H1 9764   3.781   3.271   2.810 -0.5860  0.5494 -1.3457
 3269TIP3    H2 9765   3.770   3.405   2.740 -0.6320  1.8976  1.0973
 3270TIP3   OH2 9766   2.350   1.964   3.550  0.6077  0.2962 -0.0507
 3270TIP3    H1 9767   2.288   1.899   3.518  0.3137  0.9840 -0.9139
 3270TIP3    H2 9768   2.436   1.927   3.531  0.5001 -0.7726  1.3693
 3271TIP3   OH2 9769   3.028   2.074   2.151  0.3626 -0.0088  0.4169
 3271TIP3    H1 9770   2.998   2.108   2.235 -1.5066  0.9455 -0.5662
 3271TIP3    H2 9771   3.107   2.125   2.131 -0.2819  1.1224  0.6991
 3272TIP3   OH2 9772   5.571   6.496   5.215  0.1362  1.4161  0.4031
 3272TIP3    H1 9773   5.638   6.466   5.276  0.0913  3.0317  1.3138
 3272TIP3    H2 9774   5.603   6.581   5.184  0.4279  0.4040 -2.3116
 3273TIP3   OH2 9775   1.218   1.752   3.676 -0.1726  0.2489 -0.4414
 3273TIP3    H1 9776   1.206   1.745   3.581 -1.2338  0.3757 -0.3261
 3273TIP3    H2 9777   1.137   1.719   3.713  0.9194 -1.4970  0.5025
 3274TIP3   OH2 9778   2.608   1.842   1.047  0.0866  0.2197  0.2649
 3274TIP3    H1 9779   2.572   1.766   1.001 -0.3341  0.8145 -0.4192
 3274TIP3    H2 9780   2.589   1.825   1.140 -1.3757  0.1859 -0.0081
 3275TIP3   OH2 9781   0.748   0.255   2.978 -0.1646  0.6869  0.0373
 3275TIP3    H1 9782   0.716   0.230   2.891  0.7728 -0.0318 -0.1096
 3275TIP3    H2 9783   0.716   0.187   3.037  2.3170 -0.9260 -0.3499
 3276TIP3   OH2 9784   6.559   0.771   4.084  0.0656 -0.0152 -0.0236
 3276TIP3    H1 9785   6.477   0.732   4.055 -0.1571 -0.2734  0.9306
 3276TIP3    H2 9786   6.555   0.862   4.053 -0.1818 -0.2647 -0.7411
 3277TIP3   OH2 9787   8.009   0.092   6.358 -0.3473 -0.1077 -0.3724
 3277TIP3    H1 9788   7.949   0.165   6.356 -2.8886 -1.9283  2.0959
 3277TIP3    H2 9789   8.017   0.064   6.267 -0.7489  2.0489 -1.1049
 3278TIP3   OH2 9790   1.896   4.093   5.097 -0.2951 -0.2783  0.1587
 3278TIP3    H1 9791   1.853   4.103   5.012 -1.0083 -1.1657  0.3999
 3278TIP3    H2 9792   1.825   4.104   5.161  0.3096  0.8285  0.6642
 3279TIP3   OH2 9793   2.589   3.826   6.163  0.4709 -0.2671  0.4286
 3279TIP3    H1 9794   2.655   3.890   6.190 -0.1299  0.9976 -0.9532
 3279TIP3    H2 9795   2.613   3.804   6.073 -0.0455 -1.0881  0.4786
 3280TIP3   OH2 9796   7.564   2.435   6.104 -0.0110  0.2875  0.3043
 3280TIP3    H1 9797   7.527   2.523   6.106 -0.2599  0.1803  0.5344
 3280TIP3    H2 9798   7.492   2.379   6.132  0.5773  0.1619  1.6403
 3281TIP3   OH2 9799   0.582   6.315   1.731  0.3917 -0.1665 -0.0002
 3281TIP3    H1 9800   0.498   6.317   1.685 -0.3065  0.4020  1.2434
 3281TIP3    H2 9801   0.632   6.388   1.693 -0.2088  0.3500  0.1810
 3282TIP3   OH2 9802   3.747   6.238   0.836  0.2761  0.1577  0.1545
 3282TIP3    H1 9803   3.834   6.217   0.871  1.3463  2.6875 -0.7834
 3282TIP3    H2 9804   3.740   6.333   0.845 -2.2317  0.0743 -0.2407
 3283TIP3   OH2 9805   2.273   7.486   2.550 -0.1431 -0.3133  0.2560
 3283TIP3    H1 9806   2.329   7.409   2.535 -1.5416 -1.9590  2.8612
 3283TIP3    H2 9807   2.196   7.451   2.595 -1.4817  2.4574  0.2840
 3284TIP3   OH2 9808   3.203   4.192   1.390 -0.1183 -0.0632  1.3227
 3284TIP3    H1 9809   3.185   4.248   1.466 -2.2728 -0.7627  1.3928
 3284TIP3    H2 9810   3.226   4.107   1.428 -1.7278 -0.5659  1.2431
 3285TIP3   OH2 9811   2.792   1.823   0.674 -0.3379  0.0466  0.5798
 3285TIP3    H1 9812   2.873   1.775   0.661 -0.5937 -0.1099 -0.5036
 3285TIP3    H2 9813   2.769   1.856   0.587 -1.6729 -0.2928  0.7814
 3286TIP3   OH2 9814   6.478   7.731   4.270 -0.1927 -0.0310  0.3452
 3286TIP3    H1 9815   6.489   7.824   4.289 -0.4183 -0.0940  0.7899
 3286TIP3    H2 9816   6.568   7.698   4.263 -0.0590 -0.1501  2.0612
 3287TIP3   OH2 9817   4.341   7.587   4.894 -0.2106  0.6827  0.1584
 3287TIP3    H1 9818   4.267   7.635   4.932 -2.0640 -1.1959 -0.9007
 3287TIP3    H2 9819   4.369   7.641   4.820 -0.7331  1.2567  0.3713
 3288TIP3   OH2 9820   2.001   3.236   5.040  0.0912 -0.5923 -0.0544
 3288TIP3    H1 9821   1.916   3.246   5.083  0.6888 -2.4351  1.6998
 3288TIP3    H2 9822   1.993   3.287   4.959 -2.5190 -0.3698  0.2610
 3289TIP3   OH2 9823   4.994   0.169   1.079 -0.0165  0.5752 -0.0265
 3289TIP3    H1 9824   5.088   0.189   1.071  0.0159  0.2419 -0.5002
 3289TIP3    H2 9825   4.989   0.110   1.154  0.0552  1.2444  0.5070
 3290TIP3   OH2 9826   2.952   2.403   6.355 -0.2450  0.4178 -0.1071
 3290TIP3    H1 9827   2.859   2.393   6.371 -0.5343 -0.8231 -2.1261
 3290TIP3    H2 9828   2.985   2.314   6.346  1.3867  0.7849  1.5780
 3291TIP3   OH2 9829   5.609   0.518   4.646  0.0755 -0.7348  0.3501
 3291TIP3    H1 9830   5.673   0.448   4.659  0.5907 -0.2753  0.3627
 3291TIP3    H2 9831   5.661   0.599   4.651 -0.5255 -0.3480  0.4664
 3292TIP3   OH2 9832   0.417   1.805   3.655  0.1686 -0.6742  0.0183
 3292TIP3    H1 9833   0.400   1.877   3.593  1.3762 -0.4374 -0.0583
 3292TIP3    H2 9834   0.455   1.848   3.731  0.2964 -1.1667  0.2324
 3293TIP3   OH2 9835   6.771   3.258   5.620 -0.5941  0.5187  0.1828
 3293TIP3    H1 9836   6.701   3.196   5.640 -0.2849  0.0569 -0.1200
 3293TIP3    H2 9837   6.840   3.204   5.580 -0.3087  1.0539 -0.0688
 3294TIP3   OH2 9838   7.527   7.125   5.314  0.1764 -0.4111  0.0197
 3294TIP3    H1 9839   7.464   7.079   5.370  0.7952 -0.0196  1.0684
 3294TIP3    H2 9840   7.523   7.216   5.342  0.3463 -0.1597 -0.7315
 3295TIP3   OH2 9841   3.529   0.512   4.704  0.6866 -0.0761 -0.0322
 3295TIP3    H1 9842   3.509   0.586   4.647  0.5890 -1.1983 -1.5052
 3295TIP3    H2 9843   3.455   0.453   4.694  1.2601 -0.8685  0.2922
 3296TIP3   OH2 9844   4.093   4.305   4.998  0.5150  0.0845  0.4702
 3296TIP3    H1 9845   4.069   4.225   4.951 -0.9926  1.0158 -0.4256
 3296TIP3    H2 9846   4.149   4.353   4.937 -0.8030  0.9341 -0.1083
 3297TIP3   OH2 9847   3.188   7.490   3.366 -0.0613 -0.2385  0.4693
 3297TIP3    H1 9848   3.114   7.535   3.409 -2.3021 -1.5794 -1.7081
 3297TIP3    H2 9849   3.253   7.559   3.353 -1.3579  1.2702  1.5118
 3298TIP3   OH2 9850   6.179   4.094   1.983 -0.4548 -0.1181  0.2292
 3298TIP3    H1 9851   6.099   4.064   2.027 -0.7093  0.7443  0.3874
 3298TIP3    H2 9852   6.250   4.057   2.034 -0.7552 -0.5900  0.3089
 3299TIP3   OH2 9853   6.641   4.976   0.594  0.0648 -0.2404  0.6609
 3299TIP3    H1 9854   6.555   4.977   0.637 -0.2723  1.5545  0.0469
 3299TIP3    H2 9855   6.700   5.016   0.657  0.1540 -0.1895  0.5463
 3300TIP3   OH2 9856   3.953   4.795   0.181  0.4584 -0.4928 -0.0201
 3300TIP3    H1 9857   4.038   4.836   0.198 -0.1064  0.3932  0.7820
 3300TIP3    H2 9858   3.890   4.850   0.227 -0.4465 -1.7493  0.3060
 3301TIP3   OH2 9859   5.491   2.206   4.068 -0.0034 -0.3406  0.4527
 3301TIP3    H1 9860   5.424   2.243   4.126 -1.2315  0.2120 -1.2309
 3301TIP3    H2 9861   5.574   2.240   4.103 -0.5602 -0.9940  2.5518
 3302TIP3   OH2 9862   2.246   3.439   6.735 -0.2923 -0.9060 -0.2489
 3302TIP3    H1 9863   2.316   3.378   6.760  0.0327 -0.7846 -0.8305
 3302TIP3    H2 9864   2.166   3.398   6.767  0.2219 -0.0033  2.3673
 3303TIP3   OH2 9865   3.573   6.479   3.691 -0.0634  0.4730  0.3316
 3303TIP3    H1 9866   3.624   6.534   3.751 -0.0986  0.6086  0.2379
 3303TIP3    H2 9867   3.532   6.413   3.747 -2.1903  2.1201  0.8594
 3304TIP3   OH2 9868   2.082   1.076   4.190  0.1018  0.5329 -0.0455
 3304TIP3    H1 9869   2.160   1.126   4.213  1.6727 -1.1737 -1.3000
 3304TIP3    H2 9870   2.091   0.994   4.240  0.4604 -0.7024 -1.9996
 3305TIP3   OH2 9871   8.199   7.139   2.854  0.1560 -0.1439  0.1971
 3305TIP3    H1 9872   8.200   7.227   2.816 -0.0400 -0.2157  0.0264
 3305TIP3    H2 9873   8.177   7.081   2.781  0.1997 -0.3266  0.3279
 3306TIP3   OH2 9874   7.999   5.828   5.064 -0.3610 -0.2288  0.4683
 3306TIP3    H1 9875   8.006   5.754   5.124  1.0180 -1.9738 -1.7112
 3306TIP3    H2 9876   8.049   5.898   5.106  1.0873 -1.5959  1.1044
 3307TIP3   OH2 9877   7.918   1.783   0.400  0.7222  0.0414 -0.2277
 3307TIP3    H1 9878   7.879   1.705   0.438  1.3539  0.0612  0.4861
 3307TIP3    H2 9879   7.891   1.781   0.308 -0.7438 -0.0578  0.1823
 3308TIP3   OH2 9880   6.218   4.315   0.621 -0.1727 -0.3277 -0.0698
 3308TIP3    H1 9881   6.264   4.284   0.699 -2.0920 -1.5600  0.6515
 3308TIP3    H2 9882   6.196   4.235   0.574 -0.8633  0.2759 -0.7932
 3309TIP3   OH2 9883   1.226   3.738   3.347  0.3220  0.4372  0.2399
 3309TIP3    H1 9884   1.306   3.699   3.309  0.5082 -2.6303  3.2663
 3309TIP3    H2 9885   1.158   3.673   3.328 -0.7811  1.5275  0.4016
 3310TIP3   OH2 9886   0.193   0.914   5.883 -0.7459  0.1160  0.0740
 3310TIP3    H1 9887   0.110   0.956   5.906  0.1876  1.7203  0.6817
 3310TIP3    H2 9888   0.259   0.980   5.903  0.5442 -0.2377 -2.5336
 3311TIP3   OH2 9889   4.013   2.631   5.770 -0.1104 -0.2448 -0.8537
 3311TIP3    H1 9890   4.082   2.660   5.831 -1.2408 -1.4675  1.1271
 3311TIP3    H2 9891   3.934   2.675   5.801 -0.9903 -2.0087 -0.4828
 3312TIP3   OH2 9892   1.820   0.975   5.789 -0.6820 -0.1747  0.0197
 3312TIP3    H1 9893   1.905   0.978   5.834 -1.3232  0.4540  1.2488
 3312TIP3    H2 9894   1.782   1.062   5.804 -1.7627 -0.6228 -0.0437
 3313TIP3   OH2 9895   0.990   2.700   0.609 -0.1115 -0.0458  0.0653
 3313TIP3    H1 9896   1.037   2.644   0.547 -0.3829 -0.2272  0.0216
 3313TIP3    H2 9897   0.920   2.740   0.557 -0.4256 -0.3060  0.2875
 3314TIP3   OH2 9898   7.074   5.844   2.743  0.1410  0.1010  0.0301
 3314TIP3    H1 9899   7.012   5.914   2.762  0.3804  0.0145  1.2108
 3314TIP3    H2 9900   7.027   5.764   2.761  0.3043  0.0051  0.0361
 3315TIP3   OH2 9901   3.907   5.567   0.330 -0.5204  0.5954  0.3506
 3315TIP3    H1 9902   3.897   5.592   0.239  1.2363 -0.8234 -0.2930
 3315TIP3    H2 9903   4.000   5.581   0.349 -0.8302  0.7680  1.8981
 3316TIP3   OH2 9904   5.957   5.611   6.038 -0.0707 -0.0150  0.5069
 3316TIP3    H1 9905   5.967   5.522   6.072 -0.8019 -0.7470 -1.0501
 3316TIP3    H2 9906   6.043   5.651   6.049  0.5329 -1.2375  0.4109
 3317TIP3   OH2 9907   7.905   1.182   3.407  0.3272  0.3040  0.0236
 3317TIP3    H1 9908   7.839   1.154   3.470  0.1200  0.0913 -0.2885
 3317TIP3    H2 9909   7.973   1.115   3.411 -0.0476 -0.1125 -0.5371
 3318TIP3   OH2 9910   6.672   6.764   4.022  0.6658  0.5107 -0.3243
 3318TIP3    H1 9911   6.738   6.782   4.089  0.0969  2.0055 -0.1298
 3318TIP3    H2 9912   6.722   6.743   3.944  1.3827  1.2722 -0.0874
 3319TIP3   OH2 9913   5.507   7.588   4.563 -0.2757  0.3323  0.7161
 3319TIP3    H1 9914   5.601   7.597   4.580 -0.0755  0.8822 -0.5723
 3319TIP3    H2 9915   5.494   7.495   4.548  0.1205  0.2876  0.6305
 3320TIP3   OH2 9916   4.443   6.489   1.165  0.2651 -0.0607 -0.1343
 3320TIP3    H1 9917   4.463   6.402   1.131 -0.8522 -1.1320  1.7538
 3320TIP3    H2 9918   4.526   6.520   1.201  0.6042 -0.4873 -0.5360
 3321TIP3   OH2 9919   4.565   2.912   0.921 -0.2327 -0.0255  0.2628
 3321TIP3    H1 9920   4.518   2.953   0.849  0.4307 -3.1772 -2.1882
 3321TIP3    H2 9921   4.507   2.842   0.951 -0.0765  0.6042  2.2013
 3322TIP3   OH2 9922   4.708   6.380   6.341 -0.1617  0.2849 -0.0420
 3322TIP3    H1 9923   4.758   6.410   6.417 -1.5924  1.1499  0.6007
 3322TIP3    H2 9924   4.706   6.284   6.351 -0.5556  0.3971  1.1993
 3323TIP3   OH2 9925   0.259   0.272   4.853  0.2825  0.2012 -0.3238
 3323TIP3    H1 9926   0.201   0.328   4.801  0.7401  0.4333 -0.5989
 3323TIP3    H2 9927   0.224   0.184   4.843 -0.1108  0.3611 -0.3586
 3324TIP3   OH2 9928   7.373   4.596   3.168 -0.0479  0.3502 -0.1356
 3324TIP3    H1 9929   7.391   4.561   3.255  1.0629  1.5167  0.1298
 3324TIP3    H2 9930   7.291   4.644   3.179 -0.7866 -0.8535 -0.1527
 3325TIP3   OH2 9931   2.492   1.445   6.710  0.4972 -0.0651 -0.3317
 3325TIP3    H1 9932   2.465   1.530   6.676  0.2419  0.2091  0.5365
 3325TIP3    H2 9933   2.462   1.444   6.800  0.6433 -1.0169 -0.2799
 3326TIP3   OH2 9934   3.591   1.046   0.332  0.4248  0.3305  0.3232
 3326TIP3    H1 9935   3.508   1.093   0.329  0.7421  0.9102  0.4804
 3326TIP3    H2 9936   3.569   0.956   0.307  0.1930  1.0902 -2.6487
 3327TIP3   OH2 9937   3.650   7.439   6.359  0.0837 -0.4981  0.4855
 3327TIP3    H1 9938   3.621   7.399   6.277 -1.5327 -0.5380  1.0516
 3327TIP3    H2 9939   3.666   7.531   6.337  1.8233 -0.9533 -0.3466
 3328TIP3   OH2 9940   4.113   7.150   4.013 -0.0382 -0.1676  0.2086
 3328TIP3    H1 9941   4.121   7.243   4.033  0.6077  0.0203 -0.8468
 3328TIP3    H2 9942   4.019   7.135   4.008 -0.1591  0.8915 -1.5483
 3329TIP3   OH2 9943   6.930   7.735   2.086 -0.1365 -0.1046  0.1646
 3329TIP3    H1 9944   6.996   7.787   2.040  0.4409 -1.2715 -0.3720
 3329TIP3    H2 9945   6.949   7.749   2.178  1.4108 -1.0606  0.0221
 3330TIP3   OH2 9946   7.981   6.195   0.072  0.3639  1.2266 -0.6210
 3330TIP3    H1 9947   8.069   6.157   0.071 -0.0886  0.0475  0.7026
 3330TIP3    H2 9948   7.923   6.121   0.088 -0.6964  2.2677  0.6130
 3331TIP3   OH2 9949   0.566   4.998   6.017  0.4265  0.1456  0.0677
 3331TIP3    H1 9950   0.643   5.046   5.986 -0.1833  1.0394 -0.1186
 3331TIP3    H2 9951   0.491   5.045   5.979 -0.2682  0.1295  1.3374
 3332TIP3   OH2 9952   2.226   6.093   4.694 -0.1802  0.1688  0.7681
 3332TIP3    H1 9953   2.303   6.036   4.688 -1.7997 -2.2634  1.9095
 3332TIP3    H2 9954   2.219   6.132   4.607 -0.3994 -3.3805 -0.9970
 3333TIP3   OH2 9955   4.117   0.725   6.011  0.5508 -1.1955  0.6107
 3333TIP3    H1 9956   4.048   0.770   6.061 -0.2865 -1.4993 -0.2426
 3333TIP3    H2 9957   4.179   0.795   5.988  0.9300 -1.0405  1.9999
 3334TIP3   OH2 9958   3.711   0.465   5.259  0.5537  0.3695 -0.3506
 3334TIP3    H1 9959   3.801   0.496   5.265  0.7821 -0.2054 -0.6568
 3334TIP3    H2 9960   3.657   0.544   5.262  1.0861  0.7431 -0.5407
 3335TIP3   OH2 9961   3.058   4.065   3.285 -0.5377  0.2002  0.0441
 3335TIP3    H1 9962   3.078   4.009   3.360 -2.1456 -0.2286  0.1747
 3335TIP3    H2 9963   2.978   4.111   3.309 -1.8777 -0.9576 -1.8796
 3336TIP3   OH2 9964   2.661   4.137   6.176 -0.4410  0.0759  0.1246
 3336TIP3    H1 9965   2.723   4.110   6.245 -0.2148  1.2110  0.3842
 3336TIP3    H2 9966   2.715   4.187   6.114 -0.5689 -1.2125 -1.0903
 3337TIP3   OH2 9967   5.108   1.599   5.315 -0.0592  0.2145  0.2138
 3337TIP3    H1 9968   5.156   1.536   5.262 -0.2084 -0.4279  0.8335
 3337TIP3    H2 9969   5.117   1.567   5.405 -1.4503  0.2109  0.3648
 3338TIP3   OH2 9970   0.364   3.634   2.503 -0.4005  0.1092  0.2093
 3338TIP3    H1 9971   0.389   3.696   2.435  1.0563  0.8791  1.3854
 3338TIP3    H2 9972   0.323   3.688   2.571 -2.0554 -0.6747 -0.1131
 3339TIP3   OH2 9973   4.606   5.061   6.119  0.1050  0.5175 -0.1558
 3339TIP3    H1 9974   4.516   5.092   6.109  0.3904  0.9784 -1.5150
 3339TIP3    H2 9975   4.600   4.966   6.104 -0.2470  0.4460  0.4234
 3340TIP3   OH2 9976   7.284   6.036   1.710 -0.0719 -0.1771 -0.1465
 3340TIP3    H1 9977   7.267   6.062   1.619  1.3703  0.1894 -0.3359
 3340TIP3    H2 9978   7.228   5.960   1.724 -1.0974  0.3898 -0.9986
 3341TIP3   OH2 9979   6.509   3.707   3.649 -0.2293  0.5609 -0.3744
 3341TIP3    H1 9980   6.519   3.717   3.743 -0.4094  2.0525 -0.4936
 3341TIP3    H2 9981   6.598   3.713   3.615  0.2921 -3.1607 -0.1164
 3342TIP3   OH2 9982   0.742   5.443   0.032 -0.0694 -0.0240  0.1982
 3342TIP3    H1 9983   0.777   5.355   0.041 -0.5368 -0.3294 -0.7996
 3342TIP3    H2 9984   0.666   5.445   0.091  0.5251  0.0518  0.9790
 3343TIP3   OH2 9985   2.753   2.980   0.058 -0.0209 -0.1384 -0.3284
 3343TIP3    H1 9986   2.834   2.992   0.008  2.2754 -1.8613  2.6358
 3343TIP3    H2 9987   2.729   2.889   0.043 -0.6739  0.0004 -0.1493
 3344TIP3   OH2 9988   4.043   6.802   0.717  0.1528 -0.0384  0.5669
 3344TIP3    H1 9989   4.015   6.892   0.697 -0.2723 -0.4109 -0.5969
 3344TIP3    H2 9990   4.124   6.790   0.668 -0.5916 -0.7721 -0.5325
 3345TIP3   OH2 9991   6.659   7.736   6.673 -0.1201 -0.2786  0.5881
 3345TIP3    H1 9992   6.663   7.826   6.704  0.3049  0.5166 -1.5867
 3345TIP3    H2 9993   6.587   7.697   6.722 -0.8629  1.4950  0.9798
 3346TIP3   OH2 9994   7.373   3.428   6.232 -0.0771  0.1570 -0.2077
 3346TIP3    H1 9995   7.408   3.341   6.249  1.6572  0.8019 -0.2733
 3346TIP3    H2 9996   7.355   3.429   6.138  2.0495  0.5460 -0.6652
 3347TIP3   OH2 9997   7.382   3.541   2.697  0.0314  0.2587  0.8291
 3347TIP3    H1 9998   7.369   3.635   2.700  0.2210  0.3060  0.2543
 3347TIP3    H2 9999   7.321   3.506   2.762 -1.6082  0.6157 -0.4505
 3348TIP3   OH210000   6.054   0.382   3.418  0.3376  0.0008  0.5185
 3348TIP3    H110001   5.963   0.364   3.441  0.6994 -0.8718  1.3283
 3348TIP3    H210002   6.059   0.365   3.324  0.1715 -2.2213  0.8619
 3349TIP3   OH210003   8.118   0.344   4.806 -0.2050  0.1366  0.6286
 3349TIP3    H110004   8.086   0.358   4.716 -0.5932  1.2104  0.9083
 3349TIP3    H210005   8.064   0.272   4.839 -0.4150  0.0735  0.1671
 3350TIP3   OH210006   5.361   4.319   2.071  0.0523 -0.4888  1.0100
 3350TIP3    H110007   5.370   4.261   1.995  0.8727 -0.9020  1.4032
 3350TIP3    H210008   5.279   4.365   2.057 -1.5035 -2.9459  1.4700
 3351TIP3   OH210009   3.789   1.979   0.717 -0.1130  0.2634 -0.1925
 3351TIP3    H110010   3.792   2.026   0.801 -1.1055 -0.2458  0.1403
 3351TIP3    H210011   3.874   1.998   0.677  0.6821 -0.0734  1.2469
 3352TIP3   OH210012   0.433   2.128   1.270 -0.3631  0.0756 -0.2959
 3352TIP3    H110013   0.469   2.043   1.242  1.1379  1.3077 -2.4916
 3352TIP3    H210014   0.400   2.167   1.189 -1.2494  1.4857  0.7128
 3353TIP3   OH210015   1.899   6.991   1.719  0.8564  0.2969 -0.3905
 3353TIP3    H110016   1.932   6.915   1.670  0.0124 -1.0043  1.0099
 3353TIP3    H210017   1.964   7.005   1.787 -0.0954 -0.6103  0.7368
 3354TIP3   OH210018   7.826   6.534   6.382  0.0607 -0.2158 -0.3242
 3354TIP3    H110019   7.758   6.585   6.425  1.0539  0.7782  0.1271
 3354TIP3    H210020   7.879   6.498   6.453 -0.9736 -2.4673 -0.6026
 3355TIP3   OH210021   1.093   3.060   0.948  0.0758 -0.2631  0.1316
 3355TIP3    H110022   1.021   3.075   0.887  0.3777  0.3006 -0.0916
 3355TIP3    H210023   1.059   2.995   1.009 -1.2281  1.2063  1.0418
 3356TIP3   OH210024   6.880   1.714   4.129  0.2078 -0.0264  0.2307
 3356TIP3    H110025   6.820   1.789   4.125 -1.4501 -1.3391 -2.2155
 3356TIP3    H210026   6.967   1.753   4.124 -0.5301  1.8109  0.7889
 3357TIP3   OH210027   3.343   5.800   4.562  0.5609 -0.1656 -1.0294
 3357TIP3    H110028   3.326   5.734   4.629  1.1459  1.3892  0.7319
 3357TIP3    H210029   3.426   5.774   4.522  0.3646 -0.9333 -0.9486
 3358TIP3   OH210030   4.765   3.954   4.288  0.0272  0.9282  0.2331
 3358TIP3    H110031   4.727   3.886   4.232 -0.5366  3.0214 -2.1208
 3358TIP3    H210032   4.836   3.910   4.334 -0.2271 -1.2207 -1.2666
 3359TIP3   OH210033   6.988   7.249   3.314 -0.0649 -0.2319  0.4633
 3359TIP3    H110034   6.999   7.172   3.259  0.8590 -0.7453  1.3264
 3359TIP3    H210035   7.007   7.218   3.403 -0.6919  0.7605  0.9625
 3360TIP3   OH210036   7.535   3.401   0.705  0.1982 -0.4446 -0.8840
 3360TIP3    H110037   7.441   3.406   0.685 -0.6406 -0.5682  2.4817
 3360TIP3    H210038   7.559   3.492   0.723  0.5925 -0.5075 -1.0917
 3361TIP3   OH210039   0.091   3.821   5.460 -0.0273  0.3207  0.1878
 3361TIP3    H110040   0.104   3.802   5.367 -0.2868  2.0015 -0.2295
 3361TIP3    H210041   0.036   3.750   5.492 -0.6999  0.2056 -1.1729
 3362TIP3   OH210042   3.915   4.330   5.536 -0.2225  0.0642  0.9548
 3362TIP3    H110043   3.952   4.271   5.470  2.7297  1.6076  1.0451
 3362TIP3    H210044   3.863   4.392   5.486 -0.6535 -0.6489  0.4951
 3363TIP3   OH210045   0.253   5.115   2.423 -0.3023 -0.2065  0.0443
 3363TIP3    H110046   0.172   5.114   2.373 -0.5841 -0.3312  0.4944
 3363TIP3    H210047   0.315   5.163   2.368 -0.8588  0.4430 -0.0305
 3364TIP3   OH210048   4.965   1.949   5.868 -0.6185 -0.5671 -0.2963
 3364TIP3    H110049   4.936   1.919   5.954  1.8076 -0.1466  0.7677
 3364TIP3    H210050   5.010   2.032   5.886 -1.5805  0.4433 -2.2524
 3365TIP3   OH210051   7.208   6.381   1.646 -0.0418 -0.2097 -0.2595
 3365TIP3    H110052   7.221   6.421   1.560 -0.3144  1.2208  0.3302
 3365TIP3    H210053   7.113   6.376   1.655 -0.0559  1.1415  0.5890
 3366TIP3   OH210054   3.002   4.120   3.837  0.4597  0.2492 -0.3787
 3366TIP3    H110055   2.978   4.033   3.804 -0.5350  0.7224 -0.9736
 3366TIP3    H210056   3.056   4.158   3.767  1.0299  0.0586 -0.0487
 3367TIP3   OH210057   0.330   5.760   0.365  0.0978  0.1432  0.0586
 3367TIP3    H110058   0.401   5.812   0.328  0.4396  0.1896  0.7604
 3367TIP3    H210059   0.251   5.811   0.347  0.5222  1.4220  1.5590
 3368TIP3   OH210060   0.626   1.078   2.044 -0.7176  0.7919  0.2868
 3368TIP3    H110061   0.607   1.122   2.127  1.0498  0.4218  0.9172
 3368TIP3    H210062   0.664   0.994   2.069 -3.1656 -0.8000 -0.9036
 3369TIP3   OH210063   2.942   4.847   0.544  0.1082 -0.0285 -0.7619
 3369TIP3    H110064   2.934   4.941   0.561  0.7441 -0.2228  0.8711
 3369TIP3    H210065   3.015   4.819   0.599 -1.5240 -1.8776  0.6442
 3370TIP3   OH210066   4.846   6.108   1.403  0.4294 -0.0756  0.1853
 3370TIP3    H110067   4.921   6.113   1.462  0.4094  1.2536  0.1238
 3370TIP3    H210068   4.882   6.073   1.321  0.9791  0.5228  0.1665
 3371TIP3   OH210069   6.941   5.267   5.486  0.3417  0.5575  0.2979
 3371TIP3    H110070   6.906   5.353   5.508  1.6616  1.4499 -0.8999
 3371TIP3    H210071   6.878   5.230   5.424  0.1115  0.9486  0.2946
 3372TIP3   OH210072   1.132   4.225   5.024 -0.3336  0.5176 -0.0988
 3372TIP3    H110073   1.197   4.270   5.079 -0.6476 -1.0190  1.6266
 3372TIP3    H210074   1.184   4.176   4.961  0.1798 -0.1097  0.7936
 3373TIP3   OH210075   4.004   5.205   5.678 -0.6589  0.3633  0.3551
 3373TIP3    H110076   3.935   5.141   5.662 -1.5724  1.4174  0.0334
 3373TIP3    H210077   4.084   5.152   5.683 -1.3900 -0.8020  0.1133
 3374TIP3   OH210078   4.910   5.716   3.850  0.2909 -0.8136 -0.0546
 3374TIP3    H110079   4.962   5.688   3.774  1.0353  1.5847 -0.5280
 3374TIP3    H210080   4.829   5.750   3.812  0.5897  0.2248  0.2017
 3375TIP3   OH210081   0.717   6.268   1.083 -0.1111  0.1927 -0.1197
 3375TIP3    H110082   0.639   6.319   1.059 -0.5329 -0.3926 -0.0292
 3375TIP3    H210083   0.688   6.176   1.076  0.2353 -0.0203  0.9922
 3376TIP3   OH210084   6.571   1.522   2.453  0.1263 -0.0341  0.0529
 3376TIP3    H110085   6.623   1.531   2.373  1.2453  0.2232  0.7862
 3376TIP3    H210086   6.541   1.611   2.473  1.4939  0.2478  0.9704
 3377TIP3   OH210087   8.020   6.451   4.796  0.1517  0.0516  0.7874
 3377TIP3    H110088   7.938   6.496   4.773  0.4762  0.3049  0.0799
 3377TIP3    H210089   7.997   6.358   4.793  0.3552 -0.0005 -1.5267
 3378TIP3   OH210090   6.308   6.071   1.028 -0.7393  0.3452 -0.1336
 3378TIP3    H110091   6.344   6.160   1.024  0.8671 -0.2003  1.0216
 3378TIP3    H210092   6.290   6.057   1.121 -1.4919 -0.3657 -0.3730
 3379TIP3   OH210093   1.899   4.300   6.420 -1.0028 -0.0410 -0.1356
 3379TIP3    H110094   1.808   4.323   6.404 -0.4666  1.6967 -0.9373
 3379TIP3    H210095   1.940   4.304   6.333 -0.5038 -2.6661 -0.1039
 3380TIP3   OH210096   8.133   7.401   5.127 -0.3429 -0.3180  0.7982
 3380TIP3    H110097   8.089   7.407   5.043  2.2932  1.0227 -0.6115
 3380TIP3    H210098   8.194   7.474   5.128  0.9357 -1.2934  3.1280
 3381TIP3   OH210099   7.726   5.127   5.974  0.9353  0.8153 -0.3121
 3381TIP3    H110100   7.747   5.087   6.058 -0.2664 -0.4340 -0.5690
 3381TIP3    H210101   7.639   5.094   5.953 -0.0541  3.3916 -0.6743
 3382TIP3   OH210102   8.005   2.969   6.662  0.2037  0.0326  0.0357
 3382TIP3    H110103   8.062   2.972   6.585  0.4522 -0.0623  0.2128
 3382TIP3    H210104   8.065   2.978   6.736 -0.1250  1.1506  0.1900
 3383TIP3   OH210105   1.542   5.248   3.631 -0.3956  0.1534  0.0458
 3383TIP3    H110106   1.591   5.266   3.551 -1.1150  1.6848 -0.0814
 3383TIP3    H210107   1.561   5.322   3.688 -2.2596  0.6251  0.1172
 3384TIP3   OH210108   0.268   2.477   5.222 -0.3148 -0.5249 -0.3333
 3384TIP3    H110109   0.306   2.499   5.137 -0.1746  1.4535  0.1866
 3384TIP3    H210110   0.193   2.422   5.202 -0.8060  0.6274 -1.8416
 3385TIP3   OH210111   0.053   3.374   1.597 -0.0954  0.1951 -0.4842
 3385TIP3    H110112  -0.037   3.385   1.566  0.7137  1.5326 -2.5114
 3385TIP3    H210113   0.097   3.324   1.528  0.4914 -1.4487  0.9937
 3386TIP3   OH210114   3.114   1.939   3.020 -0.4206 -0.1353  0.3552
 3386TIP3    H110115   3.201   1.902   3.039 -1.1966 -1.4992  1.4426
 3386TIP3    H210116   3.107   2.014   3.078 -0.8939 -1.4747  2.1094
 3387TIP3   OH210117   7.368   0.534   3.161  0.5224  0.5941 -0.4393
 3387TIP3    H110118   7.409   0.471   3.220 -0.8240 -0.7118 -0.8280
 3387TIP3    H210119   7.430   0.607   3.156  1.1793  0.2462  1.6736
 3388TIP3   OH210120   6.571   3.442   5.516  0.3199  0.2152  0.5206
 3388TIP3    H110121   6.646   3.389   5.544 -0.7160 -1.1733  0.7480
 3388TIP3    H210122   6.563   3.424   5.422  0.7331  0.9882  0.3233
 3389TIP3   OH210123   0.755   4.452   4.514 -0.7621 -0.0665 -0.6932
 3389TIP3    H110124   0.753   4.427   4.421  0.1607  0.6820 -0.9402
 3389TIP3    H210125   0.697   4.528   4.519 -0.6509  0.0185 -0.6984
 3390TIP3   OH210126   2.731   2.860   1.603 -0.3091  0.4607 -0.7069
 3390TIP3    H110127   2.647   2.886   1.643  0.2689 -0.0255  0.9088
 3390TIP3    H210128   2.734   2.765   1.614 -0.6283  0.1274 -3.0183
 3391TIP3   OH210129   4.129   3.006   5.251  0.4507  0.1017  0.1978
 3391TIP3    H110130   4.123   2.911   5.237  0.4280 -0.1999  2.0911
 3391TIP3    H210131   4.139   3.016   5.345 -0.2925  2.0447  0.1031
 3392TIP3   OH210132   0.250   5.860   6.366  0.1233 -0.6883  0.0917
 3392TIP3    H110133   0.159   5.864   6.394 -0.3470  1.1445 -1.4949
 3392TIP3    H210134   0.295   5.813   6.436 -1.6127  0.4000  2.0309
 3393TIP3   OH210135   5.139   2.026   0.178 -0.2952 -0.5216  0.8796
 3393TIP3    H110136   5.202   1.963   0.213  0.2049 -0.0853  0.7843
 3393TIP3    H210137   5.191   2.081   0.119 -0.0809  1.6713  2.9337
 3394TIP3   OH210138   4.700   2.175   6.047  0.9146  0.1372 -0.2283
 3394TIP3    H110139   4.634   2.113   6.016  1.5102 -0.6062 -0.0472
 3394TIP3    H210140   4.756   2.124   6.105 -0.2467  1.5070  2.2743
 3395TIP3   OH210141   5.300   1.084   1.847  0.1453 -0.0595 -0.0022
 3395TIP3    H110142   5.295   1.179   1.833 -1.0867 -0.2023 -0.7333
 3395TIP3    H210143   5.386   1.059   1.812 -0.5997  0.4287 -2.4065
 3396TIP3   OH210144   6.923   6.183   6.031  0.3554  0.1512  0.4931
 3396TIP3    H110145   6.913   6.108   6.090  2.2000 -0.2684  0.3374
 3396TIP3    H210146   6.853   6.173   5.968 -0.6429 -0.3321  1.6275
 3397TIP3   OH210147   6.227   5.489   5.232 -0.5555 -0.5143 -0.0681
 3397TIP3    H110148   6.302   5.492   5.291 -0.6345  0.2171 -0.0051
 3397TIP3    H210149   6.236   5.566   5.177 -1.5128 -0.1670  0.2414
 3398TIP3   OH210150   0.307   5.601   4.941  0.0902 -0.5030 -0.3583
 3398TIP3    H110151   0.214   5.580   4.930  0.0700  0.1446 -1.5528
 3398TIP3    H210152   0.332   5.644   4.859  1.5836 -1.1689 -0.2886
 3399TIP3   OH210153   1.663   5.830   1.268  0.7919  0.0264 -0.0164
 3399TIP3    H110154   1.704   5.857   1.186 -1.5724  2.6495 -0.4896
 3399TIP3    H210155   1.588   5.777   1.240  0.3649  0.3584  0.4901
 3400TIP3   OH210156   5.389   2.776   1.954 -0.1524 -0.4364  0.3428
 3400TIP3    H110157   5.325   2.721   1.910 -0.8009  0.9507 -0.5417
 3400TIP3    H210158   5.388   2.858   1.904  0.3959  0.5573  1.8729
 3401TIP3   OH210159   2.447   0.352   1.728 -0.2506  0.1626 -0.2421
 3401TIP3    H110160   2.414   0.297   1.657 -2.7134 -0.0109  0.9299
 3401TIP3    H210161   2.397   0.325   1.805  1.8315  0.8297  1.4492
 3402TIP3   OH210162   5.071   6.628   3.000  0.4585  0.5843 -0.3176
 3402TIP3    H110163   5.012   6.556   3.021  2.0969 -0.4564  1.0221
 3402TIP3    H210164   5.080   6.625   2.905  0.8075 -1.2707 -0.2601
 3403TIP3   OH210165   6.715   5.952   6.049  0.7210 -0.1202  0.2131
 3403TIP3    H110166   6.635   5.986   6.009  1.2285  0.6457 -0.1694
 3403TIP3    H210167   6.726   5.866   6.010 -1.9601 -1.9345  3.0416
 3404TIP3   OH210168   2.460   3.699   2.427 -0.0436  0.4696 -0.2344
 3404TIP3    H110169   2.415   3.721   2.508  0.0611  2.2204 -0.6123
 3404TIP3    H210170   2.392   3.662   2.370 -0.7270  1.8069 -0.3148
 3405TIP3   OH210171   3.334   3.644   3.667 -0.0960 -0.4009 -0.1060
 3405TIP3    H110172   3.378   3.569   3.627  0.3209  0.6958 -1.8004
 3405TIP3    H210173   3.255   3.607   3.707 -0.9159 -1.5034 -2.5783
 3406TIP3   OH210174   7.134   7.426   2.085 -0.1540  0.2288 -0.0326
 3406TIP3    H110175   7.051   7.412   2.040  0.7004 -0.7623 -1.4073
 3406TIP3    H210176   7.151   7.343   2.131 -0.2569  0.6794  0.8354
 3407TIP3   OH210177   0.904   0.956   4.575 -0.2514 -0.0617  0.2455
 3407TIP3    H110178   0.944   0.948   4.661  0.6765  0.8399 -0.0888
 3407TIP3    H210179   0.843   1.030   4.584  1.5768  1.6043 -0.4749
 3408TIP3   OH210180   7.435   6.310   2.936 -0.4334  0.1511 -0.0662
 3408TIP3    H110181   7.469   6.292   3.024  0.0406  0.3855 -0.1949
 3408TIP3    H210182   7.373   6.382   2.948  0.4474  0.9333 -0.0662
 3409TIP3   OH210183   2.340   6.147   2.755  0.7177  0.2314  0.1545
 3409TIP3    H110184   2.278   6.082   2.722  1.2311  0.0799 -0.5539
 3409TIP3    H210185   2.285   6.216   2.791  0.1509 -0.2249  0.1893
 3410TIP3   OH210186   5.739   2.612   1.086  0.1266  0.5253  0.0922
 3410TIP3    H110187   5.670   2.671   1.056 -0.1226  0.4753  0.5552
 3410TIP3    H210188   5.730   2.611   1.182  2.4857  2.6211  0.4402
 3411TIP3   OH210189   4.802   1.789   1.591 -0.0023  0.3207  0.2650
 3411TIP3    H110190   4.861   1.734   1.541 -0.1241  0.2010  0.2525
 3411TIP3    H210191   4.744   1.828   1.526  0.0453  0.4180  0.2799
 3412TIP3   OH210192   3.902   4.625   4.116  0.0524 -0.2328  0.4444
 3412TIP3    H110193   3.923   4.702   4.168  1.0362 -0.2783  0.1241
 3412TIP3    H210194   3.867   4.562   4.179  2.0510 -0.6199  1.2222
 3413TIP3   OH210195   1.407   0.398   3.707 -0.6596 -0.4254 -0.0506
 3413TIP3    H110196   1.327   0.347   3.698  1.5778 -4.2862 -0.0062
 3413TIP3    H210197   1.459   0.351   3.772  2.4903  0.6635 -1.5712
 3414TIP3   OH210198   2.540   2.023   4.953 -0.6206  0.5933 -0.3241
 3414TIP3    H110199   2.625   1.985   4.977 -0.3286  0.3151 -1.7368
 3414TIP3    H210200   2.559   2.115   4.934  0.0462 -0.1143 -3.7282
 3415TIP3   OH210201   1.978   5.284   2.270 -0.3236  0.5492  0.1411
 3415TIP3    H110202   1.982   5.190   2.286 -2.5861  0.5564  1.1843
 3415TIP3    H210203   2.069   5.314   2.274  0.4402 -1.5602 -0.2146
 3416TIP3   OH210204   0.998   4.358   2.306  0.3240 -0.5304  0.1397
 3416TIP3    H110205   1.053   4.282   2.323 -0.7105 -1.4040 -0.3515
 3416TIP3    H210206   1.037   4.399   2.228  1.7560  0.3266  1.2368
 3417TIP3   OH210207   1.402   5.685   4.219  0.2261 -0.3860  0.2937
 3417TIP3    H110208   1.419   5.593   4.239  0.0758 -1.0763 -2.3526
 3417TIP3    H210209   1.477   5.713   4.167 -0.0832  0.7682  0.4273
 3418TIP3   OH210210   8.282   3.639   6.515  0.0554  0.6395  0.4034
 3418TIP3    H110211   8.253   3.729   6.526 -2.4645 -0.0412 -0.0532
 3418TIP3    H210212   8.241   3.592   6.588 -1.7958 -0.7330 -1.4096
 3419TIP3   OH210213   4.672   4.374   5.985  0.0581 -0.2022  0.3197
 3419TIP3    H110214   4.682   4.431   6.062  3.6910 -1.1254  0.7111
 3419TIP3    H210215   4.706   4.289   6.013  0.2263 -0.9426 -1.9044
 3420TIP3   OH210216   3.563   4.502   3.612 -0.0292  0.1471  0.2658
 3420TIP3    H110217   3.482   4.502   3.663  0.4866  0.1735  1.0987
 3420TIP3    H210218   3.546   4.563   3.540 -1.3078 -1.0462 -0.4908
 3421TIP3   OH210219   3.000   7.177   4.092  0.5012  0.0910  0.3062
 3421TIP3    H110220   2.952   7.180   4.175  0.7012  1.3966  0.3949
 3421TIP3    H210221   2.992   7.086   4.063 -0.3359 -0.1728  1.3043
 3422TIP3   OH210222   8.225   5.753   3.079  0.0359 -0.0561  0.2746
 3422TIP3    H110223   8.315   5.739   3.109 -0.6228 -1.4263  1.7367
 3422TIP3    H210224   8.235   5.795   2.994  2.0686 -0.5749  0.1979
 3423TIP3   OH210225   2.537   7.146   1.504 -0.1948  0.3730  0.4889
 3423TIP3    H110226   2.583   7.067   1.534  0.3766 -0.0663 -1.3830
 3423TIP3    H210227   2.599   7.217   1.521  0.8672 -0.0977 -1.1687
 3424TIP3   OH210228   8.182   2.388   1.769  0.2821  0.0594 -0.0819
 3424TIP3    H110229   8.252   2.351   1.821 -0.3810 -1.5993 -0.3026
 3424TIP3    H210230   8.217   2.392   1.680  0.4879  0.3550  0.0098
 3425TIP3   OH210231   1.217   2.408   1.254 -0.0433 -0.0323  0.1156
 3425TIP3    H110232   1.298   2.404   1.203 -1.7708 -0.2753 -2.8479
 3425TIP3    H210233   1.223   2.491   1.301  1.6320  0.2878 -0.5650
 3426TIP3   OH210234   0.364   3.878   4.816 -0.3159 -0.1627 -0.0072
 3426TIP3    H110235   0.377   3.861   4.909 -1.5580 -0.5360  0.1156
 3426TIP3    H210236   0.277   3.916   4.810  0.1638  0.8580 -0.9153
 3427TIP3   OH210237   0.074   2.685   3.230  0.6104  0.2210  0.1760
 3427TIP3    H110238   0.032   2.599   3.222 -1.4213  1.2972 -1.9432
 3427TIP3    H210239   0.009   2.739   3.275  0.4169  1.4391 -1.4609
 3428TIP3   OH210240   4.651   5.541   5.159  0.0820 -0.1006 -0.2563
 3428TIP3    H110241   4.624   5.486   5.232 -0.2407 -0.0007 -0.3002
 3428TIP3    H210242   4.742   5.515   5.142 -0.1316 -0.7669 -0.4075
 3429TIP3   OH210243   4.016   2.998   6.266 -0.5029  0.2740 -0.0242
 3429TIP3    H110244   3.932   2.983   6.222 -0.8471  1.7398  0.1081
 3429TIP3    H210245   4.058   2.911   6.266 -2.0259 -0.5013 -0.0326
 3430TIP3   OH210246   4.499   6.776   2.819 -0.3602  0.0820  0.3557
 3430TIP3    H110247   4.444   6.844   2.857  0.1921  1.1023 -0.6296
 3430TIP3    H210248   4.584   6.787   2.861 -0.8019 -1.4013  1.7682
 3431TIP3   OH210249   5.859   5.565   0.648  0.4783 -0.7527  0.0361
 3431TIP3    H110250   5.811   5.506   0.589 -0.2647 -0.5899  0.4602
 3431TIP3    H210251   5.876   5.513   0.726  0.8568 -0.7591 -0.0498
 3432TIP3   OH210252   3.573   4.559   5.590 -0.6029  0.5912 -0.3239
 3432TIP3    H110253   3.601   4.521   5.673  0.9402  3.4881  0.6143
 3432TIP3    H210254   3.482   4.584   5.604 -1.1096 -1.0404 -0.4014
 3433TIP3   OH210255   1.338   1.957   5.711 -0.5607 -0.0977  0.5107
 3433TIP3    H110256   1.399   1.997   5.772 -1.5559 -0.1676  1.5908
 3433TIP3    H210257   1.390   1.939   5.633  0.5973  0.5537  1.1087
 3434TIP3   OH210258   1.440   6.026   6.443  0.4330 -0.4945 -0.1055
 3434TIP3    H110259   1.434   6.106   6.392  1.3199 -0.6456 -0.4481
 3434TIP3    H210260   1.395   6.047   6.525 -1.4139 -0.3947 -1.0948
 3435TIP3   OH210261   7.801   7.107   3.376 -0.2507  0.1489  0.5985
 3435TIP3    H110262   7.841   7.038   3.324 -1.8038 -1.0211  0.8937
 3435TIP3    H210263   7.751   7.061   3.443 -2.7100  1.4884 -0.2025
 3436TIP3   OH210264   4.084   2.757   1.148  0.2615 -0.0829  0.5365
 3436TIP3    H110265   4.097   2.846   1.180  0.1337  0.0281  0.2826
 3436TIP3    H210266   3.991   2.739   1.163 -0.2580  0.6357 -1.3947
 3437TIP3   OH210267   1.507   1.143   2.511  0.0185  0.5354  0.2191
 3437TIP3    H110268   1.434   1.085   2.489  1.4080 -0.4907 -1.9757
 3437TIP3    H210269   1.539   1.175   2.427  1.2430  2.0995  1.2032
 3438TIP3   OH210270   3.850   7.770   2.572 -0.2962 -0.1144  0.6690
 3438TIP3    H110271   3.823   7.686   2.535 -1.2965 -0.4197  2.0214
 3438TIP3    H210272   3.896   7.747   2.653  0.8629  0.5866  0.2390
 3439TIP3   OH210273   5.083   5.459   3.810 -0.4896 -0.2153  0.0847
 3439TIP3    H110274   5.015   5.515   3.849  0.3274  1.0096 -0.2052
 3439TIP3    H210275   5.036   5.404   3.748 -1.2691  0.4341  0.0757
 3440TIP3   OH210276   1.147   6.007   1.522 -0.1345 -0.3059  0.0240
 3440TIP3    H110277   1.235   5.984   1.495  0.1563  0.5714  0.1855
 3440TIP3    H210278   1.154   6.022   1.616 -0.6721 -1.1966  0.2199
 3441TIP3   OH210279   6.692   3.170   0.701 -0.0732  0.5764  0.0548
 3441TIP3    H110280   6.779   3.173   0.741  0.8234 -1.3489 -1.5608
 3441TIP3    H210281   6.659   3.083   0.722 -0.1074 -0.0107 -2.1655
 3442TIP3   OH210282   1.604   7.326   6.738 -0.2070 -0.5746 -0.4195
 3442TIP3    H110283   1.595   7.312   6.644  0.7906  0.3330 -0.6740
 3442TIP3    H210284   1.514   7.333   6.770 -0.6518 -3.2515 -0.8825
 3443TIP3   OH210285   6.718   2.629   5.333 -0.2516 -0.0148  0.4427
 3443TIP3    H110286   6.778   2.680   5.386  1.3803 -0.7061 -0.6728
 3443TIP3    H210287   6.642   2.613   5.390  0.5662  0.9611  1.8385
 3444TIP3   OH210288   7.145   1.707   3.733 -0.0609  0.0913  0.3323
 3444TIP3    H110289   7.182   1.649   3.666 -0.5764  1.6611 -1.4104
 3444TIP3    H210290   7.212   1.711   3.801  2.4840  1.6668 -2.0195
 3445TIP3   OH210291   6.281   5.477   0.399  0.2067 -0.5285  0.3039
 3445TIP3    H110292   6.241   5.563   0.412 -1.0938 -1.1792  0.7761
 3445TIP3    H210293   6.368   5.485   0.438 -0.0483  0.4405  0.7184
 3446TIP3   OH210294   6.998   4.181   5.761 -0.0960  0.1821  0.1991
 3446TIP3    H110295   7.055   4.232   5.818  0.5898 -1.3633  0.9616
 3446TIP3    H210296   6.915   4.173   5.809  0.2148 -0.4447  0.6472
 3447TIP3   OH210297   5.488   2.544   4.640  0.0045  0.2354  0.1177
 3447TIP3    H110298   5.539   2.511   4.566 -0.3581  0.8545 -0.4134
 3447TIP3    H210299   5.473   2.636   4.620 -1.1183  0.1196  0.3854
 3448TIP3   OH210300   1.063   6.293   2.527  0.0922  0.4547 -0.5333
 3448TIP3    H110301   1.091   6.204   2.508 -1.7124  0.3934 -3.4772
 3448TIP3    H210302   1.013   6.285   2.608  0.7868 -1.0083 -0.2131
 3449TIP3   OH210303   4.440   7.180   6.505  0.2074  0.3354 -0.4353
 3449TIP3    H110304   4.486   7.097   6.490 -0.2200 -0.0268  0.2124
 3449TIP3    H210305   4.509   7.240   6.533  0.3779 -0.0607  0.0222
 3450TIP3   OH210306   2.835   4.266   0.909  0.1754  0.1653 -0.5953
 3450TIP3    H110307   2.906   4.260   0.845  0.8083 -1.8973  0.2030
 3450TIP3    H210308   2.857   4.342   0.962  0.2744  1.1932 -2.0443
 3451TIP3   OH210309   4.194   5.951   5.325  0.1068  0.2313  0.5101
 3451TIP3    H110310   4.238   5.867   5.340 -1.0054 -0.4588  0.0036
 3451TIP3    H210311   4.218   5.975   5.236  1.0823  0.8745  0.9305
 3452TIP3   OH210312   5.845   0.203   3.257 -0.1556  0.2091  0.3680
 3452TIP3    H110313   5.932   0.170   3.233 -0.1462  0.0378  0.6297
 3452TIP3    H210314   5.829   0.168   3.344 -1.3916 -1.5437 -0.4958
 3453TIP3   OH210315   8.029   0.479   4.049 -1.3186  0.2490  0.0219
 3453TIP3    H110316   7.973   0.494   4.125 -1.3352  1.8790 -0.2857
 3453TIP3    H210317   8.084   0.557   4.043  1.5588 -1.5628  0.7260
 3454TIP3   OH210318   0.659   3.307   2.877 -0.5393 -0.1577  0.4896
 3454TIP3    H110319   0.728   3.298   2.943 -1.2855 -1.8350  1.0869
 3454TIP3    H210320   0.591   3.358   2.921 -0.8320 -0.8602  0.8589
 3455TIP3   OH210321   4.966   7.627   2.246 -0.4945 -0.1847  0.0942
 3455TIP3    H110322   5.060   7.613   2.252 -0.2179  1.9498  1.9314
 3455TIP3    H210323   4.940   7.655   2.334 -2.4878  1.1505 -0.8494
 3456TIP3   OH210324   0.496   7.221   2.516 -0.3034  0.0350 -0.3363
 3456TIP3    H110325   0.421   7.167   2.542 -0.2107  0.6065  1.2247
 3456TIP3    H210326   0.494   7.295   2.576  0.9422  0.5691 -0.9245
 3457TIP3   OH210327   6.084   2.770   3.990  0.0233  0.0804 -0.1303
 3457TIP3    H110328   5.993   2.779   4.018  0.1825 -0.1892  0.4771
 3457TIP3    H210329   6.106   2.857   3.956 -0.3256  0.2726  0.1219
 3458TIP3   OH210330   0.462   6.112   1.070  0.4103  0.1970  0.3399
 3458TIP3    H110331   0.379   6.158   1.086 -1.0582 -1.9010 -0.7652
 3458TIP3    H210332   0.491   6.083   1.157  0.4076  1.5732  0.8213
 3459TIP3   OH210333   6.612   2.272   6.327  0.3666  0.1671 -0.3007
 3459TIP3    H110334   6.672   2.344   6.308  0.2632  0.2974 -0.1344
 3459TIP3    H210335   6.527   2.301   6.292  0.2124  0.3372  0.2021
 3460TIP3   OH210336   0.457   2.606   4.974 -0.2654  0.2009 -0.7545
 3460TIP3    H110337   0.413   2.651   4.902  1.1640  1.0524 -1.1333
 3460TIP3    H210338   0.459   2.514   4.948 -2.7367 -0.0629 -0.2270
 3461TIP3   OH210339   1.859   2.556   1.208  0.2394  0.1607 -0.4308
 3461TIP3    H110340   1.924   2.503   1.162  0.7819  1.0474 -0.6900
 3461TIP3    H210341   1.901   2.641   1.221 -0.1687  0.1512  1.0861
 3462TIP3   OH210342   0.762   4.550   0.572 -0.0700 -0.2774 -0.3647
 3462TIP3    H110343   0.817   4.568   0.497  0.7259  0.6424  0.4121
 3462TIP3    H210344   0.676   4.587   0.549  0.4781  1.0344 -0.3859
 3463TIP3   OH210345   6.110   2.399   0.638 -0.3704 -0.5424  0.0538
 3463TIP3    H110346   6.086   2.309   0.660 -2.0908  0.1001  1.0574
 3463TIP3    H210347   6.052   2.453   0.693 -0.2910  1.1733 -1.4472
 3464TIP3   OH210348   7.530   5.915   0.457 -0.0302 -0.2055  0.2805
 3464TIP3    H110349   7.604   5.974   0.467  0.3534 -0.5974 -0.2185
 3464TIP3    H210350   7.482   5.922   0.540 -0.0423  0.8665  0.1852
 3465TIP3   OH210351   6.122   5.597   4.354  0.3439 -0.3972 -0.1739
 3465TIP3    H110352   6.195   5.535   4.344  2.3901  1.9904 -0.9337
 3465TIP3    H210353   6.112   5.637   4.268  1.1058  2.4025  0.9267
 3466TIP3   OH210354   2.873   0.444   1.376 -0.3009 -0.3768  0.6297
 3466TIP3    H110355   2.928   0.367   1.390 -0.5246 -0.8470 -0.9481
 3466TIP3    H210356   2.816   0.446   1.454 -1.1952 -2.6102  0.1069
 3467TIP3   OH210357   0.936   1.190   0.720 -0.0390  0.7188  0.0171
 3467TIP3    H110358   0.973   1.101   0.723 -0.1188  0.6623 -0.4916
 3467TIP3    H210359   0.950   1.218   0.629  0.5271  1.4607  0.3279
 3468TIP3   OH210360   5.670   6.839   6.006  0.2067  0.5982  0.1005
 3468TIP3    H110361   5.707   6.753   6.028  1.4391  0.9863 -0.4321
 3468TIP3    H210362   5.715   6.866   5.926 -1.4602  0.9542 -0.7723
 3469TIP3   OH210363   5.077   2.478   4.436  0.8279  0.0859 -0.0899
 3469TIP3    H110364   5.036   2.539   4.497  1.1144  0.2189 -0.0291
 3469TIP3    H210365   5.004   2.437   4.391  0.5973 -0.2405  0.5624
 3470TIP3   OH210366   4.377   4.229   2.695  0.3229  0.9229  0.1019
 3470TIP3    H110367   4.385   4.213   2.601 -0.9193  1.7614 -0.1709
 3470TIP3    H210368   4.301   4.286   2.704  0.8006  1.3930  1.5724
 3471TIP3   OH210369   5.510   0.128   1.508  0.0195  0.8810 -0.7048
 3471TIP3    H110370   5.430   0.077   1.512  0.2105  0.6338  0.4769
 3471TIP3    H210371   5.557   0.095   1.431  1.0055 -2.0826  0.9900
 3472TIP3   OH210372   0.177   2.100   0.753  0.4693 -0.2166 -0.2659
 3472TIP3    H110373   0.100   2.050   0.728 -0.4253  0.2485  1.4325
 3472TIP3    H210374   0.178   2.174   0.692  0.4781 -1.0198 -1.2721
 3473TIP3   OH210375   6.602   2.769   6.365 -0.2495  0.7548 -0.0264
 3473TIP3    H110376   6.693   2.748   6.388 -0.2493 -0.5625 -1.0733
 3473TIP3    H210377   6.585   2.716   6.287 -1.4889  2.0329 -0.6563
 3474TIP3   OH210378   7.362   2.325   6.270 -0.0604  0.2280 -0.6229
 3474TIP3    H110379   7.270   2.353   6.265 -0.7369 -1.8230 -0.4289
 3474TIP3    H210380   7.397   2.370   6.346 -1.0378  0.6843 -0.4290
 3475TIP3   OH210381   4.899   7.597   5.084 -0.1157 -0.2962 -0.1249
 3475TIP3    H110382   4.900   7.555   4.998  1.1677  0.1657 -0.3620
 3475TIP3    H210383   4.840   7.672   5.073 -1.5212 -1.3423 -0.0171
 3476TIP3   OH210384   3.400   6.649   3.870  0.1363 -0.3168 -0.6134
 3476TIP3    H110385   3.376   6.565   3.833  0.4691 -1.2712  1.2135
 3476TIP3    H210386   3.320   6.702   3.865 -0.7356 -1.5109  0.2099
 3477TIP3   OH210387   7.273   3.121   5.264  0.4721  0.1829 -0.3368
 3477TIP3    H110388   7.245   3.207   5.294 -0.2839 -0.1433 -0.0699
 3477TIP3    H210389   7.191   3.074   5.247  0.8601 -0.8074  0.4654
 3478TIP3   OH210390   5.954   3.327   2.487 -0.0701 -0.7184 -0.4986
 3478TIP3    H110391   5.901   3.395   2.446  0.8173 -0.6619 -1.5845
 3478TIP3    H210392   6.022   3.374   2.535  0.3129 -0.8295 -0.9298
 3479TIP3   OH210393   1.881   0.262   0.427 -0.0519 -0.5407  0.5266
 3479TIP3    H110394   1.881   0.251   0.332  0.7718  1.8780  0.1636
 3479TIP3    H210395   1.974   0.256   0.451  0.0307  1.1812  0.7806
 3480TIP3   OH210396   6.091   0.858   0.316 -0.1049 -0.0484 -0.0174
 3480TIP3    H110397   6.090   0.836   0.409 -0.6641  1.7968  0.4591
 3480TIP3    H210398   5.998   0.867   0.293  0.0730  2.2694 -0.0035
 3481TIP3   OH210399   5.420   0.992   4.879 -0.4594 -0.0283  0.4573
 3481TIP3    H110400   5.371   0.976   4.799 -0.3316  0.9231  0.1813
 3481TIP3    H210401   5.495   0.933   4.874  0.0809  0.7237 -0.6024
 3482TIP3   OH210402   3.990   1.202   4.381  0.2816 -0.4632  0.1530
 3482TIP3    H110403   3.916   1.195   4.441 -0.9739  1.3982 -1.0643
 3482TIP3    H210404   4.044   1.273   4.417  2.2402 -2.5759  1.6946
 3483TIP3   OH210405   3.127   1.962   1.551  0.1181 -0.2358  0.0568
 3483TIP3    H110406   3.180   2.021   1.497 -1.0983  2.7318  1.8507
 3483TIP3    H210407   3.049   1.945   1.498  0.4029 -0.1059 -0.4134
 3484TIP3   OH210408   1.425   6.544   6.052 -0.0851 -0.0467 -0.0076
 3484TIP3    H110409   1.448   6.636   6.055 -2.4554  0.6455 -0.7456
 3484TIP3    H210410   1.489   6.504   5.993  1.2969  0.9828  0.7487
 3485TIP3   OH210411   1.000   6.361   0.186  0.0334 -0.1486 -0.4265
 3485TIP3    H110412   0.916   6.315   0.177  0.3181 -0.4197 -2.0395
 3485TIP3    H210413   0.978   6.453   0.174  0.1230 -0.3354 -2.1989
 3486TIP3   OH210414   4.478   6.637   5.526 -0.3456  0.5324 -0.3383
 3486TIP3    H110415   4.411   6.589   5.574 -0.0316 -0.3664 -0.7721
 3486TIP3    H210416   4.553   6.641   5.586  0.2804 -1.1662 -0.9544
 3487TIP3   OH210417   7.766   7.052   4.323  0.1062 -0.4607 -0.3141
 3487TIP3    H110418   7.824   7.002   4.265 -0.9563 -1.9435 -0.1728
 3487TIP3    H210419   7.713   7.106   4.265 -0.3365 -1.2722 -0.6829
 3488TIP3   OH210420   2.814   4.798   6.594 -0.2517 -0.2657  0.4892
 3488TIP3    H110421   2.877   4.768   6.529  0.2972 -0.5008  1.1249
 3488TIP3    H210422   2.867   4.819   6.671 -0.9678 -0.7307  1.1249
 3489TIP3   OH210423   4.607   1.920   1.411  0.0364  0.0968  0.0537
 3489TIP3    H110424   4.514   1.941   1.419  0.2980  0.5406  2.6786
 3489TIP3    H210425   4.638   1.976   1.339 -1.4549  0.8218 -0.0639
 3490TIP3   OH210426   2.147   2.695   2.734 -0.4692  0.5334 -0.0711
 3490TIP3    H110427   2.134   2.786   2.761  1.4597  0.5910  0.8376
 3490TIP3    H210428   2.186   2.653   2.811 -1.0456 -1.0068 -0.5827
 3491TIP3   OH210429   0.690   7.837   3.060  0.1099  0.0370  0.3551
 3491TIP3    H110430   0.609   7.810   3.016  0.3029  1.1227 -0.7213
 3491TIP3    H210431   0.744   7.759   3.062  0.6580  0.2167 -2.6615
 3492TIP3   OH210432   0.488   6.114   4.325 -0.2963  0.0932  0.1181
 3492TIP3    H110433   0.454   6.155   4.245  1.0766 -0.4610 -0.7915
 3492TIP3    H210434   0.578   6.147   4.332  0.2947 -1.4832  0.2585
 3493TIP3   OH210435   6.816   6.057   6.550 -0.2295 -0.2173 -0.5000
 3493TIP3    H110436   6.902   6.067   6.591  0.3383 -1.9958 -1.1665
 3493TIP3    H210437   6.829   6.085   6.459 -0.3174 -0.6126 -0.6367
 3494TIP3   OH210438   1.864   1.892   0.541  0.3854  0.6242  0.2363
 3494TIP3    H110439   1.811   1.893   0.621 -0.7852 -1.0350 -0.4661
 3494TIP3    H210440   1.934   1.829   0.559  1.2225  1.6165  0.5775
 3495TIP3   OH210441   6.927   3.021   0.211 -0.4386 -0.2821  0.0372
 3495TIP3    H110442   6.989   3.015   0.138 -1.4663 -2.4160 -0.7617
 3495TIP3    H210443   6.917   2.931   0.241 -0.3002  0.5084  2.6510
 3496TIP3   OH210444   3.785   3.122   2.628  0.6690  0.4895  0.2190
 3496TIP3    H110445   3.841   3.192   2.594  0.4368 -0.0954 -1.4504
 3496TIP3    H210446   3.847   3.059   2.666  1.0426  0.5678 -0.2492
 3497TIP3   OH210447   2.805   6.953   2.362  0.0290  0.1019  0.4303
 3497TIP3    H110448   2.850   6.914   2.287 -0.2420 -0.5251  0.5871
 3497TIP3    H210449   2.839   7.042   2.366  0.3083  0.0342 -0.2244
 3498TIP3   OH210450   1.762   1.273   4.711 -0.5972 -0.0842 -0.1876
 3498TIP3    H110451   1.709   1.351   4.721  1.4770  1.5061 -0.9528
 3498TIP3    H210452   1.835   1.300   4.655  0.5010 -2.4109 -0.0017
 3499TIP3   OH210453   7.147   0.848   2.480 -0.3984  0.1034 -0.4241
 3499TIP3    H110454   7.085   0.920   2.468 -2.1140 -1.0333  1.1695
 3499TIP3    H210455   7.149   0.804   2.394 -1.2216  0.6136 -0.7220
 3500TIP3   OH210456   2.627   6.588   2.244 -0.6140  0.3114  0.4211
 3500TIP3    H110457   2.601   6.612   2.155  0.0833 -0.1170  0.0879
 3500TIP3    H210458   2.723   6.584   2.240 -0.6232 -0.8165  0.8945
 3501TIP3   OH210459   1.041   3.887   6.667 -0.3579  0.5354 -0.5999
 3501TIP3    H110460   0.977   3.816   6.667  3.0716 -2.9162 -1.4524
 3501TIP3    H210461   1.032   3.927   6.754 -1.6352 -1.7962  0.4567
 3502TIP3   OH210462   3.338   7.592   5.960 -0.6959 -0.9049  0.1691
 3502TIP3    H110463   3.338   7.505   5.919  0.1262 -1.2259  0.8060
 3502TIP3    H210464   3.335   7.574   6.054 -0.1146 -0.2593  0.3193
 3503TIP3   OH210465   5.708   5.143   3.068  0.2014 -0.0158  0.2698
 3503TIP3    H110466   5.685   5.063   3.117  0.1961 -0.3835 -0.3167
 3503TIP3    H210467   5.623   5.184   3.050  0.1642 -0.1515  0.1271
 3504TIP3   OH210468   5.529   1.608   3.986 -0.2077 -0.3041 -0.2104
 3504TIP3    H110469   5.558   1.521   4.014 -0.5040  0.1615  1.6753
 3504TIP3    H210470   5.528   1.660   4.066 -0.4305  1.3404 -1.2364
 3505TIP3   OH210471   6.464   0.559   6.658  0.0403 -0.2772  0.8228
 3505TIP3    H110472   6.509   0.623   6.602  0.8232 -0.7507  0.8937
 3505TIP3    H210473   6.383   0.603   6.685 -1.0026 -0.5022 -1.6899
 3506TIP3   OH210474   2.732   5.161   5.218  0.0691  0.1219 -0.4116
 3506TIP3    H110475   2.690   5.214   5.150 -0.7185  1.0117  0.7263
 3506TIP3    H210476   2.826   5.174   5.204 -0.0994  1.5288 -0.4031
 3507TIP3   OH210477   1.854   4.707   0.271  0.5322 -0.4383  0.2069
 3507TIP3    H110478   1.805   4.627   0.249 -0.2022 -0.3030  1.2814
 3507TIP3    H210479   1.923   4.677   0.330  1.8766 -0.6421 -1.3699
 3508TIP3   OH210480   5.979   2.588   1.404  0.1974  0.4862  0.0906
 3508TIP3    H110481   6.031   2.512   1.378  0.0170  0.5446 -0.4470
 3508TIP3    H210482   5.924   2.555   1.476  0.2003  0.1364 -0.0631
 3509TIP3   OH210483   5.716   1.056   5.798  0.2516  0.0715 -0.0722
 3509TIP3    H110484   5.657   1.089   5.731  1.2232  0.5452 -0.7176
 3509TIP3    H210485   5.792   1.114   5.794  0.3266  0.1242  1.4594
 3510TIP3   OH210486   0.794   4.395   4.240 -0.1375  0.2244  0.5061
 3510TIP3    H110487   0.889   4.395   4.250  0.3381  0.2729 -2.9615
 3510TIP3    H210488   0.779   4.365   4.151 -3.1999  3.6857 -0.3931
 3511TIP3   OH210489   6.746   5.012   1.729 -0.5167 -0.5707  0.6301
 3511TIP3    H110490   6.787   5.097   1.710 -1.5357 -0.1887  0.0672
 3511TIP3    H210491   6.692   5.028   1.806 -0.8309 -0.6615  0.4301
 3512TIP3   OH210492   3.274   7.793   0.699 -0.6252  0.3833  0.1083
 3512TIP3    H110493   3.266   7.883   0.729 -0.7496  0.2479  0.4825
 3512TIP3    H210494   3.185   7.765   0.682 -0.4645  0.9912 -2.0016
 3513TIP3   OH210495   7.692   6.649   4.340 -0.2074  0.3595  0.6509
 3513TIP3    H110496   7.633   6.703   4.393  0.2526  0.4932  1.0394
 3513TIP3    H210497   7.697   6.694   4.256 -0.6957  0.3182  0.5931
 3514TIP3   OH210498   2.605   3.733   2.939 -1.2912  0.2276 -0.0113
 3514TIP3    H110499   2.641   3.651   2.904  0.3125  1.1958 -0.7813
 3514TIP3    H210500   2.512   3.730   2.917 -0.7448 -0.1422 -2.6174
 3515TIP3   OH210501   7.003   6.721   6.302  0.4753 -0.5932 -0.0950
 3515TIP3    H110502   6.919   6.690   6.336 -0.2068 -0.5342 -1.6636
 3515TIP3    H210503   7.060   6.722   6.379 -1.1595  0.1527  1.1822
 3516TIP3   OH210504   7.559   5.349   6.032  0.2081 -0.1782 -0.4336
 3516TIP3    H110505   7.587   5.267   5.992 -2.9486 -0.7740 -1.7683
 3516TIP3    H210506   7.561   5.333   6.126  1.1502 -1.2090 -0.6132
 3517TIP3   OH210507   3.547   3.753   6.064 -0.1360 -0.0664 -0.2511
 3517TIP3    H110508   3.598   3.683   6.105  1.3133  1.3350  0.4486
 3517TIP3    H210509   3.590   3.768   5.980  0.0124  0.4718 -0.0802
 3518TIP3   OH210510   2.324   4.030   0.352  0.2123 -0.1818  0.0287
 3518TIP3    H110511   2.323   3.935   0.348  1.2302 -0.1845 -0.2789
 3518TIP3    H210512   2.394   4.057   0.293  0.5062  0.7179  0.7573
 3519TIP3   OH210513   7.804   6.132   1.691  0.5381 -0.2561  0.7425
 3519TIP3    H110514   7.710   6.117   1.702 -0.6182  4.0413 -1.0201
 3519TIP3    H210515   7.824   6.096   1.604  0.6022 -1.3560  1.2040
 3520TIP3   OH210516   7.218   0.947   3.755  0.0886 -0.5992  0.0229
 3520TIP3    H110517   7.136   0.963   3.709  0.0927 -0.1958  0.1570
 3520TIP3    H210518   7.201   0.975   3.845 -0.4307 -2.7977  0.6855
 3521TIP3   OH210519   4.285   0.812   0.924 -0.3075 -0.0905  0.3703
 3521TIP3    H110520   4.367   0.825   0.971  0.7938  1.6867 -1.8235
 3521TIP3    H210521   4.268   0.718   0.929 -0.5214  0.0041  4.4943
 3522TIP3   OH210522   0.477   0.387   2.144 -0.8468  0.2628  0.3419
 3522TIP3    H110523   0.539   0.416   2.077 -0.6268 -0.1835  0.3471
 3522TIP3    H210524   0.513   0.304   2.175 -0.3803  0.9588  1.7536
 3523TIP3   OH210525   7.305   2.005   3.578  0.1786  0.8120  0.0739
 3523TIP3    H110526   7.213   2.030   3.580 -0.3675 -1.0358 -0.2575
 3523TIP3    H210527   7.348   2.070   3.633 -1.3538  1.5799  0.4245
 3524TIP3   OH210528   3.258   1.954   0.318  0.5251 -0.3275  0.0486
 3524TIP3    H110529   3.292   1.925   0.233  4.4386  1.6564  0.7320
 3524TIP3    H210530   3.190   2.018   0.297  0.8934 -0.4383 -1.5656
 3525TIP3   OH210531   0.132   0.196   1.557  0.0276  0.4883 -0.0131
 3525TIP3    H110532   0.200   0.235   1.503  1.1091  0.5468  1.3487
 3525TIP3    H210533   0.176   0.173   1.639 -1.0340 -1.6626  0.0254
 3526TIP3   OH210534   8.134   6.613   5.005  0.1472  0.2670 -0.7492
 3526TIP3    H110535   8.085   6.575   4.932  0.1564 -0.8893 -0.1702
 3526TIP3    H210536   8.224   6.617   4.974 -0.0043  0.6879 -1.1473
 3527TIP3   OH210537   6.039   4.845   1.133  0.1253  0.2279  0.0791
 3527TIP3    H110538   5.945   4.850   1.153 -0.2525  0.8626 -1.6367
 3527TIP3    H210539   6.042   4.820   1.041  1.7484 -4.2916  1.1175
 3528TIP3   OH210540   2.690   2.789   5.609  0.0662  0.3646  0.0743
 3528TIP3    H110541   2.595   2.786   5.616  0.0340  1.7333  0.6153
 3528TIP3    H210542   2.720   2.706   5.646 -0.9755 -1.2068 -2.4226
 3529TIP3   OH210543   0.306   6.879   0.229 -0.1823  0.3598  0.3385
 3529TIP3    H110544   0.328   6.857   0.320 -0.5280  0.4913  0.4570
 3529TIP3    H210545   0.298   6.795   0.185 -0.9982  0.2564  0.6686
 3530TIP3   OH210546   6.561   5.389   2.247  0.3934 -0.5151 -0.4134
 3530TIP3    H110547   6.583   5.349   2.331  2.3276  0.1282 -0.5667
 3530TIP3    H210548   6.574   5.483   2.261  1.2503 -0.4450 -1.5617
 3531TIP3   OH210549   5.151   4.366   1.888  0.4137 -0.8009  0.1623
 3531TIP3    H110550   5.063   4.330   1.889  0.1860 -0.4110 -1.8762
 3531TIP3    H210551   5.139   4.460   1.872  1.1782 -0.6684  0.2943
 3532TIP3   OH210552   3.972   2.324   5.352  0.7633  0.1884 -0.1106
 3532TIP3    H110553   3.982   2.381   5.276  0.0189  0.6995  0.1593
 3532TIP3    H210554   3.970   2.385   5.427 -0.0431 -0.1839  0.1849
 3533TIP3   OH210555   1.722   6.409   5.469  0.2937  0.5062  0.2775
 3533TIP3    H110556   1.693   6.499   5.488  0.5988  0.8049 -0.6172
 3533TIP3    H210557   1.719   6.403   5.374  0.8370 -0.2479  0.3057
 3534TIP3   OH210558   6.402   2.667   3.191 -0.0762  0.7410  0.1645
 3534TIP3    H110559   6.388   2.601   3.259  1.9081 -1.2631 -1.2543
 3534TIP3    H210560   6.448   2.738   3.236 -0.9607  0.5602  1.4033
 3535TIP3   OH210561   2.761   1.077   1.812 -0.6056  0.3461 -0.0875
 3535TIP3    H110562   2.671   1.103   1.832 -0.4672 -0.2327  1.4188
 3535TIP3    H210563   2.815   1.147   1.849 -0.4118  0.2590 -0.2067
 3536TIP3   OH210564   4.807   1.479   5.712  0.3070  0.5928 -0.1416
 3536TIP3    H110565   4.722   1.457   5.750  0.3841  1.3162  0.4796
 3536TIP3    H210566   4.786   1.540   5.642  0.3153  0.7758  0.0153
 3537TIP3   OH210567   6.842   1.495   6.156  0.0974  0.5347 -0.3231
 3537TIP3    H110568   6.859   1.514   6.248  0.8760  0.5736 -0.4653
 3537TIP3    H210569   6.779   1.561   6.129 -0.1574  0.5021  0.1922
 3538TIP3   OH210570   0.452   1.771   2.483 -0.6851  0.3258  0.5084
 3538TIP3    H110571   0.374   1.789   2.536 -0.9931 -0.2096  0.2448
 3538TIP3    H210572   0.441   1.680   2.454 -0.0157  0.2832  0.3755
 3539TIP3   OH210573   3.213   7.610   4.135 -0.4999  0.3495  0.3837
 3539TIP3    H110574   3.141   7.672   4.119 -2.1205 -1.1485  1.4480
 3539TIP3    H210575   3.286   7.664   4.163 -0.9515  2.0087 -1.3947
 3540TIP3   OH210576   4.653   2.070   0.427 -0.4286  0.5878  0.4102
 3540TIP3    H110577   4.577   2.062   0.370  1.0616  1.0655 -1.7863
 3540TIP3    H210578   4.691   2.155   0.402  1.6972 -0.3613  0.2413
 3541TIP3   OH210579   1.304   3.563   4.099  0.0184 -0.1417  0.0489
 3541TIP3    H110580   1.333   3.478   4.067  0.1681 -0.4084  0.8844
 3541TIP3    H210581   1.334   3.625   4.032  1.6973 -0.5059  0.4199
 3542TIP3   OH210582   2.496   0.032   0.787  0.1004  0.2902  0.0264
 3542TIP3    H110583   2.432   0.010   0.855  0.0641  2.7466  0.8752
 3542TIP3    H210584   2.576  -0.012   0.815 -0.3936 -0.2563  0.6213
 3543TIP3   OH210585   4.825   2.778   0.967 -0.1156  0.7028 -0.3400
 3543TIP3    H110586   4.743   2.812   0.932 -0.3456 -0.3177 -0.8452
 3543TIP3    H210587   4.861   2.724   0.896 -0.1382 -0.6756  0.6562
 3544TIP3   OH210588   5.400   5.785   5.307 -0.3854 -0.1228 -0.1091
 3544TIP3    H110589   5.355   5.732   5.241  0.0346 -0.1665 -0.3634
 3544TIP3    H210590   5.477   5.818   5.263 -0.5177  0.5126  0.1253
 3545TIP3   OH210591   3.143   0.836   1.417 -0.4920 -0.1377 -0.0164
 3545TIP3    H110592   3.099   0.919   1.397 -0.5627 -0.0134  0.6185
 3545TIP3    H210593   3.098   0.804   1.496 -1.0536 -1.2154 -0.7342
 3546TIP3   OH210594   6.273   3.669   4.107 -0.5141  0.4410 -0.0886
 3546TIP3    H110595   6.225   3.744   4.144  0.0769  0.2834  1.0216
 3546TIP3    H210596   6.268   3.602   4.175  2.7585  1.0038  0.8505
 3547TIP3   OH210597   0.982   0.675   0.328 -0.1975  0.0410  0.0433
 3547TIP3    H110598   1.027   0.697   0.247 -1.7800  0.7309 -0.6972
 3547TIP3    H210599   0.889   0.672   0.304 -0.8775  1.8908  2.1391
 3548TIP3   OH210600   6.551   7.334   1.171  0.3654 -0.2081  0.3829
 3548TIP3    H110601   6.625   7.359   1.227  0.4193 -0.5307  0.4609
 3548TIP3    H210602   6.554   7.395   1.098 -1.1243  1.8230  1.8844
 3549TIP3   OH210603   6.346   4.633   4.861 -0.1177  0.2003 -0.1271
 3549TIP3    H110604   6.257   4.639   4.895 -0.0347 -1.7113  0.5087
 3549TIP3    H210605   6.354   4.709   4.803 -1.5195  1.4281  1.2062
 3550TIP3   OH210606   1.408   7.275   2.220  0.3098  0.4619 -0.2077
 3550TIP3    H110607   1.352   7.252   2.293  2.7285  0.8577  1.9009
 3550TIP3    H210608   1.411   7.371   2.220  1.2945  0.4402 -0.0222
 3551TIP3   OH210609   6.349   1.804   1.294 -0.0740  0.0816 -0.2423
 3551TIP3    H110610   6.259   1.801   1.264  0.1839  0.7573 -1.1299
 3551TIP3    H210611   6.348   1.866   1.367 -0.5933 -1.1050  0.7858
 3552TIP3   OH210612   4.405   0.715   5.859  0.1922 -0.0209  0.1770
 3552TIP3    H110613   4.433   0.777   5.926  3.3616 -1.2124  0.1401
 3552TIP3    H210614   4.416   0.629   5.901  2.0120 -0.7824 -1.6587
 3553TIP3   OH210615   6.485   2.376   4.442 -0.5150 -0.1548  0.4269
 3553TIP3    H110616   6.529   2.460   4.430 -1.3093  0.1570 -0.4880
 3553TIP3    H210617   6.422   2.391   4.513 -1.0144  0.1951 -0.0738
 3554TIP3   OH210618   3.015   3.368   4.433  0.5080  0.2398  0.3478
 3554TIP3    H110619   3.061   3.353   4.350 -0.6302  0.2355 -0.2996
 3554TIP3    H210620   3.043   3.455   4.460  2.6474 -0.6276  1.1533
 3555TIP3   OH210621   7.880   6.342   5.585  0.0872 -0.1208 -0.8724
 3555TIP3    H110622   7.922   6.297   5.512 -0.6644 -0.5965 -1.0332
 3555TIP3    H210623   7.951   6.387   5.631  0.5257  0.4625 -2.0809
 3556TIP3   OH210624   6.264   3.340   1.952 -0.7633  0.1192  0.1153
 3556TIP3    H110625   6.335   3.405   1.946  0.1174 -0.8824 -0.7627
 3556TIP3    H210626   6.211   3.370   2.026  0.6742  0.8163  0.9180
 3557TIP3   OH210627   5.631   4.914   3.202 -0.0084  0.4036  0.6314
 3557TIP3    H110628   5.719   4.879   3.212 -0.1648 -0.2584 -0.1193
 3557TIP3    H210629   5.576   4.836   3.192 -0.7157  0.8004  1.3574
 3558TIP3   OH210630   7.617   3.496   2.547 -0.2473  0.0613 -0.1384
 3558TIP3    H110631   7.531   3.516   2.585  0.5254 -0.8721  2.3128
 3558TIP3    H210632   7.675   3.565   2.580  0.3134 -0.3942 -0.1543
 3559TIP3   OH210633   3.063   2.956   4.979 -0.2478  0.1293 -0.0721
 3559TIP3    H110634   3.035   2.874   4.937  1.3265  0.5968 -2.2231
 3559TIP3    H210635   2.997   2.972   5.047 -1.2965 -2.2509 -0.4217
 3560TIP3   OH210636   5.590   6.268   1.220 -0.2434  0.4756  0.2415
 3560TIP3    H110637   5.637   6.348   1.244  0.7846 -0.3154  0.9602
 3560TIP3    H210638   5.647   6.226   1.155  0.2220 -0.6316  1.3244
 3561TIP3   OH210639   5.821   2.115   1.380  0.2465  0.0300 -0.4814
 3561TIP3    H110640   5.894   2.174   1.400  0.4178 -0.0157 -0.9535
 3561TIP3    H210641   5.782   2.096   1.465 -0.3245  1.4836 -0.3974
 3562TIP3   OH210642   6.744   3.237   6.426 -0.2540 -0.1851 -0.1962
 3562TIP3    H110643   6.759   3.302   6.357  0.1930 -0.7164 -0.6017
 3562TIP3    H210644   6.650   3.220   6.423 -0.2672 -0.0554 -0.5362
 3563TIP3   OH210645   5.663   5.739   6.453 -0.2154  0.4266  0.0551
 3563TIP3    H110646   5.723   5.677   6.410 -3.0052 -2.1135 -0.5019
 3563TIP3    H210647   5.644   5.804   6.385  0.1698 -0.0211 -0.4966
 3564TIP3   OH210648   7.696   0.682   2.091 -0.0676 -0.2037 -0.2322
 3564TIP3    H110649   7.698   0.586   2.089 -0.6165 -0.3388  2.2351
 3564TIP3    H210650   7.747   0.709   2.015 -0.6598 -2.4342 -1.5140
 3565TIP3   OH210651   3.283   6.170   3.660  0.4710  0.1618 -0.2166
 3565TIP3    H110652   3.306   6.260   3.641  0.0418  0.6987  1.6150
 3565TIP3    H210653   3.215   6.148   3.596  0.4124  1.2090 -0.5277
 3566TIP3   OH210654   1.747   7.405   0.247  0.1007  0.0900 -0.2429
 3566TIP3    H110655   1.762   7.459   0.324 -1.0195  0.9728 -0.6228
 3566TIP3    H210656   1.757   7.465   0.173 -0.9064 -0.2621 -0.6837
 3567TIP3   OH210657   8.206   6.844   2.719  0.3725  0.1564 -0.6807
 3567TIP3    H110658   8.229   6.755   2.694  0.7047  0.2979 -0.8922
 3567TIP3    H210659   8.206   6.893   2.636  1.3916  0.6082 -0.4287
 3568TIP3   OH210660   8.305   0.865   0.225  0.5551  0.1678  0.0547
 3568TIP3    H110661   8.346   0.857   0.312  0.8313 -3.4667 -0.2432
 3568TIP3    H210662   8.213   0.882   0.243  0.9877  1.7710  0.9367
 3569TIP3   OH210663   3.216   7.573   0.046  0.4254  1.2300  0.2356
 3569TIP3    H110664   3.262   7.602  -0.033  1.3301  0.0107  0.2824
 3569TIP3    H210665   3.190   7.483   0.026 -0.3087  1.2820  0.9259
 3570TIP3   OH210666   5.195   0.239   2.884  0.2647 -0.2820 -0.1611
 3570TIP3    H110667   5.239   0.305   2.938  0.2178 -0.9858  0.7770
 3570TIP3    H210668   5.103   0.268   2.880  0.4533  0.2582 -0.6430
 3571TIP3   OH210669   6.440   2.842   2.863 -0.0871  0.2225  0.3039
 3571TIP3    H110670   6.411   2.752   2.849 -0.6438  0.4106  0.2373
 3571TIP3    H210671   6.515   2.852   2.805 -0.6485  0.1135 -0.4578
 3572TIP3   OH210672   3.843   7.647   6.560  0.4279  0.1279  0.1392
 3572TIP3    H110673   3.925   7.673   6.518 -0.0138  0.5528 -0.4701
 3572TIP3    H210674   3.779   7.648   6.490 -0.2609  0.5523  0.7588
 3573TIP3   OH210675   7.172   0.019   2.925 -0.3482 -0.0862  0.6001
 3573TIP3    H110676   7.216   0.099   2.954 -2.1545  1.3536 -0.4149
 3573TIP3    H210677   7.241  -0.032   2.883  0.5883  1.5923 -0.0066
 3574TIP3   OH210678   6.830   1.751   5.025  0.4286  0.6103 -0.2041
 3574TIP3    H110679   6.837   1.777   5.117  0.4372  0.3289 -0.1221
 3574TIP3    H210680   6.821   1.833   4.977 -0.5689  0.7129  0.1388
 3575TIP3   OH210681   1.380   1.795   4.359 -0.4830  0.1753 -0.4176
 3575TIP3    H110682   1.325   1.772   4.434  0.8336  0.2321  0.5842
 3575TIP3    H210683   1.393   1.889   4.367 -0.9587  0.3168 -1.1677
 3576TIP3   OH210684   6.332   3.004   1.126  0.4904  0.9129 -0.0314
 3576TIP3    H110685   6.427   2.994   1.118  0.4657  0.9875 -0.4324
 3576TIP3    H210686   6.308   3.063   1.054 -0.1427 -0.8661 -1.3677
 3577TIP3   OH210687   3.999   1.841   1.618 -0.3407 -0.1674  0.0507
 3577TIP3    H110688   4.025   1.876   1.704 -2.4273  1.2537  0.1808
 3577TIP3    H210689   4.021   1.911   1.557  0.2293 -0.7890 -0.4784
 3578TIP3   OH210690   3.322   2.666   2.646 -0.3855 -0.5207 -0.4420
 3578TIP3    H110691   3.402   2.673   2.699 -1.0233  1.5283  0.3373
 3578TIP3    H210692   3.321   2.574   2.618  1.8750 -0.7864  0.0774
 3579TIP3   OH210693   1.221   0.060   4.418 -0.5985 -0.0967  0.4577
 3579TIP3    H110694   1.200   0.025   4.331 -1.1972 -1.5582  1.1428
 3579TIP3    H210695   1.316   0.056   4.422 -0.6494 -3.0397  0.9604
 3580TIP3   OH210696   5.774   5.049   5.533 -0.0627 -0.1846  0.6792
 3580TIP3    H110697   5.820   5.101   5.467  1.9636  0.2828  2.3662
 3580TIP3    H210698   5.709   5.000   5.483 -1.5166  3.2439 -1.1193
 3581TIP3   OH210699   6.089   5.686   0.494  0.3364  0.0209 -0.0465
 3581TIP3    H110700   6.028   5.666   0.423  0.2248 -0.5081  0.1886
 3581TIP3    H210701   6.040   5.664   0.574  0.0367  1.7129  0.2662
 3582TIP3   OH210702   3.537   6.975   0.541  0.5507 -0.1235  0.7689
 3582TIP3    H110703   3.614   7.023   0.511  0.0745  1.8352  2.4826
 3582TIP3    H210704   3.561   6.943   0.628 -0.4152  0.1332  1.1382
 3583TIP3   OH210705   6.991   1.822   0.415 -0.4078 -0.1418 -0.1201
 3583TIP3    H110706   6.969   1.892   0.477 -3.7336  0.8622 -2.1708
 3583TIP3    H210707   6.970   1.741   0.463 -2.9205  0.6019  0.1783
 3584TIP3   OH210708   0.034   6.558   2.640  0.0965  0.0951 -0.2440
 3584TIP3    H110709   0.067   6.619   2.706  1.1163 -1.4216  0.7067
 3584TIP3    H210710   0.077   6.585   2.559  0.8473  0.4040  0.2456
 3585TIP3   OH210711   5.114   5.685   4.113  0.1471 -0.6835  0.0996
 3585TIP3    H110712   5.202   5.655   4.092  0.5109  0.4174 -0.0155
 3585TIP3    H210713   5.084   5.730   4.034 -0.8391 -1.7176 -0.1428
 3586TIP3   OH210714   4.472   4.678   1.336 -0.1361  0.0084  0.1482
 3586TIP3    H110715   4.508   4.596   1.369  1.0312  0.2491 -0.4944
 3586TIP3    H210716   4.514   4.746   1.389 -1.2974  0.2064  0.8612
 3587TIP3   OH210717   0.513   2.960   5.657  0.1670  0.3202 -0.2646
 3587TIP3    H110718   0.605   2.969   5.681  0.7879 -2.1488 -1.3877
 3587TIP3    H210719   0.514   2.939   5.563 -1.5273 -0.0858 -0.2356
 3588TIP3   OH210720   4.462   0.304   1.808 -0.1690 -0.1129 -0.4543
 3588TIP3    H110721   4.470   0.245   1.733 -1.4651 -0.4288 -0.3742
 3588TIP3    H210722   4.546   0.297   1.853  0.2144 -0.7929 -1.2458
 3589TIP3   OH210723   0.721   4.264   3.719  0.2863  0.1096 -0.1108
 3589TIP3    H110724   0.783   4.320   3.671 -0.1198  1.8556  1.2621
 3589TIP3    H210725   0.638   4.275   3.673 -0.0725  1.6733  0.8198
 3590TIP3   OH210726   0.357   1.949   2.677 -0.5766  0.3332  0.5926
 3590TIP3    H110727   0.287   1.988   2.728 -0.9222  2.8746 -1.5780
 3590TIP3    H210728   0.411   2.023   2.649  2.3851 -1.3953  1.2185
 3591TIP3   OH210729   0.431   6.271   0.814 -0.4773 -0.2357 -0.1109
 3591TIP3    H110730   0.479   6.353   0.805  0.6884 -0.9481 -0.7065
 3591TIP3    H210731   0.487   6.217   0.870  0.5049 -1.8245 -2.4568
 3592TIP3   OH210732   0.066   4.437   5.421  0.2201  0.4913 -0.1173
 3592TIP3    H110733   0.012   4.507   5.384 -0.0318 -0.4355 -1.5735
 3592TIP3    H210734   0.011   4.396   5.488 -1.3798 -1.1267 -2.3092
 3593TIP3   OH210735   0.604   7.161   3.801 -0.0360 -0.2317  0.5664
 3593TIP3    H110736   0.663   7.142   3.728 -0.5723 -1.8637  0.4957
 3593TIP3    H210737   0.622   7.251   3.825 -0.0190  0.4448 -1.7550
 3594TIP3   OH210738   2.544   4.504   4.923 -0.5995 -0.1501  0.4837
 3594TIP3    H110739   2.495   4.429   4.889  0.2191 -1.1620  1.4574
 3594TIP3    H210740   2.634   4.490   4.891 -0.3575  0.2156  0.9895
 3595TIP3   OH210741   4.232   0.843   1.929  0.1233  0.0937  0.0319
 3595TIP3    H110742   4.261   0.841   1.838 -1.4735 -0.9870 -0.4971
 3595TIP3    H210743   4.253   0.756   1.964 -1.1286 -0.2382  0.0372
 3596TIP3   OH210744   7.260   1.848   1.316  0.2450 -0.8380  0.4666
 3596TIP3    H110745   7.278   1.881   1.404  0.2212  2.2229 -0.5288
 3596TIP3    H210746   7.255   1.753   1.325  0.5359 -0.6353  3.6787
 3597TIP3   OH210747   7.077   6.247   2.623 -0.4304 -0.0884 -0.7120
 3597TIP3    H110748   7.074   6.324   2.679  2.7741  0.6752 -1.3899
 3597TIP3    H210749   7.101   6.175   2.682  0.2732  0.1923 -0.6435
 3598TIP3   OH210750   1.104   4.911   1.681  0.2323 -0.5951 -0.5641
 3598TIP3    H110751   1.166   4.970   1.638  1.5722 -0.7292  1.0861
 3598TIP3    H210752   1.098   4.945   1.771 -2.4416 -0.3347 -0.7661
 3599TIP3   OH210753   4.075   4.578   6.366 -0.9850  0.8471  0.4454
 3599TIP3    H110754   4.065   4.489   6.400 -0.1914  0.7241  0.3637
 3599TIP3    H210755   4.077   4.567   6.271  1.5384  0.6633  0.4638
 3600TIP3   OH210756   4.151   3.875   2.507 -0.1152 -0.0379  0.2924
 3600TIP3    H110757   4.166   3.886   2.601 -1.8244 -3.4900  1.1215
 3600TIP3    H210758   4.169   3.961   2.470  1.8093  1.1588  3.5830
 3601TIP3   OH210759   2.189   1.915   4.999  0.0692 -0.5436  0.2934
 3601TIP3    H110760   2.188   2.009   4.982  3.3928 -0.0509  1.9843
 3601TIP3    H210761   2.215   1.876   4.915  1.4220  0.3554  0.2613
 3602TIP3   OH210762   6.773   5.122   0.785 -0.1212 -0.2724 -0.3336
 3602TIP3    H110763   6.856   5.094   0.746 -0.2809 -0.7103 -0.3659
 3602TIP3    H210764   6.799   5.170   0.864  0.1545 -0.8374 -0.0714
 3603TIP3   OH210765   1.410   4.840   3.786 -0.2463 -0.1786  0.4854
 3603TIP3    H110766   1.459   4.898   3.844  1.4994 -0.5890 -0.5037
 3603TIP3    H210767   1.322   4.835   3.824 -0.4461  3.0097  0.6506
 3604TIP3   OH210768   2.479   4.044   6.008  0.0264  0.1111  0.4127
 3604TIP3    H110769   2.429   4.110   5.960  1.3237  1.2418  0.5666
 3604TIP3    H210770   2.563   4.086   6.028  1.5108 -2.0850 -0.8071
 3605TIP3   OH210771   8.132   5.182   5.946  0.2519  0.4888 -0.0004
 3605TIP3    H110772   8.156   5.235   6.022 -2.5637  0.1486  1.2353
 3605TIP3    H210773   8.049   5.219   5.916  0.0137 -1.0125 -1.3149
 3606TIP3   OH210774   5.719   0.569   5.064  0.3788 -0.6436 -0.1566
 3606TIP3    H110775   5.682   0.585   4.977  1.7617  1.2862 -0.4542
 3606TIP3    H210776   5.814   0.565   5.049  0.5590 -2.1672  1.0352
 3607TIP3   OH210777   2.079   1.911   2.595  0.3369  0.2550 -0.0670
 3607TIP3    H110778   2.139   1.961   2.649 -0.0656  1.3994 -0.6428
 3607TIP3    H210779   1.997   1.961   2.597 -0.8563 -1.6440  1.2851
 3608TIP3   OH210780   4.437   5.264   1.506  0.4878  0.2911  0.1135
 3608TIP3    H110781   4.483   5.310   1.576 -1.8252  0.6495  1.4991
 3608TIP3    H210782   4.364   5.321   1.483 -1.0493 -1.5532  0.1744
 3609TIP3   OH210783   7.845   1.160   5.331  0.3814  0.0285 -0.2543
 3609TIP3    H110784   7.827   1.122   5.417 -0.7556 -0.7376 -0.8095
 3609TIP3    H210785   7.920   1.217   5.346  0.7108 -0.7018  1.0835
 3610TIP3   OH210786   4.464   3.954   1.073  0.4346  0.3129 -0.4505
 3610TIP3    H110787   4.520   4.029   1.052 -0.5495  0.8905 -1.1141
 3610TIP3    H210788   4.442   3.966   1.166  0.6430  0.5997 -0.4376
 3611TIP3   OH210789   2.886   0.379   2.668  0.0469 -0.4962 -0.3509
 3611TIP3    H110790   2.867   0.335   2.751 -0.4725  3.3577  1.7820
 3611TIP3    H210791   2.981   0.388   2.665  0.1805 -1.7775 -0.9233
 3612TIP3   OH210792   2.630   0.218   0.622  0.0628 -0.2520  0.6684
 3612TIP3    H110793   2.584   0.179   0.697  1.9706 -2.7256  0.6663
 3612TIP3    H210794   2.650   0.144   0.565 -0.9783  1.5058 -2.1858
 3613TIP3   OH210795   3.789   0.424   4.575 -0.4400  0.5211 -0.2460
 3613TIP3    H110796   3.771   0.331   4.561 -2.1411  0.4954  1.6048
 3613TIP3    H210797   3.742   0.445   4.656  0.3392  2.8753 -0.3423
 3614TIP3   OH210798   7.035   1.973   5.994 -0.0798  0.2045 -0.3171
 3614TIP3    H110799   7.023   2.057   6.039 -1.2408  1.3110 -2.5064
 3614TIP3    H210800   6.947   1.935   5.991  0.2685 -0.6316 -0.2399
 3615TIP3   OH210801   3.685   5.104   0.781  0.0792  0.4682 -0.7328
 3615TIP3    H110802   3.611   5.156   0.748  0.0538  0.0422 -1.3676
 3615TIP3    H210803   3.653   5.066   0.863  0.7484  2.9809  0.8106
 3616TIP3   OH210804   5.263   5.356   3.427  0.0419  0.4020  0.0817
 3616TIP3    H110805   5.211   5.289   3.472 -1.4357  0.9660 -0.7201
 3616TIP3    H210806   5.249   5.338   3.334 -1.0978  2.2986 -0.1786
 3617TIP3   OH210807   5.751   0.335   0.914 -0.2446  0.7026 -0.5532
 3617TIP3    H110808   5.785   0.425   0.920 -1.7308  1.2458  0.1872
 3617TIP3    H210809   5.657   0.344   0.928 -0.1124 -1.2582  2.8080
 3618TIP3   OH210810   2.524   0.373   3.654 -0.1642  0.1738 -0.2488
 3618TIP3    H110811   2.589   0.320   3.609 -1.2665 -1.3798 -0.0682
 3618TIP3    H210812   2.448   0.317   3.663 -0.9770  1.3887  1.0205
 3619TIP3   OH210813   4.341   5.940   0.459 -0.2050 -0.0555 -0.0250
 3619TIP3    H110814   4.269   5.913   0.401  0.8632  0.3812 -1.6182
 3619TIP3    H210815   4.420   5.908   0.415  0.8816  2.8957 -0.4229
 3620TIP3   OH210816   2.829   1.634   0.407 -0.5016 -0.3083  0.2533
 3620TIP3    H110817   2.770   1.558   0.408 -0.0700 -0.6451  1.1066
 3620TIP3    H210818   2.917   1.596   0.404 -0.2619  0.1263  1.1879
 3621TIP3   OH210819   7.617   4.774   2.632  0.1871  0.4502  0.1215
 3621TIP3    H110820   7.681   4.842   2.654  0.5478  0.2681 -0.3465
 3621TIP3    H210821   7.535   4.805   2.670  0.7096  0.3071  1.3995
 3622TIP3   OH210822   1.329   0.383   5.119 -0.6688 -0.1220  0.0337
 3622TIP3    H110823   1.343   0.338   5.036 -0.0438 -0.6277  0.4079
 3622TIP3    H210824   1.236   0.406   5.118 -0.2347  1.9189 -1.8133
 3623TIP3   OH210825   7.511   2.282   5.060 -0.5690 -0.6184 -0.1914
 3623TIP3    H110826   7.454   2.326   5.123  1.6926  1.7524  0.4007
 3623TIP3    H210827   7.576   2.236   5.114 -1.0098 -2.0331 -0.8330
 3624TIP3   OH210828   5.092   6.749   3.676  0.0918  0.0962 -0.0664
 3624TIP3    H110829   5.046   6.694   3.612  0.6209  1.1228 -1.3748
 3624TIP3    H210830   5.183   6.751   3.646  0.0285  1.9213 -0.2540
 3625TIP3   OH210831   6.957   1.043   1.173 -0.0213 -0.3663  0.5411
 3625TIP3    H110832   6.922   0.954   1.169 -1.0708 -0.1023  2.3786
 3625TIP3    H210833   7.016   1.041   1.248  1.2868  0.0866 -0.4472
 3626TIP3   OH210834   3.716   1.678   5.013 -0.3035  0.4434 -0.0478
 3626TIP3    H110835   3.752   1.696   4.927  1.3703  0.0641  0.5275
 3626TIP3    H210836   3.655   1.606   4.999 -1.2938  1.4581 -1.1443
 3627TIP3   OH210837   5.425   6.157   5.206  0.2816 -0.1985 -0.2632
 3627TIP3    H110838   5.414   6.128   5.296 -1.1520 -2.1587 -0.9943
 3627TIP3    H210839   5.517   6.180   5.198  0.1561  1.4610  2.0522
 3628TIP3   OH210840   3.676   3.469   5.142  0.5729  0.1288  0.1649
 3628TIP3    H110841   3.655   3.479   5.049 -1.5350  1.5201  0.7160
 3628TIP3    H210842   3.657   3.377   5.161 -2.6510  0.6596 -0.0313
 3629TIP3   OH210843   4.908   1.642   2.162 -0.0429 -0.1161 -0.1978
 3629TIP3    H110844   4.890   1.567   2.106  0.3964  0.5872 -1.2988
 3629TIP3    H210845   4.992   1.622   2.204 -2.1339 -2.5212  3.4732
 3630TIP3   OH210846   7.605   5.954   4.817 -0.3205  0.4369  0.3611
 3630TIP3    H110847   7.631   5.933   4.907  0.6945 -1.0298 -0.2401
 3630TIP3    H210848   7.671   5.911   4.763 -0.5070  1.8819 -1.0892
 3631TIP3   OH210849   4.736   4.834   0.918  0.2664 -0.2429 -0.0467
 3631TIP3    H110850   4.772   4.860   0.833 -0.8230  1.3202 -0.0715
 3631TIP3    H210851   4.742   4.738   0.919  2.7386 -0.1505 -0.7534
 3632TIP3   OH210852   4.577   6.129   3.154 -0.1315 -0.0454 -0.2266
 3632TIP3    H110853   4.504   6.073   3.181  1.3127 -2.0369 -0.2337
 3632TIP3    H210854   4.568   6.207   3.208 -0.1670 -1.8096  2.5300
 3633TIP3   OH210855   0.554   1.143   3.912 -0.1318  0.4127  0.4111
 3633TIP3    H110856   0.477   1.198   3.898 -0.7421 -0.8030 -1.3625
 3633TIP3    H210857   0.629   1.202   3.901 -0.7737  1.0206 -0.8606
 3634TIP3   OH210858   1.329   2.810   2.595 -0.1102 -0.1607 -0.5863
 3634TIP3    H110859   1.386   2.885   2.578  0.5833 -0.3988  0.5853
 3634TIP3    H210860   1.268   2.841   2.661  1.2764 -1.1077  1.2053
 3635TIP3   OH210861   3.919   2.357   6.235 -0.2185 -0.2848  0.4897
 3635TIP3    H110862   3.856   2.410   6.185 -0.4411 -0.4516  0.5934
 3635TIP3    H210863   3.982   2.328   6.169 -0.9484 -1.1655  0.1516
 3636TIP3   OH210864   2.180   5.817   0.533  0.0817  0.1860 -0.2887
 3636TIP3    H110865   2.205   5.817   0.441  0.5373 -0.6675 -0.1793
 3636TIP3    H210866   2.085   5.802   0.532  0.1316 -0.1185 -0.6100
 3637TIP3   OH210867   3.032   4.585   6.204 -0.1976 -0.0805 -0.1142
 3637TIP3    H110868   3.050   4.649   6.135  0.7574 -0.2750 -0.0682
 3637TIP3    H210869   3.118   4.549   6.225 -0.4814 -0.0389  1.1722
 3638TIP3   OH210870   2.567   6.215   6.557  0.6896 -0.2646  0.1402
 3638TIP3    H110871   2.649   6.264   6.562 -0.5659  2.1746 -1.3419
 3638TIP3    H210872   2.534   6.214   6.647  0.6867  1.8446  0.2123
 3639TIP3   OH210873   0.070   5.732   5.794 -0.1776  0.0951 -0.0530
 3639TIP3    H110874   0.092   5.753   5.703 -1.4685  0.2616 -0.3396
 3639TIP3    H210875  -0.024   5.748   5.801 -0.0499  0.3959  1.4039
 3640TIP3   OH210876   4.223   2.649   6.700 -0.2116  0.5984 -0.2118
 3640TIP3    H110877   4.316   2.666   6.715 -0.3861  0.8467  0.6473
 3640TIP3    H210878   4.211   2.557   6.723 -0.1175  0.4722 -0.6541
 3641TIP3   OH210879   1.167   7.194   2.048 -0.0859  0.2249 -0.0890
 3641TIP3    H110880   1.171   7.290   2.042 -2.7968  0.3658 -1.3343
 3641TIP3    H210881   1.168   7.176   2.142 -1.4056  1.6803  0.2564
 3642TIP3   OH210882   6.966   3.428   3.753 -0.0441 -0.6062  0.5940
 3642TIP3    H110883   7.036   3.491   3.738 -0.4966 -0.7396 -3.1679
 3642TIP3    H210884   6.894   3.480   3.790  0.8420  0.2749  1.1176
 3643TIP3   OH210885   2.649   2.664   0.500  1.0353  0.2530 -0.5895
 3643TIP3    H110886   2.574   2.652   0.558  1.3180  2.9516  0.4846
 3643TIP3    H210887   2.646   2.588   0.441 -3.1859  0.7361 -1.3647
 3644TIP3   OH210888   1.345   0.899   3.347  0.3305  0.0765  0.3599
 3644TIP3    H110889   1.309   0.912   3.259 -2.9714 -0.5824  1.4673
 3644TIP3    H210890   1.337   0.805   3.362  0.2204  0.2618  1.5771
 3645TIP3   OH210891   7.193   5.337   2.553 -0.0857  0.0229  0.1042
 3645TIP3    H110892   7.256   5.297   2.493  1.2365  0.7937  0.9415
 3645TIP3    H210893   7.207   5.292   2.637 -0.9608 -0.0952  0.2007
 3646TIP3   OH210894   3.740   0.124   4.597  0.2765 -0.0642  0.1298
 3646TIP3    H110895   3.789   0.045   4.619 -0.7677 -0.7818 -0.0628
 3646TIP3    H210896   3.657   0.092   4.561 -0.3921  1.1188  0.5596
 3647TIP3   OH210897   3.474   3.293   3.520 -0.1789 -0.2425  0.0462
 3647TIP3    H110898   3.384   3.315   3.498  0.4667  0.3967 -2.2422
 3647TIP3    H210899   3.494   3.216   3.467  1.3427  1.1208 -1.5181
 3648TIP3   OH210900   0.345   3.837   1.926 -0.3273  0.1755 -0.6159
 3648TIP3    H110901   0.392   3.917   1.950  0.4509 -0.6684  0.8366
 3648TIP3    H210902   0.260   3.846   1.968 -0.5776  0.6045 -1.1892
 3649TIP3   OH210903   4.155   7.610   1.846 -0.0708  0.5146 -0.8594
 3649TIP3    H110904   4.241   7.651   1.844  0.7091 -1.0091 -0.1329
 3649TIP3    H210905   4.141   7.581   1.755 -0.0409  1.1717 -1.0810
 3650TIP3   OH210906   6.830   7.698   2.447  0.0527  0.3020  0.1704
 3650TIP3    H110907   6.822   7.607   2.474  0.3277  0.6361  1.4343
 3650TIP3    H210908   6.924   7.709   2.430 -0.2919 -0.3211 -2.5688
 3651TIP3   OH210909   1.046   7.635   4.618 -0.6910 -0.0539  0.2725
 3651TIP3    H110910   1.133   7.597   4.613 -1.4430 -2.1887  1.9342
 3651TIP3    H210911   1.028   7.641   4.712 -2.2755  0.4857 -0.0281
 3652TIP3   OH210912   8.062   5.498   6.047  0.1243 -0.4082  0.2672
 3652TIP3    H110913   8.111   5.448   6.113 -0.6338 -0.4888  0.7808
 3652TIP3    H210914   7.993   5.439   6.018 -0.3953  0.1086  0.4208
 3653TIP3   OH210915   7.039   5.907   0.568 -0.1505  0.1202  0.6483
 3653TIP3    H110916   7.124   5.896   0.612  0.5793  2.6389  0.0611
 3653TIP3    H210917   6.995   5.822   0.578  1.8368 -0.8085  2.2181
 3654TIP3   OH210918   0.938   6.123   0.869 -0.1051  0.2070 -0.3218
 3654TIP3    H110919   0.894   6.043   0.897  0.2272  0.0447 -0.2613
 3654TIP3    H210920   0.874   6.168   0.814  0.4018 -1.0537 -2.0128
 3655TIP3   OH210921   3.808   4.723   4.401 -0.3394 -0.5082 -0.3993
 3655TIP3    H110922   3.854   4.639   4.407  1.0579  0.1943 -0.8970
 3655TIP3    H210923   3.757   4.727   4.482  0.6187 -1.2476  0.2815
 3656TIP3   OH210924   1.114   2.665   2.126 -0.1089 -0.3250  0.1587
 3656TIP3    H110925   1.075   2.745   2.091 -0.7016 -0.2306  1.0088
 3656TIP3    H210926   1.045   2.600   2.120 -0.3413 -0.2277  1.4137
 3657TIP3   OH210927   1.930   2.681   2.520  0.7199 -0.2662 -0.2208
 3657TIP3    H110928   1.944   2.765   2.563 -2.5293  1.1134 -1.5625
 3657TIP3    H210929   1.951   2.697   2.428  2.1206 -1.5944 -0.1798
 3658TIP3   OH210930   6.974   2.677   0.999  0.1263 -0.0980 -0.5268
 3658TIP3    H110931   6.953   2.762   1.039  1.4240 -0.4378  0.9400
 3658TIP3    H210932   6.948   2.612   1.064  1.5808 -0.6954 -0.5032
 3659TIP3   OH210933   5.864   3.908   1.184 -0.8557  0.6463 -0.2837
 3659TIP3    H110934   5.774   3.881   1.167 -0.9285  1.2204 -0.8303
 3659TIP3    H210935   5.910   3.826   1.205 -1.1308  0.1263 -1.6405
 3660TIP3   OH210936   2.842   6.606   2.605  0.2804 -0.3939 -0.2918
 3660TIP3    H110937   2.802   6.520   2.621  3.5410 -1.8091  1.0842
 3660TIP3    H210938   2.843   6.648   2.691  2.8094 -0.9993  0.0570
 3661TIP3   OH210939   6.793   2.857   3.635 -0.1515  0.7201  0.2414
 3661TIP3    H110940   6.810   2.821   3.548  0.7994 -0.1759  0.7775
 3661TIP3    H210941   6.816   2.949   3.628 -0.6192  0.7889 -0.5941
 3662TIP3   OH210942   6.806   4.172   4.983  0.4468  0.2200 -0.4781
 3662TIP3    H110943   6.825   4.093   4.932  1.4145 -1.4230  2.2050
 3662TIP3    H210944   6.739   4.144   5.046 -0.4047  2.0329 -0.5067
 3663TIP3   OH210945   1.012   2.236   0.632 -0.1676  0.2437 -0.3439
 3663TIP3    H110946   1.018   2.161   0.691  0.7427 -0.4650 -1.2972
 3663TIP3    H210947   0.944   2.291   0.670 -0.7352 -0.9749  0.4756
 3664TIP3   OH210948   1.012   4.823   1.946 -0.1931 -0.3496 -0.0376
 3664TIP3    H110949   1.078   4.782   1.890 -1.0514 -1.0268 -0.5787
 3664TIP3    H210950   0.935   4.833   1.890 -1.2702 -1.5597  1.1460
 3665TIP3   OH210951   4.431   5.203   2.159  0.7508  0.4610 -0.0793
 3665TIP3    H110952   4.480   5.285   2.157  1.5007  0.0138 -0.2884
 3665TIP3    H210953   4.455   5.158   2.078 -0.9973  0.7886 -0.8397
 3666TIP3   OH210954   3.131   0.261   1.871  0.4462 -0.3866 -0.5785
 3666TIP3    H110955   3.048   0.296   1.902 -0.1906 -2.0481 -0.3191
 3666TIP3    H210956   3.120   0.166   1.875  1.6509 -0.6591 -2.3999
 3667TIP3   OH210957   6.404   1.040   6.097 -0.5671 -0.1532  0.1364
 3667TIP3    H110958   6.411   0.952   6.060 -2.1152 -0.4153  0.3828
 3667TIP3    H210959   6.451   1.096   6.036  0.1802 -1.1034 -0.1835
 3668TIP3   OH210960   2.774   2.553   2.306  0.1631 -0.1967  0.1908
 3668TIP3    H110961   2.867   2.540   2.289 -0.0006  0.5935 -1.4331
 3668TIP3    H210962   2.735   2.467   2.296  0.8111 -0.6927  1.6867
 3669TIP3   OH210963   0.834   5.980   0.324  0.4355 -0.4446 -0.6088
 3669TIP3    H110964   0.817   6.061   0.276  0.9603  0.1388  0.1638
 3669TIP3    H210965   0.895   6.006   0.393 -1.3245 -0.9794  1.2204
 3670TIP3   OH210966   4.316   4.222   0.455 -0.3474 -0.6502 -0.6972
 3670TIP3    H110967   4.268   4.256   0.530 -0.4368  0.4621 -1.2212
 3670TIP3    H210968   4.340   4.133   0.479 -0.9392 -0.5364  0.3756
 3671TIP3   OH210969   5.658   3.199   5.673 -0.1904 -0.4348 -0.2422
 3671TIP3    H110970   5.608   3.118   5.683 -1.0721  0.2316  0.9310
 3671TIP3    H210971   5.717   3.201   5.748 -0.2810  0.0845 -0.1808
 3672TIP3   OH210972   7.195   7.799   6.539  0.0234  0.2929 -0.1612
 3672TIP3    H110973   7.194   7.721   6.594 -1.7761 -1.1897 -2.1342
 3672TIP3    H210974   7.279   7.794   6.493 -0.3811 -0.9265 -0.8093
 3673TIP3   OH210975   6.771   6.653   3.767 -0.5255  0.1932 -0.0218
 3673TIP3    H110976   6.726   6.569   3.776  0.4999 -0.1768  2.8421
 3673TIP3    H210977   6.864   6.632   3.775 -0.3073  1.6800  2.8787
 3674TIP3   OH210978   8.055   6.129   2.838  0.3355 -0.3248  0.3059
 3674TIP3    H110979   8.079   6.222   2.833 -1.9813  0.3863  1.1077
 3674TIP3    H210980   8.019   6.109   2.752  1.7536 -0.7909 -0.1974
 3675TIP3   OH210981   1.554   7.110   6.143 -0.2114 -0.3851  0.3242
 3675TIP3    H110982   1.637   7.148   6.115 -0.8672  0.7129 -0.1993
 3675TIP3    H210983   1.578   7.046   6.211  1.1852 -1.2001 -0.8745
 3676TIP3   OH210984   3.552   5.545   1.729  0.0802 -0.1431  0.7366
 3676TIP3    H110985   3.640   5.542   1.691 -0.4271  0.0342 -0.4740
 3676TIP3    H210986   3.545   5.633   1.765 -0.0196  0.2416 -0.2052
 3677TIP3   OH210987   3.758   6.958   4.873  0.3540 -0.0685 -0.3784
 3677TIP3    H110988   3.683   6.927   4.822  0.6497 -0.0707 -0.8154
 3677TIP3    H210989   3.738   6.931   4.963  1.2360 -2.8552 -0.9076
 3678TIP3   OH210990   4.087   1.050   3.597 -0.0095  0.7819  0.2269
 3678TIP3    H110991   4.070   1.104   3.520 -1.7394 -0.9747 -0.7071
 3678TIP3    H210992   4.036   0.970   3.583  1.4967 -0.6219  2.0926
 3679TIP3   OH210993   0.471   1.670   0.796 -0.0978 -0.2109 -0.2509
 3679TIP3    H110994   0.393   1.649   0.847 -0.2019  0.1869 -0.2404
 3679TIP3    H210995   0.525   1.721   0.855  1.3993 -2.6878  0.6585
 3680TIP3   OH210996   7.741   2.915   3.725  0.0249  0.0159 -0.6843
 3680TIP3    H110997   7.743   2.979   3.797  0.5322 -1.2448  0.4791
 3680TIP3    H210998   7.660   2.934   3.678 -0.4406  0.7368  0.3638
 3681TIP3   OH210999   0.223   7.327   4.862 -0.3000  0.2006 -0.0747
 3681TIP3    H111000   0.155   7.307   4.926  0.3287  0.2295  0.6135
 3681TIP3    H211001   0.225   7.252   4.804 -1.6966  0.6933 -0.7872
 3682TIP3   OH211002   0.439   4.489   1.604  0.4484 -0.5106  0.3664
 3682TIP3    H111003   0.489   4.418   1.564  0.0873 -1.2441  1.1758
 3682TIP3    H211004   0.371   4.511   1.541  0.8253 -0.5865 -0.0682
 3683TIP3   OH211005   6.401   3.164   1.681 -0.0183 -0.5873 -0.4477
 3683TIP3    H111006   6.482   3.208   1.654  0.3122  0.9522  2.5289
 3683TIP3    H211007   6.378   3.108   1.608  2.7688  0.2615 -2.1330
 3684TIP3   OH211008   5.699   6.617   4.403 -0.0824 -0.0677 -0.0065
 3684TIP3    H111009   5.786   6.649   4.381 -0.0631 -1.0314 -1.4313
 3684TIP3    H211010   5.641   6.691   4.388  0.5639  0.8995  1.9103
 3685TIP3   OH211011   8.029   2.959   3.085 -0.0266 -0.0316 -0.3940
 3685TIP3    H111012   8.093   3.010   3.135 -0.9376 -1.3638  2.2763
 3685TIP3    H211013   8.081   2.909   3.023  1.1550  1.5780 -0.7753
 3686TIP3   OH211014   0.248   6.461   0.961 -0.4958  0.1971  0.4245
 3686TIP3    H111015   0.298   6.529   0.917 -2.1520  1.5970  0.5886
 3686TIP3    H211016   0.223   6.500   1.045  1.1261 -1.7829  1.9305
 3687TIP3   OH211017   3.886   2.277   3.503 -0.2758 -0.4492 -0.1506
 3687TIP3    H111018   3.843   2.362   3.512 -1.4334 -1.1102  0.7211
 3687TIP3    H211019   3.908   2.272   3.410 -1.4835  0.2075 -0.4943
 3688TIP3   OH211020   6.561   1.352   4.019  0.2277 -0.1933  0.1249
 3688TIP3    H111021   6.596   1.335   3.931 -0.2304 -0.5243 -0.0020
 3688TIP3    H211022   6.631   1.398   4.065  0.4754 -0.0261 -0.4123
 3689TIP3   OH211023   6.862   4.533   6.443  0.0615 -0.3334 -0.0140
 3689TIP3    H111024   6.851   4.585   6.363 -0.2129  1.4128  1.0962
 3689TIP3    H211025   6.877   4.444   6.412 -1.9573 -0.0710 -1.9554
 3690TIP3   OH211026   4.139   0.642   3.753 -0.3426 -0.7088 -0.7685
 3690TIP3    H111027   4.226   0.669   3.724 -0.5020  2.1673  0.9402
 3690TIP3    H211028   4.097   0.724   3.780 -1.9687 -2.4160  2.5717
 3691TIP3   OH211029   0.027   0.454   5.475 -0.3830 -0.1390  0.0234
 3691TIP3    H111030  -0.047   0.394   5.471  0.7480 -1.5765 -0.3332
 3691TIP3    H211031   0.025   0.501   5.392  0.0657 -1.4051 -0.7315
 3692TIP3   OH211032   2.152   3.895   2.310 -0.5624 -0.2846 -0.7861
 3692TIP3    H111033   2.245   3.910   2.294  0.3798 -1.5239  2.6464
 3692TIP3    H211034   2.140   3.802   2.292 -1.1608 -0.1130 -1.2763
 3693TIP3   OH211035   8.221   2.869   3.373  0.1686  0.1651 -0.4743
 3693TIP3    H111036   8.154   2.890   3.438  1.8814  1.4318  0.9826
 3693TIP3    H211037   8.238   2.951   3.328  0.9894 -0.0519 -0.5762
 3694TIP3   OH211038   1.134   7.482   5.293 -0.0782 -0.5129  0.1265
 3694TIP3    H111039   1.137   7.527   5.377 -0.5731  0.8295 -0.5454
 3694TIP3    H211040   1.166   7.547   5.230 -0.5286 -1.2046 -0.8362
 3695TIP3   OH211041   0.385   7.535   5.363  0.8797 -0.1348 -0.2221
 3695TIP3    H111042   0.466   7.486   5.354  2.2881  2.3814 -3.0240
 3695TIP3    H211043   0.398   7.590   5.440  1.4485 -0.4332 -0.1009
 3696TIP3   OH211044   0.544   1.792   0.199 -0.0059  0.2544 -0.3350
 3696TIP3    H111045   0.539   1.827   0.110 -0.9533  2.0814  0.3894
 3696TIP3    H211046   0.499   1.857   0.253 -0.1382 -1.1904  1.3836
 3697TIP3   OH211047   3.142   1.452   0.938 -0.2977  0.2895  0.3762
 3697TIP3    H111048   3.070   1.515   0.935 -1.1249 -0.5769  1.4543
 3697TIP3    H211049   3.118   1.383   0.876 -1.5695 -1.1578  2.3637
 3698TIP3   OH211050   1.314   7.518   4.320 -0.1706 -0.8710  0.0706
 3698TIP3    H111051   1.307   7.580   4.247  0.8051  0.3245  0.9411
 3698TIP3    H211052   1.408   7.506   4.332 -0.3283 -1.4717  0.7859
 3699TIP3   OH211053   1.253   3.087   0.408  0.6798 -0.3049  1.1339
 3699TIP3    H111054   1.329   3.086   0.351  0.7587 -0.2192  1.2374
 3699TIP3    H211055   1.179   3.102   0.349  0.8659  0.8759  1.1775
 3700TIP3   OH211056   4.669   1.082   1.521 -0.2529 -0.1312  0.2741
 3700TIP3    H111057   4.752   1.113   1.484 -0.5330 -1.4071 -1.5708
 3700TIP3    H211058   4.610   1.075   1.446 -1.0572 -2.2415  1.0255
 3701TIP3   OH211059   5.410   1.611   3.090  0.1821 -0.4736  0.7091
 3701TIP3    H111060   5.373   1.526   3.065 -1.3809  0.6543 -1.0930
 3701TIP3    H211061   5.505   1.597   3.090 -0.0593 -2.3589  1.0841
 3702TIP3   OH211062   5.716   3.663   5.425 -0.0966 -0.1774  0.0156
 3702TIP3    H111063   5.629   3.634   5.399 -1.6249  1.8210  2.5637
 3702TIP3    H211064   5.755   3.586   5.466 -1.1089 -0.7561 -0.0739
 3703TIP3   OH211065   5.793   6.654   1.495  0.8381 -0.4094  0.3496
 3703TIP3    H111066   5.781   6.736   1.446 -0.3043  0.3916  1.8772
 3703TIP3    H211067   5.706   6.613   1.494  0.5836 -0.0005  2.2803
 3704TIP3   OH211068   0.005   7.293   5.775 -0.8611 -0.4638 -0.2869
 3704TIP3    H111069   0.096   7.273   5.752 -0.4499  0.4547  0.4807
 3704TIP3    H211070  -0.047   7.227   5.727  0.3901 -3.5863  2.2665
 3705TIP3   OH211071   2.413  -0.011   3.391  0.1109 -0.0087  0.0062
 3705TIP3    H111072   2.452   0.050   3.454 -0.0723 -0.0720  0.1834
 3705TIP3    H211073   2.470  -0.006   3.314  1.0823 -0.8788  0.6411
 3706TIP3   OH211074   2.756   4.214   2.335 -0.0825  0.7270 -0.1977
 3706TIP3    H111075   2.836   4.190   2.382  0.1157  0.5182 -0.6424
 3706TIP3    H211076   2.787   4.266   2.261 -0.0617 -1.8267 -2.1214
 3707TIP3   OH211077   3.472   2.040   5.750  0.0643  0.3644 -0.5437
 3707TIP3    H111078   3.499   2.117   5.701  0.9997  1.3784  1.4394
 3707TIP3    H211079   3.446   1.977   5.683  1.3868  1.5997 -2.3239
 3708TIP3   OH211080   4.477   4.668   5.277 -0.2001  0.1034  0.6372
 3708TIP3    H111081   4.388   4.692   5.250 -0.4168  1.9748  2.7308
 3708TIP3    H211082   4.511   4.616   5.204 -2.2350  1.1845 -1.2061
 3709TIP3   OH211083   5.125   5.332   0.191  0.2038 -0.6106  0.5475
 3709TIP3    H111084   5.161   5.370   0.271 -1.2798  0.1259  0.9030
 3709TIP3    H211085   5.061   5.268   0.221  1.9186 -2.7478 -0.0653
 3710TIP3   OH211086   5.799   3.446   0.354 -0.1419  0.4435  0.1557
 3710TIP3    H111087   5.884   3.423   0.317 -0.1309  0.0346  0.4200
 3710TIP3    H211088   5.780   3.374   0.414 -0.2318  1.0067  0.8138
 3711TIP3   OH211089   1.972   4.011   2.458  0.2736 -0.0087 -0.1106
 3711TIP3    H111090   2.053   3.977   2.420 -0.6451 -1.2051 -1.0379
 3711TIP3    H211091   1.977   4.106   2.442  0.0529 -0.4033 -3.0601
 3712TIP3   OH211092   1.044   1.597   3.868 -0.1987 -0.3950 -0.4880
 3712TIP3    H111093   1.012   1.553   3.947  1.4800 -0.3483  0.2449
 3712TIP3    H211094   0.964   1.619   3.820 -1.2147 -1.3785  0.6667
 3713TIP3   OH211095   0.838   3.881   4.664  0.1024  0.4277 -0.1513
 3713TIP3    H111096   0.761   3.927   4.698 -0.5597 -0.3409 -0.5485
 3713TIP3    H211097   0.904   3.948   4.653 -0.2618  0.9845  0.9357
 3714TIP3   OH211098   2.754   7.770   5.353 -0.3881  0.0738  0.2732
 3714TIP3    H111099   2.728   7.738   5.440 -0.5042  1.5892  0.8389
 3714TIP3    H211100   2.711   7.855   5.346 -0.2849  0.0183 -1.2452
 3715TIP3   OH211101   7.529   1.965   0.862  0.0254  0.6571 -0.4006
 3715TIP3    H111102   7.555   1.895   0.922  2.0485  0.7321 -1.1136
 3715TIP3    H211103   7.551   2.046   0.907 -0.9347  0.8248 -0.1940
 3716TIP3   OH211104   6.933   7.433   5.073  0.2852 -0.0357 -0.6942
 3716TIP3    H111105   7.007   7.373   5.064  1.2098  0.7529  1.1318
 3716TIP3    H211106   6.870   7.386   5.127 -0.1892 -0.3802 -1.5354
 3717TIP3   OH211107   3.213   2.226   2.754  0.0710 -0.0795  0.5265
 3717TIP3    H111108   3.120   2.239   2.737  0.3472  0.5897 -0.5897
 3717TIP3    H211109   3.232   2.139   2.718 -0.1607 -0.2936  0.9223
 3718TIP3   OH211110   0.879   7.384   0.086  0.1176  0.2244 -0.4463
 3718TIP3    H111111   0.915   7.329   0.155  1.0710  1.2397 -0.0996
 3718TIP3    H211112   0.788   7.398   0.112 -0.4241 -1.8830 -1.0144
 3719TIP3   OH211113   3.437   2.084   2.560  0.2987  0.5377 -0.3711
 3719TIP3    H111114   3.395   2.007   2.520  0.3662  0.6635 -0.6845
 3719TIP3    H211115   3.501   2.112   2.495  1.4834 -0.1653  0.4465
 3720TIP3   OH211116   1.604   0.950   4.879 -0.0299 -0.0731 -0.1783
 3720TIP3    H111117   1.527   0.922   4.929 -1.4775 -1.4593 -2.9564
 3720TIP3    H211118   1.581   1.037   4.847 -0.7258 -0.6993 -1.4426
 3721TIP3   OH211119   2.106   4.913   5.418  0.2642 -0.0903 -0.4988
 3721TIP3    H111120   2.037   4.865   5.372 -0.3599  0.3182 -0.0120
 3721TIP3    H211121   2.071   4.927   5.506  0.5404  1.0175 -0.5500
 3722TIP3   OH211122   1.870   1.761   2.208 -0.0986 -0.0614  0.0040
 3722TIP3    H111123   1.956   1.737   2.242 -0.5014 -1.8909 -0.1815
 3722TIP3    H211124   1.810   1.745   2.282 -0.4022  0.3090 -0.1584
 3723TIP3   OH211125   0.940   4.473   6.147  0.0013 -0.5162  0.1342
 3723TIP3    H111126   0.943   4.568   6.132  0.9598 -0.6541 -0.6265
 3723TIP3    H211127   0.942   4.464   6.243  2.6612  0.1948  0.2306
 3724TIP3   OH211128   5.393   1.348   6.362 -0.5933 -0.2616  0.3950
 3724TIP3    H111129   5.381   1.372   6.270 -0.9937  0.4097  0.6112
 3724TIP3    H211130   5.428   1.260   6.359 -1.5406 -0.6418 -0.3981
 3725TIP3   OH211131   5.541   0.956   2.678  1.0126  0.4355  0.4411
 3725TIP3    H111132   5.621   0.976   2.630  0.7870  0.8394  0.2189
 3725TIP3    H211133   5.568   0.898   2.748  1.5094  0.6254  0.4083
 3726TIP3   OH211134   1.284   2.039   2.666 -0.1138  0.6241 -0.2393
 3726TIP3    H111135   1.292   1.963   2.609 -2.1024 -0.7165  1.1394
 3726TIP3    H211136   1.284   2.114   2.607  0.1316 -0.5604 -1.7866
 3727TIP3   OH211137   4.711   5.958   2.433  0.6923  0.1200 -0.4425
 3727TIP3    H111138   4.736   6.033   2.488  0.8826  1.3071 -2.0857
 3727TIP3    H211139   4.624   5.934   2.464  1.1669  0.1173  1.0091
 3728TIP3   OH211140   0.271   4.156   6.767 -0.2691 -0.1527  0.1519
 3728TIP3    H111141   0.327   4.210   6.713 -2.4103  0.2820 -1.8191
 3728TIP3    H211142   0.315   4.071   6.772  0.5042  0.1430 -1.3993
 3729TIP3   OH211143   7.831   1.677   4.397 -0.4035 -0.4700  0.1485
 3729TIP3    H111144   7.920   1.663   4.430  0.0921  0.0290 -0.9273
 3729TIP3    H211145   7.841   1.742   4.328 -1.4020 -1.4445 -0.9609
 3730TIP3   OH211146   2.889   1.278   1.955 -0.4253  0.1371  0.1799
 3730TIP3    H111147   2.843   1.311   2.032  0.7391 -0.7120  1.2780
 3730TIP3    H211148   2.962   1.337   1.943 -0.3426  0.0011  0.0001
 3731TIP3   OH211149   4.756   0.818   1.258 -1.0654  0.1486 -0.1072
 3731TIP3    H111150   4.741   0.729   1.290 -2.6869  0.5253  0.3055
 3731TIP3    H211151   4.784   0.867   1.335  0.4315 -0.1033 -0.4583
 3732TIP3   OH211152   3.315   5.954   2.482  0.2435  0.1125 -0.5107
 3732TIP3    H111153   3.364   6.027   2.443  1.2127 -0.5001 -0.4608
 3732TIP3    H211154   3.234   5.949   2.431 -0.7876  2.4950  0.7223
 3733TIP3   OH211155   3.026   2.890   2.190 -0.2204 -0.1716  0.3839
 3733TIP3    H111156   3.014   2.795   2.195 -0.7957 -0.3996 -3.1282
 3733TIP3    H211157   2.947   2.927   2.231 -1.9075 -1.3360 -1.6446
 3734TIP3   OH211158   7.074   4.197   0.851 -0.2419 -0.1151  0.0252
 3734TIP3    H111159   7.032   4.198   0.765 -1.4514  0.3510  0.5897
 3734TIP3    H211160   7.010   4.154   0.908 -0.5137  1.6977  1.1759
 3735TIP3   OH211161   7.286   2.728   0.993  0.1227  0.4278  0.2494
 3735TIP3    H111162   7.332   2.673   0.929 -0.2942  0.6986 -0.2880
 3735TIP3    H211163   7.207   2.679   1.013  0.4275  0.1662  0.8511
 3736TIP3   OH211164   8.169   1.785   6.775  0.1299  0.4719  0.1658
 3736TIP3    H111165   8.214   1.826   6.700 -0.6274  0.1753 -0.4665
 3736TIP3    H211166   8.182   1.691   6.761 -1.4326  0.3296 -0.5361
 3737TIP3   OH211167   7.063   0.315   0.471  0.4685  0.5808 -0.1795
 3737TIP3    H111168   6.984   0.312   0.525 -0.7049 -1.8806 -1.8304
 3737TIP3    H211169   7.066   0.229   0.429  3.8593  0.7170 -0.4904
 3738TIP3   OH211170   3.164   7.390   1.135  0.4820 -0.2822 -0.2406
 3738TIP3    H111171   3.241   7.394   1.077  1.5038 -4.1099  0.5673
 3738TIP3    H211172   3.199   7.405   1.223  0.0686 -0.6415 -0.0115
 3739TIP3   OH211173   0.445   1.714   5.139 -0.0806  0.7193 -0.2340
 3739TIP3    H111174   0.423   1.683   5.227  0.7316  1.9346  0.4397
 3739TIP3    H211175   0.520   1.661   5.113 -0.1771  0.5099 -0.0865
 3740TIP3   OH211176   2.082   0.700   4.492 -0.2418 -0.3728  0.9122
 3740TIP3    H111177   2.097   0.754   4.570 -0.9876 -1.1873  1.6358
 3740TIP3    H211178   1.992   0.669   4.501 -0.2716 -0.6326 -0.1856
 3741TIP3   OH211179   3.926   1.103   4.858  0.7762  0.0797 -0.2888
 3741TIP3    H111180   4.009   1.090   4.905  0.2340 -0.7428  0.4704
 3741TIP3    H211181   3.869   1.034   4.891 -0.2333  0.6644 -0.7788
 3742TIP3   OH211182   3.472   4.216   5.554 -0.5629  0.1382  0.7991
 3742TIP3    H111183   3.523   4.135   5.551  0.0274  0.5105  0.4577
 3742TIP3    H211184   3.505   4.263   5.631 -0.0915  0.5563  0.3583
 3743TIP3   OH211185   5.087   3.146   2.857  0.2879  0.2304 -0.1325
 3743TIP3    H111186   5.058   3.237   2.863 -1.3674 -0.2091 -0.9057
 3743TIP3    H211187   5.130   3.129   2.940 -0.0022  1.5184  0.3023
 3744TIP3   OH211188   0.822   5.792   5.009  0.5371 -0.7445  0.0404
 3744TIP3    H111189   0.728   5.809   5.019  0.9693  2.6592 -0.6398
 3744TIP3    H211190   0.856   5.795   5.098  0.2076 -0.4071  0.1578
 3745TIP3   OH211191   0.046   4.181   6.611  0.2922 -0.3841  0.0108
 3745TIP3    H111192   0.070   4.151   6.523 -0.0745  2.5029 -1.1970
 3745TIP3    H211193   0.108   4.137   6.669 -0.0277 -3.0890 -1.5431
 3746TIP3   OH211194   4.196   2.016   3.640  0.2184 -0.1041 -0.4899
 3746TIP3    H111195   4.221   2.066   3.562 -0.2385  0.4167 -0.3117
 3746TIP3    H211196   4.101   2.006   3.632  0.2158 -0.3550 -0.1750
 3747TIP3   OH211197   4.915   5.342   5.515  0.1734 -0.4092 -0.7154
 3747TIP3    H111198   4.823   5.356   5.536  0.4431 -0.0149  0.2035
 3747TIP3    H211199   4.942   5.270   5.572  0.5525 -0.2464 -0.6909
 3748TIP3   OH211200   5.683   2.787   2.644  0.1833  0.7323  0.4458
 3748TIP3    H111201   5.613   2.831   2.596  0.4437  1.6162  0.8590
 3748TIP3    H211202   5.764   2.824   2.608  0.5460 -1.6352 -1.3576
 3749TIP3   OH211203   2.739   2.937   2.016 -0.1705 -0.1885  0.0209
 3749TIP3    H111204   2.812   2.879   1.992  0.8275  1.3513 -0.7944
 3749TIP3    H211205   2.717   2.911   2.106  3.3594  1.1771  1.4405
 3750TIP3   OH211206   5.728   0.950   4.934 -0.5378 -0.1198  0.1054
 3750TIP3    H111207   5.775   1.018   4.886  1.0469 -0.6344  0.8431
 3750TIP3    H211208   5.767   0.951   5.022 -2.8144  0.2832  1.1953
 3751TIP3   OH211209   1.673   3.164   6.002 -0.0498 -0.2596  0.5596
 3751TIP3    H111210   1.654   3.082   5.956 -0.1261  0.5591 -0.9261
 3751TIP3    H211211   1.764   3.153   6.032 -0.3128 -1.1842  1.0666
 3752TIP3   OH211212   7.806   3.165   2.809  0.1483  0.6543 -0.0877
 3752TIP3    H111213   7.729   3.154   2.753  0.5993 -0.6600 -0.4975
 3752TIP3    H211214   7.851   3.242   2.774 -0.3361  0.6928 -0.6361
 3753TIP3   OH211215   6.780   1.673   1.744 -0.2644 -0.8916 -0.5895
 3753TIP3    H111216   6.797   1.613   1.672  0.7608  0.2068 -1.2917
 3753TIP3    H211217   6.826   1.753   1.720  0.5574 -0.6606  1.5175
 3754TIP3   OH211218   7.109   2.619   6.683  0.5886 -0.4193 -0.0001
 3754TIP3    H111219   7.201   2.647   6.678  0.1677  1.1822  0.6539
 3754TIP3    H211220   7.071   2.672   6.753 -1.2123  0.0652 -1.2704
 3755TIP3   OH211221   5.631   6.500   0.203 -0.3999 -0.3848  0.6771
 3755TIP3    H111222   5.567   6.570   0.216  0.2873  0.3499  0.2113
 3755TIP3    H211223   5.691   6.535   0.137  0.6308 -0.9534  1.2940
 3756TIP3   OH211224   0.599   7.478   0.163  0.0393  0.0552  0.4585
 3756TIP3    H111225   0.561   7.430   0.236  0.7591  0.2221  0.9521
 3756TIP3    H211226   0.528   7.533   0.130 -0.3997 -0.3208  0.7729
 3757TIP3   OH211227   1.746   1.111   3.481 -0.0190  0.0399  0.5268
 3757TIP3    H111228   1.691   1.158   3.544 -1.4437 -0.1759 -0.4859
 3757TIP3    H211229   1.774   1.179   3.419 -1.2892 -0.2527 -0.3978
 3758TIP3   OH211230   7.340   1.166   2.108 -0.2849 -0.1078 -0.0820
 3758TIP3    H111231   7.259   1.119   2.093  0.1499 -1.1361  0.6831
 3758TIP3    H211232   7.320   1.225   2.181 -0.3389 -0.3897  0.1336
 3759TIP3   OH211233   1.562   1.945   6.205  0.1571 -0.0897 -0.2969
 3759TIP3    H111234   1.579   2.039   6.216  0.9312 -0.3817  1.2139
 3759TIP3    H211235   1.479   1.931   6.252 -1.5574  0.3140 -2.9761
 3760TIP3   OH211236   3.395   2.713   0.827 -0.5094 -0.6106 -0.9035
 3760TIP3    H111237   3.470   2.655   0.813 -0.1302 -0.4904  0.4383
 3760TIP3    H211238   3.391   2.767   0.748  1.9337  0.5695 -0.3551
 3761TIP3   OH211239   6.001   6.671   3.088  0.2670  0.5719 -0.4199
 3761TIP3    H111240   6.071   6.735   3.077 -0.1335  1.3066  1.0795
 3761TIP3    H211241   6.028   6.619   3.164 -1.9184  2.5093  1.8497
 3762TIP3   OH211242   1.489   5.920   2.542  0.0348  0.5103  0.0000
 3762TIP3    H111243   1.465   5.918   2.449 -1.8916  2.6849  0.3441
 3762TIP3    H211244   1.471   6.010   2.569  2.3150  0.4382  2.0939
 3763TIP3   OH211245   1.854   1.154   1.334 -0.2506 -0.4014  0.2784
 3763TIP3    H111246   1.921   1.092   1.306  1.5780  1.4491  0.2706
 3763TIP3    H211247   1.857   1.224   1.268 -2.6403 -0.4938 -0.0418
 3764TIP3   OH211248   4.051   4.981   2.051  0.0468 -0.7219 -0.4403
 3764TIP3    H111249   4.038   4.926   1.974 -1.0522  0.2340 -0.9751
 3764TIP3    H211250   4.126   4.942   2.096 -0.9830 -2.9424 -0.5167
 3765TIP3   OH211251   3.315   6.949   6.124  0.5726 -0.0804 -0.2472
 3765TIP3    H111252   3.390   6.909   6.168  1.1433 -2.1478 -2.8744
 3765TIP3    H211253   3.347   6.971   6.036 -1.2667  1.2714 -0.6481
 3766TIP3   OH211254   2.824   5.592   4.977  0.1111  0.0921 -0.1203
 3766TIP3    H111255   2.919   5.600   4.970  0.2151  0.8731  1.7636
 3766TIP3    H211256   2.790   5.673   4.939  0.2333  0.2309  0.0688
 3767TIP3   OH211257   2.480   1.741   3.663  0.8161  0.4659 -0.1074
 3767TIP3    H111258   2.527   1.708   3.586  2.3562  3.0796 -0.3734
 3767TIP3    H211259   2.544   1.736   3.734  0.3787  0.9207  0.3220
 3768TIP3   OH211260   7.965   5.194   3.088 -0.1026  0.2362  0.0409
 3768TIP3    H111261   7.940   5.265   3.148 -0.6431 -0.4168  0.6175
 3768TIP3    H211262   8.004   5.128   3.145  1.5552  0.5762 -0.6563
 3769TIP3   OH211263   0.189   7.159   2.868  0.1290 -0.4032  0.5680
 3769TIP3    H111264   0.212   7.068   2.850 -1.5434 -0.9928  1.1435
 3769TIP3    H211265   0.095   7.156   2.887 -0.1483  1.5824 -0.2403
 3770TIP3   OH211266   3.663   3.602   0.569 -0.6239  0.1126  0.6295
 3770TIP3    H111267   3.725   3.625   0.637  2.2779 -1.4992 -1.2741
 3770TIP3    H211268   3.634   3.514   0.590 -0.1903 -0.1552  0.1298
 3771TIP3   OH211269   6.860   6.665   0.148  0.2316  0.1374  0.0142
 3771TIP3    H111270   6.821   6.580   0.167 -0.6175  0.4641 -0.1914
 3771TIP3    H211271   6.913   6.651   0.069  0.9951 -0.4454  0.6293
 3772TIP3   OH211272   2.310   5.241   4.982 -0.1025 -0.2960  0.3371
 3772TIP3    H111273   2.263   5.187   4.918 -2.2300  1.4950  0.2572
 3772TIP3    H211274   2.313   5.328   4.942  2.0621  0.0090  1.0190
 3773TIP3   OH211275   0.181   3.400   6.027  0.3126  0.3724 -0.4548
 3773TIP3    H111276   0.229   3.318   6.016  1.9355  1.1084  0.7135
 3773TIP3    H211277   0.137   3.414   5.943  1.5321 -0.7388 -1.3102
 3774TIP3   OH211278   7.757   3.828   5.444  0.0630  0.4895  0.9587
 3774TIP3    H111279   7.683   3.868   5.491  0.2151  1.3204  0.5019
 3774TIP3    H211280   7.795   3.767   5.508  0.2375  1.5679  1.9273
 3775TIP3   OH211281   1.786   4.184   5.541  0.2219 -0.5590  0.2694
 3775TIP3    H111282   1.840   4.262   5.530  1.1408 -1.2961 -0.6842
 3775TIP3    H211283   1.845   4.111   5.522 -1.5090 -1.3633 -2.7452
 3776TIP3   OH211284   1.412   6.425   2.551  0.1172  0.5262  0.9895
 3776TIP3    H111285   1.475   6.417   2.623  0.0995  1.1018  1.0737
 3776TIP3    H211286   1.339   6.475   2.588  0.3081  1.2216  0.4552
 3777TIP3   OH211287   6.593   3.747   0.707  0.3367 -0.4098  0.0322
 3777TIP3    H111288   6.596   3.806   0.631  1.9085 -0.2213  0.2057
 3777TIP3    H211289   6.611   3.661   0.670 -0.4991 -0.5744 -0.0138
 3778TIP3   OH211290   1.899   1.366   5.045  0.4042  0.0420 -0.4977
 3778TIP3    H111291   1.841   1.318   5.104 -1.3862  0.2471 -1.9884
 3778TIP3    H211292   1.932   1.299   4.985 -0.0683  0.2518 -1.0030
 3779TIP3   OH211293   7.164   2.812   4.360 -0.3649  0.3636 -0.0738
 3779TIP3    H111294   7.131   2.859   4.283 -0.1417 -0.6340 -0.8051
 3779TIP3    H211295   7.235   2.867   4.393 -0.9356  1.1557 -0.1573
 3780TIP3   OH211296   7.816   4.488   0.495  0.0249 -0.1837 -0.0624
 3780TIP3    H111297   7.766   4.541   0.557  0.0308 -0.1547 -0.0820
 3780TIP3    H211298   7.798   4.398   0.521 -0.7868 -0.2024 -0.6492
 3781TIP3   OH211299   7.276   4.354   0.513 -0.3636  0.1716  0.3260
 3781TIP3    H111300   7.332   4.351   0.435  1.0253  2.2007  1.1288
 3781TIP3    H211301   7.195   4.311   0.487  0.6175 -0.5472 -1.7459
 3782TIP3   OH211302   0.389   2.468   4.373  0.8677 -0.3340  0.0633
 3782TIP3    H111303   0.342   2.513   4.444 -0.8005 -1.2828 -0.4004
 3782TIP3    H211304   0.383   2.528   4.299  0.2817 -0.4874 -0.0203
 3783TIP3   OH211305   3.507   6.742   0.202  0.5532 -0.1489  0.3485
 3783TIP3    H111306   3.602   6.754   0.208  0.5858 -0.8934  1.6306
 3783TIP3    H211307   3.472   6.832   0.201  1.2698  0.1473 -0.7562
 3784TIP3   OH211308   0.867   1.540   0.164  0.3133 -0.3897  0.4284
 3784TIP3    H111309   0.960   1.562   0.160  0.4236 -0.9600 -0.4665
 3784TIP3    H211310   0.850   1.524   0.257  1.4160 -1.5175  0.4589
 3785TIP3   OH211311   5.100   5.976   2.814  0.6652 -0.2523  0.3685
 3785TIP3    H111312   5.158   5.983   2.890  0.9083  0.7374  0.1102
 3785TIP3    H211313   5.012   5.966   2.851  0.6131  1.6084  0.8102
 3786TIP3   OH211314   6.029   5.868   1.574  0.5518 -0.0508 -0.3742
 3786TIP3    H111315   6.069   5.951   1.599  0.9598 -0.2294 -0.4236
 3786TIP3    H211316   6.100   5.819   1.533  0.6355 -0.8780  0.7088
 3787TIP3   OH211317   0.413   3.777   4.564 -0.8540  0.0626  0.1336
 3787TIP3    H111318   0.389   3.797   4.654  0.6767  2.4352  0.1030
 3787TIP3    H211319   0.477   3.707   4.571 -0.7487  0.2296  0.9038
 3788TIP3   OH211320   0.438   4.961   1.048  0.4348  0.2627 -0.4549
 3788TIP3    H111321   0.461   4.892   0.986  0.7180  1.3280 -1.5581
 3788TIP3    H211322   0.432   5.040   0.995 -1.8692  0.7623  0.4236
 3789TIP3   OH211323   8.226   2.808   4.345  0.2055 -0.4617 -0.1335
 3789TIP3    H111324   8.190   2.894   4.326  4.1692  1.4851  0.2035
 3789TIP3    H211325   8.205   2.792   4.437 -0.4417  0.1596 -0.1672
 3790TIP3   OH211326   6.525   2.132   4.052  0.0216 -0.0316 -0.2968
 3790TIP3    H111327   6.486   2.184   4.123 -0.1604 -2.6131  1.6453
 3790TIP3    H211328   6.595   2.187   4.018 -0.1942  1.5257  1.5833
 3791TIP3   OH211329   2.477   3.364   0.718  0.1762 -0.9214  0.2597
 3791TIP3    H111330   2.563   3.323   0.709  0.2519 -0.5555 -0.8453
 3791TIP3    H211331   2.419   3.311   0.664  0.0331 -0.2734 -0.2355
 3792TIP3   OH211332   1.019   0.372   2.146 -0.2274 -0.3451  0.4685
 3792TIP3    H111333   1.061   0.456   2.165 -1.8523  0.7002 -0.3307
 3792TIP3    H211334   1.051   0.349   2.058 -1.4679  0.5886 -0.2573
 3793TIP3   OH211335   6.128   3.867   4.671 -0.3494  0.2781 -0.3406
 3793TIP3    H111336   6.064   3.841   4.737 -1.0006  0.4836 -0.8737
 3793TIP3    H211337   6.079   3.863   4.588  0.4965 -0.1437 -0.8248
 3794TIP3   OH211338   0.324   0.770   2.242  0.0043  0.0637  0.1479
 3794TIP3    H111339   0.306   0.844   2.299  0.7711 -0.8360  1.6264
 3794TIP3    H211340   0.322   0.694   2.300  2.8140 -0.6795 -0.5844
 3795TIP3   OH211341   4.096   6.048   2.986 -0.1014 -0.2797 -0.4386
 3795TIP3    H111342   4.019   5.992   2.993 -1.1951  1.1422 -0.5570
 3795TIP3    H211343   4.167   5.996   3.023 -1.3868 -1.1225  0.9827
 3796TIP3   OH211344   0.609   5.262   3.629 -0.4880 -0.2874 -0.2351
 3796TIP3    H111345   0.553   5.184   3.621 -1.9306  0.7135 -0.2268
 3796TIP3    H211346   0.698   5.229   3.616 -1.1392 -1.7955 -1.1188
 3797TIP3   OH211347   0.452   6.922   5.938 -0.2176 -0.5238  0.4858
 3797TIP3    H111348   0.449   6.871   5.857  1.7663  1.7383 -1.1471
 3797TIP3    H211349   0.404   7.003   5.918 -1.6305 -0.8130  2.3710
 3798TIP3   OH211350   7.022   2.419   1.133 -0.2431 -0.1464  0.4319
 3798TIP3    H111351   7.063   2.356   1.193 -0.7581 -1.3538 -0.4507
 3798TIP3    H211352   6.945   2.450   1.180 -0.2474 -0.5426  0.6936
 3799TIP3   OH211353   2.184   5.413   4.109 -0.4491 -0.0069 -0.1212
 3799TIP3    H111354   2.139   5.391   4.027  1.1133 -3.1468 -0.2880
 3799TIP3    H211355   2.194   5.329   4.154  2.8945  0.8930  1.0746
 3800TIP3   OH211356   4.941   3.704   4.187 -0.6536 -0.4868  0.3033
 3800TIP3    H111357   5.011   3.647   4.153 -0.4383  0.1049 -0.2649
 3800TIP3    H211358   4.963   3.717   4.279  1.0839  1.2581 -0.2891
 3801TIP3   OH211359   6.483   4.236   4.962  0.6813  0.4090 -0.1739
 3801TIP3    H111360   6.437   4.203   4.885  0.8000  1.1857 -0.5855
 3801TIP3    H211361   6.532   4.161   4.995 -0.1701 -0.1971 -0.2515
 3802TIP3   OH211362   7.517   0.167   6.739  0.0156 -0.2303  0.5416
 3802TIP3    H111363   7.585   0.105   6.766 -0.2263 -0.2893  1.0263
 3802TIP3    H211364   7.448   0.112   6.702  0.6753 -0.0966 -0.9449
 3803TIP3   OH211365   6.833   1.505   1.532  0.5328 -0.0724 -0.5882
 3803TIP3    H111366   6.751   1.490   1.486 -0.2042 -1.4475  1.0499
 3803TIP3    H211367   6.849   1.423   1.579  1.9280  0.7771  0.5050
 3804TIP3   OH211368   0.503   0.527   5.031  0.6680  0.0797  0.1022
 3804TIP3    H111369   0.529   0.575   4.953 -0.8533  1.8182  0.6056
 3804TIP3    H211370   0.561   0.559   5.100  0.1402  0.6885  0.2759
 3805TIP3   OH211371   2.916   2.228   3.644 -0.2182 -0.0580 -0.1572
 3805TIP3    H111372   2.959   2.307   3.613  0.7226 -0.1797  0.7814
 3805TIP3    H211373   2.914   2.170   3.568  1.9865 -0.3314 -0.0705
 3806TIP3   OH211374   1.576   5.961   5.295 -0.0977 -0.0016  0.2119
 3806TIP3    H111375   1.594   5.873   5.263 -0.3702  0.4577 -1.3047
 3806TIP3    H211376   1.506   5.949   5.359 -1.2919 -0.7524 -1.1664
 3807TIP3   OH211377   5.084   6.424   3.314 -0.3283  0.6430 -0.3555
 3807TIP3    H111378   5.159   6.468   3.274 -0.5220  1.6382  0.3184
 3807TIP3    H211379   5.111   6.406   3.404 -1.0975  1.6264  0.1006
 3808TIP3   OH211380   5.266   2.537   2.320 -0.3674  0.7304 -0.3677
 3808TIP3    H111381   5.239   2.529   2.228  1.1555  0.3631 -0.8090
 3808TIP3    H211382   5.185   2.524   2.370 -0.9613 -0.6209 -1.6111
 3809TIP3   OH211383   6.685   6.233   1.141 -0.0070 -0.6843  0.1805
 3809TIP3    H111384   6.693   6.138   1.147  1.3990 -0.6989 -1.2271
 3809TIP3    H211385   6.700   6.253   1.049  2.5762  1.0844  0.8763
 3810TIP3   OH211386   8.222   4.440   6.658  0.4679 -0.1338 -0.0872
 3810TIP3    H111387   8.257   4.485   6.735 -0.3250  0.7069 -0.1938
 3810TIP3    H211388   8.256   4.351   6.664  1.6950  0.3520  0.3893
 3811TIP3   OH211389   7.526   4.721   3.781  0.1841  0.6961 -0.2948
 3811TIP3    H111390   7.541   4.634   3.818  0.8423  1.4719  1.3833
 3811TIP3    H211391   7.536   4.780   3.855  0.9005  2.3041 -1.6160
 3812TIP3   OH211392   6.289   0.058   6.148  0.3338 -0.0505  0.1583
 3812TIP3    H111393   6.326  -0.021   6.109  0.4498  0.3627 -0.5719
 3812TIP3    H211394   6.241   0.101   6.077  1.0626  1.0232  0.2958
 3813TIP3   OH211395   6.246   5.643   5.828  0.0841  0.0169  0.2394
 3813TIP3    H111396   6.210   5.670   5.913  1.3542  2.3816  0.1278
 3813TIP3    H211397   6.273   5.725   5.787  2.8497 -1.3559 -0.9055
 3814TIP3   OH211398   4.211   5.082   3.945 -0.0275 -0.5341  0.4287
 3814TIP3    H111399   4.160   5.002   3.955  1.6092 -1.5036  1.2645
 3814TIP3    H211400   4.247   5.099   4.031 -1.4122  1.9082  0.6370
 3815TIP3   OH211401   2.307   5.603   2.818 -0.1794 -0.1637 -0.2949
 3815TIP3    H111402   2.240   5.661   2.854  0.2631  0.6113 -0.7140
 3815TIP3    H211403   2.344   5.651   2.745  0.8538 -0.5803 -0.0610
 3816TIP3   OH211404   3.035   5.378   2.188  0.2029 -0.4645 -0.3805
 3816TIP3    H111405   3.099   5.446   2.167 -0.8279  0.4773 -0.6031
 3816TIP3    H211406   2.982   5.370   2.108 -0.2364 -0.9041 -0.0511
 3817TIP3   OH211407   1.067   4.484   2.067 -0.4063  0.2986  0.2111
 3817TIP3    H111408   1.015   4.561   2.092 -0.4637  0.1700  0.4911
 3817TIP3    H211409   1.158   4.510   2.085 -0.5723 -0.5520  2.6909
 3818TIP3   OH211410   1.610   1.411   1.988 -0.1681 -0.7704 -0.3182
 3818TIP3    H111411   1.571   1.482   1.937 -0.0787  0.0992  0.7709
 3818TIP3    H211412   1.554   1.336   1.972 -0.3855 -0.3997 -1.3409
 3819TIP3   OH211413   1.084   7.330   1.112 -0.1576 -0.2535 -0.4939
 3819TIP3    H111414   1.052   7.389   1.044  1.8321  0.2462 -1.0489
 3819TIP3    H211415   1.031   7.251   1.102  0.1656 -0.2527 -2.7408
 3820TIP3   OH211416   2.347   4.204   0.599  0.1593 -0.3672 -0.8423
 3820TIP3    H111417   2.409   4.162   0.658  0.2009 -0.3458 -0.8705
 3820TIP3    H211418   2.358   4.158   0.515  0.9239  0.3555 -1.1542
 3821TIP3   OH211419   0.451   7.499   5.106  0.3333 -0.8844  0.3964
 3821TIP3    H111420   0.445   7.516   5.200  1.3121  0.2932  0.2790
 3821TIP3    H211421   0.382   7.552   5.067  0.5483 -0.6091  0.3846
 3822TIP3   OH211422   5.508   7.320   0.488  0.1594  0.2342 -0.0399
 3822TIP3    H111423   5.517   7.400   0.540 -1.0570  1.4474 -1.5665
 3822TIP3    H211424   5.432   7.276   0.526  0.7648 -0.1601  0.7357
 3823TIP3   OH211425   5.990   5.986   4.406 -0.2893 -0.0295 -0.2496
 3823TIP3    H111426   6.081   5.972   4.380 -0.7369 -0.7306 -1.5809
 3823TIP3    H211427   5.954   6.043   4.338 -0.9490 -0.1144  0.0162
 3824TIP3   OH211428   2.695   6.936   2.997 -0.3643 -0.1647 -0.4424
 3824TIP3    H111429   2.639   6.979   2.932  1.1918 -0.2334 -1.9256
 3824TIP3    H211430   2.750   7.006   3.031  1.3584 -0.6730 -1.9897
 3825TIP3   OH211431   0.061   0.878   4.306 -0.8560 -0.0934  0.1118
 3825TIP3    H111432   0.052   0.969   4.280 -0.7214 -0.0076  0.3635
 3825TIP3    H211433   0.147   0.852   4.273 -0.7802 -0.0497  0.2729
 3826TIP3   OH211434   3.638   6.065   2.554 -0.0403  0.2572 -0.0226
 3826TIP3    H111435   3.687   5.988   2.525 -0.1348 -0.0018  0.4931
 3826TIP3    H211436   3.600   6.039   2.638 -1.1430  0.4154 -0.4542
 3827TIP3   OH211437   6.645   1.722   0.914  0.5169  0.2509 -0.2289
 3827TIP3    H111438   6.557   1.703   0.883  0.0135  1.0384  0.6777
 3827TIP3    H211439   6.634   1.746   1.006  1.4751  1.7962 -0.4740
 3828TIP3   OH211440   1.320   2.464   3.709  0.2095 -0.0395 -0.1952
 3828TIP3    H111441   1.368   2.536   3.668  2.1494 -0.6958  0.8080
 3828TIP3    H211442   1.276   2.504   3.784  1.3680  0.1229  0.4209
 3829TIP3   OH211443   6.147   2.795   1.823  0.0971 -0.0733  0.2468
 3829TIP3    H111444   6.190   2.863   1.874 -0.6470  1.1139 -0.6397
 3829TIP3    H211445   6.073   2.767   1.877  0.6741 -0.5107  0.8133
 3830TIP3   OH211446   4.183   3.522   2.740 -0.2264 -0.1029 -0.1241
 3830TIP3    H111447   4.198   3.468   2.818  1.6855 -1.0407 -1.0602
 3830TIP3    H211448   4.267   3.567   2.727 -1.5415  2.6495  0.2241
 3831TIP3   OH211449   6.040   4.394   3.773 -0.0966 -0.0963 -0.2749
 3831TIP3    H111450   6.088   4.380   3.691 -0.7958 -1.9166 -0.4208
 3831TIP3    H211451   6.084   4.338   3.837  0.0540  0.8313  0.4725
 3832TIP3   OH211452   5.525   6.132   3.806  0.1714  0.5811  0.4784
 3832TIP3    H111453   5.464   6.078   3.756  0.9132  0.2256 -0.0571
 3832TIP3    H211454   5.587   6.070   3.843  2.6834  1.1600 -2.3637
 3833TIP3   OH211455   2.224   1.260   6.705 -0.2223  0.2254 -0.2705
 3833TIP3    H111456   2.156   1.261   6.773 -2.4529  0.6929 -2.3568
 3833TIP3    H211457   2.283   1.190   6.731 -1.7951 -0.5572  1.4116
 3834TIP3   OH211458   2.944   2.709   3.901 -0.3985  0.3069 -0.2227
 3834TIP3    H111459   2.959   2.772   3.830  0.1334  2.0536  1.3482
 3834TIP3    H211460   3.005   2.737   3.970 -2.1111 -0.2252  1.5929
 3835TIP3   OH211461   7.775   5.150   1.138  0.3143 -0.0207 -0.2479
 3835TIP3    H111462   7.798   5.062   1.111 -2.0738 -0.5403 -0.8004
 3835TIP3    H211463   7.725   5.139   1.219  1.0968  0.9679  0.4157
 3836TIP3   OH211464   7.571   4.158   5.552  0.0193 -0.0690 -0.0942
 3836TIP3    H111465   7.492   4.199   5.588 -0.0378 -1.4527  1.5304
 3836TIP3    H211466   7.609   4.110   5.627  2.4342  0.5863 -0.7974
 3837TIP3   OH211467   4.957   6.220   2.230  0.2675  0.1028 -0.0429
 3837TIP3    H111468   5.036   6.203   2.179  2.0381  0.0170  2.5490
 3837TIP3    H211469   4.974   6.303   2.275 -1.0968  0.0485  0.6391
 3838TIP3   OH211470   2.449   3.072   1.975  0.7088 -0.2564  0.2075
 3838TIP3    H111471   2.395   3.142   1.938  0.4961 -0.1017  0.7968
 3838TIP3    H211472   2.501   3.041   1.901 -0.9673 -1.1578 -0.6459
 3839TIP3   OH211473   5.694   1.791   0.212 -0.1657 -0.3813 -0.1098
 3839TIP3    H111474   5.636   1.868   0.216 -1.2096 -1.1461 -0.1021
 3839TIP3    H211475   5.777   1.826   0.181 -0.7445  0.6983 -0.5112
 3840TIP3   OH211476   7.682   3.524   1.655  0.4562  0.2451  0.1168
 3840TIP3    H111477   7.720   3.554   1.572  1.4232 -1.0667  0.0571
 3840TIP3    H211478   7.653   3.435   1.638 -1.9054  0.8896  0.4415
 3841TIP3   OH211479   8.256   2.235   2.044  0.1422  0.2715 -0.2916
 3841TIP3    H111480   8.238   2.151   2.084 -1.4310  0.1198 -1.2284
 3841TIP3    H211481   8.352   2.242   2.043  0.2826 -1.3780  0.0222
 3842TIP3   OH211482   7.616   6.694   0.983 -0.4937  0.4137 -0.4817
 3842TIP3    H111483   7.604   6.679   1.077  0.6634 -1.5406 -0.5839
 3842TIP3    H211484   7.589   6.612   0.942  1.5856  0.2080 -1.5901
 3843TIP3   OH211485   6.060   4.185   6.574  0.0451  0.2629 -0.6749
 3843TIP3    H111486   6.004   4.161   6.500 -1.6018  0.4809  0.4450
 3843TIP3    H211487   5.999   4.197   6.647  1.6035  0.2390  0.6816
 3844TIP3   OH211488   6.318   2.241   5.300  0.0514  0.0698 -0.2240
 3844TIP3    H111489   6.325   2.296   5.378  0.7324  0.8301 -0.8005
 3844TIP3    H211490   6.229   2.208   5.301  0.0800 -0.0137  0.9306
 3845TIP3   OH211491   4.397   7.541   2.524  0.0093  0.1265  0.1806
 3845TIP3    H111492   4.353   7.555   2.608 -1.3221 -1.8041 -0.1117
 3845TIP3    H211493   4.371   7.615   2.470 -2.1356 -0.4401  0.3562
 3846TIP3   OH211494   7.727   3.737   5.972 -0.1617  0.1345  0.0238
 3846TIP3    H111495   7.739   3.792   5.895  0.8046  0.2993  0.2826
 3846TIP3    H211496   7.744   3.648   5.941  2.2503  0.3828  0.4437
 3847TIP3   OH211497   2.941   5.913   0.841  0.3295 -0.5508  0.1953
 3847TIP3    H111498   2.851   5.883   0.852 -0.5780  1.8267  0.0463
 3847TIP3    H211499   2.932   6.004   0.810  2.7736  0.0485  0.9873
 3848TIP3   OH211500   1.795   0.830   3.210  0.1368 -0.0204  0.0825
 3848TIP3    H111501   1.771   0.754   3.156  0.2906 -1.6953  2.2493
 3848TIP3    H211502   1.755   0.812   3.295  0.0070  2.4743  0.6092
 3849TIP3   OH211503   6.295   5.332   4.074 -0.1006  0.4408 -0.0873
 3849TIP3    H111504   6.279   5.367   3.987 -0.3322  1.6708  0.4219
 3849TIP3    H211505   6.208   5.323   4.113  0.0231  0.2683  0.1499
 3850TIP3   OH211506   5.547   1.117   4.448 -0.1836 -0.2228  0.2828
 3850TIP3    H111507   5.499   1.099   4.367 -2.2979  0.3033  1.3420
 3850TIP3    H211508   5.546   1.212   4.456 -1.3171 -0.3313  1.6525
 3851TIP3   OH211509   7.758   7.201   1.787 -0.4027  0.6046  0.3739
 3851TIP3    H111510   7.841   7.154   1.788 -0.4995  0.4339  0.2810
 3851TIP3    H211511   7.783   7.293   1.792  0.0372  0.9101 -3.8063
 3852TIP3   OH211512   1.007   6.082   4.478 -0.2591  0.0994  0.7365
 3852TIP3    H111513   0.939   6.017   4.497 -1.0066  0.4840 -0.4725
 3852TIP3    H211514   1.086   6.031   4.462 -0.4978 -0.4164  1.1909
 3853TIP3   OH211515   7.146   3.350   4.990 -0.2843  0.6788 -0.3558
 3853TIP3    H111516   7.097   3.348   5.072 -1.2304  0.5724 -0.9152
 3853TIP3    H211517   7.126   3.434   4.951  0.4533  0.8821 -0.3215
 3854TIP3   OH211518   7.939   5.988   4.555  0.2260 -0.1000  0.4929
 3854TIP3    H111519   7.852   6.027   4.556  0.1166 -0.3417  1.6339
 3854TIP3    H211520   7.925   5.897   4.582  0.4137 -1.1480 -2.6045
 3855TIP3   OH211521   5.319   6.868   6.451 -0.2672  0.2847  0.1248
 3855TIP3    H111522   5.350   6.958   6.446 -0.1414  0.3921  2.2897
 3855TIP3    H211523   5.224   6.876   6.462 -0.4433  0.0829 -1.0639
 3856TIP3   OH211524   0.686   5.373   5.952 -0.3437  0.4650 -0.2966
 3856TIP3    H111525   0.591   5.361   5.956 -0.2402 -0.0364  1.1665
 3856TIP3    H211526   0.720   5.286   5.929 -0.1573  0.2971  0.6054
 3857TIP3   OH211527   4.804   4.224   4.541  0.0977  0.1024  0.1485
 3857TIP3    H111528   4.778   4.163   4.610 -0.3188 -0.5835 -0.5988
 3857TIP3    H211529   4.753   4.303   4.559 -0.4001 -0.2532  0.3357
 3858TIP3   OH211530   6.140   5.500   1.125  0.0016 -0.3328 -0.2690
 3858TIP3    H111531   6.130   5.444   1.202 -0.9684 -3.0699 -2.2231
 3858TIP3    H211532   6.230   5.484   1.096 -0.3977 -1.2968 -1.0532
 3859TIP3   OH211533   8.040   5.009   4.519 -0.3197  0.7396  0.0424
 3859TIP3    H111534   8.042   5.041   4.429  2.6096  0.1547 -0.1937
 3859TIP3    H211535   7.984   4.932   4.516 -0.6230  0.9814 -1.1712
 3860TIP3   OH211536   5.316   2.308   3.194 -0.2698 -0.2842  1.2027
 3860TIP3    H111537   5.281   2.269   3.275 -0.9247 -0.6828  0.7332
 3860TIP3    H211538   5.287   2.399   3.196 -1.7996 -0.7253  0.5820
 3861TIP3   OH211539   1.087   7.048   1.437  0.3955  0.0834  0.2864
 3861TIP3    H111540   1.159   7.109   1.454  0.5157 -0.5390  2.3140
 3861TIP3    H211541   1.025   7.064   1.509 -0.6508 -0.6096 -0.4432
 3862TIP3   OH211542   2.010   6.933   0.689  0.2378 -0.0349 -0.5121
 3862TIP3    H111543   2.025   6.908   0.598 -0.0328 -1.8232 -0.1147
 3862TIP3    H211544   1.919   6.961   0.693 -0.0683 -0.9793 -0.6146
 3863TIP3   OH211545   6.448   1.291   2.775  0.5150 -0.0015 -0.0366
 3863TIP3    H111546   6.528   1.243   2.798 -0.5800 -2.1811 -0.5095
 3863TIP3    H211547   6.476   1.382   2.768  3.2477 -0.8361 -1.4601
 3864TIP3   OH211548   2.592   5.233   1.425  0.7502  0.3695  0.5356
 3864TIP3    H111549   2.522   5.198   1.480  2.1393  2.3277  3.8397
 3864TIP3    H211550   2.552   5.306   1.378 -0.0535 -0.2194  0.2889
 3865TIP3   OH211551   7.347   4.075   4.116 -0.1217  0.0761 -1.0677
 3865TIP3    H111552   7.410   4.131   4.071  1.8644  0.5350  1.9819
 3865TIP3    H211553   7.368   3.987   4.085  1.3528  0.3460 -0.9259
 3866TIP3   OH211554   5.437   6.557   2.200  0.2108  0.4181  0.1831
 3866TIP3    H111555   5.432   6.476   2.251 -0.9641  1.0644  1.1631
 3866TIP3    H211556   5.519   6.598   2.228  0.1288  0.2282  0.7100
 3867TIP3   OH211557   1.861   7.378   4.920  0.4000  0.1597 -0.1926
 3867TIP3    H111558   1.934   7.440   4.916 -0.5159  1.5140  2.0910
 3867TIP3    H211559   1.813   7.392   4.839  1.8016  0.3189 -1.0373
 3868TIP3   OH211560   3.563   2.571   2.983  0.3235 -0.2285  0.0144
 3868TIP3    H111561   3.585   2.574   3.076 -1.1094 -0.5261  0.3814
 3868TIP3    H211562   3.604   2.490   2.951 -0.4444 -0.9334  0.7502
 3869TIP3   OH211563   2.568   7.631   1.725 -0.2196  0.0134  0.6314
 3869TIP3    H111564   2.498   7.625   1.791 -1.5968 -0.7184 -0.8274
 3869TIP3    H211565   2.618   7.550   1.735 -0.6025 -0.2293  0.5952
 3870TIP3   OH211566   7.752   1.460   1.469  0.4763 -0.2593 -0.1814
 3870TIP3    H111567   7.822   1.423   1.523  0.5179  0.8439  0.5655
 3870TIP3    H211568   7.735   1.394   1.402  2.8112 -0.1952 -0.9124
 3871TIP3   OH211569   7.947   4.480   2.601  0.1938  0.1187 -0.4497
 3871TIP3    H111570   7.956   4.489   2.696 -0.4366 -1.1760 -0.2405
 3871TIP3    H211571   7.873   4.421   2.590 -1.3153  2.1454 -1.8193
 3872TIP3   OH211572   2.669   2.972   5.367  0.1981 -0.1597  0.0554
 3872TIP3    H111573   2.669   2.938   5.457  0.2110  1.6591  0.8047
 3872TIP3    H211574   2.577   2.973   5.342 -0.2275  2.3659  1.3685
 3873TIP3   OH211575   0.221   1.002   5.051  0.1288  0.3075 -0.2482
 3873TIP3    H111576   0.236   1.009   4.957 -1.4298  1.4064 -0.4586
 3873TIP3    H211577   0.127   0.981   5.058  0.4445 -0.8237  1.0473
 3874TIP3   OH211578   6.370   4.840   5.785  0.3922 -0.1686  0.3851
 3874TIP3    H111579   6.342   4.767   5.730  2.4567 -2.2933  1.9390
 3874TIP3    H211580   6.289   4.880   5.815 -0.7858 -0.8408 -1.7253
 3875TIP3   OH211581   4.179   1.907   4.758 -0.1251 -0.2544 -0.3226
 3875TIP3    H111582   4.248   1.918   4.692  0.6505  0.2214  0.5434
 3875TIP3    H211583   4.104   1.874   4.708 -0.2420  2.0357 -1.8360
 3876TIP3   OH211584   4.608   3.811   5.765  0.2514  0.1774  0.1364
 3876TIP3    H111585   4.540   3.746   5.750  2.2340 -1.6746 -1.5908
 3876TIP3    H211586   4.611   3.821   5.860 -0.2289 -2.2555  0.4881
 3877TIP3   OH211587   5.685   0.144   5.785  0.2625 -0.3234 -0.2173
 3877TIP3    H111588   5.746   0.105   5.846 -0.6238 -0.9982  0.2650
 3877TIP3    H211589   5.642   0.070   5.742  1.0242  0.1319 -1.8432
 3878TIP3   OH211590   6.623   2.906   0.737 -0.0273 -0.2541 -0.1656
 3878TIP3    H111591   6.605   2.856   0.817  0.5918  1.6949  1.2412
 3878TIP3    H211592   6.541   2.901   0.688 -1.0425  0.0123  1.4349
 3879TIP3   OH211593   6.098   3.106   4.819 -0.1922 -0.5727 -0.1785
 3879TIP3    H111594   6.177   3.063   4.788 -0.1692 -0.6441 -0.0215
 3879TIP3    H211595   6.027   3.046   4.798 -0.5206  0.5323 -2.5423
 3880TIP3   OH211596   4.946   2.489   6.693  0.3670 -0.0186 -0.0471
 3880TIP3    H111597   4.921   2.397   6.696 -0.7971  0.2193  3.6850
 3880TIP3    H211598   4.867   2.535   6.665 -0.2852  0.0056  1.6798
 3881TIP3   OH211599   1.194   5.030   6.146  0.3075  0.5151  0.0655
 3881TIP3    H111600   1.130   5.017   6.076 -0.0369  2.0409  0.0658
 3881TIP3    H211601   1.176   5.118   6.178  0.9801  0.1340  1.5539
 3882TIP3   OH211602   5.306   0.323   3.531 -0.0984 -0.9154 -0.2014
 3882TIP3    H111603   5.264   0.402   3.497 -0.4734 -0.8565  0.3868
 3882TIP3    H211604   5.240   0.283   3.587 -0.0627 -1.8677 -0.8038
 3883TIP3   OH211605   6.125   6.746   2.397  0.4781  0.0026  0.2204
 3883TIP3    H111606   6.059   6.703   2.451  1.5301 -0.0570  1.5231
 3883TIP3    H211607   6.075   6.797   2.334 -0.8021 -1.8429 -0.3458
 3884TIP3   OH211608   6.049   7.462   0.554 -0.1710  0.1765 -0.1072
 3884TIP3    H111609   6.089   7.540   0.592  1.6381  0.0622 -1.6244
 3884TIP3    H211610   5.962   7.491   0.527 -0.4750  0.9585  1.5991
 3885TIP3   OH211611   5.468   5.186   4.658 -0.0866  0.6701  0.0815
 3885TIP3    H111612   5.473   5.116   4.592  1.5562 -0.4451  1.3225
 3885TIP3    H211613   5.377   5.215   4.654 -0.5943 -0.9006 -1.1108
 3886TIP3   OH211614   6.631   2.218   1.629  0.0957  0.3515  0.0330
 3886TIP3    H111615   6.559   2.190   1.686 -0.3179 -0.0409 -0.6506
 3886TIP3    H211616   6.591   2.284   1.572  0.1234 -0.2396 -0.6911
 3887TIP3   OH211617   7.582   2.123   0.052  0.0574 -0.7663 -0.2040
 3887TIP3    H111618   7.577   2.217   0.070  0.4356 -0.5675 -1.0961
 3887TIP3    H211619   7.665   2.111   0.007  0.2219 -1.6044  0.2979
 3888TIP3   OH211620   2.025   7.226   5.616 -0.2013  0.0679  0.2173
 3888TIP3    H111621   2.069   7.177   5.686  0.2916  1.9716  1.3333
 3888TIP3    H211622   2.092   7.235   5.549 -0.8518 -2.2697 -0.8480
 3889TIP3   OH211623   0.217   5.954   6.733  0.0130  0.2127  0.2278
 3889TIP3    H111624   0.207   5.959   6.828  1.1784  1.2704  0.3271
 3889TIP3    H211625   0.301   5.997   6.715  0.6469 -1.4928 -1.1409
 3890TIP3   OH211626   4.318   5.616   5.083  0.6058  0.5029 -0.0926
 3890TIP3    H111627   4.379   5.545   5.065  0.5207  0.4325 -0.1055
 3890TIP3    H211628   4.346   5.687   5.024  0.1473  0.1705 -0.7257
 3891TIP3   OH211629   5.985   2.435   3.312 -0.1659  0.1815  0.1762
 3891TIP3    H111630   5.905   2.461   3.358  0.3728  3.8531 -0.6013
 3891TIP3    H211631   5.973   2.467   3.223  1.4715 -0.7779 -0.4314
 3892TIP3   OH211632   0.682   3.229   4.810 -0.4340  0.0664 -0.4877
 3892TIP3    H111633   0.761   3.253   4.762 -0.1774  0.6940  0.2180
 3892TIP3    H211634   0.687   3.134   4.819 -0.5781 -0.0935 -1.8293
 3893TIP3   OH211635   0.980   2.619   6.373 -0.5564 -0.3204  0.1676
 3893TIP3    H111636   1.020   2.704   6.392 -0.7852  0.2747 -1.8063
 3893TIP3    H211637   0.895   2.622   6.415 -0.5608  0.4307  0.1119
 3894TIP3   OH211638   4.480   7.412   3.874 -0.1483 -0.0294 -0.3166
 3894TIP3    H111639   4.433   7.391   3.793 -0.1471  0.3650 -0.4197
 3894TIP3    H211640   4.412   7.429   3.938 -0.2155  2.3410 -0.9061
 3895TIP3   OH211641   5.284   1.110   5.666  0.2140 -0.2874 -0.3188
 3895TIP3    H111642   5.295   1.094   5.572 -1.2650 -1.9223 -0.2752
 3895TIP3    H211643   5.329   1.036   5.708  1.9423  1.0647  0.3647
 3896TIP3   OH211644   5.726   6.354   3.214  0.7959 -1.0601  0.1893
 3896TIP3    H111645   5.737   6.397   3.130 -2.8398 -3.8249 -2.0340
 3896TIP3    H211646   5.673   6.414   3.266  0.1895 -0.6849 -0.8467
 3897TIP3   OH211647   2.150   0.633   3.488 -0.1067  0.1403 -0.0198
 3897TIP3    H111648   2.129   0.543   3.463 -2.4654  0.6907 -0.2247
 3897TIP3    H211649   2.094   0.687   3.433  1.5570  1.8078 -0.1951
 3898TIP3   OH211650   6.964   2.522   6.476  0.0640 -0.3747  0.4864
 3898TIP3    H111651   6.910   2.455   6.518  0.1461 -0.7065  0.0765
 3898TIP3    H211652   7.011   2.564   6.548 -1.9582  1.0628  1.0413
 3899TIP3   OH211653   0.576   2.488   0.995 -0.7997  0.3931  0.3482
 3899TIP3    H111654   0.553   2.458   0.908 -1.3473 -0.1404  0.6755
 3899TIP3    H211655   0.601   2.409   1.043 -2.8492  0.3223  1.3997
 3900TIP3   OH211656   6.294   2.615   4.097 -0.0300  0.1202 -0.3092
 3900TIP3    H111657   6.246   2.683   4.050 -3.8955 -1.8817  0.3535
 3900TIP3    H211658   6.244   2.601   4.177  2.5579 -1.2447  1.2185
 3901TIP3   OH211659   3.596   5.903   3.705  0.3373  0.0004 -0.7149
 3901TIP3    H111660   3.571   5.922   3.796 -1.6440 -2.5359 -0.6173
 3901TIP3    H211661   3.552   5.971   3.654  0.8409  0.9980  0.1205
 3902TIP3   OH211662   6.257   2.967   2.032 -0.2067 -0.0747  0.5858
 3902TIP3    H111663   6.162   2.967   2.044 -0.2158  1.0207  0.6303
 3902TIP3    H211664   6.289   2.903   2.095 -0.7820  0.8443  1.8515
 3903TIP3   OH211665   6.320   3.446   0.581  0.2519  0.4548 -0.2084
 3903TIP3    H111666   6.393   3.448   0.643 -1.7476 -1.7388  2.5020
 3903TIP3    H211667   6.345   3.381   0.516  0.6250 -0.5741  0.9169
 3904TIP3   OH211668   0.239   4.129   2.793  0.1698 -0.1855  0.0567
 3904TIP3    H111669   0.262   4.083   2.712  1.4115 -2.7546  1.7577
 3904TIP3    H211670   0.295   4.207   2.794  0.3754 -0.2910 -1.3546
 3905TIP3   OH211671   0.940   6.419   4.355  0.8168  0.1245  0.5253
 3905TIP3    H111672   0.958   6.473   4.433 -1.6988 -0.0741  1.3625
 3905TIP3    H211673   1.024   6.412   4.310  2.4436  0.1019  3.3194
 3906TIP3   OH211674   0.789   2.589   4.467  0.2961  0.5845  0.5722
 3906TIP3    H111675   0.875   2.630   4.480  0.5961 -0.0211  0.5547
 3906TIP3    H211676   0.791   2.558   4.376 -0.5987  2.0545  0.0281
 3907TIP3   OH211677   3.512   3.051   1.378 -0.0294  0.1780  0.1038
 3907TIP3    H111678   3.461   3.053   1.459  1.5515 -0.1799  1.1544
 3907TIP3    H211679   3.503   3.139   1.342  0.1405  0.7060  1.2789
 3908TIP3   OH211680   1.437   5.308   2.701  0.3065  0.8833 -0.1660
 3908TIP3    H111681   1.449   5.243   2.770  0.7515  2.3187  1.1395
 3908TIP3    H211682   1.486   5.272   2.626  2.1427  0.5731  1.1206
 3909TIP3   OH211683   4.054   6.472   1.211  0.7430  0.1760  0.6048
 3909TIP3    H111684   4.033   6.407   1.278  1.7131 -0.7674  0.0108
 3909TIP3    H211685   4.131   6.517   1.245  1.2426 -0.3129  0.1149
 3910TIP3   OH211686   5.611   0.379   2.578  0.4330 -0.1297  0.2143
 3910TIP3    H111687   5.614   0.312   2.646  3.4690  0.3288  0.6605
 3910TIP3    H211688   5.561   0.450   2.616  0.8120 -0.4744  1.4079
 3911TIP3   OH211689   0.046   1.394  -0.009 -0.3697 -0.2643 -0.3909
 3911TIP3    H111690   0.051   1.363   0.082 -2.4107  0.0650 -0.1165
 3911TIP3    H211691   0.036   1.315  -0.061  0.6266 -0.4435 -0.3278
 3912TIP3   OH211692   0.123   4.300   0.855  0.0363  0.1844 -0.3178
 3912TIP3    H111693   0.132   4.230   0.919 -0.5042  0.0096 -0.4256
 3912TIP3    H211694   0.044   4.348   0.882 -1.3334 -1.0481 -1.9169
 3913TIP3   OH211695   1.848   4.455   5.447  0.1346  1.2378 -0.0512
 3913TIP3    H111696   1.878   4.540   5.478  0.1772  1.8995 -1.7967
 3913TIP3    H211697   1.760   4.471   5.413  0.9917  1.1528 -2.5043
 3914TIP3   OH211698   6.099   5.049   5.461  1.0119 -0.5480  0.0784
 3914TIP3    H111699   6.064   5.065   5.374 -0.6537 -1.0558  0.6149
 3914TIP3    H211700   6.124   4.957   5.460 -2.5059 -1.7027  1.1545
 3915TIP3   OH211701   4.228   4.556   1.257  0.0069  0.0826 -0.2613
 3915TIP3    H111702   4.313   4.584   1.289 -0.8097  1.0048  1.2610
 3915TIP3    H211703   4.224   4.462   1.275  1.1265 -0.2114 -1.4415
 3916TIP3   OH211704   6.080   4.032   1.316  0.0692 -0.2970  0.1959
 3916TIP3    H111705   6.051   4.050   1.405 -2.4879 -0.6756 -0.4663
 3916TIP3    H211706   6.006   3.985   1.276  1.4835 -0.9214 -1.8607
 3917TIP3   OH211707   6.447   4.501   0.820 -0.5728  0.1217  0.5716
 3917TIP3    H111708   6.472   4.548   0.741 -1.1194  1.6869  1.2824
 3917TIP3    H211709   6.530   4.470   0.856 -0.5049 -4.1260 -2.5442
 3918TIP3   OH211710   6.025   5.344   1.318  0.6494 -0.0141  0.8384
 3918TIP3    H111711   6.000   5.274   1.258 -0.7985  1.0280  0.1669
 3918TIP3    H211712   5.998   5.312   1.405 -1.9655  0.5112  0.2963
 3919TIP3   OH211713   1.725   2.437   1.777  0.3350 -0.1969 -0.0467
 3919TIP3    H111714   1.710   2.372   1.846 -0.7859 -1.1923 -1.1811
 3919TIP3    H211715   1.643   2.438   1.727  0.8681  1.0234 -0.9336
 3920TIP3   OH211716   4.099   3.924   1.095  0.3049 -0.2849  0.4050
 3920TIP3    H111717   4.154   3.900   1.020  0.4159 -2.5751  1.1636
 3920TIP3    H211718   4.099   4.020   1.094  0.7076 -0.2414 -2.2048
 3921TIP3   OH211719   7.271   1.294   0.063  0.7201  0.2466 -0.1399
 3921TIP3    H111720   7.201   1.300  -0.003  0.2205 -1.3358  0.2099
 3921TIP3    H211721   7.235   1.337   0.140  0.7913  0.9117 -0.4662
 3922TIP3   OH211722   6.535   5.039   2.739 -0.4962 -0.0371  0.1090
 3922TIP3    H111723   6.442   5.025   2.723 -0.3122 -0.1155 -0.9682
 3922TIP3    H211724   6.539   5.124   2.783 -1.1797 -0.7454  1.6101
 3923TIP3   OH211725   3.159   3.117   2.252 -0.4063 -0.6467 -0.3045
 3923TIP3    H111726   3.183   3.106   2.344  0.6807 -0.7602 -0.5913
 3923TIP3    H211727   3.121   3.032   2.227  1.4994 -1.4721 -0.5922
 3924TIP3   OH211728   7.329   1.144   1.555 -0.0731 -0.2253  0.4997
 3924TIP3    H111729   7.345   1.224   1.504 -1.1908 -0.0714  0.3801
 3924TIP3    H211730   7.367   1.074   1.502 -1.8900 -0.1783 -0.9732
 3925TIP3   OH211731   4.266   1.078   5.069 -0.2818 -0.8133 -0.0402
 3925TIP3    H111732   4.360   1.070   5.052 -0.4257 -0.4531 -1.0777
 3925TIP3    H211733   4.238   1.150   5.013 -1.4591 -1.9216 -0.9278
 3926TIP3   OH211734   5.321   4.181   0.446 -0.9210  0.6101  0.4124
 3926TIP3    H111735   5.413   4.153   0.438 -0.8454  0.9179  0.1911
 3926TIP3    H211736   5.303   4.226   0.364 -1.7912 -0.9127 -0.2760
 3927TIP3   OH211737   2.680   1.838   1.351  0.5639 -0.0306  0.2305
 3927TIP3    H111738   2.724   1.756   1.329  0.1559 -0.0990 -0.3686
 3927TIP3    H211739   2.673   1.837   1.446  1.1088 -0.4047  0.2702
 3928TIP3   OH211740   4.668   2.640   5.696  0.3081 -0.1438  0.2111
 3928TIP3    H111741   4.645   2.688   5.617 -1.2593  0.3738  0.9349
 3928TIP3    H211742   4.629   2.691   5.767  0.0044 -1.6098  1.1368
 3929TIP3   OH211743   6.398   2.899   6.488 -0.1326  0.6267  0.3559
 3929TIP3    H111744   6.474   2.852   6.452 -0.7999  0.1722 -0.4939
 3929TIP3    H211745   6.323   2.856   6.448 -0.7920  1.9996  0.0758
 3930TIP3   OH211746   3.252   1.344   6.207 -0.3018  0.3003 -0.3788
 3930TIP3    H111747   3.174   1.313   6.161 -0.4861  1.2505 -0.7186
 3930TIP3    H211748   3.229   1.432   6.237 -0.0986 -0.1870  1.3182
 3931TIP3   OH211749   6.004   1.238   2.940 -0.0917 -0.1277 -0.2838
 3931TIP3    H111750   6.004   1.219   3.033 -1.1755 -0.6190 -0.3647
 3931TIP3    H211751   5.950   1.317   2.931  0.5201  0.2810 -0.4384
 3932TIP3   OH211752   6.255   4.485   5.121 -0.4830  0.2776 -0.6773
 3932TIP3    H111753   6.166   4.520   5.124  0.0120  1.5313  1.2487
 3932TIP3    H211754   6.311   4.561   5.136  0.8865 -0.5939 -1.2078
 3933TIP3   OH211755   6.977   1.411   1.029  0.2703  0.2283 -0.3158
 3933TIP3    H111756   7.059   1.449   1.062  0.7665  0.1320 -1.3804
 3933TIP3    H211757   7.006   1.342   0.969 -0.5942  0.3024 -0.8266
 3934TIP3   OH211758   2.179   2.127   2.866  0.1949  0.5405 -0.3926
 3934TIP3    H111759   2.179   2.207   2.813  1.6377  0.3646 -0.6984
 3934TIP3    H211760   2.155   2.157   2.954 -0.6780  1.0743 -0.7966
 3935TIP3   OH211761   0.115   5.407   0.663 -0.6278 -0.0637  0.6177
 3935TIP3    H111762   0.069   5.437   0.584  1.0218  0.5279 -0.1584
 3935TIP3    H211763   0.154   5.487   0.699 -1.4014 -0.3221  2.0919
 3936TIP3   OH211764   4.902   7.778   1.152  0.3127  0.2620 -0.3407
 3936TIP3    H111765   4.902   7.752   1.060  3.2766 -0.6192 -0.2000
 3936TIP3    H211766   4.835   7.724   1.193 -0.9321  0.5448 -1.9263
 3937TIP3   OH211767   0.496   5.507   0.165 -0.0979  0.5730 -0.6873
 3937TIP3    H111768   0.477   5.577   0.103  0.1886  1.9419  0.7312
 3937TIP3    H211769   0.420   5.449   0.160  0.9271 -0.7594 -4.0862
 3938TIP3   OH211770   3.365   7.056   4.951  0.1484  0.0577  0.4252
 3938TIP3    H111771   3.355   7.027   4.860 -1.5720 -2.2262  1.2195
 3938TIP3    H211772   3.331   7.145   4.952  0.5778  0.2685 -1.2412
 3939TIP3   OH211773   0.633   1.241   2.310  0.1232 -0.2410 -0.1398
 3939TIP3    H111774   0.637   1.331   2.345 -0.3314 -0.1556 -0.3119
 3939TIP3    H211775   0.715   1.202   2.339  0.8229  0.5595 -0.9709
 3940TIP3   OH211776   6.864   6.920   2.902  0.2125  0.0480 -0.7029
 3940TIP3    H111777   6.959   6.922   2.908  0.1908  0.8448 -0.4642
 3940TIP3    H211778   6.846   6.865   2.826  0.7849 -2.0338  0.5936
 3941TIP3   OH211779   7.471   5.278   4.540  0.1953 -0.1957 -0.5606
 3941TIP3    H111780   7.454   5.267   4.633  0.5834 -1.7463 -0.6470
 3941TIP3    H211781   7.408   5.220   4.497  0.0994  0.4167 -1.2646
 3942TIP3   OH211782   6.540   5.570   1.295 -0.1899  0.0504 -0.0181
 3942TIP3    H111783   6.546   5.633   1.367  2.4000  0.2616 -0.3389
 3942TIP3    H211784   6.479   5.504   1.327 -1.1317  1.4641  1.2891
 3943TIP3   OH211785   3.651   4.217   0.745 -0.2137 -0.5761  0.6616
 3943TIP3    H111786   3.569   4.199   0.792  0.3343  0.9734  2.3444
 3943TIP3    H211787   3.720   4.192   0.806  0.5384  1.1452  0.5617
 3944TIP3   OH211788   5.007   1.329   3.858 -0.0740 -0.3896 -0.6811
 3944TIP3    H111789   5.094   1.291   3.870 -0.0322  0.0141  0.5082
 3944TIP3    H211790   4.961   1.308   3.939 -0.9072 -0.1539 -1.0871
 3945TIP3   OH211791   3.456   3.220   5.740  0.2492  0.2896 -0.3970
 3945TIP3    H111792   3.481   3.303   5.780 -0.9146  1.5065 -2.0879
 3945TIP3    H211793   3.383   3.242   5.682 -0.3976 -2.0013 -0.5444
 3946TIP3   OH211794   2.978   1.555   5.936 -0.0830 -0.6632  0.1155
 3946TIP3    H111795   2.887   1.583   5.932  0.3999  0.9455 -0.1925
 3946TIP3    H211796   2.986   1.511   6.020 -1.1424 -0.8427  0.1363
 3947TIP3   OH211797   0.812   7.332   6.146  0.0409 -0.2944  0.2285
 3947TIP3    H111798   0.878   7.402   6.152  0.5563 -0.7847  0.3072
 3947TIP3    H211799   0.733   7.378   6.118  0.5832  0.2007 -0.5666
 3948TIP3   OH211800   0.379   1.595   3.102  0.2444  0.1086  0.2714
 3948TIP3    H111801   0.469   1.579   3.130  0.5974  1.0189 -0.3243
 3948TIP3    H211802   0.387   1.642   3.019 -0.7837 -0.1207  0.0240
 3949TIP3   OH211803   4.086   6.378   5.918 -0.5013 -0.0422 -0.6055
 3949TIP3    H111804   4.116   6.324   5.845  0.3000 -0.5172  0.0616
 3949TIP3    H211805   4.025   6.323   5.966  1.1139 -0.7913  0.6813
 3950TIP3   OH211806   0.639   5.052   4.569 -0.5603  0.2607  0.2268
 3950TIP3    H111807   0.571   4.987   4.585 -0.2916  0.1946  1.1736
 3950TIP3    H211808   0.601   5.111   4.505 -1.8283  0.6954  1.3392
 3951TIP3   OH211809   3.258   1.798   1.345  0.4963  0.1115 -0.1182
 3951TIP3    H111810   3.271   1.874   1.402 -0.3881 -0.9308  1.5463
 3951TIP3    H211811   3.200   1.741   1.394  0.3946 -1.2465 -1.7309
 3952TIP3   OH211812   3.026   1.741   5.067  0.5071 -0.3426 -0.5198
 3952TIP3    H111813   2.954   1.688   5.033  0.1673 -1.1835  1.3782
 3952TIP3    H211814   2.984   1.802   5.128  1.3694 -0.9089  0.6895
 3953TIP3   OH211815   5.691   0.502   4.021  0.2126 -0.0808  0.6216
 3953TIP3    H111816   5.729   0.552   3.949  1.1933  0.7154  1.6518
 3953TIP3    H211817   5.601   0.483   3.993  1.9780 -4.7109 -3.3181
 3954TIP3   OH211818   6.683   5.983   3.321  0.1050 -0.6541 -0.3741
 3954TIP3    H111819   6.619   5.925   3.361 -0.7485  0.2540 -0.3866
 3954TIP3    H211820   6.649   6.001   3.234 -0.9018  1.6663  0.3929
 3955TIP3   OH211821   3.485   1.275   2.377 -0.2981  1.0023  0.4413
 3955TIP3    H111822   3.504   1.192   2.333  2.8677  0.7404  2.0326
 3955TIP3    H211823   3.465   1.249   2.467  2.3314  1.9794  1.3719
 3956TIP3   OH211824   1.405   1.223   1.367  0.8078 -0.6834 -0.0765
 3956TIP3    H111825   1.456   1.161   1.419  0.6792 -2.2773 -1.7311
 3956TIP3    H211826   1.326   1.174   1.342  0.3337  0.4098 -0.7946
 3957TIP3   OH211827   7.729   5.905   5.056  0.5901 -0.7156  0.4891
 3957TIP3    H111828   7.808   5.852   5.070 -0.3454 -1.7771  2.0498
 3957TIP3    H211829   7.733   5.971   5.124  0.6682 -0.0703 -0.1290
 3958TIP3   OH211830   2.097   1.612   2.814  0.1968 -0.2502 -0.3328
 3958TIP3    H111831   2.023   1.551   2.822 -0.3318  0.2629 -1.2126
 3958TIP3    H211832   2.068   1.690   2.861 -1.0399  1.0373 -3.0144
 3959TIP3   OH211833   6.979   4.269   6.556  0.2822  0.1259 -0.0445
 3959TIP3    H111834   6.985   4.315   6.640 -0.2072 -1.0213  0.6423
 3959TIP3    H211835   7.070   4.259   6.528  0.5109 -0.1904  0.7663
 3960TIP3   OH211836   4.026   7.496   0.357  0.3963 -0.1925 -0.1402
 3960TIP3    H111837   3.986   7.534   0.436  0.5824  1.3844 -0.7732
 3960TIP3    H211838   3.979   7.536   0.285  0.7325 -1.0613 -0.8547
 3961TIP3   OH211839   7.738   2.968   4.678 -0.0805 -0.2795  0.3072
 3961TIP3    H111840   7.804   2.898   4.687  0.5334  0.4903  2.8949
 3961TIP3    H211841   7.737   2.989   4.585  2.9430 -0.7426  0.0654
 3962TIP3   OH211842   4.171   2.139   0.841 -0.2879 -0.0241 -0.1881
 3962TIP3    H111843   4.198   2.130   0.749  0.1369  0.3018 -0.0935
 3962TIP3    H211844   4.199   2.057   0.882  2.7637  1.2441  0.4602
 3963TIP3   OH211845   1.962   4.528   6.609  0.0107 -0.3689  0.7064
 3963TIP3    H111846   1.873   4.513   6.639 -0.8561  1.7789 -0.5614
 3963TIP3    H211847   1.969   4.476   6.528 -1.4171  2.1193 -1.1695
 3964TIP3   OH211848   5.985   2.620   6.574  0.6921 -1.0783 -0.8308
 3964TIP3    H111849   5.905   2.586   6.533 -0.8325 -1.9511  2.5277
 3964TIP3    H211850   5.994   2.708   6.538 -2.2788 -0.6450 -0.7729
 3965TIP3   OH211851   1.133   6.787   0.363 -1.1418  0.0058  0.2238
 3965TIP3    H111852   1.094   6.868   0.330 -2.4442 -0.8852 -0.4911
 3965TIP3    H211853   1.142   6.731   0.285  0.1426 -0.3965  0.6359
 3966TIP3   OH211854   1.980   3.011   4.805 -0.2329 -0.2916 -0.1157
 3966TIP3    H111855   2.067   3.001   4.765  0.8031 -1.9424  2.3073
 3966TIP3    H211856   1.994   3.074   4.876 -0.4427 -2.1278  1.6315
 3967TIP3   OH211857   5.467   4.668   4.009 -0.1084  0.0790 -0.1918
 3967TIP3    H111858   5.562   4.655   4.017 -0.2774 -0.8914  0.4516
 3967TIP3    H211859   5.429   4.599   4.064 -1.1794  0.7899 -0.0065
 3968TIP3   OH211860   4.289   7.447   0.295 -0.5133 -0.2056 -0.1588
 3968TIP3    H111861   4.207   7.478   0.333  0.0740  0.6838  0.4270
 3968TIP3    H211862   4.263   7.396   0.219 -1.6865 -1.4906  1.0511
 3969TIP3   OH211863   3.717   3.431   1.857 -0.1371 -0.0846 -0.6270
 3969TIP3    H111864   3.691   3.339   1.850  1.7961 -0.7238  0.0080
 3969TIP3    H211865   3.640   3.475   1.895 -0.7104 -1.6344  0.0866
 3970TIP3   OH211866   0.885   3.451   2.805 -0.0844  0.0601 -0.3478
 3970TIP3    H111867   0.806   3.407   2.837 -0.5703  1.2350  0.1164
 3970TIP3    H211868   0.864   3.478   2.716  0.0485 -0.2099 -0.4648
 3971TIP3   OH211869   7.216   7.420   3.513  0.1800  0.6744  0.2769
 3971TIP3    H111870   7.244   7.411   3.604 -0.6420 -2.2687  0.3407
 3971TIP3    H211871   7.159   7.496   3.513 -0.4565  0.2756  2.4309
 3972TIP3   OH211872   1.347   2.552   2.584 -0.1787  0.3829  0.0763
 3972TIP3    H111873   1.421   2.535   2.643 -0.4560 -0.3167  0.2395
 3972TIP3    H211874   1.333   2.646   2.589  2.0020  0.8480 -1.5323
 3973TIP3   OH211875   6.089   2.112   5.397  0.0790 -0.1325  0.0705
 3973TIP3    H111876   6.058   2.117   5.487  0.6864  0.1600  0.2752
 3973TIP3    H211877   6.070   2.023   5.369  0.1479 -0.3123  0.5933
 3974TIP3   OH211878   7.623   1.440   1.884  0.5047 -0.3433 -0.3006
 3974TIP3    H111879   7.538   1.482   1.889 -0.0998 -1.3869 -1.4201
 3974TIP3    H211880   7.628   1.403   1.796  1.5304 -1.4859  0.1914
 3975TIP3   OH211881   4.692   0.122   5.550 -0.1669 -0.3251 -0.2761
 3975TIP3    H111882   4.686   0.040   5.501 -0.5163  0.1679 -1.0766
 3975TIP3    H211883   4.695   0.190   5.483 -0.0389  0.3328  0.3812
 3976TIP3   OH211884   2.899   7.445   5.035  0.1646  0.0977  0.0975
 3976TIP3    H111885   2.805   7.432   5.041 -0.1085  2.1516  1.3036
 3976TIP3    H211886   2.918   7.515   5.097  2.5816 -0.5958  0.2648
 3977TIP3   OH211887   8.247   7.384   6.192  0.7486  0.1592 -0.5825
 3977TIP3    H111888   8.292   7.469   6.192 -0.2990  0.7412  0.6088
 3977TIP3    H211889   8.189   7.388   6.116  0.1266  0.8518 -0.0895
 3978TIP3   OH211890   6.460   4.299   2.813  0.0584 -0.2325  0.4047
 3978TIP3    H111891   6.367   4.310   2.792  0.0005 -0.3900  0.5721
 3978TIP3    H211892   6.504   4.298   2.728  0.2474  2.6834  0.3470
 3979TIP3   OH211893   8.167   1.772   2.993 -0.0261 -0.1067 -0.1558
 3979TIP3    H111894   8.252   1.768   2.948  1.2781 -0.4310  2.1459
 3979TIP3    H211895   8.169   1.697   3.054 -1.8840  0.0186  0.1077
 3980TIP3   OH211896   7.232   4.108   2.375 -0.1594 -0.0996  0.0790
 3980TIP3    H111897   7.191   4.027   2.403 -0.6937 -0.4856 -1.7303
 3980TIP3    H211898   7.324   4.098   2.400  0.0620 -1.8462 -1.2742
 3981TIP3   OH211899   5.386   7.589   2.881  0.1410  0.2801 -0.2939
 3981TIP3    H111900   5.366   7.503   2.919 -0.3318 -0.0346 -1.2020
 3981TIP3    H211901   5.434   7.636   2.949 -2.0091  0.3244  1.2929
 3982TIP3   OH211902   1.437   2.320   0.404  0.3931 -0.2366  0.4334
 3982TIP3    H111903   1.437   2.230   0.371  1.5820 -0.4894  1.0679
 3982TIP3    H211904   1.431   2.311   0.499 -1.7587  0.4502  0.4226
 3983TIP3   OH211905   5.512   2.899   5.176 -0.0939 -0.1592  0.5636
 3983TIP3    H111906   5.587   2.849   5.209  0.0862 -1.6161 -1.7749
 3983TIP3    H211907   5.464   2.925   5.254  1.5915 -1.2195  2.0368
 3984TIP3   OH211908   7.989   7.157   4.780 -0.2410 -0.5268 -0.1772
 3984TIP3    H111909   7.921   7.138   4.716 -0.3631 -3.4948  0.6930
 3984TIP3    H211910   8.006   7.073   4.823 -0.2611  1.2719  3.8089
 3985TIP3   OH211911   1.571   3.351   0.355  0.4106 -0.0327  0.4239
 3985TIP3    H111912   1.486   3.393   0.367 -0.2438 -0.5376 -1.9558
 3985TIP3    H211913   1.634   3.417   0.380 -0.6275  0.4331  2.0331
 3986TIP3   OH211914   4.575   1.974   3.815  0.2114 -0.1882  0.4461
 3986TIP3    H111915   4.658   1.983   3.863  0.5541  1.1263 -0.3539
 3986TIP3    H211916   4.522   2.048   3.843 -0.1865 -0.2796 -0.0484
 3987TIP3   OH211917   6.429   5.876   5.736  0.1214  0.1859 -1.2902
 3987TIP3    H111918   6.449   5.876   5.829 -2.0796  0.4368 -0.7673
 3987TIP3    H211919   6.473   5.955   5.702  0.2586  0.5505 -0.3025
 3988TIP3   OH211920   5.720   2.680   6.704  0.3686  0.8741 -0.2336
 3988TIP3    H111921   5.723   2.679   6.800  0.3706 -0.1358 -0.2345
 3988TIP3    H211922   5.627   2.677   6.683  0.3366 -3.0344 -0.2269
 3989TIP3   OH211923   7.008   1.096   1.681 -0.6858  0.0962  0.7195
 3989TIP3    H111924   6.938   1.036   1.707 -1.6138  1.4153  1.4494
 3989TIP3    H211925   7.003   1.099   1.585  0.4257 -2.1361  0.5293
 3990TIP3   OH211926   2.246   5.184   2.339  0.1765  0.0763 -0.1520
 3990TIP3    H111927   2.259   5.193   2.433 -0.6576  2.4090 -0.2126
 3990TIP3    H211928   2.331   5.202   2.300  0.3699 -0.2731  0.1007
 3991TIP3   OH211929   3.050   7.502   4.553 -0.1076  0.1092 -0.0730
 3991TIP3    H111930   3.088   7.499   4.641 -0.9093  2.0085  0.3993
 3991TIP3    H211931   3.124   7.522   4.496  0.2997 -0.3973  0.2742
 3992TIP3   OH211932   6.690   4.020   5.748 -0.2535 -0.8310 -0.3652
 3992TIP3    H111933   6.723   4.048   5.663  1.4264 -0.9044  0.2332
 3992TIP3    H211934   6.709   4.093   5.807  1.1651 -1.8672  0.5145
 3993TIP3   OH211935   3.193   0.535   4.165  0.1869  0.2442  0.0903
 3993TIP3    H111936   3.223   0.450   4.195 -0.5438  0.5420  1.7658
 3993TIP3    H211937   3.272   0.590   4.166  0.5424 -0.2341 -0.4418
 3994TIP3   OH211938   1.129   0.844   2.245 -0.2629 -0.1690  0.1953
 3994TIP3    H111939   1.036   0.867   2.242 -0.3084 -0.4377 -1.5950
 3994TIP3    H211940   1.166   0.902   2.313 -1.9236 -0.9142  1.8255
 3995TIP3   OH211941   3.883   0.715   5.823  0.1155 -0.1645 -0.0087
 3995TIP3    H111942   3.855   0.805   5.801  0.1070  0.1453  1.2319
 3995TIP3    H211943   3.929   0.724   5.906 -0.8167 -1.4570  0.6775
 3996TIP3   OH211944   3.008   0.219   0.093 -0.4185  0.1262  0.4909
 3996TIP3    H111945   2.929   0.230   0.039 -2.3950  0.6125  3.2170
 3996TIP3    H211946   3.063   0.294   0.071 -0.2796 -0.6470 -2.0542
 3997TIP3   OH211947   3.500   7.301   3.625  0.2471 -0.3249 -0.0636
 3997TIP3    H111948   3.504   7.266   3.535 -1.0659 -0.8293  0.0507
 3997TIP3    H211949   3.531   7.229   3.680  2.9681  0.6290 -0.1992
 3998TIP3   OH211950   0.329   3.479   0.395  0.0615 -0.0520  0.4778
 3998TIP3    H111951   0.288   3.565   0.393 -0.4950 -0.2934  1.1147
 3998TIP3    H211952   0.259   3.418   0.370  0.5410 -0.2909 -0.3069
 3999TIP3   OH211953   1.020   3.544   3.301  0.9520 -0.4127  0.5719
 3999TIP3    H111954   0.996   3.452   3.313 -1.3811  0.0362 -0.1445
 3999TIP3    H211955   0.990   3.566   3.213  1.4740  1.0475  0.7272
 4000TIP3   OH211956   7.571   6.265   1.910 -0.2390  0.2470 -0.2651
 4000TIP3    H111957   7.503   6.285   1.974 -0.6019 -0.7366 -0.3127
 4000TIP3    H211958   7.653   6.275   1.957 -0.4801  0.1029  0.1882
 4001TIP3   OH211959   1.150   2.906   3.537 -0.4118 -0.6072 -0.2451
 4001TIP3    H111960   1.162   2.948   3.451  0.8117 -1.3484 -0.4684
 4001TIP3    H211961   1.176   2.973   3.600 -0.4513 -0.3503 -0.4985
 4002TIP3   OH211962   3.796   6.704   6.234  0.0858  0.1235  0.4410
 4002TIP3    H111963   3.793   6.617   6.195 -0.3350  0.0707  0.5801
 4002TIP3    H211964   3.832   6.690   6.322 -0.4879  0.0132  0.6589
 4003TIP3   OH211965   0.118   6.866   2.372  0.0298 -0.9310  0.1604
 4003TIP3    H111966   0.133   6.771   2.375  0.7964 -0.8214 -0.0050
 4003TIP3    H211967   0.198   6.904   2.409  0.7030 -0.2823 -1.8224
 4004TIP3   OH211968   6.495   3.925   2.427  0.4214  0.2832  0.4113
 4004TIP3    H111969   6.473   4.014   2.401  1.1761  0.1316 -0.8201
 4004TIP3    H211970   6.411   3.882   2.441 -0.0255  0.5175 -1.3650
 4005TIP3   OH211971   0.571   0.950   2.437  0.4922 -0.1600 -0.2361
 4005TIP3    H111972   0.632   1.023   2.429 -0.7302  0.8111 -1.2521
 4005TIP3    H211973   0.484   0.991   2.436 -0.2313 -1.3569  2.4801
 4006TIP3   OH211974   3.655   0.324   1.445  0.1978  0.4974  0.2360
 4006TIP3    H111975   3.597   0.399   1.456  0.8305  0.8254  1.4661
 4006TIP3    H211976   3.600   0.258   1.402 -0.3891  1.6131 -0.8013
 4007TIP3   OH211977   7.585   1.600   0.247  0.6548  0.2158  0.5534
 4007TIP3    H111978   7.537   1.683   0.243  1.3124  0.5535 -1.0086
 4007TIP3    H211979   7.653   1.615   0.313  0.7374  0.9036  0.3205
 4008TIP3   OH211980   8.285   7.509   4.201  0.6762  0.2175 -0.3636
 4008TIP3    H111981   8.343   7.557   4.143  0.0164 -0.1748 -1.3858
 4008TIP3    H211982   8.249   7.439   4.146 -1.2639  0.8446  0.0152
 4009TIP3   OH211983   1.906   4.759   4.762  0.5467  0.0047  0.1529
 4009TIP3    H111984   1.978   4.807   4.804  0.8116  0.2522 -0.5707
 4009TIP3    H211985   1.846   4.828   4.733  0.3842 -0.1618  0.0944
 4010TIP3   OH211986   6.559   1.863   1.897  1.0316 -0.6428  0.0107
 4010TIP3    H111987   6.543   1.908   1.815 -1.8477 -0.7848  0.4064
 4010TIP3    H211988   6.598   1.779   1.871 -0.5291 -1.0019 -1.3108
 4011TIP3   OH211989   1.406   2.663   3.533  0.5486  0.3131  0.0056
 4011TIP3    H111990   1.483   2.637   3.482  0.3537  2.1392 -1.3460
 4011TIP3    H211991   1.436   2.739   3.583  0.8847 -1.7328  3.1683
 4012TIP3   OH211992   0.432   0.074   2.677  0.1260  0.1404 -0.4058
 4012TIP3    H111993   0.518   0.073   2.718 -0.0338  1.6235  0.0134
 4012TIP3    H211994   0.410  -0.019   2.666  0.9281 -0.2865  1.2388
 4013TIP3   OH211995   7.767   4.625   2.460 -0.4622  0.3839 -0.7722
 4013TIP3    H111996   7.839   4.591   2.513 -1.8988 -1.8583 -0.1355
 4013TIP3    H211997   7.711   4.671   2.523 -0.2299  1.0903 -1.0647
 4014TIP3   OH211998   7.270   3.593   1.192 -0.0565 -0.5990  0.8638
 4014TIP3    H111999   7.333   3.656   1.157 -0.2051 -0.1238  1.4474
 4014TIP3    H212000   7.322   3.514   1.207  0.2978 -0.3657  0.8838
 4015TIP3   OH212001   2.220   3.015   2.991 -0.0820  0.0422  0.0091
 4015TIP3    H112002   2.262   3.096   3.021  2.7759 -1.1572 -0.4810
 4015TIP3    H212003   2.292   2.960   2.961 -2.0763 -2.1283 -1.0969
 4016TIP3   OH212004   4.275   4.882   2.159  0.3507 -0.3906  0.3652
 4016TIP3    H112005   4.355   4.853   2.114 -0.8851 -0.6491 -1.8216
 4016TIP3    H212006   4.285   4.849   2.248  1.7096 -2.3428 -0.4279
 4017TIP3   OH212007   2.810   7.173   3.113  0.2000  0.6856 -0.2301
 4017TIP3    H112008   2.846   7.158   3.201  1.4552 -0.9707 -0.9720
 4017TIP3    H212009   2.718   7.195   3.128  0.3322  0.2074  1.4909
 4018TIP3   OH212010   7.355   2.649   2.971  0.5900 -0.0102 -0.7401
 4018TIP3    H112011   7.432   2.602   2.940  1.2962  0.7554 -0.1946
 4018TIP3    H212012   7.385   2.696   3.049 -0.9524 -1.3355  0.7316
 4019TIP3   OH212013   7.574   1.987   1.834  0.2715 -0.1741 -0.2604
 4019TIP3    H112014   7.650   1.945   1.874 -0.3971  0.2948  1.5999
 4019TIP3    H212015   7.499   1.953   1.884 -0.4852  1.4792 -0.2080
 4020TIP3   OH212016   3.792   6.115   1.154 -0.1345 -0.0635 -0.1670
 4020TIP3    H112017   3.728   6.061   1.107  0.8832 -1.4732 -0.0047
 4020TIP3    H212018   3.871   6.111   1.100  0.1375  0.7905  0.1572
 4021TIP3   OH212019   6.133   4.833   0.222 -0.0384 -0.0163  0.5617
 4021TIP3    H112020   6.191   4.833   0.299 -0.7673  0.2792  1.1275
 4021TIP3    H212021   6.186   4.870   0.152  0.4827  0.1911  1.0557
 4022TIP3   OH212022   4.891   2.033   5.275  0.1155  0.0416  0.5959
 4022TIP3    H112023   4.799   2.050   5.253  0.5807  0.8990 -0.7949
 4022TIP3    H212024   4.889   1.953   5.328 -1.2254 -1.3505 -1.4434
 4023TIP3   OH212025   1.706   6.395   4.122 -0.2966  0.3898 -0.8241
 4023TIP3    H112026   1.787   6.413   4.169 -1.0700  0.6514  0.4521
 4023TIP3    H212027   1.707   6.456   4.047  0.7076  0.3265 -0.8708
 4024TIP3   OH212028   7.389   1.025   0.079  0.2868  0.3463  0.2676
 4024TIP3    H112029   7.394   1.004  -0.014 -0.8136 -3.6793  0.9334
 4024TIP3    H212030   7.330   1.100   0.084 -1.0441 -0.4319 -2.2103
 4025TIP3   OH212031   2.204   7.139   0.688 -0.1080 -0.7053 -0.0220
 4025TIP3    H112032   2.284   7.087   0.675 -0.3541 -1.8520  2.4527
 4025TIP3    H212033   2.134   7.074   0.693 -1.0479  0.2052 -0.8204
 4026TIP3   OH212034   4.206   5.420   1.536 -0.0226 -0.4273 -0.1161
 4026TIP3    H112035   4.216   5.438   1.630 -0.3917 -0.2278 -0.1145
 4026TIP3    H212036   4.113   5.405   1.524  0.1303 -1.2229 -0.3227
 4027TIP3   OH212037   4.089   1.901   6.519  0.4070 -0.3683 -0.2470
 4027TIP3    H112038   4.015   1.841   6.511  0.5788 -0.4477 -1.5500
 4027TIP3    H212039   4.049   1.984   6.544 -0.2026 -0.2999 -1.3643
 4028TIP3   OH212040   5.578   3.264   6.006  0.3098  0.1750  0.2614
 4028TIP3    H112041   5.516   3.204   5.964  1.1299 -0.9829  0.6588
 4028TIP3    H212042   5.649   3.273   5.943  0.6448 -0.0602  0.5996
 4029TIP3   OH212043   6.677   5.331   3.211  0.3589 -0.5377  0.1587
 4029TIP3    H112044   6.599   5.285   3.180  0.9716 -0.8102 -1.0394
 4029TIP3    H212045   6.699   5.287   3.293 -1.4782  0.3925  1.2265
 4030TIP3   OH212046   2.768   0.819   1.774  0.0867 -0.5430 -0.0798
 4030TIP3    H112047   2.720   0.828   1.691 -0.8079 -0.7800  0.3960
 4030TIP3    H212048   2.764   0.906   1.813 -1.0614 -0.8548  0.5349
 4031TIP3   OH212049   2.907   3.214   0.178 -0.8734 -0.6798  0.9130
 4031TIP3    H112050   2.944   3.266   0.106 -2.9077  1.4573  1.2705
 4031TIP3    H212051   2.861   3.143   0.134 -0.8684 -0.2441  0.1835
 4032TIP3   OH212052   3.893   1.449   6.052  0.1686  0.2982  0.0471
 4032TIP3    H112053   3.826   1.406   6.000  1.0436 -0.0768 -0.8072
 4032TIP3    H212054   3.881   1.415   6.141  0.0678 -0.7796 -0.3665
 4033TIP3   OH212055   6.550   5.735   4.404 -0.2702 -0.2539  0.1536
 4033TIP3    H112056   6.501   5.755   4.324  2.2848 -1.2651 -1.8053
 4033TIP3    H212057   6.622   5.798   4.405 -2.1658  2.1716  3.7484
 4034TIP3   OH212058   3.293   0.884   5.058  0.1119 -0.8139  0.2111
 4034TIP3    H112059   3.339   0.855   5.137  2.8971 -2.4718 -1.8334
 4034TIP3    H212060   3.260   0.803   5.018 -1.3335  0.0004 -0.3029
 4035TIP3   OH212061   2.395   0.235   4.009 -0.2245 -0.2929 -0.0849
 4035TIP3    H112062   2.400   0.161   3.949 -2.5616  0.0434 -0.8051
 4035TIP3    H212063   2.308   0.227   4.049 -0.1390  1.4989  0.5381
 4036TIP3   OH212064   2.280   3.823   5.975  0.3769 -0.3383  0.5410
 4036TIP3    H112065   2.186   3.809   5.965  0.4296 -0.3563  0.0718
 4036TIP3    H212066   2.316   3.812   5.887  0.6352  1.1131  0.4403
 4037TIP3   OH212067   6.203   7.119   3.961  0.4158  0.0018 -0.3330
 4037TIP3    H112068   6.113   7.153   3.967  0.5486  0.5365 -1.2338
 4037TIP3    H212069   6.192   7.026   3.945  0.0383 -0.1895  0.9180
 4038TIP3   OH212070   6.373   2.541   6.373  0.0598 -0.2618 -0.0464
 4038TIP3    H112071   6.343   2.626   6.341  0.8192  1.6568  3.6998
 4038TIP3    H212072   6.294   2.487   6.378 -0.8499  1.0039 -0.4150
 4039TIP3   OH212073   5.789   1.831   3.714 -0.3443  0.3458 -0.3471
 4039TIP3    H112074   5.725   1.765   3.690 -1.4073  0.7060  1.3786
 4039TIP3    H212075   5.785   1.895   3.642 -1.7846  0.2626 -0.3695
 4040TIP3   OH212076   1.532   0.218   5.778  0.1406 -0.6289  0.3237
 4040TIP3    H112077   1.508   0.311   5.783 -0.5569 -0.8552  1.3825
 4040TIP3    H212078   1.517   0.185   5.866  1.2712 -1.5462  0.1893
 4041TIP3   OH212079   4.408   7.156   0.505 -0.4534 -0.5813 -0.6218
 4041TIP3    H112080   4.404   7.110   0.421 -2.3887  0.1993 -1.0093
 4041TIP3    H212081   4.440   7.243   0.482  0.0316 -0.6940 -0.3800
 4042TIP3   OH212082   3.434   1.128   2.115 -0.1956  0.0783  0.1477
 4042TIP3    H112083   3.492   1.199   2.086  0.3840  0.7921  2.7093
 4042TIP3    H212084   3.484   1.048   2.099  0.8198  0.5713  0.7087
 4043TIP3   OH212085   5.193   0.856   4.370 -0.4015 -0.3926  0.3984
 4043TIP3    H112086   5.124   0.838   4.433 -1.5814 -0.4529 -0.8682
 4043TIP3    H212087   5.243   0.929   4.409 -1.6086  0.1380  1.0055
 4044TIP3   OH212088   2.524   2.983   0.183 -0.1347 -0.2058  0.3447
 4044TIP3    H112089   2.486   2.929   0.114  0.5805 -1.9091  1.2288
 4044TIP3    H212090   2.618   2.984   0.163 -0.3099  2.4198 -0.7685
 4045TIP3   OH212091   3.082   0.119   5.110 -0.3346  0.4186  0.4285
 4045TIP3    H112092   3.028   0.051   5.069  0.3645  1.4013 -2.3531
 4045TIP3    H212093   3.019   0.177   5.153 -1.3640  0.5007 -1.1146
 4046TIP3   OH212094   1.057   5.562   5.671 -0.0764  0.4017 -0.3357
 4046TIP3    H112095   1.111   5.485   5.692  0.2512  1.2645  2.4201
 4046TIP3    H212096   0.973   5.545   5.714 -1.0282  0.4074 -2.0828
 4047TIP3   OH212097   2.022   4.169   4.725 -0.0104  0.0528  0.2906
 4047TIP3    H112098   1.948   4.167   4.664 -0.3032  0.3520  0.6272
 4047TIP3    H212099   1.983   4.196   4.808  0.3376 -0.6457  0.6822
 4048TIP3   OH212100   2.582   3.416   3.231  0.2631 -0.1204  0.4137
 4048TIP3    H112101   2.513   3.357   3.261 -1.2116  0.8949 -0.8406
 4048TIP3    H212102   2.637   3.362   3.175 -1.9103 -0.0973 -1.9513
 4049TIP3   OH212103   1.541   7.289   5.608 -0.5077 -0.6497  0.2816
 4049TIP3    H112104   1.566   7.206   5.569  0.3461 -0.3882  0.2414
 4049TIP3    H212105   1.614   7.311   5.667 -0.8196 -0.0379  0.4547
 4050TIP3   OH212106   0.043   3.438   1.982  0.6669  0.3599  0.0983
 4050TIP3    H112107   0.012   3.353   2.013 -0.4533  0.3330 -1.0099
 4050TIP3    H212108   0.125   3.452   2.029  1.8906 -2.1873 -1.0187
 4051TIP3   OH212109   5.347   2.706   0.310 -0.5579  0.2595 -0.0745
 4051TIP3    H112110   5.280   2.637   0.307  1.2220 -1.6790  1.3451
 4051TIP3    H212111   5.342   2.739   0.400  1.1651 -0.8208  0.4646
 4052TIP3   OH212112   4.130   2.610   3.550 -0.4515  0.0808  0.2133
 4052TIP3    H112113   4.177   2.659   3.616 -0.2897 -0.6926  0.6840
 4052TIP3    H212114   4.043   2.595   3.587 -0.8972  1.0174 -0.4188
 4053TIP3   OH212115   7.777   2.078   1.199  0.3576  0.1992  0.0677
 4053TIP3    H112116   7.777   1.987   1.229  1.6119  0.2656  0.3205
 4053TIP3    H212117   7.771   2.130   1.279  0.0512  0.3434 -0.0483
 4054TIP3   OH212118   7.504   5.114   2.841  0.6162 -0.0080  0.5355
 4054TIP3    H112119   7.584   5.145   2.884 -0.3389  0.3962  2.1231
 4054TIP3    H212120   7.479   5.036   2.891 -0.2025  0.1274  0.3528
 4055TIP3   OH212121   5.434   2.780   3.936  0.4390 -0.5495  0.2279
 4055TIP3    H112122   5.360   2.753   3.991  1.5822  1.3934  2.9359
 4055TIP3    H212123   5.498   2.710   3.947  0.7957 -0.0236  1.7702
 4056TIP3   OH212124   0.068   2.513   6.696 -0.5000  0.1094  0.1610
 4056TIP3    H112125   0.140   2.558   6.739 -2.1221  0.4092  2.8363
 4056TIP3    H212126   0.107   2.432   6.663  1.8125  1.9681 -2.0763
 4057TIP3   OH212127   1.412   7.201   3.083 -0.4546  0.1983 -0.6128
 4057TIP3    H112128   1.400   7.106   3.089 -0.2131  0.1553 -0.8438
 4057TIP3    H212129   1.396   7.222   2.991 -0.7585  0.4182 -0.5134
 4058TIP3   OH212130   6.375   6.922   1.088  0.3865  0.7579 -0.1509
 4058TIP3    H112131   6.460   6.881   1.070  1.3347  2.5605  0.0293
 4058TIP3    H212132   6.334   6.864   1.152  1.0031 -0.6900 -0.9956
 4059TIP3   OH212133   1.588   5.099   2.563 -0.6587 -0.5157  1.0510
 4059TIP3    H112134   1.633   5.069   2.484 -2.1163 -0.7307  0.2654
 4059TIP3    H212135   1.589   5.024   2.622 -0.0489 -0.5292  1.0311
 4060TIP3   OH212136   1.822   7.208   6.114 -0.1558 -0.0614 -0.4060
 4060TIP3    H112137   1.865   7.140   6.061  2.6933  1.0877  0.2185
 4060TIP3    H212138   1.878   7.216   6.192 -2.4839  0.4706  1.3242
 4061TIP3   OH212139   0.231   1.329   0.456  0.2092 -0.4301  0.1797
 4061TIP3    H112140   0.199   1.365   0.539 -1.0232  2.2742 -1.3079
 4061TIP3    H212141   0.285   1.399   0.419  0.8504 -1.6205 -1.2373
 4062TIP3   OH212142   4.796   3.711   1.446 -0.2459  0.3028  0.1349
 4062TIP3    H112143   4.788   3.616   1.453 -1.0738  0.3849  0.3609
 4062TIP3    H212144   4.819   3.727   1.355 -0.5644 -0.0861 -0.0132
 4063TIP3   OH212145   4.244   4.464   0.695  0.1515  0.0461  1.1600
 4063TIP3    H112146   4.266   4.528   0.762 -0.0948  1.5255 -0.1029
 4063TIP3    H212147   4.259   4.510   0.612  1.3804 -2.0204  0.1491
 4064TIP3   OH212148   6.761   0.485   4.826  0.3726 -0.3235 -0.2334
 4064TIP3    H112149   6.848   0.522   4.834  1.2945 -2.3490 -0.2620
 4064TIP3    H212150   6.722   0.530   4.751  1.4976  0.3753 -0.4118
 4065TIP3   OH212151   1.021   4.850   3.392 -0.0439  0.0237  0.0274
 4065TIP3    H112152   0.962   4.864   3.465  0.5236  3.3472 -0.0287
 4065TIP3    H212153   0.992   4.767   3.353 -3.0765  0.3363  1.4098
 4066TIP3   OH212154   0.921   2.242   6.018 -0.1898  0.1242  0.1282
 4066TIP3    H112155   1.006   2.250   6.062  0.4152  1.1060 -1.1348
 4066TIP3    H212156   0.884   2.161   6.053  0.7796  0.2298  1.5103
 4067TIP3   OH212157   6.264   4.533   3.238 -0.1596 -0.0583  0.0206
 4067TIP3    H112158   6.282   4.616   3.193 -1.4850 -0.0098 -0.4507
 4067TIP3    H212159   6.263   4.468   3.168 -0.8243 -0.2064  0.1662
 4068TIP3   OH212160   7.128   1.058   4.284  0.0674 -0.1167  0.0632
 4068TIP3    H112161   7.070   1.004   4.231  0.8874 -2.6045  1.5336
 4068TIP3    H212162   7.136   1.011   4.367  2.2461  1.3616  0.7899
 4069TIP3   OH212163   2.359   4.950   6.311 -0.6025  0.0748  0.3275
 4069TIP3    H112164   2.395   4.863   6.293  1.1801  0.9171 -0.3707
 4069TIP3    H212165   2.418   4.987   6.377 -1.3845  0.7440  0.6675
 4070TIP3   OH212166   6.249   5.386   1.512  0.4916 -0.0226 -0.2737
 4070TIP3    H112167   6.193   5.388   1.434 -1.1568 -2.0965  0.7529
 4070TIP3    H212168   6.212   5.453   1.570  0.2483 -0.0901 -0.3499
 4071TIP3   OH212169   8.227   1.518   0.734 -0.1282 -0.0204 -0.3547
 4071TIP3    H112170   8.206   1.611   0.723 -0.6225 -0.1844 -0.8755
 4071TIP3    H212171   8.322   1.513   0.724  0.0627  0.5968  0.9190
 4072TIP3   OH212172   2.109   3.535   1.540 -0.4275  0.4001  0.1189
 4072TIP3    H112173   2.200   3.506   1.545 -0.6831 -0.4511 -0.0343
 4072TIP3    H212174   2.090   3.571   1.627 -0.0387  0.3177  0.2392
 4073TIP3   OH212175   7.847   1.620   1.803  0.6071 -0.5732 -0.0517
 4073TIP3    H112176   7.879   1.540   1.762 -0.7091 -0.8683 -0.5558
 4073TIP3    H212177   7.767   1.593   1.848  0.0110  0.5015 -0.4385
 4074TIP3   OH212178   0.291   1.237   5.651  0.6980  0.1301  0.1353
 4074TIP3    H112179   0.289   1.148   5.617 -0.7838 -0.5743  1.8998
 4074TIP3    H212180   0.297   1.227   5.746 -2.4506  1.7571  0.6455
 4075TIP3   OH212181   7.965   2.971   2.705 -0.3179  0.3707  0.2814
 4075TIP3    H112182   7.957   3.058   2.746 -0.4370  0.8161 -0.6551
 4075TIP3    H212183   7.942   2.986   2.614  1.3712 -0.3016 -0.2899
 4076TIP3   OH212184   1.224   7.662   5.097  0.3870  0.1809  0.0708
 4076TIP3    H112185   1.263   7.731   5.152  0.4381 -0.1489  0.4545
 4076TIP3    H212186   1.169   7.709   5.034 -0.3791  0.5165  0.9688
 4077TIP3   OH212187   6.187   1.932   1.040  0.1725  0.4605 -0.4788
 4077TIP3    H112188   6.279   1.906   1.038  0.2841  0.7241 -3.2170
 4077TIP3    H212189   6.165   1.949   0.948 -2.7876 -0.2031 -0.0082
 4078TIP3   OH212190   6.939   6.949   2.443 -0.0481  0.4254  0.4596
 4078TIP3    H112191   6.857   6.902   2.429  0.2106 -0.0833  0.6471
 4078TIP3    H212192   6.946   7.008   2.368  0.8516 -1.5738 -1.1186
 4079TIP3   OH212193   7.145   5.519   5.898 -0.2263  0.2454  0.5293
 4079TIP3    H112194   7.116   5.457   5.965  0.7819  0.9652  1.6542
 4079TIP3    H212195   7.240   5.522   5.906 -0.3082  2.8010  1.3185
 4080TIP3   OH212196   5.203   3.478   6.029  0.1470  0.5511  0.1174
 4080TIP3    H112197   5.117   3.502   5.994  0.1810 -1.3347 -1.4484
 4080TIP3    H212198   5.265   3.515   5.966  0.4446  0.9595  0.6451
 4081TIP3   OH212199   5.874   3.967   4.727  0.0719 -0.5501  0.1242
 4081TIP3    H112200   5.834   4.031   4.785  2.5618  1.0295  0.2729
 4081TIP3    H212201   5.804   3.905   4.707 -2.5943  2.3429 -0.2826
 4082TIP3   OH212202   5.536   5.787   3.530 -0.3361  0.4362  0.6481
 4082TIP3    H112203   5.520   5.810   3.439  1.3971  0.2525  0.2738
 4082TIP3    H212204   5.529   5.692   3.533 -0.4188  0.4438  0.7226
 4083TIP3   OH212205   0.464   5.186   0.885  0.2000 -0.0995 -0.2821
 4083TIP3    H112206   0.377   5.152   0.863 -0.5467  0.9596  0.8742
 4083TIP3    H212207   0.449   5.279   0.902  1.0936 -0.3272  2.1705
 4084TIP3   OH212208   2.385   3.223   4.551 -0.0662 -0.2314 -0.1626
 4084TIP3    H112209   2.466   3.218   4.602  0.1836 -0.9784 -0.6010
 4084TIP3    H212210   2.391   3.148   4.492 -1.3900 -0.6690  0.2434
 4085TIP3   OH212211   1.148   7.577   0.895  0.0333  0.1838  0.4734
 4085TIP3    H112212   1.143   7.662   0.851  2.8071  1.1162  1.7461
 4085TIP3    H212213   1.222   7.533   0.853 -0.9166 -1.3408  0.3339
 4086TIP3   OH212214   6.676   0.922   0.067 -0.2857 -0.1345  0.6960
 4086TIP3    H112215   6.587   0.955   0.051 -0.1781 -0.0412  0.2774
 4086TIP3    H212216   6.676   0.897   0.160 -0.3681  1.0646  1.0369
 4087TIP3   OH212217   6.243   0.630   3.505 -0.5701  0.2249  0.0324
 4087TIP3    H112218   6.216   0.539   3.518 -2.3104  0.4925 -1.3181
 4087TIP3    H212219   6.288   0.629   3.420 -0.6449  0.6359 -0.0109
 4088TIP3   OH212220   0.743   6.781   2.632  0.3930  0.3173 -0.4346
 4088TIP3    H112221   0.823   6.749   2.673 -1.3122 -0.9862  2.0763
 4088TIP3    H212222   0.743   6.875   2.650  1.4689  0.3824 -0.7182
 4089TIP3   OH212223   4.366   1.274   2.488 -0.0531 -0.4624  0.6112
 4089TIP3    H112224   4.418   1.207   2.443  1.5894  0.5720  0.8707
 4089TIP3    H212225   4.323   1.226   2.559 -1.1313 -1.7375 -0.8244
 4090TIP3   OH212226   2.751   5.132   1.790  0.0243 -0.4397 -0.3199
 4090TIP3    H112227   2.737   5.106   1.699  0.7023 -0.0249 -0.5450
 4090TIP3    H212228   2.774   5.051   1.835 -2.3676 -1.0539 -0.0574
 4091TIP3   OH212229   3.849   5.005   1.633 -0.0664 -0.3159 -0.2266
 4091TIP3    H112230   3.777   5.036   1.579 -0.6401 -1.8303 -0.3780
 4091TIP3    H212231   3.808   4.975   1.714  0.8652  2.7586  1.5402
 4092TIP3   OH212232   0.713   3.219   3.299  0.0290  0.0937  0.8171
 4092TIP3    H112233   0.637   3.175   3.261  0.5449  0.6118 -0.9086
 4092TIP3    H212234   0.677   3.287   3.355 -0.7638 -0.2364  0.7169
 4093TIP3   OH212235   6.488   2.050   6.420  0.3851 -0.2489 -0.6490
 4093TIP3    H112236   6.465   2.054   6.513  1.9031  1.3165 -0.2916
 4093TIP3    H212237   6.532   2.132   6.403 -0.2161 -0.3307 -2.8930
 4094TIP3   OH212238   1.780   0.671   4.567 -0.0159  0.6377  0.1882
 4094TIP3    H112239   1.722   0.744   4.547  0.0092  0.8093  0.7419
 4094TIP3    H212240   1.725   0.593   4.553  0.3341  0.6839 -1.6991
 4095TIP3   OH212241   7.462   5.039   3.364  0.3484 -0.3415 -0.5677
 4095TIP3    H112242   7.463   4.944   3.367  0.2384 -0.3274  1.6363
 4095TIP3    H212243   7.374   5.061   3.333 -0.2596 -0.9761  0.6587
 4096TIP3   OH212244   0.870   7.501   1.981 -0.4324 -0.2100  0.0155
 4096TIP3    H112245   0.795   7.449   2.012 -0.0988 -0.5545  0.2529
 4096TIP3    H212246   0.831   7.569   1.925 -1.0271  0.2705  0.9870
 4097TIP3   OH212247   0.877   0.967   6.690 -0.0218  0.2343  0.2765
 4097TIP3    H112248   0.848   0.993   6.778 -1.4779  0.0637 -0.1253
 4097TIP3    H212249   0.968   0.997   6.685 -0.2897  1.3334  1.4033
 4098TIP3   OH212250   0.202   5.481   6.318 -0.5363  0.4162 -0.0451
 4098TIP3    H112251   0.247   5.546   6.264 -0.2107  0.2268 -0.0016
 4098TIP3    H212252   0.114   5.518   6.331  0.0440  1.4901  1.0765
 4099TIP3   OH212253   1.165   4.213   5.777 -0.2325  0.8509 -0.1596
 4099TIP3    H112254   1.258   4.227   5.759 -0.1944  1.0861  0.2097
 4099TIP3    H212255   1.127   4.301   5.781 -0.3923  0.7739  0.0891
 4100TIP3   OH212256   4.295   7.634   1.387 -0.3030  0.1089 -0.4253
 4100TIP3    H112257   4.272   7.542   1.399 -0.2459  0.1026 -0.3548
 4100TIP3    H212258   4.233   7.682   1.442 -0.2829  0.1066 -0.4003
 4101TIP3   OH212259   6.602   6.874   3.455  0.5435  0.8133 -0.1441
 4101TIP3    H112260   6.595   6.941   3.522  1.8084  0.9867 -0.1561
 4101TIP3    H212261   6.518   6.876   3.409  0.4469  2.1645  0.0600
 4102TIP3   OH212262   2.232   3.669   0.977 -0.3867 -0.1769 -0.0345
 4102TIP3    H112263   2.290   3.678   0.902  1.0179 -1.3283  0.8641
 4102TIP3    H212264   2.168   3.739   0.966 -0.0109 -0.1059 -2.0963
 4103TIP3   OH212265   1.183   4.307   1.765 -0.0397 -0.2043  0.0476
 4103TIP3    H112266   1.251   4.329   1.829 -0.6344  1.6549  0.1144
 4103TIP3    H212267   1.161   4.391   1.725 -0.4241 -1.1720 -1.8840
 4104TIP3   OH212268   6.431   0.891   6.332  0.1496 -0.8361 -0.1897
 4104TIP3    H112269   6.428   0.938   6.248  0.7481 -5.4581 -3.1586
 4104TIP3    H212270   6.342   0.896   6.365 -0.3953  0.2427 -1.7004
 4105TIP3   OH212271   2.364   1.042   3.875  0.2312 -0.2483  0.4088
 4105TIP3    H112272   2.378   0.972   3.939 -0.3313  0.6307  1.5398
 4105TIP3    H212273   2.287   1.014   3.826 -0.1808 -0.2885  1.0639
 4106TIP3   OH212274   7.036   7.729   1.078 -0.2986  0.0462  0.1825
 4106TIP3    H112275   7.042   7.822   1.098 -1.2142  0.2701 -0.5381
 4106TIP3    H212276   7.089   7.718   0.999 -1.6430  0.3038 -0.7790
 4107TIP3   OH212277   2.947   0.348   6.516 -0.6083 -0.0607 -0.3346
 4107TIP3    H112278   3.027   0.294   6.514 -0.3598  0.0869  2.4126
 4107TIP3    H212279   2.944   0.389   6.429  0.8272 -2.1265 -1.4464
 4108TIP3   OH212280   6.238   2.597   6.099 -0.0354 -0.0686  0.8017
 4108TIP3    H112281   6.198   2.676   6.136  0.1622  1.5083 -2.0692
 4108TIP3    H212282   6.176   2.568   6.033  0.2236 -1.9977  1.3439
 4109TIP3   OH212283   5.587   4.871   5.935 -0.5717  0.0494  0.1379
 4109TIP3    H112284   5.518   4.908   5.880 -0.4039  2.3143  1.3494
 4109TIP3    H212285   5.630   4.806   5.878 -1.5815  0.9391 -1.7462
 4110TIP3   OH212286   6.356   7.085   3.209 -0.3885  0.6879  0.1352
 4110TIP3    H112287   6.368   7.000   3.251 -0.0722  1.0620  0.8085
 4110TIP3    H212288   6.438   7.131   3.226 -0.2550  0.8495 -0.8930
 4111TIP3   OH212289   5.859   6.877   6.307  0.4813 -0.1617  0.3703
 4111TIP3    H112290   5.858   6.972   6.295  1.0372 -0.3181 -1.1989
 4111TIP3    H212291   5.776   6.848   6.270  0.3891 -0.3173  0.6936
 4112TIP3   OH212292   3.448   0.031   3.522  0.2828 -0.4178  0.2236
 4112TIP3    H112293   3.521   0.062   3.468 -0.1285  0.5632  0.1927
 4112TIP3    H212294   3.420   0.109   3.571 -0.5633 -0.8374  0.4301
 4113TIP3   OH212295   5.856   3.294   4.891 -0.3617 -0.7270  1.0073
 4113TIP3    H112296   5.951   3.284   4.892 -0.1273  0.2798 -1.7539
 4113TIP3    H212297   5.826   3.234   4.822 -1.6600 -0.5157  1.3565
 4114TIP3   OH212298   2.318   2.402   5.008  0.8057 -0.4149  0.3054
 4114TIP3    H112299   2.225   2.391   5.022  0.2969  0.2591 -2.0257
 4114TIP3    H212300   2.360   2.348   5.075 -1.2227 -0.4394  1.6302
 4115TIP3   OH212301   3.783   4.794   5.546 -0.4197 -0.1117 -0.4567
 4115TIP3    H112302   3.867   4.763   5.511 -0.4122 -1.4144  0.6335
 4115TIP3    H212303   3.767   4.739   5.622 -0.9956  1.9000  0.9456
 4116TIP3   OH212304   3.966   4.286   6.442  0.0678 -0.1673 -0.2374
 4116TIP3    H112305   3.887   4.239   6.467 -0.5905  1.2177  0.4316
 4116TIP3    H212306   3.998   4.325   6.523  0.3266  0.8917 -0.8239
 4117TIP3   OH212307   4.183   2.191   3.433 -0.8544 -0.0685 -0.5935
 4117TIP3    H112308   4.108   2.249   3.446  1.3851  3.0730 -0.5986
 4117TIP3    H212309   4.209   2.206   3.342  1.2671  0.9734  0.1145
 4118TIP3   OH212310   7.706   3.363   1.019  0.0761  0.0323  0.1659
 4118TIP3    H112311   7.707   3.370   1.115  0.5174  1.9820  0.0633
 4118TIP3    H212312   7.613   3.366   0.996  0.0124  0.4818  0.4803
 4119TIP3   OH212313   5.762   0.858   5.624  0.3889 -0.5509 -0.0059
 4119TIP3    H112314   5.857   0.853   5.619  0.5025  1.7068 -1.4881
 4119TIP3    H212315   5.745   0.925   5.691 -0.0369  0.7465 -1.3611
 4120TIP3   OH212316   4.674   5.711   2.807  0.7384  0.3290  0.0936
 4120TIP3    H112317   4.680   5.669   2.721 -0.8546 -0.1647  0.1967
 4120TIP3    H212318   4.691   5.641   2.870  1.2383  0.5514  0.2186
 4121TIP3   OH212319   1.629   6.076   3.716 -0.2223 -0.2560  0.0599
 4121TIP3    H112320   1.583   6.084   3.633  1.5348 -0.7940 -1.0057
 4121TIP3    H212321   1.570   6.117   3.780 -1.3448  0.6886 -1.5201
 4122TIP3   OH212322   0.002   0.054   5.159 -0.9691  0.9368 -0.1672
 4122TIP3    H112323  -0.067  -0.009   5.179 -0.7299  1.1184  1.3451
 4122TIP3    H212324   0.083   0.012   5.190 -0.7132  1.6680  0.1834
 4123TIP3   OH212325   0.566   6.375   0.049  0.3281 -0.3252 -0.1864
 4123TIP3    H112326   0.497   6.368   0.115  1.8074 -1.3316  1.3273
 4123TIP3    H212327   0.524   6.421  -0.024 -1.3498  0.9412  1.4617
 4124TIP3   OH212328   2.751   2.005   3.772  0.4436 -0.1062  0.1094
 4124TIP3    H112329   2.698   2.029   3.848 -0.3478  0.2666 -0.5396
 4124TIP3    H212330   2.815   2.076   3.765  0.2227  0.0992  0.1516
 4125TIP3   OH212331   0.851   3.626   6.578 -0.2694  0.0539 -0.4187
 4125TIP3    H112332   0.828   3.620   6.670 -1.4043 -0.1817 -0.7074
 4125TIP3    H212333   0.889   3.540   6.556 -0.2542  0.0160 -0.2397
 4126TIP3   OH212334   4.617   7.479   5.426 -0.2316 -0.1063 -0.7208
 4126TIP3    H112335   4.613   7.437   5.340  2.2731 -1.2934 -0.3572
 4126TIP3    H212336   4.587   7.412   5.487 -1.1369  0.4296 -0.5585
 4127TIP3   OH212337   3.728   4.517   6.065  0.3821 -0.1379  0.1702
 4127TIP3    H112338   3.796   4.449   6.057  0.9709  0.5013 -0.4290
 4127TIP3    H212339   3.771   4.589   6.111 -0.1207 -0.0148  0.4527
 4128TIP3   OH212340   1.172   4.746   2.823  0.1013 -0.1565 -0.4310
 4128TIP3    H112341   1.209   4.829   2.853  1.0747 -0.2788 -1.2454
 4128TIP3    H212342   1.206   4.681   2.884 -0.1085 -0.0576 -0.2049
 4129TIP3   OH212343   7.840   1.917   2.607 -0.2544 -0.1417  0.0068
 4129TIP3    H112344   7.813   1.893   2.518  2.0421 -1.0158 -0.5344
 4129TIP3    H212345   7.825   1.838   2.659 -1.0485  0.1853  0.2982
 4130TIP3   OH212346   0.407   0.680   1.976  0.5128 -0.1890  0.3181
 4130TIP3    H112347   0.327   0.636   1.947  0.9052 -2.0376  1.8041
 4130TIP3    H212348   0.379   0.736   2.049  0.3746  0.1736 -0.0138
 4131TIP3   OH212349   1.913   2.206   4.578 -0.1693  0.2656  0.5323
 4131TIP3    H112350   1.965   2.243   4.507  1.9807  1.5359  2.5947
 4131TIP3    H212351   1.924   2.111   4.569  2.0339  0.4747  0.4692
 4132TIP3   OH212352   4.701   4.135   1.405  0.1138 -0.0531  0.1908
 4132TIP3    H112353   4.774   4.097   1.358 -0.1963 -0.1915 -0.1842
 4132TIP3    H212354   4.624   4.115   1.351 -0.1954  0.1195  0.5585
 4133TIP3   OH212355   3.875   6.247   6.054 -0.0253  0.6743 -0.4942
 4133TIP3    H112356   3.800   6.198   6.019  0.0122  0.7534 -0.6869
 4133TIP3    H212357   3.938   6.179   6.078 -1.2531  0.4131  2.3338
 4134TIP3   OH212358   5.191   0.534   3.408  0.5748 -0.3449 -0.0940
 4134TIP3    H112359   5.193   0.545   3.503  0.7879  0.4719 -0.1794
 4134TIP3    H212360   5.276   0.568   3.379  0.5768 -0.7439 -0.5596
 4135TIP3   OH212361   6.526   4.941   4.976 -0.4611 -0.1660  0.1823
 4135TIP3    H112362   6.572   4.876   4.922 -1.1780 -0.5867  0.0758
 4135TIP3    H212363   6.595   4.977   5.032  0.5988  1.2647 -1.9013
 4136TIP3   OH212364   4.767   5.922   3.184  0.2800 -0.8736 -0.1680
 4136TIP3    H112365   4.720   6.000   3.153  0.2439 -1.3097 -1.2560
 4136TIP3    H212366   4.711   5.886   3.253  0.9331  0.7747  1.2735
 4137TIP3   OH212367   2.024   3.109   4.060 -0.3540  0.1837 -0.1717
 4137TIP3    H112368   2.011   3.098   4.155 -1.5228 -0.3007 -0.3714
 4137TIP3    H212369   2.119   3.109   4.049 -0.1417  1.9350  1.1980
 4138TIP3   OH212370   4.388   3.556   3.135 -0.3936  0.1420  0.2507
 4138TIP3    H112371   4.474   3.523   3.161 -0.4966  0.5114  1.0924
 4138TIP3    H212372   4.406   3.607   3.056 -0.0609 -0.9164 -0.3782
 4139TIP3   OH212373   4.477   7.076   3.910 -0.0387  0.0099 -0.0413
 4139TIP3    H112374   4.487   7.038   3.823  2.6501  1.9280 -0.6915
 4139TIP3    H212375   4.396   7.127   3.905 -1.2654 -1.9096 -0.5513
 4140TIP3   OH212376   7.332   1.142   5.987  0.1361 -0.2311 -0.2142
 4140TIP3    H112377   7.372   1.055   5.989  0.3903 -0.1370  2.5083
 4140TIP3    H212378   7.266   1.140   6.056  1.0536  2.1262  0.8440
 4141TIP3   OH212379   6.555   1.014   3.978  0.4321  0.0433 -0.3591
 4141TIP3    H112380   6.639   1.058   3.964  0.6498 -0.5292 -0.8526
 4141TIP3    H212381   6.526   0.990   3.891 -0.0399 -0.1519 -0.1480
 4142TIP3   OH212382   8.058   0.875   4.119  0.4447 -0.6096 -0.1818
 4142TIP3    H112383   8.105   0.954   4.092  0.4092 -0.0009  1.4315
 4142TIP3    H212384   8.106   0.803   4.078  0.1604  0.2392 -2.1337
 4143TIP3   OH212385  -0.026   0.286   3.007  0.1531 -0.2298  0.7684
 4143TIP3    H112386   0.065   0.273   2.980  0.2828  0.5551  0.8018
 4143TIP3    H212387  -0.020   0.325   3.095 -0.2076 -0.0197  0.7033
 4144TIP3   OH212388   6.849   6.316   4.965 -0.1698  0.7115 -0.3387
 4144TIP3    H112389   6.922   6.262   4.997 -0.4564 -0.4094 -1.4450
 4144TIP3    H212390   6.807   6.260   4.899 -1.3542  1.7767 -0.5081
 4145TIP3   OH212391   6.107   1.052   4.040 -0.4915  0.3681  0.7727
 4145TIP3    H112392   6.177   1.117   4.033 -1.1471  1.0035 -0.2203
 4145TIP3    H212393   6.067   1.051   3.953 -0.6860 -1.1593  0.8586
 4146TIP3   OH212394   5.548   0.160   3.584 -0.1489 -0.7368  0.1783
 4146TIP3    H112395   5.463   0.203   3.581 -1.2886 -2.8640  0.3416
 4146TIP3    H212396   5.547   0.109   3.665  0.9520 -1.4498 -0.2284
 4147TIP3   OH212397   5.425   7.364   0.046  0.0207  0.0233  0.0865
 4147TIP3    H112398   5.397   7.446   0.005 -0.2635  0.4096  1.0199
 4147TIP3    H212399   5.380   7.363   0.130 -2.4800 -2.5866 -1.1314
 4148TIP3   OH212400   3.207   1.597   6.251  0.0024  0.5185 -0.4392
 4148TIP3    H112401   3.112   1.597   6.252  0.0028  0.4631 -0.3275
 4148TIP3    H212402   3.231   1.624   6.163 -0.1170  0.5019 -0.4761
 4149TIP3   OH212403   4.670   3.990   3.197 -0.5259  0.3832  0.2430
 4149TIP3    H112404   4.712   4.039   3.267 -0.5788  0.1717  0.4244
 4149TIP3    H212405   4.741   3.942   3.155 -0.8047 -1.4633  1.7438
 4150TIP3   OH212406   5.184   4.860   1.039 -0.2103  0.1236  0.2293
 4150TIP3    H112407   5.234   4.779   1.037 -0.5775 -0.1141  0.5106
 4150TIP3    H212408   5.113   4.844   1.102 -0.3075  0.6473  0.2646
 4151TIP3   OH212409   2.686   6.115   6.086 -0.0384 -0.2669 -0.1841
 4151TIP3    H112410   2.694   6.210   6.092 -0.6226 -0.2702  1.1245
 4151TIP3    H212411   2.597   6.096   6.117  0.6728 -1.3580  1.3360
 4152TIP3   OH212412   7.763   3.510   5.803 -0.1819 -0.5417 -0.3055
 4152TIP3    H112413   7.690   3.467   5.847 -1.2660  1.8538  0.4283
 4152TIP3    H212414   7.832   3.444   5.799 -2.0413 -2.5782 -0.1416
 4153TIP3   OH212415   7.774   1.438   5.502  0.7840  0.4323  0.2565
 4153TIP3    H112416   7.832   1.406   5.433 -0.4288 -2.2555  0.3550
 4153TIP3    H212417   7.692   1.459   5.457  0.3199 -0.3643  0.7036
 4154TIP3   OH212418   4.872   5.014   2.547 -0.1311  0.0009  0.1907
 4154TIP3    H112419   4.867   4.925   2.512 -1.2324 -0.5249  1.5594
 4154TIP3    H212420   4.966   5.034   2.551  0.1812 -1.4826  0.7568
 4155TIP3   OH212421   0.566   3.339   4.411  0.1172  0.1403  0.0229
 4155TIP3    H112422   0.534   3.250   4.429  0.5933 -0.4577 -1.8027
 4155TIP3    H212423   0.658   3.326   4.386  0.0368  1.0744 -0.8143
 4156TIP3   OH212424   0.989   5.301   5.492  0.1347  0.7661  0.7596
 4156TIP3    H112425   1.003   5.207   5.502  0.1411  0.6252 -0.4091
 4156TIP3    H212426   1.053   5.341   5.551 -0.7630  0.0577  2.2957
 4157TIP3   OH212427   1.683   6.176   6.618 -0.7032  0.1072 -0.1707
 4157TIP3    H112428   1.657   6.211   6.703 -0.0633  1.5083 -0.5251
 4157TIP3    H212429   1.751   6.111   6.637 -1.6626 -0.7500  0.4675
 4158TIP3   OH212430   5.772   0.904   0.444  0.0436  0.1241  0.3561
 4158TIP3    H112431   5.770   0.986   0.394  2.5151  0.8954  1.3479
 4158TIP3    H212432   5.697   0.854   0.412 -1.1134  2.4586 -0.8220
 4159TIP3   OH212433   1.808   1.766   4.112  0.5514  0.3580  0.0046
 4159TIP3    H112434   1.749   1.805   4.047  1.8635  1.7510 -0.4184
 4159TIP3    H212435   1.850   1.693   4.066 -1.3482 -1.1671  0.5558
 4160TIP3   OH212436   4.981   2.892   4.392  0.2115 -0.3454  0.2186
 4160TIP3    H112437   5.039   2.923   4.462  1.8002 -1.0331 -0.7389
 4160TIP3    H212438   4.932   2.820   4.432  1.4452 -1.0470  0.5071
 4161TIP3   OH212439   4.780   1.489   0.183  0.2195  0.0774  0.5365
 4161TIP3    H112440   4.728   1.553   0.232 -0.0581 -0.3607  0.8241
 4161TIP3    H212441   4.745   1.491   0.094 -0.8358 -0.7783  0.9094
 4162TIP3   OH212442   0.668   1.323   5.212  0.6801  0.0104  0.2556
 4162TIP3    H112443   0.730   1.264   5.254  0.8385  0.7386  1.0740
 4162TIP3    H212444   0.619   1.363   5.285  0.9169  1.2529 -0.2365
 4163TIP3   OH212445   5.959   1.322   2.297 -0.0087 -0.0030 -0.4381
 4163TIP3    H112446   5.895   1.265   2.340 -0.8210  2.0905  1.3198
 4163TIP3    H212447   5.932   1.323   2.205 -0.6637 -1.4767 -0.3015
 4164TIP3   OH212448   8.096   1.664   4.414  0.8935  0.2322  0.0468
 4164TIP3    H112449   8.120   1.594   4.474  2.2391  0.4908 -0.1557
 4164TIP3    H212450   8.138   1.640   4.331 -1.6270 -0.5580 -1.0962
 4165TIP3   OH212451   5.410   7.791   0.194 -0.0450  0.4372 -0.4162
 4165TIP3    H112452   5.387   7.795   0.287 -1.4163  1.6222 -0.7701
 4165TIP3    H212453   5.491   7.842   0.187 -1.4262  2.7912 -0.2369
 4166TIP3   OH212454   4.226   0.499   0.017  0.4134 -0.0648 -0.6455
 4166TIP3    H112455   4.216   0.433   0.085 -0.9510  2.4754  1.8478
 4166TIP3    H212456   4.304   0.549   0.042  0.7925 -0.0184 -1.8459
 4167TIP3   OH212457   2.869   5.657   2.303 -0.2141  0.7545 -0.1576
 4167TIP3    H112458   2.962   5.657   2.324  0.1414 -2.0878 -1.2753
 4167TIP3    H212459   2.865   5.683   2.211 -0.4830  0.5801 -0.1970
 4168TIP3   OH212460   5.778   4.015   3.187  0.0652 -0.7007  0.1526
 4168TIP3    H112461   5.861   4.022   3.140 -0.1306 -1.6202 -0.3615
 4168TIP3    H212462   5.772   3.922   3.212  0.4718 -0.1340  2.6182
 4169TIP3   OH212463   1.954   4.585   1.019 -0.0214  0.1093  0.1522
 4169TIP3    H112464   1.890   4.579   0.949  0.4378  0.8944 -0.3472
 4169TIP3    H212465   1.942   4.674   1.055  2.5287  1.3248 -1.6945
 4170TIP3   OH212466   8.258   0.655   0.043 -0.6562 -0.2843 -0.3331
 4170TIP3    H112467   8.200   0.720   0.004  0.9316  0.6498 -1.2331
 4170TIP3    H212468   8.305   0.702   0.112 -0.2018 -0.7452 -0.3185
 4171TIP3   OH212469   5.640   4.669   4.593  0.8607  0.3296  0.0151
 4171TIP3    H112470   5.609   4.647   4.505  1.7032  0.6403 -0.3695
 4171TIP3    H212471   5.706   4.737   4.579  1.2715  0.1203  0.8562
 4172TIP3   OH212472   4.676   7.491   1.168  0.4206 -0.7790 -0.0947
 4172TIP3    H112473   4.639   7.575   1.193 -0.3817 -1.0079 -0.4851
 4172TIP3    H212474   4.726   7.463   1.244  1.6253  0.5640 -0.3585
 4173TIP3   OH212475   5.692   4.552   3.184  0.2033  0.1731 -0.3966
 4173TIP3    H112476   5.598   4.544   3.197  0.2579  0.3560  0.1384
 4173TIP3    H212477   5.708   4.512   3.099  0.0905 -3.0055  0.9386
 4174TIP3   OH212478   6.704   0.224   0.925 -0.1481  0.0764  0.1323
 4174TIP3    H112479   6.700   0.211   1.020  0.5452  0.5647  0.2295
 4174TIP3    H212480   6.732   0.140   0.890  0.2742  0.0982  0.4185
 4175TIP3   OH212481   6.222   2.063   2.663 -0.3760 -0.3100  0.2633
 4175TIP3    H112482   6.174   2.094   2.586  0.9824  0.8132 -0.1756
 4175TIP3    H212483   6.206   1.969   2.665  0.0197 -0.4611 -1.7361
 4176TIP3   OH212484   0.212   1.595   0.948 -0.2205 -0.0525 -0.0254
 4176TIP3    H112485   0.121   1.577   0.974 -0.0649 -0.1089  0.4912
 4176TIP3    H212486   0.225   1.687   0.970  0.4371 -0.5223  1.7070
 4177TIP3   OH212487   2.779   0.875   0.363 -0.3000  0.2149 -0.4751
 4177TIP3    H112488   2.698   0.918   0.391 -1.0366 -1.7604  0.6147
 4177TIP3    H212489   2.754   0.822   0.288  0.3722  0.8462 -1.1664
 4178TIP3   OH212490   7.503   0.952   5.611 -0.6881  0.0618  0.0420
 4178TIP3    H112491   7.451   0.940   5.691  2.7274 -2.9322  2.1611
 4178TIP3    H212492   7.461   0.894   5.547  0.1271 -2.8524  1.9033
 4179TIP3   OH212493   8.186   1.602   1.982 -0.0146  0.4700 -0.5778
 4179TIP3    H112494   8.150   1.670   1.925 -2.6745  0.4322  0.8880
 4179TIP3    H212495   8.193   1.525   1.926 -2.1954  0.5374 -1.0264
 4180TIP3   OH212496   4.357   3.163   1.138  0.2610  0.2544  0.1190
 4180TIP3    H112497   4.429   3.173   1.076  0.1706  1.3855  0.1738
 4180TIP3    H212498   4.312   3.248   1.137 -2.5815 -1.0899 -1.7626
 4181TIP3   OH212499   0.608   3.927   5.430 -0.2611 -0.1141  0.3689
 4181TIP3    H112500   0.642   3.917   5.519  0.2461 -0.3851  0.1522
 4181TIP3    H212501   0.525   3.879   5.431 -0.1448 -0.3141  0.6325
 4182TIP3   OH212502   6.977   4.515   0.545 -0.1690 -0.2101 -0.3176
 4182TIP3    H112503   6.946   4.596   0.585  0.5691  0.5921 -1.3211
 4182TIP3    H212504   6.995   4.457   0.619  2.1162  1.5629  0.6417
 4183TIP3   OH212505  -0.003   2.604   5.895  0.5624  0.0956 -0.4753
 4183TIP3    H112506   0.036   2.548   5.962  1.0504  0.4649 -0.4499
 4183TIP3    H212507   0.064   2.670   5.877 -0.1779  0.9416 -0.1892
 4184TIP3   OH212508   3.733   1.424   0.866  0.3417 -0.1122 -0.3766
 4184TIP3    H112509   3.724   1.489   0.935 -0.3444 -0.9973  0.3892
 4184TIP3    H212510   3.788   1.466   0.800 -1.6528  2.0190 -0.8340
 4185TIP3   OH212511   6.656   0.032   6.779  0.2086 -0.1375  0.3302
 4185TIP3    H112512   6.622   0.080   6.704 -0.2035  0.9326  1.1731
 4185TIP3    H212513   6.743   0.004   6.752  0.3243  0.8083 -0.3182
 4186TIP3   OH212514   6.668   3.432   0.258  0.6026 -0.1092 -0.5784
 4186TIP3    H112515   6.630   3.405   0.174  0.6201  0.7120 -0.8558
 4186TIP3    H212516   6.688   3.350   0.302  0.0437 -0.5534 -1.1287
 4187TIP3   OH212517   4.865   1.916   2.568  0.0503 -0.0447 -0.5199
 4187TIP3    H112518   4.936   1.908   2.505  0.2421  2.2537 -0.6795
 4187TIP3    H212519   4.849   2.010   2.575 -1.7027 -0.3847  0.9441
 4188TIP3   OH212520   7.059   1.342   5.990  0.2402 -0.6245  0.1304
 4188TIP3    H112521   6.977   1.369   6.031  0.3682 -0.7236  0.4527
 4188TIP3    H212522   7.127   1.387   6.039  0.3786 -0.4712 -0.1940
 4189TIP3   OH212523   3.636   5.898   4.827  0.4774  0.3907  0.0488
 4189TIP3    H112524   3.637   5.894   4.922 -0.5823 -0.2211  0.0413
 4189TIP3    H212525   3.555   5.942   4.805  0.8515  0.7814 -0.5677
 4190TIP3   OH212526   0.646   3.942   5.076 -0.0697  0.0531  0.4075
 4190TIP3    H112527   0.711   3.991   5.027 -0.4727  0.3933  0.2070
 4190TIP3    H212528   0.686   3.928   5.162  0.2661  0.2611  0.2859
 4191TIP3   OH212529   6.885   5.543   0.296  0.3687 -0.2223  0.5095
 4191TIP3    H112530   6.978   5.520   0.302  1.0053  2.0345  0.1478
 4191TIP3    H212531   6.848   5.478   0.237  2.1190 -0.0987 -0.8079
 4192TIP3   OH212532   1.152   2.093   0.242 -0.1887 -0.2477  0.4371
 4192TIP3    H112533   1.135   2.022   0.303  0.0055 -0.6007  0.0815
 4192TIP3    H212534   1.246   2.109   0.249 -0.6175  2.0262  2.7668
 4193TIP3   OH212535   0.254   6.088   0.724  0.2541 -0.1947 -0.1812
 4193TIP3    H112536   0.205   6.039   0.790 -0.1823  0.0433 -0.3225
 4193TIP3    H212537   0.319   6.136   0.774  0.7667 -0.9993 -0.0491
 4194TIP3   OH212538   2.430   6.344   6.013  0.0138  0.0927  0.1765
 4194TIP3    H112539   2.506   6.346   6.071 -0.4926 -0.3104  0.8675
 4194TIP3    H212540   2.400   6.253   6.015 -1.4961  0.5734  1.2514
 4195TIP3   OH212541   2.706   4.564   4.491  0.2272  0.5302 -0.1752
 4195TIP3    H112542   2.673   4.487   4.536  0.3280  0.8810  0.5115
 4195TIP3    H212543   2.745   4.530   4.410 -1.5261  0.0789 -0.8659
 4196TIP3   OH212544   2.009   3.847   1.001  0.4505  0.1130 -0.4643
 4196TIP3    H112545   2.029   3.937   1.027  1.1295 -0.1250 -0.1325
 4196TIP3    H212546   1.969   3.809   1.079  0.4262  0.0428 -0.5114
 4197TIP3   OH212547   4.625   0.545   3.527 -0.0664  0.0356 -0.3239
 4197TIP3    H112548   4.689   0.612   3.506 -0.7711  1.2053  1.1079
 4197TIP3    H212549   4.580   0.527   3.444 -0.3817  1.8992 -0.5860
 4198TIP3   OH212550   1.986   7.256   1.624 -0.7225 -0.3108  0.5406
 4198TIP3    H112551   2.006   7.228   1.535 -0.0809  0.3789  0.4584
 4198TIP3    H212552   1.972   7.174   1.672 -1.0929 -0.6850 -0.1891
 4199TIP3   OH212553   1.768   6.708   1.301 -0.3435  0.3316 -0.1793
 4199TIP3    H112554   1.839   6.706   1.237 -0.3160  1.7447 -0.2293
 4199TIP3    H212555   1.697   6.660   1.259  1.3023 -3.3947  0.8843
 4200TIP3   OH212556   7.823   2.846   5.271  0.0532 -0.9492  0.3034
 4200TIP3    H112557   7.822   2.846   5.175  0.8633  1.9195  0.1969
 4200TIP3    H212558   7.915   2.832   5.294  0.0833 -0.3078  0.5975
 4201TIP3   OH212559   6.593   0.112   2.343 -0.0215 -0.1530 -0.8044
 4201TIP3    H112560   6.635   0.045   2.288 -0.4024  0.1737 -1.5052
 4201TIP3    H212561   6.574   0.067   2.425  0.8407 -0.5667 -0.8198
 4202TIP3   OH212562   8.037   5.879   6.124 -0.3658 -0.0636 -0.1339
 4202TIP3    H112563   8.088   5.857   6.201 -0.6341  0.1176  0.1015
 4202TIP3    H212564   7.980   5.951   6.153 -0.0242  0.4338 -0.6729
 4203TIP3   OH212565   1.940   6.881   2.214  0.3458  0.0815 -0.7598
 4203TIP3    H112566   2.019   6.934   2.219 -0.1169  0.7426 -0.2005
 4203TIP3    H212567   1.968   6.792   2.235  1.1545  0.0649 -1.8349
 4204TIP3   OH212568   6.754   4.532   6.691  0.0492  0.2625 -0.3660
 4204TIP3    H112569   6.821   4.501   6.751  1.0728  0.4659 -1.3710
 4204TIP3    H212570   6.796   4.530   6.605 -1.3747 -0.0521 -1.0937
 4205TIP3   OH212571   6.958   3.739   5.229 -0.1001  0.0932 -0.1168
 4205TIP3    H112572   6.907   3.794   5.169  1.8960  0.3731 -1.6797
 4205TIP3    H212573   6.901   3.664   5.248 -1.5687  1.0304 -0.6958
 4206TIP3   OH212574   5.530   0.238   6.722  0.1101  0.8639  0.2119
 4206TIP3    H112575   5.620   0.208   6.712  0.2432  0.6651  1.7517
 4206TIP3    H212576   5.477   0.158   6.724  0.1290  0.8708  1.2881
 4207TIP3   OH212577   7.926   4.573   3.304 -0.0732  0.0532  0.5492
 4207TIP3    H112578   7.862   4.546   3.238 -0.2175 -1.2737  1.2040
 4207TIP3    H212579   7.927   4.669   3.298 -0.7581  0.0124 -0.7313
 4208TIP3   OH212580   5.453   5.998   1.312 -0.0450 -0.0091  0.0377
 4208TIP3    H112581   5.533   6.013   1.261  1.1010 -0.4627  1.6194
 4208TIP3    H212582   5.468   6.044   1.394 -0.6113 -1.6157  1.1002
 4209TIP3   OH212583   0.351   7.078   3.705  0.1803  0.3750  0.0076
 4209TIP3    H112584   0.441   7.105   3.725  0.5513 -1.1573  0.5547
 4209TIP3    H212585   0.301   7.105   3.783  0.0872  1.4871 -0.4187
 4210TIP3   OH212586   3.091   3.594   0.609 -0.0787 -0.0441 -0.2448
 4210TIP3    H112587   3.098   3.580   0.514 -0.1247  0.9254 -0.4026
 4210TIP3    H212588   3.100   3.689   0.620  2.1354 -0.3420  0.9380
 4211TIP3   OH212589   4.040   3.721   2.197 -0.0545 -0.0983 -0.4408
 4211TIP3    H112590   4.057   3.638   2.152  4.4871  0.8146 -0.7970
 4211TIP3    H212591   4.065   3.704   2.288 -0.9874  0.4132 -0.0713
 4212TIP3   OH212592   4.355   4.599   6.553 -0.6820 -0.3674 -0.5259
 4212TIP3    H112593   4.294   4.638   6.615 -0.2979  1.1147 -1.0397
 4212TIP3    H212594   4.363   4.664   6.483 -0.9670 -1.8927 -2.0616
 4213TIP3   OH212595   6.882   4.627   2.315 -0.0827  0.0682 -0.1515
 4213TIP3    H112596   6.840   4.668   2.240 -0.8147 -0.7827 -0.2265
 4213TIP3    H212597   6.820   4.641   2.388 -0.2112 -0.6336 -0.1182
 4214TIP3   OH212598   6.231   1.657   3.202  0.3123  0.4996  0.3428
 4214TIP3    H112599   6.220   1.595   3.130  1.0369 -1.0362  1.5057
 4214TIP3    H212600   6.165   1.631   3.267  1.3547  0.2039  1.3143
 4215TIP3   OH212601   4.691   0.793   0.172 -0.0613  0.0929 -0.2295
 4215TIP3    H112602   4.604   0.809   0.210  0.5709  2.5986  0.3863
 4215TIP3    H212603   4.717   0.878   0.136  2.1762 -0.5651 -0.3398
 4216TIP3   OH212604   7.748   1.274   2.809  0.0446  0.7194 -0.1984
 4216TIP3    H112605   7.657   1.301   2.819 -0.6252 -1.0305 -1.0919
 4216TIP3    H212606   7.798   1.355   2.817 -1.6695  1.9298 -1.0040
 4217TIP3   OH212607   6.429   1.735   1.572  0.8963  0.0983 -0.0776
 4217TIP3    H112608   6.512   1.780   1.588  1.0030 -0.2447  0.3374
 4217TIP3    H212609   6.367   1.778   1.631  1.0076 -0.3218  0.3495
 4218TIP3   OH212610   7.598   5.808   2.348  0.1335 -0.4666 -0.5351
 4218TIP3    H112611   7.518   5.756   2.361  0.1888 -0.3961  0.1323
 4218TIP3    H212612   7.566   5.892   2.315 -0.0906 -0.3720 -0.0913
 4219TIP3   OH212613   2.813   1.551   0.885  0.0063 -0.0165  0.2216
 4219TIP3    H112614   2.813   1.640   0.921  0.4415 -0.0197  0.2331
 4219TIP3    H212615   2.887   1.550   0.825  0.1264 -0.4356  0.3753
 4220TIP3   OH212616   0.128   0.549   4.237 -0.5678 -0.4123 -0.4912
 4220TIP3    H112617   0.074   0.575   4.163 -0.1885 -2.0003 -1.3887
 4220TIP3    H212618   0.097   0.602   4.310 -1.9288  0.1764 -1.4578
 4221TIP3   OH212619   4.655   2.545   3.714  0.3646  0.4838  0.6726
 4221TIP3    H112620   4.699   2.585   3.639  2.0225 -0.0205  1.3119
 4221TIP3    H212621   4.575   2.595   3.725  0.0664  0.5459 -1.4388
 4222TIP3   OH212622   3.368   1.686   5.172  0.1739 -0.3513  0.6351
 4222TIP3    H112623   3.316   1.721   5.245  0.7177  0.6305  0.5703
 4222TIP3    H212624   3.378   1.761   5.112 -1.5247 -1.4875 -1.1989
 4223TIP3   OH212625   3.434   4.704   0.878  0.4326  0.3036 -0.1418
 4223TIP3    H112626   3.485   4.648   0.819  0.8321 -0.4538  0.9087
 4223TIP3    H212627   3.352   4.656   0.891  0.1764  0.6665 -0.3955
 4224TIP3   OH212628   6.425   0.719   1.870 -0.4658  0.7875 -0.4534
 4224TIP3    H112629   6.372   0.706   1.949  1.2580  0.9302  0.7916
 4224TIP3    H212630   6.395   0.650   1.810 -0.8504 -0.2589  0.8788
 4225TIP3   OH212631   5.362   3.172   3.381  0.6935 -0.1942 -0.6261
 4225TIP3    H112632   5.446   3.178   3.425  0.2455  0.9994  0.1278
 4225TIP3    H212633   5.376   3.110   3.310  1.6873 -1.4373  0.6158
 4226TIP3   OH212634   3.409   4.835   0.335  0.0840 -0.0798 -0.0286
 4226TIP3    H112635   3.414   4.755   0.387 -0.9180 -0.4880 -0.5340
 4226TIP3    H212636   3.315   4.851   0.324  0.2408 -0.3161 -2.1476
 4227TIP3   OH212637   1.775   6.071   6.148  0.0960 -0.6345 -0.0608
 4227TIP3    H112638   1.690   6.064   6.105 -1.1295  0.2535  2.0721
 4227TIP3    H212639   1.797   5.981   6.172  0.4781 -1.0532 -1.8640
 4228TIP3   OH212640   5.551   0.445   4.298 -0.3185 -0.2375 -0.6015
 4228TIP3    H112641   5.506   0.529   4.301 -0.1054 -0.0846 -1.3930
 4228TIP3    H212642   5.622   0.459   4.235 -0.0992 -0.9201 -0.5076
 4229TIP3   OH212643   6.797   6.173   4.288  0.5604 -0.0575  0.0430
 4229TIP3    H112644   6.821   6.201   4.376 -2.3769  0.2693  0.8290
 4229TIP3    H212645   6.758   6.251   4.248  1.0568 -0.4502 -1.2671
 4230TIP3   OH212646   1.587   6.546   1.188  0.1993 -0.4863  0.5306
 4230TIP3    H112647   1.573   6.536   1.094 -1.0348 -0.5762  0.7121
 4230TIP3    H212648   1.637   6.468   1.213  1.1396 -0.1188 -0.1592
 4231TIP3   OH212649   2.215   7.371   2.231  0.3010 -0.1659  0.3985
 4231TIP3    H112650   2.275   7.357   2.305  0.1008 -0.4756  0.5058
 4231TIP3    H212651   2.143   7.309   2.246  0.0350  0.0867  0.1824
 4232TIP3   OH212652   7.059   4.907   5.826 -0.2840 -0.2949  0.1896
 4232TIP3    H112653   6.982   4.878   5.776  1.0278 -0.3471 -1.9346
 4232TIP3    H212654   7.036   4.995   5.855 -0.6629  0.2905 -1.6987
 4233TIP3   OH212655   7.050   1.320   4.372  0.8095  0.0756  0.0984
 4233TIP3    H112656   7.053   1.250   4.306  0.6668  1.7835 -1.8225
 4233TIP3    H212657   7.126   1.304   4.428  2.0917 -0.3655 -1.6783
 4234TIP3   OH212658   2.996   3.246   6.397  0.5147 -0.1046  0.4741
 4234TIP3    H112659   2.952   3.182   6.452  1.0715 -1.3535 -0.4784
 4234TIP3    H212660   2.927   3.308   6.372 -0.0267 -0.3084  1.4386
 4235TIP3   OH212661   1.586   0.019   3.281 -0.0159  0.2860  0.2175
 4235TIP3    H112662   1.629  -0.036   3.347  0.1852  0.6932  0.4280
 4235TIP3    H212663   1.652   0.084   3.258 -0.5513  0.9889  0.6243
 4236TIP3   OH212664   2.494   0.887   4.091  0.1482 -0.4517 -0.2750
 4236TIP3    H112665   2.585   0.860   4.080  1.2462  2.3319  1.0023
 4236TIP3    H212666   2.480   0.885   4.186 -1.5560 -1.9527 -0.5084
 4237TIP3   OH212667   2.203   5.567   0.019 -0.1691 -0.1890 -0.2810
 4237TIP3    H112668   2.147   5.593   0.092  0.3432 -0.4846  0.2226
 4237TIP3    H212669   2.197   5.640  -0.043 -1.1067 -0.2122 -0.2467
 4238TIP3   OH212670   2.723   7.195   4.210 -0.2053 -0.0514  0.0991
 4238TIP3    H112671   2.745   7.160   4.297 -0.3512 -0.6322 -0.0914
 4238TIP3    H212672   2.630   7.215   4.216 -0.4759 -1.1242 -0.2523
 4239TIP3   OH212673   5.011   2.137   4.627 -0.0888  0.5292 -0.4965
 4239TIP3    H112674   5.007   2.228   4.657 -1.0441  0.5169 -0.5641
 4239TIP3    H212675   4.925   2.120   4.588  0.1002 -0.3820 -0.5517
 4240TIP3   OH212676   4.607   1.585   3.238 -0.0923 -0.1265  0.3850
 4240TIP3    H112677   4.521   1.619   3.213  0.0491 -0.0685 -0.0259
 4240TIP3    H212678   4.630   1.634   3.317 -1.0604 -1.1309  1.3289
 4241TIP3   OH212679   3.281   6.610   0.094  0.0945  0.2505 -0.6747
 4241TIP3    H112680   3.329   6.531   0.067 -1.1261 -0.0038 -2.2315
 4241TIP3    H212681   3.348   6.676   0.108  0.9673 -0.2419 -2.2940
 4242TIP3   OH212682   6.149   5.631   2.658  0.0052 -0.2194  0.0541
 4242TIP3    H112683   6.060   5.660   2.678  0.3939  0.1511  1.4184
 4242TIP3    H212684   6.194   5.635   2.743  0.7691 -2.4119 -0.1887
 4243TIP3   OH212685   7.782   6.601   6.125 -0.0417  0.0941  0.2323
 4243TIP3    H112686   7.782   6.612   6.220  1.5837  1.4418  0.1316
 4243TIP3    H212687   7.854   6.657   6.095 -1.2314  0.5714 -1.8963
 4244TIP3   OH212688   2.613   2.078   5.238 -0.0260  0.1611 -0.1746
 4244TIP3    H112689   2.573   2.148   5.187 -0.9111 -0.1432  0.0829
 4244TIP3    H212690   2.667   2.123   5.302 -1.2300  0.6540  0.5295
 4245TIP3   OH212691   4.931   0.949   4.161 -0.6098 -0.1267 -0.2876
 4245TIP3    H112692   5.003   0.887   4.176 -1.6707 -1.7579 -1.6336
 4245TIP3    H212693   4.923   0.996   4.244 -0.1019 -2.1756  0.9951
 4246TIP3   OH212694   1.132   6.877   0.976  0.3675 -0.0984  0.1265
 4246TIP3    H112695   1.225   6.892   0.994  0.7732 -1.7412 -0.3868
 4246TIP3    H212696   1.092   6.870   1.063  1.0612 -1.1728  0.3783
 4247TIP3   OH212697   0.671   1.253   3.303 -0.1043 -0.0672  0.2010
 4247TIP3    H112698   0.613   1.213   3.238 -0.0215  0.7971 -0.4230
 4247TIP3    H212699   0.740   1.188   3.317  1.2241  0.6199 -2.3911
 4248TIP3   OH212700   5.377   7.016   4.262  0.3287 -0.4101 -0.1671
 4248TIP3    H112701   5.411   7.059   4.183  2.3054  0.2547  0.9680
 4248TIP3    H212702   5.284   7.039   4.263  0.4094  0.1960 -1.8792
 4249TIP3   OH212703   2.628   2.969   6.097  0.3438  0.0098 -0.4043
 4249TIP3    H112704   2.698   2.953   6.160  0.5566  0.0996 -0.6157
 4249TIP3    H212705   2.661   2.933   6.015 -0.0048 -0.2640 -0.4238
 4250TIP3   OH212706   8.250   4.098   6.311 -0.0383  0.5022  0.1962
 4250TIP3    H112707   8.322   4.109   6.249 -0.3692  1.4355 -0.0280
 4250TIP3    H212708   8.207   4.183   6.314  0.6197  0.8235  2.5378
 4251TIP3   OH212709   1.578   6.572   4.940  0.8939  0.1081  0.6694
 4251TIP3    H112710   1.614   6.501   4.887  0.6060 -0.4571  1.2057
 4251TIP3    H212711   1.599   6.652   4.892 -0.2701 -0.4473 -0.8156
 4252TIP3   OH212712   4.337   4.522   3.043  0.3448 -0.7363 -0.2412
 4252TIP3    H112713   4.379   4.442   3.012  0.8707 -0.7488  0.4913
 4252TIP3    H212714   4.284   4.494   3.117  0.8980 -0.3308  0.3151
 4253TIP3   OH212715   1.141   5.749   6.097  0.2684  0.2266 -0.0656
 4253TIP3    H112716   1.067   5.805   6.076  0.1187 -0.4349 -1.3808
 4253TIP3    H212717   1.199   5.757   6.022  0.8873 -0.3336  0.3432
 4254TIP3   OH212718   0.536   1.466   4.050  0.6353 -0.2406  0.0550
 4254TIP3    H112719   0.562   1.557   4.065 -2.0733  0.7677 -0.7876
 4254TIP3    H212720   0.494   1.440   4.132 -3.6752  1.3367 -1.3643
 4255TIP3   OH212721   1.282   5.437   2.287  0.3422  0.1175 -0.4717
 4255TIP3    H112722   1.349   5.498   2.318  0.9824  0.0479 -1.6833
 4255TIP3    H212723   1.327   5.353   2.277 -0.0239 -0.0401 -0.8682
 4256TIP3   OH212724   4.207   4.699   1.547 -0.4088  0.3542 -0.0744
 4256TIP3    H112725   4.292   4.656   1.544  0.0264  1.1486 -3.4042
 4256TIP3    H212726   4.222   4.785   1.509 -2.9452 -0.1858 -2.7036
 4257TIP3   OH212727   3.905   5.338   6.672 -0.0584 -0.1891 -0.1510
 4257TIP3    H112728   3.894   5.391   6.593  0.2783 -1.8706 -1.3583
 4257TIP3    H212729   3.842   5.267   6.663 -0.6553  0.0589  1.5593
 4258TIP3   OH212730   1.889   0.171   2.711 -0.0150 -0.3803 -0.6217
 4258TIP3    H112731   1.965   0.115   2.726  0.5678  0.1539 -1.5125
 4258TIP3    H212732   1.885   0.181   2.616  0.2788  1.5952 -0.4701
 4259TIP3   OH212733   0.693   1.129   4.594 -0.1225  0.6385 -0.8029
 4259TIP3    H112734   0.699   1.121   4.499  0.0755 -1.2923 -0.6721
 4259TIP3    H212735   0.599   1.130   4.612 -0.1772 -0.0179 -0.9877
 4260TIP3   OH212736   3.110   2.647   0.142 -0.5148  0.1802 -0.0794
 4260TIP3    H112737   3.123   2.554   0.123 -0.4738  0.7519 -3.5253
 4260TIP3    H212738   3.050   2.677   0.073 -4.1123  1.9039  3.4239
 4261TIP3   OH212739   5.597   4.436   4.164 -0.4390 -0.1899  0.1600
 4261TIP3    H112740   5.648   4.417   4.086 -0.0907  0.8616  0.1219
 4261TIP3    H212741   5.506   4.419   4.139 -0.3134  0.0018 -0.4319
 4262TIP3   OH212742   2.293   3.137   1.735 -0.0722  0.0444 -0.7206
 4262TIP3    H112743   2.285   3.065   1.672  1.1577 -2.5343  1.8431
 4262TIP3    H212744   2.209   3.138   1.780 -0.6638  1.3684 -1.7654
 4263TIP3   OH212745   4.974   5.299   3.523 -0.8590  0.0229  0.4471
 4263TIP3    H112746   4.963   5.317   3.430 -0.5898  1.7438  0.7163
 4263TIP3    H212747   4.969   5.204   3.530  1.3631 -0.3413 -1.6256
 4264TIP3   OH212748   1.132   6.467   5.287 -0.0102 -0.1138  0.1999
 4264TIP3    H112749   1.141   6.405   5.214 -0.1918 -0.4404  0.4525
 4264TIP3    H212750   1.038   6.484   5.293 -0.1911 -1.3479  1.3809
 4265TIP3   OH212751   0.289   3.511   3.544 -0.1588  0.4029 -0.0337
 4265TIP3    H112752   0.313   3.591   3.497 -1.4458  0.4852 -0.6000
 4265TIP3    H212753   0.364   3.492   3.599  0.8221  1.1050 -1.0784
 4266TIP3   OH212754   6.866   0.744   0.631  0.3787 -0.4585  0.4405
 4266TIP3    H112755   6.836   0.793   0.554  1.0353 -1.3767 -0.4201
 4266TIP3    H212756   6.931   0.682   0.597  1.9044  0.2024  1.9638
 4267TIP3   OH212757   5.331   1.203   3.699  0.0562 -0.3400  0.1478
 4267TIP3    H112758   5.398   1.206   3.630 -0.0631 -0.4657  0.0247
 4267TIP3    H212759   5.321   1.294   3.727  0.2241 -0.3112  0.1127
 4268TIP3   OH212760   7.789   6.318   2.486 -0.2139  0.1866 -0.5098
 4268TIP3    H112761   7.785   6.259   2.411 -1.7334  0.1021 -0.3874
 4268TIP3    H212762   7.793   6.261   2.562  0.9141  0.2747 -0.4778
 4269TIP3   OH212763   0.117   1.786   1.643 -0.4278  0.2018 -0.2771
 4269TIP3    H112764   0.145   1.856   1.585  0.2319 -1.5971 -2.2763
 4269TIP3    H212765   0.135   1.706   1.594 -0.8135 -1.3997  2.0346
 4270TIP3   OH212766   7.150   1.214   5.588 -0.2528 -0.0400 -0.3878
 4270TIP3    H112767   7.190   1.223   5.502  1.4478  0.2920  0.4098
 4270TIP3    H212768   7.142   1.303   5.621 -0.8976 -0.1656 -0.1843
 4271TIP3   OH212769   7.064   6.114   0.349 -0.1786  0.9889  0.3577
 4271TIP3    H112770   7.075   6.053   0.422  1.6411 -0.0618 -0.7218
 4271TIP3    H212771   7.147   6.161   0.344  0.0468  0.4724 -1.4940
 4272TIP3   OH212772   1.998   6.367   3.765  0.8147  0.4009 -0.4094
 4272TIP3    H112773   1.967   6.406   3.683  1.1689  1.2003 -0.1729
 4272TIP3    H212774   2.058   6.432   3.801 -0.4391  0.6992  1.2210
 4273TIP3   OH212775   0.534   4.371   0.754  0.1266 -0.0704 -0.0853
 4273TIP3    H112776   0.613   4.319   0.738  1.0693  0.6443  1.9361
 4273TIP3    H212777   0.479   4.354   0.677  0.4253 -3.8986  0.3243
 4274TIP3   OH212778   7.975   4.562   1.581  0.2969  0.0816  0.1291
 4274TIP3    H112779   7.904   4.594   1.524  0.1482 -0.8029 -0.1886
 4274TIP3    H212780   8.055   4.580   1.531  0.3195  1.1087  0.5009
 4275TIP3   OH212781   5.524   4.936   2.117 -0.1023 -0.0590 -0.3381
 4275TIP3    H112782   5.563   4.942   2.030 -0.1321  0.2714 -0.3318
 4275TIP3    H212783   5.521   4.842   2.137 -0.1408 -0.1357 -0.7107
 4276TIP3   OH212784   1.306   2.928   6.750  0.0175  0.2449  0.2086
 4276TIP3    H112785   1.276   3.010   6.712  1.9000  0.7607 -0.3029
 4276TIP3    H212786   1.241   2.907   6.816 -1.4999  1.1510 -0.9276
 4277TIP3   OH212787   6.230   0.810   3.757 -0.0514 -0.0935  0.3293
 4277TIP3    H112788   6.210   0.768   3.673 -0.4687  0.5071  0.1167
 4277TIP3    H212789   6.165   0.880   3.764 -0.5034 -0.5928  1.4995
 4278TIP3   OH212790   0.253   3.371   2.503  0.2919  0.1075  0.5322
 4278TIP3    H112791   0.239   3.466   2.502  0.8583  0.1927 -0.0676
 4278TIP3    H212792   0.164   3.335   2.495  0.0456  0.5768  1.0542
 4279TIP3   OH212793   0.198   1.549   0.646  0.3098  1.0007  0.2054
 4279TIP3    H112794   0.262   1.541   0.717  0.5899  1.5612  0.0222
 4279TIP3    H212795   0.232   1.620   0.592  0.0849  0.5892 -0.4793
 4280TIP3   OH212796   5.739   1.635   5.977  0.7352 -0.4166 -0.2836
 4280TIP3    H112797   5.681   1.604   5.908 -0.1077 -1.3462  0.8145
 4280TIP3    H212798   5.761   1.725   5.951 -0.5866 -0.3082 -1.1141
 4281TIP3   OH212799   0.398   7.613   1.597 -0.0956 -0.3075  0.0784
 4281TIP3    H112800   0.483   7.595   1.557 -0.3513  0.2669 -0.7506
 4281TIP3    H212801   0.337   7.618   1.523 -0.7888 -0.3639  0.6351
 4282TIP3   OH212802   0.166   2.144   5.887  0.0082 -0.1552  0.0806
 4282TIP3    H112803   0.136   2.125   5.976  1.2741  2.5463  1.2107
 4282TIP3    H212804   0.262   2.147   5.894  0.0857  2.7140 -0.6248
 4283TIP3   OH212805   1.867   4.769   1.966 -0.8079 -0.4540 -0.3013
 4283TIP3    H112806   1.901   4.744   2.052  0.2401  0.2538 -0.4765
 4283TIP3    H212807   1.873   4.690   1.913 -0.0730 -0.5397 -0.1108
 4284TIP3   OH212808   2.256   6.280   2.067  0.5721 -0.1041 -0.0605
 4284TIP3    H112809   2.311   6.287   2.145  0.1128 -0.3452  0.2869
 4284TIP3    H212810   2.172   6.317   2.093  0.5723  0.3034 -0.6050
 4285TIP3   OH212811   5.027   2.479   2.437  0.0661  0.1608 -0.4258
 4285TIP3    H112812   4.985   2.402   2.399 -0.7888 -0.2469  1.2073
 4285TIP3    H212813   4.959   2.518   2.493  1.2551  0.6157  0.7693
 4286TIP3   OH212814   7.091   7.058   0.621 -0.3068 -0.2872  0.5075
 4286TIP3    H112815   7.093   7.146   0.658  0.5944  1.0108 -2.3697
 4286TIP3    H212816   7.182   7.039   0.598 -0.7681 -1.0761 -0.8067
 4287TIP3   OH212817   1.180   3.048   5.646  0.2172  0.0204  0.1889
 4287TIP3    H112818   1.217   2.962   5.624  1.0423  0.1437  1.0272
 4287TIP3    H212819   1.148   3.038   5.736  2.0609  1.0960  1.0228
 4288TIP3   OH212820   6.578   6.752   0.214  0.7809  0.4411 -0.0303
 4288TIP3    H112821   6.588   6.719   0.304  0.6429  0.0656 -0.1498
 4288TIP3    H212822   6.667   6.772   0.186  0.9910 -0.8198 -0.3233
 4289TIP3   OH212823   6.630   4.982   4.673  0.2502 -0.6844 -0.4027
 4289TIP3    H112824   6.648   4.929   4.595  0.5525  0.3206 -1.0361
 4289TIP3    H212825   6.579   4.925   4.729  0.6160 -1.6680 -1.0430
 4290TIP3   OH212826   3.422   3.467   0.520 -0.3972  0.0424  0.4102
 4290TIP3    H112827   3.372   3.537   0.479  2.1193  0.6025 -2.0401
 4290TIP3    H212828   3.453   3.414   0.446 -0.3002 -2.3430  2.0442
 4291TIP3   OH212829   1.457   3.305   2.672  0.0253  0.0124 -0.4457
 4291TIP3    H112830   1.504   3.276   2.594 -0.3512 -1.0390 -0.2824
 4291TIP3    H212831   1.514   3.373   2.709 -0.2777  1.3010 -2.1828
 4292TIP3   OH212832   7.711   2.187   5.226 -0.0104 -0.3264  0.6042
 4292TIP3    H112833   7.648   2.126   5.264 -0.1988 -0.3737  0.2194
 4292TIP3    H212834   7.720   2.256   5.291 -1.0795  0.1011  0.3176
 4293TIP3   OH212835   5.352   7.340   3.046 -0.5383 -0.0244  0.0756
 4293TIP3    H112836   5.438   7.300   3.060 -1.1912 -1.2267  0.9115
 4293TIP3    H212837   5.333   7.386   3.128 -0.8837 -0.1601  0.0746
 4294TIP3   OH212838   5.234   1.052   3.338 -0.2548  0.0809 -0.1990
 4294TIP3    H112839   5.190   1.008   3.411 -1.0122 -0.0441 -0.7233
 4294TIP3    H212840   5.326   1.033   3.351 -0.5976 -2.1914 -0.7469
 4295TIP3   OH212841   6.922   0.082   1.601 -0.0326 -0.0642 -0.6030
 4295TIP3    H112842   6.993   0.029   1.636 -0.2053  0.2371  0.2254
 4295TIP3    H212843   6.885   0.126   1.678 -0.8835  0.0514 -1.0691
 4296TIP3   OH212844   0.428   3.749   1.393 -0.4508  0.2652 -0.0665
 4296TIP3    H112845   0.470   3.828   1.360 -0.0574  0.5918  1.1465
 4296TIP3    H212846   0.489   3.678   1.373 -0.5948  0.3311 -0.7500
 4297TIP3   OH212847   6.251   1.109   5.393 -0.0701  0.1640  0.1327
 4297TIP3    H112848   6.200   1.052   5.450  1.1849  0.7559  1.9445
 4297TIP3    H212849   6.283   1.051   5.324 -1.5222 -0.6101  0.0826
 4298TIP3   OH212850   0.398   5.720   4.683  0.0115 -0.0191 -0.1764
 4298TIP3    H112851   0.350   5.700   4.602 -0.0028 -1.0360  0.0615
 4298TIP3    H212852   0.443   5.802   4.665  0.5044 -0.5391 -1.4378
 4299TIP3   OH212853   0.047   0.734   3.311 -0.0971  0.4585  0.6348
 4299TIP3    H112854   0.057   0.826   3.335 -0.7598  0.9834 -0.9856
 4299TIP3    H212855  -0.044   0.713   3.331 -0.2538  0.4851 -0.0306
 4300TIP3   OH212856   0.974   6.854   5.440  0.5944  0.0286  0.4591
 4300TIP3    H112857   1.054   6.816   5.402  0.9024 -1.2531  2.2655
 4300TIP3    H212858   0.994   6.947   5.447  0.1746  0.5788 -3.2362
 4301TIP3   OH212859   4.050   0.017   4.389 -0.5862  0.1596 -0.1717
 4301TIP3    H112860   4.021   0.036   4.300 -0.2875  0.5662 -0.1848
 4301TIP3    H212861   4.015   0.088   4.443 -1.6624 -0.6530  0.2195
 4302TIP3   OH212862   2.065   6.611   2.186  0.0733  0.1676 -0.0562
 4302TIP3    H112863   1.974   6.587   2.169  0.0932  0.4904 -0.6635
 4302TIP3    H212864   2.089   6.563   2.265  0.1051 -1.7813 -1.2045
 4303TIP3   OH212865   1.580   2.461   0.839 -0.2808 -0.2362 -0.0046
 4303TIP3    H112866   1.535   2.534   0.882  0.0384  1.2269 -2.0033
 4303TIP3    H212867   1.512   2.396   0.825 -1.2032  0.8303 -0.6093
 4304TIP3   OH212868   5.421   1.249   4.267  0.6962  0.1944  0.1156
 4304TIP3    H112869   5.411   1.165   4.223 -1.0125  0.0149  0.7660
 4304TIP3    H212870   5.335   1.291   4.257  1.0097  1.1436  1.2405
 4305TIP3   OH212871   0.148   0.664   1.894 -0.0983  0.5751 -0.1597
 4305TIP3    H112872   0.115   0.694   1.979  0.9676  2.4402 -0.3674
 4305TIP3    H212873   0.115   0.729   1.831 -1.4281 -1.1272 -1.3246
 4306TIP3   OH212874   1.228   3.018   2.858  0.0615  0.4518  0.3939
 4306TIP3    H112875   1.184   3.077   2.796 -1.4125  0.0574  1.0142
 4306TIP3    H212876   1.302   3.068   2.890 -0.3973  1.4758 -0.0915
 4307TIP3   OH212877   6.949   0.842   3.947  0.0266  0.6065 -0.8809
 4307TIP3    H112878   7.026   0.898   3.950 -0.9018  1.8688  1.0341
 4307TIP3    H212879   6.926   0.826   4.038 -1.5964 -0.2892 -1.3915
 4308TIP3   OH212880   3.118   0.501   4.672 -0.1619 -0.2761 -0.2327
 4308TIP3    H112881   3.051   0.560   4.638  0.4483  1.0945  0.8324
 4308TIP3    H212882   3.094   0.415   4.637 -0.6139  0.7001 -2.5420
 4309TIP3   OH212883   5.786   1.106   0.217  0.9638 -0.5351  0.2038
 4309TIP3    H112884   5.708   1.162   0.214  1.0095 -0.3747  1.3948
 4309TIP3    H212885   5.831   1.123   0.135  1.0408  1.2746  0.5791
 4310TIP3   OH212886   7.561   1.301   6.062  0.0242 -0.5482  0.1847
 4310TIP3    H112887   7.549   1.391   6.032 -0.3788  0.0389  1.9682
 4310TIP3    H212888   7.483   1.254   6.030 -0.2246 -0.0387  0.0335
 4311TIP3   OH212889   2.831   4.717   2.127 -0.2219  0.2355  0.3968
 4311TIP3    H112890   2.739   4.693   2.134 -0.5733  0.8471 -1.5441
 4311TIP3    H212891   2.837   4.768   2.046  1.8967 -0.1616  0.2374
 4312TIP3   OH212892   5.415   6.779   5.159  0.2964  0.2034  0.3628
 4312TIP3    H112893   5.466   6.854   5.190 -2.6398  1.7639  1.9082
 4312TIP3    H212894   5.404   6.724   5.236 -0.0028 -0.2936 -0.0328
 4313TIP3   OH212895   4.488   7.256   3.226 -0.0607  0.4527  0.8283
 4313TIP3    H112896   4.573   7.231   3.191 -0.2974  1.7006 -0.7722
 4313TIP3    H212897   4.508   7.301   3.308  0.7914  0.4594  0.6231
 4314TIP3   OH212898   5.037   7.198   0.497  0.6625  0.4677  0.3743
 4314TIP3    H112899   4.966   7.242   0.544 -1.0527 -0.4680 -1.1950
 4314TIP3    H212900   5.052   7.253   0.420 -0.9036 -1.1097 -1.1544
 4315TIP3   OH212901   2.132   6.238   4.950  0.4882 -0.5980  0.3595
 4315TIP3    H112902   2.167   6.224   4.861  0.9651  0.3754  0.3821
 4315TIP3    H212903   2.075   6.314   4.942  2.0133  0.6910  1.2381
 4316TIP3   OH212904   4.157   5.157   2.750 -0.6666  0.8522  0.0449
 4316TIP3    H112905   4.094   5.156   2.823  0.5786 -3.5076  1.3891
 4316TIP3    H212906   4.242   5.159   2.793  0.0897 -0.3279 -1.3299
 4317TIP3   OH212907   5.582   1.190   5.029 -0.0341 -0.0612 -0.2421
 4317TIP3    H112908   5.579   1.097   5.009 -0.5721  0.1446 -1.1721
 4317TIP3    H212909   5.533   1.232   4.958  1.4587  1.0627 -0.6608
 4318TIP3   OH212910   4.205   1.209   6.059  0.6296 -0.5981  0.2458
 4318TIP3    H112911   4.216   1.123   6.020  1.5191 -0.1706 -0.4778
 4318TIP3    H212912   4.220   1.270   5.987 -0.5637  0.1651  0.6120
 4319TIP3   OH212913   2.922   5.005   2.049 -0.1103  0.5015  0.0484
 4319TIP3    H112914   2.962   4.992   1.963 -1.7528 -0.8469 -0.5572
 4319TIP3    H212915   2.997   5.021   2.107  1.6645 -3.6795 -0.6652
 4320TIP3   OH212916   5.047   3.946   0.870 -0.5644 -0.3817  0.1380
 4320TIP3    H112917   4.955   3.932   0.895 -1.7792 -2.3516 -4.3613
 4320TIP3    H212918   5.081   3.857   0.855  1.0036  0.4447 -1.5026
 4321TIP3   OH212919   6.859   7.752   2.850 -0.1425 -0.2812  0.5707
 4321TIP3    H112920   6.855   7.812   2.924  0.0473  1.3454 -0.6742
 4321TIP3    H212921   6.916   7.796   2.787 -0.3837 -1.5672 -0.5889
 4322TIP3   OH212922   0.230   0.304   5.122  0.3732  0.0681 -0.0562
 4322TIP3    H112923   0.137   0.307   5.100  0.1431  0.0862  0.8557
 4322TIP3    H212924   0.275   0.316   5.039 -0.4324  1.6182 -0.3020
 4323TIP3   OH212925   3.932   5.881   3.143 -0.4745  0.1363 -0.4367
 4323TIP3    H112926   3.954   5.792   3.116  0.7519  0.2734  0.0313
 4323TIP3    H212927   3.868   5.870   3.213  0.2044 -0.4140  0.1089
 4324TIP3   OH212928   2.471   4.513   5.727 -0.3147  0.0420  0.0741
 4324TIP3    H112929   2.383   4.505   5.765 -1.4507  1.5081 -2.0814
 4324TIP3    H212930   2.456   4.532   5.635  2.2697  1.4613 -0.1446
 4325TIP3   OH212931   4.459   2.902   5.276 -0.1457  0.0254 -0.0209
 4325TIP3    H112932   4.399   2.840   5.234 -0.6003  0.5731 -0.1917
 4325TIP3    H212933   4.472   2.971   5.211  0.8420 -0.1882 -0.0613
 4326TIP3   OH212934   0.952   2.451   1.725  0.4652 -0.3886  0.3807
 4326TIP3    H112935   0.901   2.372   1.711  0.2872 -0.1311 -0.4954
 4326TIP3    H212936   0.893   2.509   1.774  1.4161 -1.6445  3.2264
 4327TIP3   OH212937   2.784   6.239   1.764  0.4144 -0.8288 -0.2743
 4327TIP3    H112938   2.730   6.186   1.822 -1.4220 -1.1101 -2.1192
 4327TIP3    H212939   2.777   6.196   1.679 -1.7305  2.5974 -2.0625
 4328TIP3   OH212940   7.814   5.734   4.639 -0.2468  0.2807  0.4932
 4328TIP3    H112941   7.825   5.719   4.545  4.5523 -0.3884  0.8964
 4328TIP3    H212942   7.783   5.650   4.673 -0.9356  0.1858 -0.3500
 4329TIP3   OH212943   4.701   5.741   2.275 -0.1083  0.2828  0.6880
 4329TIP3    H112944   4.711   5.821   2.327 -1.6396  0.2823  1.0435
 4329TIP3    H212945   4.614   5.749   2.236 -0.2262 -1.1417  0.6062
 4330TIP3   OH212946   7.887   7.668   5.141  0.1536 -0.3621  0.1101
 4330TIP3    H112947   7.843   7.747   5.109 -1.0004 -1.1578 -0.3432
 4330TIP3    H212948   7.974   7.698   5.168 -0.9749  1.4906  2.0384
 4331TIP3   OH212949   4.168   4.304   0.243 -0.1050  0.4172 -0.0105
 4331TIP3    H112950   4.085   4.258   0.258  1.0951 -1.8676  0.0520
 4331TIP3    H212951   4.221   4.284   0.319  1.5694 -0.7671 -1.4038
 4332TIP3   OH212952   5.265   5.175   2.245 -0.0195  0.0308  0.7307
 4332TIP3    H112953   5.358   5.156   2.240 -0.0173  0.2314 -0.1054
 4332TIP3    H212954   5.249   5.237   2.174 -0.7628  0.1037  0.9518
 4333TIP3   OH212955   1.709   6.571   0.600  0.1958 -0.5163  0.0467
 4333TIP3    H112956   1.749   6.485   0.587 -0.6608 -0.8439 -0.5910
 4333TIP3    H212957   1.776   6.633   0.571 -0.0732 -1.0847 -1.9836
 4334TIP3   OH212958   7.852   5.409   1.088 -0.0170  0.2868 -0.0818
 4334TIP3    H112959   7.811   5.323   1.098 -2.7216  1.5509  0.4068
 4334TIP3    H212960   7.785   5.463   1.047  0.8736  2.6847  1.4268
 4335TIP3   OH212961   6.255   0.734   6.722 -0.1797 -0.1661  0.1969
 4335TIP3    H112962   6.206   0.721   6.640 -0.4678  0.0087  0.3412
 4335TIP3    H212963   6.188   0.757   6.787 -0.0852 -1.4165  0.7518
 4336TIP3   OH212964   4.988   7.219   5.099  0.2234  0.2541 -0.4756
 4336TIP3    H112965   5.039   7.296   5.073 -0.0123 -0.6604 -4.1765
 4336TIP3    H212966   5.053   7.153   5.120  0.4703  0.5101 -0.4290
 4337TIP3   OH212967   1.147   2.970   1.813  0.3825 -0.4324 -0.5224
 4337TIP3    H112968   1.231   2.935   1.842  0.8486  1.3518  0.4549
 4337TIP3    H212969   1.091   2.893   1.802  1.7354 -1.5550  0.1259
 4338TIP3   OH212970   1.069   4.794   4.551 -0.1396  0.8808  0.2370
 4338TIP3    H112971   1.087   4.847   4.628 -0.1353  1.5090 -0.1881
 4338TIP3    H212972   0.987   4.829   4.517  0.2738  1.1685 -0.5047
 4339TIP3   OH212973   0.493   0.285   6.699 -0.3330 -0.1486 -0.1720
 4339TIP3    H112974   0.466   0.317   6.613 -1.2203 -0.3204  0.0342
 4339TIP3    H212975   0.498   0.190   6.689  0.7256 -0.0871 -0.3443
 4340TIP3   OH212976   7.035   7.363   4.688  0.7489  0.3070  0.1070
 4340TIP3    H112977   6.968   7.366   4.620 -0.2674 -0.5890  1.0343
 4340TIP3    H212978   7.097   7.432   4.664  0.3014  0.1502 -1.5906
 4341TIP3   OH212979   2.694   5.525   3.753 -0.2789  0.0286  0.1712
 4341TIP3    H112980   2.702   5.437   3.790  0.3341  0.1466  0.3417
 4341TIP3    H212981   2.721   5.583   3.824  0.2515  0.2965 -0.2377
 4342TIP3   OH212982   3.664   7.026   2.785  0.2918  1.0595 -0.2033
 4342TIP3    H112983   3.673   6.953   2.724 -0.7721 -0.2836  1.1870
 4342TIP3    H212984   3.754   7.059   2.796  0.9746 -0.7284 -0.0500
 4343TIP3   OH212985   5.581   3.645   6.788  0.2115  0.1478 -0.4031
 4343TIP3    H112986   5.496   3.662   6.747  0.2352 -1.1909 -1.0422
 4343TIP3    H212987   5.642   3.635   6.715  0.8483  0.6629  0.0460
 4344TIP3   OH212988   2.891   6.680   6.191 -0.0360 -0.4221 -0.0039
 4344TIP3    H112989   2.875   6.769   6.222 -0.0881 -0.2983 -0.3893
 4344TIP3    H212990   2.830   6.669   6.118  0.0394 -0.7426 -0.0200
 4345TIP3   OH212991   5.574   5.227   3.384  0.1217  0.0454  0.2640
 4345TIP3    H112992   5.578   5.133   3.403  1.3220 -0.3589 -1.8066
 4345TIP3    H212993   5.589   5.269   3.469  0.9122 -1.6234  0.9910
 4346TIP3   OH212994   0.241   3.774   2.958 -0.4587  0.9844  0.3005
 4346TIP3    H112995   0.317   3.747   3.010 -0.1228 -2.8668 -1.8663
 4346TIP3    H212996   0.165   3.744   3.008 -0.1241 -3.2325 -1.3646
 4347TIP3   OH212997   2.019   2.982   5.133 -0.2580 -0.1432  0.1240
 4347TIP3    H112998   2.018   3.074   5.105  0.2913  0.1958  1.1665
 4347TIP3    H212999   2.112   2.961   5.141 -0.3670 -0.9604 -0.6110
 4348TIP3   OH213000   2.428   5.475   0.155 -0.3747  0.2671  0.1009
 4348TIP3    H113001   2.351   5.504   0.107 -0.4981  0.4793  0.4282
 4348TIP3    H213002   2.502   5.503   0.100 -0.4935  1.1318  0.3718
 4349TIP3   OH213003   7.860   2.658   1.896  0.0094  0.0955 -0.1070
 4349TIP3    H113004   7.787   2.719   1.882  0.3400  0.1640 -1.7405
 4349TIP3    H213005   7.822   2.572   1.881 -0.6653 -0.2858  3.0206
 4350TIP3   OH213006   5.757   6.469   1.250  0.1719 -0.0844 -0.1725
 4350TIP3    H113007   5.806   6.506   1.324 -0.7956 -0.1153  0.5153
 4350TIP3    H213008   5.790   6.516   1.173  0.8677  0.2873  0.3377
 4351TIP3   OH213009   5.577   0.535   5.720  0.6294  0.4192 -0.5013
 4351TIP3    H113010   5.661   0.491   5.705 -0.0242 -1.1799  0.2777
 4351TIP3    H213011   5.515   0.464   5.735 -0.3849  1.6156  1.3685
 4352TIP3   OH213012   4.520   0.468   3.280 -0.0807  0.1343  0.1797
 4352TIP3    H113013   4.474   0.485   3.198 -1.6116 -0.3200  0.9160
 4352TIP3    H213014   4.598   0.418   3.254 -0.4264  0.1804 -1.0026
 4353TIP3   OH213015   1.723   3.223   5.229  0.6043  0.7437  0.0504
 4353TIP3    H113016   1.663   3.295   5.209 -0.5932 -0.1078  0.5041
 4353TIP3    H213017   1.668   3.156   5.269  1.5618 -0.7532 -1.0519
 4354TIP3   OH213018   0.685   0.145   4.461  0.1597  0.8073 -0.2436
 4354TIP3    H113019   0.725   0.111   4.541  1.1149  0.5158 -0.8231
 4354TIP3    H213020   0.626   0.076   4.432 -0.7632  1.2151  0.5857
 4355TIP3   OH213021   1.701   1.780   6.639  0.3441  0.0681 -0.2403
 4355TIP3    H113022   1.762   1.746   6.705  0.1062  1.4653  0.7219
 4355TIP3    H213023   1.704   1.714   6.569  1.5826 -0.7989  0.5752
 4356TIP3   OH213024   4.978   7.331   3.306  0.2706 -0.0084 -0.2982
 4356TIP3    H113025   4.903   7.389   3.291 -0.2374 -0.4632  0.3849
 4356TIP3    H213026   5.047   7.388   3.338  0.1500  0.3944 -0.7572
 4357TIP3   OH213027   7.718   4.880   0.310 -0.0017 -0.1915  0.8133
 4357TIP3    H113028   7.809   4.854   0.325 -0.3442 -1.4887  0.7505
 4357TIP3    H213029   7.724   4.972   0.282  1.2111 -0.0036  1.6090
 4358TIP3   OH213030   2.004   3.104   2.456 -0.1282 -0.3038 -0.1047
 4358TIP3    H113031   1.916   3.082   2.426 -0.0043 -0.7763 -0.1309
 4358TIP3    H213032   2.057   3.027   2.434  0.3101  0.0128 -0.1722
 4359TIP3   OH213033   5.617   2.347   6.454 -1.1004  0.0672 -0.0117
 4359TIP3    H113034   5.579   2.278   6.508 -0.6873 -0.3363 -0.2266
 4359TIP3    H213035   5.545   2.408   6.439 -1.9365 -1.1489 -1.1724
 4360TIP3   OH213036   3.608   3.439   3.875  0.6816  0.3048  0.4368
 4360TIP3    H113037   3.531   3.386   3.855  2.1562 -1.9476  0.4493
 4360TIP3    H213038   3.621   3.429   3.969  1.6864 -0.3536  0.2416
 4361TIP3   OH213039   7.329   2.796   6.757 -0.0659  0.3784  0.3693
 4361TIP3    H113040   7.306   2.845   6.836 -0.6540  2.4476 -0.9779
 4361TIP3    H213041   7.337   2.864   6.689  0.5108 -1.2983 -1.3250
 4362TIP3   OH213042   5.446   7.664   3.765  0.1151 -0.4702  0.1564
 4362TIP3    H113043   5.534   7.634   3.741 -0.1139 -2.2167  1.3333
 4362TIP3    H213044   5.393   7.584   3.765 -0.9929  0.2323  1.5550
 4363TIP3   OH213045   4.858   5.491   2.380  0.4875 -0.4711 -0.6998
 4363TIP3    H113046   4.819   5.578   2.377 -0.9273 -1.0427  0.0026
 4363TIP3    H213047   4.784   5.431   2.368  1.4901 -1.5800 -1.5780
 4364TIP3   OH213048   5.624   7.036   0.266  0.4125  0.3171 -0.4282
 4364TIP3    H113049   5.672   6.962   0.230 -0.2013 -0.9564  1.2601
 4364TIP3    H213050   5.671   7.059   0.346  0.5113  1.6775 -0.8586
 4365TIP3   OH213051   0.827   7.613   6.491  0.1123 -0.6546  0.0753
 4365TIP3    H113052   0.857   7.664   6.567 -0.4916 -1.5029  0.9037
 4365TIP3    H213053   0.904   7.609   6.434 -0.0466  1.8740 -0.4343
 4366TIP3   OH213054   6.857   0.020   0.086 -0.7633  0.1060 -0.0500
 4366TIP3    H113055   6.815   0.090   0.137 -0.1267  0.5926 -0.1849
 4366TIP3    H213056   6.881   0.062   0.004  0.0714 -0.1375  0.0657
 4367TIP3   OH213057   0.646   2.408   0.044  1.1572 -0.0977  0.1739
 4367TIP3    H113058   0.614   2.377  -0.040  1.2753 -1.9174  0.7594
 4367TIP3    H213059   0.738   2.431   0.028  0.3517  2.8068 -0.9264
 4368TIP3   OH213060   5.681   7.487   1.367 -0.0578 -0.2093  0.4051
 4368TIP3    H113061   5.729   7.463   1.287 -2.6273  0.4680 -1.4906
 4368TIP3    H213062   5.692   7.582   1.373 -0.5110 -0.1545  0.3895
 4369TIP3   OH213063   1.726   3.563   4.805 -0.2998  0.1486  0.0753
 4369TIP3    H113064   1.753   3.624   4.873 -0.3822 -1.5114  1.6721
 4369TIP3    H213065   1.807   3.524   4.773 -0.4225 -1.1301  1.2629
 4370TIP3   OH213066   8.166   1.928   6.245 -0.7373  0.2601 -0.1714
 4370TIP3    H113067   8.130   2.015   6.262  0.8229  0.5021  2.5440
 4370TIP3    H213068   8.093   1.868   6.261 -1.3603  0.9725 -0.2721
 4371TIP3   OH213069   3.458   4.447   5.053  0.0944 -0.4559  0.7329
 4371TIP3    H113070   3.497   4.408   4.975 -0.0797 -0.8892  0.8591
 4371TIP3    H213071   3.436   4.372   5.109 -1.3471 -0.2685  0.4660
 4372TIP3   OH213072   1.729   3.602   1.864 -0.1885 -0.2907  0.1776
 4372TIP3    H113073   1.705   3.552   1.786 -0.1526  0.4879 -0.3473
 4372TIP3    H213074   1.653   3.595   1.922 -1.2504  1.1786 -0.9741
 4373TIP3   OH213075   2.545   4.327   3.326 -0.3414  0.2533  0.0735
 4373TIP3    H113076   2.490   4.330   3.404  0.8832 -2.2494  1.1458
 4373TIP3    H213077   2.518   4.247   3.281  1.6326 -0.4696  0.0652
 4374TIP3   OH213078   3.995   5.403   2.097  0.3946  0.0636  0.3167
 4374TIP3    H113079   4.007   5.395   2.192  0.1558 -1.5240  0.2318
 4374TIP3    H213080   4.072   5.361   2.059 -0.3541 -0.9009 -0.1822
 4375TIP3   OH213081   1.066   3.990   5.176  0.3497  0.5526  0.0770
 4375TIP3    H113082   0.995   3.940   5.217 -1.0205  1.8821 -0.5801
 4375TIP3    H213083   1.111   3.926   5.120  0.7872 -0.7173  1.7942
 4376TIP3   OH213084   8.182   0.420   5.730 -0.0511  0.1004 -0.5452
 4376TIP3    H113085   8.240   0.453   5.799  0.3197 -0.2449 -0.6932
 4376TIP3    H213086   8.223   0.447   5.649  0.6223 -1.2876 -0.7000
 4377TIP3   OH213087   5.539   6.535   1.474  0.4696  0.2304  0.2776
 4377TIP3    H113088   5.524   6.472   1.403  1.7743  0.0556  0.1345
 4377TIP3    H213089   5.455   6.537   1.522  0.0337 -0.7409 -0.4005
 4378TIP3   OH213090   5.511   4.915   2.819 -0.9057 -0.1543 -0.3046
 4378TIP3    H113091   5.565   4.868   2.756  2.2808  1.8888  0.6619
 4378TIP3    H213092   5.471   4.847   2.873  0.8280 -1.8200 -1.0293
 4379TIP3   OH213093   5.068   5.953   4.021  0.0083  0.8105 -0.4267
 4379TIP3    H113094   5.002   5.992   3.964 -0.3661  1.1381  0.2147
 4379TIP3    H213095   5.065   6.006   4.101 -0.7031 -0.6628  0.5719
 4380TIP3   OH213096   6.589   7.238   0.385  0.2019 -0.4587  0.0503
 4380TIP3    H113097   6.636   7.300   0.329  0.9613 -0.4361  0.6986
 4380TIP3    H213098   6.658   7.192   0.433 -0.4535  0.0331  1.5114
 4381TIP3   OH213099   2.325   2.411   2.568  0.1168  0.1834  0.7542
 4381TIP3    H113100   2.373   2.384   2.490 -0.9945 -0.6261  0.3168
 4381TIP3    H213101   2.297   2.501   2.550  0.8283  0.3982  0.7069
 4382TIP3   OH213102   4.497   6.544   5.794 -0.1324  0.6366  0.2532
 4382TIP3    H113103   4.405   6.521   5.784 -0.5770  2.6264 -0.7409
 4382TIP3    H213104   4.543   6.459   5.797 -2.0830 -0.4404  2.4162
 4383TIP3   OH213105   7.619   1.255   1.672 -0.1764  0.2765 -0.2347
 4383TIP3    H113106   7.692   1.238   1.613  0.4380  0.2970  0.4967
 4383TIP3    H213107   7.541   1.230   1.623  0.4602 -1.6552 -0.3325
 4384TIP3   OH213108   0.406   3.698   3.157  0.2396 -0.4349 -0.4962
 4384TIP3    H113109   0.455   3.780   3.151 -1.4696  0.5865 -1.2576
 4384TIP3    H213110   0.402   3.680   3.251  0.4121  0.5099 -0.2975
 4385TIP3   OH213111   4.563   6.275   1.086  0.2632 -0.0831 -0.4350
 4385TIP3    H113112   4.634   6.267   1.150 -1.4072 -2.1186  1.3280
 4385TIP3    H213113   4.554   6.187   1.048 -0.3145  0.5179 -1.7711
 4386TIP3   OH213114   7.357   6.300   2.107 -0.0882  0.2622  0.4732
 4386TIP3    H113115   7.328   6.305   2.016  1.8021 -0.6392 -0.2304
 4386TIP3    H213116   7.340   6.210   2.133  0.1770  0.2851  0.7304
 4387TIP3   OH213117   2.643   4.681   3.456 -0.0698 -0.2611 -0.0881
 4387TIP3    H113118   2.559   4.725   3.439 -0.7329 -0.3314  2.4530
 4387TIP3    H213119   2.635   4.596   3.413 -0.8644  0.1492 -0.7875
 4388TIP3   OH213120   4.579   7.395   4.232 -0.0601 -0.0394 -0.0360
 4388TIP3    H113121   4.653   7.357   4.185  1.0719  1.8814  0.0623
 4388TIP3    H213122   4.558   7.332   4.300  0.5795 -1.2548 -0.9320
 4389TIP3   OH213123   6.555   0.390   1.975  0.6835  0.1634  0.2589
 4389TIP3    H113124   6.587   0.454   1.912  0.5315 -0.3445 -0.3489
 4389TIP3    H213125   6.514   0.441   2.044  2.6563  0.8500  1.0051
 4390TIP3   OH213126   4.137   5.417   4.503 -0.1555 -0.1647 -0.4201
 4390TIP3    H113127   4.156   5.455   4.417 -0.5971  0.6690 -0.1590
 4390TIP3    H213128   4.043   5.400   4.501 -0.7060  2.2710  0.7923
 4391TIP3   OH213129   1.971   0.100   3.473 -0.0851  0.1375 -0.7223
 4391TIP3    H113130   1.977   0.034   3.403  1.5727 -0.6500  0.0989
 4391TIP3    H213131   1.889   0.080   3.517  0.8042 -2.0692  0.1099
 4392TIP3   OH213132   5.884   6.562   0.096  0.3628 -0.5510  0.5891
 4392TIP3    H113133   5.969   6.574   0.053  0.0568  3.4969  0.7023
 4392TIP3    H213134   5.899   6.590   0.187 -0.4884 -2.6600  1.4421
 4393TIP3   OH213135   1.571   5.466   4.490 -0.1517 -0.1340 -0.8623
 4393TIP3    H113136   1.571   5.452   4.585  0.6045 -3.6714 -1.2286
 4393TIP3    H213137   1.479   5.467   4.465 -0.3421 -0.9186 -0.2311
 4394TIP3   OH213138   2.605   6.501   3.802 -0.0779  0.2958 -0.3322
 4394TIP3    H113139   2.600   6.461   3.889  2.5412  0.1725 -0.1635
 4394TIP3    H213140   2.628   6.428   3.744  0.9596  0.8552 -0.6436
 4395TIP3   OH213141   6.657   1.423   6.737  0.0729 -0.6664  0.1690
 4395TIP3    H113142   6.586   1.370   6.773 -0.7994 -0.1529 -0.7345
 4395TIP3    H213143   6.623   1.513   6.740  1.0612 -0.2921  0.5878
 4396TIP3   OH213144   8.259   3.799   6.170  0.4062  0.8247 -0.3694
 4396TIP3    H113145   8.207   3.745   6.230 -0.7059  1.1022 -1.0536
 4396TIP3    H213146   8.225   3.888   6.183  2.1312  1.3683  0.6483
 4397TIP3   OH213147   0.038   6.121   4.755  0.3488 -0.1297  0.0716
 4397TIP3    H113148   0.039   6.125   4.850 -1.1709  0.7685  0.0794
 4397TIP3    H213149  -0.054   6.127   4.731  0.5977 -1.5154 -1.4385
 4398TIP3   OH213150   8.201   7.280   4.641  0.5671  0.2041  0.1841
 4398TIP3    H113151   8.177   7.232   4.720 -1.7466 -1.7130 -1.5254
 4398TIP3    H213152   8.129   7.341   4.627  1.6365  1.5202  0.2597
 4399TIP3   OH213153   1.405   1.637   6.370 -0.4745 -0.1203 -0.0171
 4399TIP3    H113154   1.484   1.585   6.355 -1.2072 -1.2320 -0.1346
 4399TIP3    H213155   1.337   1.592   6.320 -0.9931  1.3945 -0.7487
 4400TIP3   OH213156   1.398   5.275   6.413  0.0032  0.1381  0.3829
 4400TIP3    H113157   1.413   5.307   6.324  0.2321  1.2055  0.7837
 4400TIP3    H213158   1.414   5.181   6.408 -2.3801 -0.2862 -1.2426
 4401TIP3   OH213159   6.279   2.163   4.817  0.8771  0.0087 -0.4868
 4401TIP3    H113160   6.374   2.153   4.824  0.9292  1.4968  2.5648
 4401TIP3    H213161   6.250   2.185   4.905 -2.1130  1.3892 -1.6560
 4402TIP3   OH213162   5.694   1.954   0.717 -0.2629  0.7047 -0.3402
 4402TIP3    H113163   5.674   1.965   0.810 -0.4348  1.2008 -0.4313
 4402TIP3    H213164   5.620   1.905   0.682 -1.1431  2.1239 -0.5785
 4403TIP3   OH213165   0.074   3.384   5.315  0.2864  0.1046 -0.5274
 4403TIP3    H113166   0.115   3.372   5.402 -0.1775 -0.0595 -0.3289
 4403TIP3    H213167  -0.004   3.329   5.318 -0.2109  0.7955 -0.7331
 4404TIP3   OH213168   3.122   5.471   5.218  0.1915 -0.1761  0.4609
 4404TIP3    H113169   3.217   5.479   5.225  0.3509 -0.8667 -0.7293
 4404TIP3    H213170   3.099   5.523   5.142 -0.3486 -0.2713  0.5549
 4405TIP3   OH213171   0.203   7.038   1.004 -0.5158 -0.1440 -0.2447
 4405TIP3    H113172   0.129   6.979   0.991 -1.1821  0.2286  1.5775
 4405TIP3    H213173   0.164   7.126   1.008 -0.0291  0.0375  0.9514
 4406TIP3   OH213174   4.524   4.549   3.270  0.1499  0.6253  0.1916
 4406TIP3    H113175   4.460   4.510   3.210 -0.5833 -0.7496  1.7889
 4406TIP3    H213176   4.518   4.643   3.253 -2.2675  0.5412  0.2285
 4407TIP3   OH213177   3.336   6.222   1.808  0.2376  0.0818 -0.0830
 4407TIP3    H113178   3.330   6.308   1.766 -0.9940  0.1459  0.1887
 4407TIP3    H213179   3.245   6.199   1.828  0.6269 -0.9156  0.5905
 4408TIP3   OH213180   5.937   7.337   3.381  0.4793  0.4722 -0.2801
 4408TIP3    H113181   6.004   7.271   3.401  0.0465  0.2568  0.4967
 4408TIP3    H213182   5.968   7.379   3.301  1.3807  0.1478 -0.1167
 4409TIP3   OH213183   1.302   5.767   5.863 -0.3216 -0.1583 -0.7420
 4409TIP3    H113184   1.360   5.843   5.858  0.5959 -0.7415  0.7242
 4409TIP3    H213185   1.245   5.776   5.786  0.5014  1.3987 -1.2083
 4410TIP3   OH213186   0.661   7.031   1.245  0.8190  0.3409  0.0252
 4410TIP3    H113187   0.681   7.027   1.152 -0.8919 -0.7056 -0.3561
 4410TIP3    H213188   0.631   6.942   1.267 -1.5191  1.2541  0.8701
 4411TIP3   OH213189   7.971   5.292   3.866  0.3307 -0.9204 -0.5230
 4411TIP3    H113190   7.921   5.368   3.836 -0.4086 -0.8924  0.7063
 4411TIP3    H213191   7.906   5.222   3.872  0.5770 -1.0766  0.4086
 4412TIP3   OH213192   4.451   6.259   2.916  0.6495 -0.0929  0.2681
 4412TIP3    H113193   4.472   6.173   2.950  0.9510 -0.1685 -0.1061
 4412TIP3    H213194   4.357   6.255   2.897  0.9517 -0.8461 -1.1883
 4413TIP3   OH213195   2.869   5.642   2.027 -0.3742  0.0165  0.3554
 4413TIP3    H113196   2.847   5.712   1.965  1.9905 -1.4355 -2.4263
 4413TIP3    H213197   2.812   5.569   2.002 -1.5614  0.3125  2.0401
 4414TIP3   OH213198   4.516   0.581   2.396  0.4824 -0.5349 -0.2493
 4414TIP3    H113199   4.572   0.505   2.410 -0.1388 -0.9522 -0.0237
 4414TIP3    H213200   4.578   0.653   2.378  1.2192 -0.4735  2.2124
 4415TIP3   OH213201   1.952   2.707   3.383  0.3805 -0.1235  0.4945
 4415TIP3    H113202   1.985   2.620   3.360 -0.0868 -0.3473  0.6498
 4415TIP3    H213203   2.028   2.753   3.419  0.6407 -0.4541  0.3691
 4416TIP3   OH213204   4.458   6.131   5.259  0.1844 -0.6804 -0.1581
 4416TIP3    H113205   4.463   6.215   5.304 -0.4153 -1.2638  1.0276
 4416TIP3    H213206   4.544   6.119   5.220  0.4399  0.2295  0.1133
 4417TIP3   OH213207   4.898   1.118   4.375  0.7123  0.3413 -0.4578
 4417TIP3    H113208   4.884   1.209   4.349 -2.9566 -0.2685 -1.1235
 4417TIP3    H213209   4.891   1.118   4.470  0.0135  0.6507 -0.5099
 4418TIP3   OH213210   1.853   7.677   0.921 -0.0591  0.2974 -0.1910
 4418TIP3    H113211   1.903   7.739   0.867 -0.5777  0.0597 -0.9601
 4418TIP3    H213212   1.772   7.723   0.942 -1.5593 -0.9099 -2.8033
 4419TIP3   OH213213   2.122   3.969   5.705 -0.0318 -0.4345 -0.2769
 4419TIP3    H113214   2.070   4.047   5.724 -0.9200 -0.6608 -1.6121
 4419TIP3    H213215   2.208   4.003   5.681 -0.0927  0.0591  0.1953
 4420TIP3   OH213216   1.304   5.633   4.586  0.4442 -0.1549 -0.2659
 4420TIP3    H113217   1.348   5.717   4.602 -0.0405 -0.2618  2.0694
 4420TIP3    H213218   1.282   5.601   4.674 -1.3345 -1.6873 -1.1991
 4421TIP3   OH213219   7.721   3.925   2.325 -0.6106 -0.4135  0.4683
 4421TIP3    H113220   7.790   3.893   2.268 -0.9109  0.8936 -0.6641
 4421TIP3    H213221   7.646   3.868   2.306 -0.2643 -0.9657  0.7181
 4422TIP3   OH213222   3.401   5.606   2.132  0.1447 -0.3684 -0.3864
 4422TIP3    H113223   3.433   5.667   2.199  0.0974  0.0496 -0.7415
 4422TIP3    H213224   3.307   5.623   2.128 -0.1552 -1.6191  0.6820
 4423TIP3   OH213225   3.504   6.147   5.126  0.0983  0.0722 -1.0828
 4423TIP3    H113226   3.569   6.079   5.148 -0.4217 -0.4726 -1.1977
 4423TIP3    H213227   3.426   6.098   5.102  0.3411  0.6488 -3.2339
 4424TIP3   OH213228   1.267   2.978   5.229  0.2186 -0.2327  0.6458
 4424TIP3    H113229   1.321   2.964   5.152  0.4928  1.4845  0.4916
 4424TIP3    H213230   1.181   2.942   5.205  0.5589 -0.5510 -0.1037
 4425TIP3   OH213231   2.929   2.538   4.131  0.2391 -0.4384  0.0937
 4425TIP3    H113232   2.997   2.475   4.155  1.5816  1.1001  0.4642
 4425TIP3    H213233   2.954   2.570   4.044  0.0503  0.1979  0.2657
 4426TIP3   OH213234   6.312   4.659   2.178 -0.3052  0.0745  0.0402
 4426TIP3    H113235   6.270   4.673   2.262 -1.6495  0.0680 -0.5970
 4426TIP3    H213236   6.260   4.590   2.137  0.5696 -0.1969 -0.6281
 4427TIP3   OH213237   6.210   0.646   4.240 -0.1027 -0.5855 -0.7178
 4427TIP3    H113238   6.156   0.723   4.255  0.0959 -0.7176  0.8285
 4427TIP3    H213239   6.257   0.665   4.159  1.2402  1.6774  0.5218
 4428TIP3   OH213240   6.360   6.631   5.752  0.4634 -0.0029 -0.4372
 4428TIP3    H113241   6.391   6.667   5.669 -0.4629 -1.6345 -1.5477
 4428TIP3    H213242   6.294   6.694   5.783  1.6435  1.2121 -0.2878
 4429TIP3   OH213243   2.971   4.747   0.005 -0.0073  0.2033 -0.5304
 4429TIP3    H113244   3.045   4.703   0.045  0.9805 -0.5434 -2.9672
 4429TIP3    H213245   2.901   4.681   0.003 -0.1128  0.2929  0.0472
 4430TIP3   OH213246   6.670   2.085   3.136  0.7052 -0.1772 -0.1364
 4430TIP3    H113247   6.736   2.144   3.171 -0.5886  1.1455  0.1344
 4430TIP3    H213248   6.587   2.116   3.173 -0.0520 -2.0037 -0.1888
 4431TIP3   OH213249   2.263   7.339   4.768  0.5038  0.0266 -0.2212
 4431TIP3    H113250   2.230   7.249   4.775 -0.6218  0.5229  1.6151
 4431TIP3    H213251   2.311   7.353   4.850  0.3149  1.2250 -0.3008
 4432TIP3   OH213252   5.530   1.582   5.827  0.1169 -0.1722  0.6081
 4432TIP3    H113253   5.490   1.504   5.789  2.0120 -0.8961 -0.0045
 4432TIP3    H213254   5.492   1.655   5.779 -0.7608 -0.7862  0.3470
 4433TIP3   OH213255   5.814   1.144   4.061  0.0860 -0.6039  0.1751
 4433TIP3    H113256   5.779   1.220   4.107  0.2042 -0.4582  0.0282
 4433TIP3    H213257   5.872   1.101   4.125 -0.2633 -0.7760  0.3766
 4434TIP3   OH213258   5.306   4.360   1.676  0.1004  0.2146 -0.3997
 4434TIP3    H113259   5.251   4.349   1.754  1.3560  0.3260  0.5455
 4434TIP3    H213260   5.274   4.441   1.636  0.1072  0.7211  0.5884
 4435TIP3   OH213261   7.604   6.244   0.574 -0.2227  0.5444 -0.1702
 4435TIP3    H113262   7.580   6.309   0.507 -0.6992  1.5554  0.9538
 4435TIP3    H213263   7.655   6.292   0.638  2.6040 -0.9900 -1.0782
 4436TIP3   OH213264   7.276   7.273   1.189  1.1695 -0.3081  0.1826
 4436TIP3    H113265   7.326   7.209   1.240  2.4341  2.2077  2.3625
 4436TIP3    H213266   7.332   7.351   1.187 -0.1766  0.7107 -2.5659
 4437TIP3   OH213267   4.091   1.094   1.601 -0.2732  0.1175  0.5995
 4437TIP3    H113268   4.130   1.174   1.566  0.5663 -0.5999 -0.1697
 4437TIP3    H213269   4.084   1.036   1.525 -2.9714  0.2349  0.6745
 4438TIP3   OH213270   5.186   7.407   4.952 -0.1953  0.9081 -0.1232
 4438TIP3    H113271   5.186   7.342   4.882  0.8625  0.6415  0.1081
 4438TIP3    H213272   5.238   7.480   4.918  0.9046  0.4894  0.6332
 4439TIP3   OH213273   1.259   1.089   0.863 -0.8805 -0.1873 -0.0392
 4439TIP3    H113274   1.197   1.024   0.830 -0.7809  0.0191 -0.6343
 4439TIP3    H213275   1.223   1.173   0.837 -0.8546 -0.0127  0.4743
 4440TIP3   OH213276   3.556   2.173   2.313 -0.3048 -0.2723 -0.1188
 4440TIP3    H113277   3.463   2.195   2.311 -0.2975 -0.2440 -0.1738
 4440TIP3    H213278   3.600   2.258   2.307 -0.2709 -0.3921 -2.1053
 4441TIP3   OH213279   4.071   3.262   3.186  0.0164  0.1156  0.0775
 4441TIP3    H113280   4.139   3.231   3.246  1.1588  0.5441 -0.9598
 4441TIP3    H213281   3.989   3.245   3.233  0.8589  0.5002  1.7777
 4442TIP3   OH213282   2.341   5.820   2.189  0.3041 -0.3510 -0.2130
 4442TIP3    H113283   2.308   5.886   2.129 -1.2229  0.1123  1.0622
 4442TIP3    H213284   2.280   5.747   2.180  0.1116 -0.3118  0.6765
 4443TIP3   OH213285   3.622   4.509   0.753  0.6269  0.0006  0.2690
 4443TIP3    H113286   3.575   4.533   0.673  0.7908  1.2227  0.5181
 4443TIP3    H213287   3.632   4.414   0.748 -0.1987 -0.0437 -0.6987
 4444TIP3   OH213288   5.382   2.740   5.844  0.4923 -0.1708 -0.8676
 4444TIP3    H113289   5.299   2.694   5.847  0.0856  0.5426 -0.9477
 4444TIP3    H213290   5.382   2.785   5.760  1.5534 -1.2394 -1.4634
 4445TIP3   OH213291   5.144   1.738   3.803  0.1127 -0.1314  0.3217
 4445TIP3    H113292   5.136   1.812   3.863 -0.4498  0.2647 -0.2389
 4445TIP3    H213293   5.109   1.770   3.720  1.9771 -0.2706 -0.5753
 4446TIP3   OH213294   2.031   1.942   4.655 -0.0466 -0.3709  0.0275
 4446TIP3    H113295   2.047   1.890   4.576 -1.1113 -2.2673  1.0062
 4446TIP3    H213296   1.989   1.882   4.716 -0.4575  1.4027  1.5911
 4447TIP3   OH213297   1.251   5.170   2.191 -0.3283  0.0297  0.6463
 4447TIP3    H113298   1.155   5.174   2.192 -0.5101 -2.1154 -1.0849
 4447TIP3    H213299   1.273   5.115   2.267 -0.7119 -1.7075 -0.4398
 4448TIP3   OH213300   6.373   2.061   6.667 -0.1312  0.3290  0.2710
 4448TIP3    H113301   6.424   2.086   6.744 -0.2976  0.8609  0.2154
 4448TIP3    H213302   6.312   2.134   6.654 -2.2642 -1.1539  1.4811
 4449TIP3   OH213303   6.480   0.345   4.733  0.2283 -0.9308  0.6677
 4449TIP3    H113304   6.474   0.434   4.697  1.7672 -0.9719  0.2564
 4449TIP3    H213305   6.490   0.358   4.827  1.7215 -0.5852  0.4915
 4450TIP3   OH213306   5.729   5.643   6.175 -0.1819 -0.3130  0.1086
 4450TIP3    H113307   5.683   5.560   6.160 -0.1566  0.0142 -2.1640
 4450TIP3    H213308   5.820   5.624   6.153  0.2240 -0.1644  1.5697
 4451TIP3   OH213309   4.358   1.182   3.969  0.0961  0.1524 -0.4383
 4451TIP3    H113310   4.393   1.095   3.989 -0.3498  0.3724  1.5888
 4451TIP3    H213311   4.317   1.173   3.883  0.9407 -1.3647 -0.7145
 4452TIP3   OH213312   2.747   3.044   4.896 -0.1635  0.0656  0.0510
 4452TIP3    H113313   2.675   3.106   4.910 -1.9558 -2.2280  1.6239
 4452TIP3    H213314   2.788   3.035   4.981 -0.6530 -1.6783  0.1467
 4453TIP3   OH213315   0.712   2.072   6.337 -0.4310  0.1098  0.0347
 4453TIP3    H113316   0.757   1.997   6.375 -1.7594 -0.0579  1.3570
 4453TIP3    H213317   0.745   2.147   6.388  0.2113  0.3226 -0.6773
 4454TIP3   OH213318   6.672   6.476   1.586 -0.0653 -0.5954  0.3586
 4454TIP3    H113319   6.577   6.465   1.594 -0.0699  0.5110  2.7084
 4454TIP3    H213320   6.695   6.428   1.507 -2.5752 -0.8990 -0.2773
 4455TIP3   OH213321   6.398   7.066   4.335  0.1299 -0.6930 -0.0064
 4455TIP3    H113322   6.417   7.158   4.321 -0.4864  0.0436  3.3566
 4455TIP3    H213323   6.304   7.063   4.352  0.1804 -1.9363  0.1339
 4456TIP3   OH213324   1.980   5.968   0.280  0.3068 -0.0260  0.0667
 4456TIP3    H113325   1.894   5.972   0.321  0.4856  3.5759  0.3832
 4456TIP3    H213326   1.975   6.031   0.208  2.1219 -1.1856 -1.1708
 4457TIP3   OH213327   7.880   5.233   0.292  0.0529  0.4723 -0.1336
 4457TIP3    H113328   7.833   5.196   0.217 -1.6315 -0.4123  1.2666
 4457TIP3    H213329   7.946   5.167   0.314 -1.0865 -0.4506  0.6337
 4458TIP3   OH213330   2.006   3.857   5.146  0.6022  0.7112  0.3042
 4458TIP3    H113331   2.025   3.870   5.239  1.2998  1.6055  0.0512
 4458TIP3    H213332   1.950   3.931   5.123  0.7305  0.6893 -0.0747
 4459TIP3   OH213333   2.356   5.255   2.040 -0.1228 -0.0234 -0.4508
 4459TIP3    H113334   2.325   5.165   2.052  0.9494 -0.4156 -0.4995
 4459TIP3    H213335   2.293   5.294   1.979 -0.2355 -0.9349 -0.9311
 4460TIP3   OH213336   1.548   6.431   5.835 -0.2108  0.3344 -0.1413
 4460TIP3    H113337   1.629   6.392   5.869 -0.3778  0.2664  0.1873
 4460TIP3    H213338   1.518   6.371   5.768  1.1666  1.4452 -1.8306
 4461TIP3   OH213339   6.449   7.377   5.288 -0.3764  0.5561  0.0930
 4461TIP3    H113340   6.506   7.349   5.216  0.6373  2.7003 -0.0317
 4461TIP3    H213341   6.391   7.443   5.248 -0.5202  0.9997  1.0006
 4462TIP3   OH213342   2.635   3.465   1.420  0.2435  0.3080 -0.5905
 4462TIP3    H113343   2.671   3.483   1.333  0.9342 -1.9354 -0.8224
 4462TIP3    H213344   2.668   3.378   1.442 -1.5729 -0.0259  1.0611
 4463TIP3   OH213345   0.314   4.214   3.850  0.0413 -0.1537 -0.0382
 4463TIP3    H113346   0.291   4.135   3.899 -1.7919 -0.2626 -0.9967
 4463TIP3    H213347   0.304   4.188   3.758 -0.2543  1.0961 -0.3756
 4464TIP3   OH213348   0.890   6.114   1.234  0.2073  0.1133 -0.2110
 4464TIP3    H113349   0.939   6.190   1.267 -0.3430  1.0888 -1.5278
 4464TIP3    H213350   0.840   6.149   1.160 -0.4802 -1.4338 -0.5053
 4465TIP3   OH213351   4.382   1.609   3.046  0.6689 -0.4898  0.1669
 4465TIP3    H113352   4.353   1.616   2.955 -1.7164 -0.0870  0.8997
 4465TIP3    H213353   4.316   1.655   3.096  1.1215 -1.9839  2.2677
 4466TIP3   OH213354   2.792   7.634   2.474 -0.2906  0.5318 -0.5309
 4466TIP3    H113355   2.784   7.556   2.419  0.8480  0.1524 -0.1983
 4466TIP3    H213356   2.887   7.647   2.482 -0.4650  2.0405 -0.6978
 4467TIP3   OH213357   3.106   1.275   2.792 -0.8705 -0.8368 -0.4337
 4467TIP3    H113358   3.113   1.291   2.698  0.5502 -0.2935 -0.2698
 4467TIP3    H213359   3.076   1.359   2.828  4.0788  1.0277  0.1397
 4468TIP3   OH213360   6.608   1.209   1.624 -0.1547 -0.0968 -0.1511
 4468TIP3    H113361   6.580   1.118   1.639 -1.3729  0.1325 -0.8566
 4468TIP3    H213362   6.574   1.230   1.537 -0.7720  1.3439  0.4042
 4469TIP3   OH213363   2.698   7.400   2.649  0.1839 -0.2872 -0.3921
 4469TIP3    H113364   2.713   7.471   2.586 -0.2163  0.9755  0.8705
 4469TIP3    H213365   2.785   7.378   2.682  0.1522  1.4190  1.0282
 4470TIP3   OH213366   1.054   0.059   2.732 -0.8857 -0.0966 -0.4801
 4470TIP3    H113367   1.058   0.153   2.713 -0.2412  0.1622  0.8231
 4470TIP3    H213368   1.050   0.054   2.827  0.6194 -1.4361 -0.4569
 4471TIP3   OH213369   4.488   6.339   0.551 -0.0764  0.0063 -0.3570
 4471TIP3    H113370   4.511   6.339   0.644  0.2842  0.8874 -0.4292
 4471TIP3    H213371   4.563   6.381   0.508  0.3621 -1.6129 -1.2227
 4472TIP3   OH213372   0.694   2.261   6.688  0.7792  0.0184  0.0903
 4472TIP3    H113373   0.611   2.225   6.721  0.0755  0.7055 -0.8715
 4472TIP3    H213374   0.761   2.217   6.740 -0.2030 -0.2197  1.2101
 4473TIP3   OH213375   2.496   5.997   3.782  0.0359 -0.9841 -0.3677
 4473TIP3    H113376   2.482   5.910   3.819  0.3464 -1.1630 -0.6735
 4473TIP3    H213377   2.577   6.028   3.823 -0.5242 -0.4809  0.3990
 4474TIP3   OH213378   3.789   3.502   5.794  0.3136 -0.0325 -0.4220
 4474TIP3    H113379   3.883   3.488   5.801  0.2610 -0.5288 -0.6697
 4474TIP3    H213380   3.775   3.534   5.705  0.3464  0.9204 -0.0945
 4475TIP3   OH213381   5.821   3.051   3.403  0.2780  0.0017  0.0740
 4475TIP3    H113382   5.745   3.083   3.453  1.5492 -1.2562  3.1002
 4475TIP3    H213383   5.881   3.125   3.400 -0.8532  0.9273 -2.1205
 4476TIP3   OH213384   2.003   0.609   1.178 -0.3846 -0.4919  0.0649
 4476TIP3    H113385   2.039   0.668   1.112  0.6130 -2.6948 -1.4631
 4476TIP3    H213386   1.908   0.613   1.165 -0.3881  1.1528  0.3865
 4477TIP3   OH213387   2.488   3.346   4.313 -0.0429 -0.1737  0.4413
 4477TIP3    H113388   2.452   3.319   4.398  2.2052  0.5260  1.6893
 4477TIP3    H213389   2.566   3.292   4.302 -0.6453 -0.7275 -1.5620
 4478TIP3   OH213390   8.127   4.001   1.879 -0.2487 -0.1586 -0.2950
 4478TIP3    H113391   8.079   3.920   1.860 -0.7965 -0.5401  2.3470
 4478TIP3    H213392   8.092   4.030   1.963  0.7493  2.2406 -0.6466
 4479TIP3   OH213393   0.346   4.949   5.332  0.2974 -0.2022 -0.1112
 4479TIP3    H113394   0.391   4.875   5.290 -1.0023 -1.2956  0.3632
 4479TIP3    H213395   0.257   4.946   5.297  0.6489  2.2658 -1.4666
 4480TIP3   OH213396   8.234   6.943   4.060 -0.1964  0.4808 -0.0739
 4480TIP3    H113397   8.286   6.969   4.136  0.5009 -1.8229  0.3322
 4480TIP3    H213398   8.144   6.937   4.093  0.4886 -3.6096  1.6236
 4481TIP3   OH213399   5.493   6.021   0.246 -0.5434  0.0339  0.1313
 4481TIP3    H113400   5.469   5.956   0.312 -2.1359 -0.8719 -1.2505
 4481TIP3    H213401   5.579   6.052   0.273 -0.6198 -1.1779  1.9473
 4482TIP3   OH213402   6.952   4.196   0.604  0.0382 -0.3941 -0.1989
 4482TIP3    H113403   6.867   4.214   0.645  1.1768  0.3910  1.9112
 4482TIP3    H213404   6.941   4.225   0.514 -2.5356 -2.1002 -0.5587
 4483TIP3   OH213405   6.916   6.857   6.555  0.2739  0.3013  0.0398
 4483TIP3    H113406   6.825   6.828   6.552  0.4724 -0.3750  0.3510
 4483TIP3    H213407   6.913   6.939   6.603  0.3744 -2.1981  4.9501
 4484TIP3   OH213408   3.945   4.470   2.379 -0.0050 -0.0166  0.4964
 4484TIP3    H113409   3.944   4.565   2.378  0.4954  0.0123  1.5118
 4484TIP3    H213410   3.863   4.444   2.337  0.0480  0.8468 -0.1537
 4485TIP3   OH213411   2.044   1.649   6.079  0.7306  0.2830 -0.3903
 4485TIP3    H113412   1.990   1.658   6.158  1.4183 -1.3694  0.3154
 4485TIP3    H213413   2.098   1.728   6.078 -0.9912  1.5069 -0.5839
 4486TIP3   OH213414   8.255   5.233   4.431  1.1376  0.1877  0.6450
 4486TIP3    H113415   8.265   5.279   4.347 -0.0786 -0.4751  0.1122
 4486TIP3    H213416   8.162   5.211   4.436  1.5067 -1.3713  1.3302
 4487TIP3   OH213417   6.809   7.377   4.518 -0.5521 -0.3957 -0.4386
 4487TIP3    H113418   6.771   7.312   4.460 -2.1267  0.5638 -0.5402
 4487TIP3    H213419   6.751   7.378   4.594 -1.4568  1.9140 -1.0917
 4488TIP3   OH213420   1.000   6.115   0.499  0.0671 -0.0171 -0.7279
 4488TIP3    H113421   1.066   6.118   0.569  1.4264  1.1341 -1.9980
 4488TIP3    H213422   0.991   6.206   0.470 -1.6198 -0.2478 -1.0420
 4489TIP3   OH213423   4.082   3.104   3.996  0.3815 -0.0283 -0.5486
 4489TIP3    H113424   4.024   3.177   3.975 -0.6150 -0.9696 -1.1577
 4489TIP3    H213425   4.108   3.069   3.911 -0.8070 -1.6415 -0.2959
 4490TIP3   OH213426   3.181   3.364   1.346  0.4404  0.3891  0.0382
 4490TIP3    H113427   3.117   3.419   1.390  0.3383  1.8482 -1.7968
 4490TIP3    H213428   3.141   3.343   1.262  0.6672 -2.1938  0.4860
 4491TIP3   OH213429   3.846   2.442   4.858 -0.0770 -0.4940 -0.0180
 4491TIP3    H113430   3.762   2.445   4.812 -0.1846  0.1379  0.2153
 4491TIP3    H213431   3.839   2.366   4.915 -0.7121 -0.1100  0.4252
 4492TIP3   OH213432   4.989   3.068   4.171 -0.0189  0.6304  0.0775
 4492TIP3    H113433   4.903   3.108   4.164 -0.6732 -0.8352 -0.5881
 4492TIP3    H213434   4.981   3.007   4.245  0.5897  0.8328  0.3143
 4493TIP3   OH213435   0.363   7.681   5.680  0.4373 -0.0576  0.0425
 4493TIP3    H113436   0.303   7.754   5.664 -1.2049 -1.2095  0.6158
 4493TIP3    H213437   0.444   7.722   5.710 -0.5442  1.5255  0.6548
 4494TIP3   OH213438   2.173   3.213   5.273  0.1662 -0.3038  0.2239
 4494TIP3    H113439   2.107   3.259   5.220 -1.6919 -2.5327  0.4315
 4494TIP3    H213440   2.235   3.179   5.209  1.6984  2.4427  0.0732
 4495TIP3   OH213441   0.601   2.753   5.166 -0.2310 -0.6014  0.2804
 4495TIP3    H113442   0.691   2.742   5.135  0.1336  0.9444  0.7347
 4495TIP3    H213443   0.548   2.705   5.101  0.7995 -0.4140 -0.7329
 4496TIP3   OH213444   2.024   0.683   6.547  0.0042  0.1798 -0.7627
 4496TIP3    H113445   2.118   0.685   6.529  0.1237 -0.3976 -0.2365
 4496TIP3    H213446   1.983   0.704   6.464  0.6223  2.0707 -0.6378
 4497TIP3   OH213447   7.504   6.465   2.497  0.0260 -0.1277 -0.1993
 4497TIP3    H113448   7.550   6.410   2.560 -0.1384  0.2107  0.2193
 4497TIP3    H213449   7.419   6.483   2.537  0.8992  2.3355  0.7662
 4498TIP3   OH213450   2.398   0.902   1.715  0.0328 -0.0489 -0.0736
 4498TIP3    H113451   2.353   0.932   1.636 -2.9172  0.5989  1.6738
 4498TIP3    H213452   2.394   0.806   1.710  0.1236 -0.0175 -0.8395
 4499TIP3   OH213453   0.916   2.271   1.274 -0.4476 -0.0226  0.4501
 4499TIP3    H113454   0.870   2.295   1.354 -0.3149  1.9515 -0.0277
 4499TIP3    H213455   0.990   2.331   1.268  0.4318 -1.1236 -0.3940
 4500TIP3   OH213456   5.408   7.214   2.775  0.6410  0.3457  0.8703
 4500TIP3    H113457   5.437   7.130   2.810  0.1899  0.4355  1.4692
 4500TIP3    H213458   5.360   7.255   2.847  2.3350  1.8840  1.2143
 4501TIP3   OH213459   2.980   1.315   4.651  0.0568 -0.9762  0.1863
 4501TIP3    H113460   3.003   1.277   4.566  0.0310 -1.3374  0.3389
 4501TIP3    H213461   3.042   1.387   4.662 -2.0551  1.3094 -1.6701
 4502TIP3   OH213462   1.918   6.710   4.632 -0.0850 -0.2942 -0.5535
 4502TIP3    H113463   1.852   6.645   4.608  0.5842 -0.8957 -0.8159
 4502TIP3    H213464   1.923   6.769   4.557  0.6349 -1.0480 -1.1171
 4503TIP3   OH213465   0.948   2.532   3.947  0.4095 -0.1893 -0.1598
 4503TIP3    H113466   1.043   2.522   3.952  0.5654  1.6051  0.9732
 4503TIP3    H213467   0.932   2.553   3.855  1.1599  0.0273 -0.2505
 4504TIP3   OH213468   3.939   4.230   3.898 -0.1472  0.1367 -0.2984
 4504TIP3    H113469   3.881   4.155   3.884 -0.7426  0.1741  1.7358
 4504TIP3    H213470   4.021   4.205   3.855 -0.3307 -1.6855  0.3501
 4505TIP3   OH213471   6.854   7.156   2.753 -0.1781 -0.1222  0.5763
 4505TIP3    H113472   6.915   7.092   2.717 -1.5128 -0.5028 -1.1660
 4505TIP3    H213473   6.832   7.121   2.840 -0.7747 -2.0149 -0.2744
 4506TIP3   OH213474   7.441   5.365   5.639  0.3526 -0.1993 -0.1629
 4506TIP3    H113475   7.353   5.327   5.636  0.2894 -0.0207 -0.8979
 4506TIP3    H213476   7.494   5.305   5.586  0.8557 -0.7346  0.9082
 4507TIP3   OH213477   4.358   1.090   0.145  0.1132  0.4238  0.6733
 4507TIP3    H113478   4.272   1.127   0.164 -0.2498 -0.0761  0.0653
 4507TIP3    H213479   4.401   1.155   0.091  0.4212  1.0121  1.6034
 4508TIP3   OH213480   0.633   7.490   3.171  0.0237 -0.0733 -0.4351
 4508TIP3    H113481   0.569   7.478   3.242  0.4207  0.8621  0.1007
 4508TIP3    H213482   0.582   7.479   3.091 -0.1326 -2.7513 -0.0556
 4509TIP3   OH213483   0.397   5.825   4.280 -0.4679 -0.9843  0.2116
 4509TIP3    H113484   0.441   5.902   4.317 -1.6806  0.3017 -0.9576
 4509TIP3    H213485   0.349   5.788   4.354  0.1852 -0.6961  0.8022
 4510TIP3   OH213486   0.505   4.339   3.531  0.3514 -0.2054  0.4425
 4510TIP3    H113487   0.471   4.429   3.525  1.4032  0.1598 -0.2977
 4510TIP3    H213488   0.428   4.284   3.515  0.3934  0.6033 -4.1039
 4511TIP3   OH213489   3.917   6.248   2.703  0.0152  0.2550 -0.3586
 4511TIP3    H113490   3.895   6.157   2.724 -4.5453  1.2230  0.0618
 4511TIP3    H213491   3.900   6.256   2.609  0.3203  0.7093 -0.3817
 4512TIP3   OH213492   1.976   6.010   4.057  0.2610  0.0573 -0.1504
 4512TIP3    H113493   2.066   6.034   4.081  0.3155 -0.8448  0.6068
 4512TIP3    H213494   1.963   6.051   3.972  1.4014  0.1934 -0.2846
 4513TIP3   OH213495   5.216   3.205   3.627 -0.2810  0.2963 -0.5813
 4513TIP3    H113496   5.123   3.181   3.637  0.1634 -1.8490 -1.1261
 4513TIP3    H213497   5.257   3.126   3.593  1.3104  1.9791 -2.8668
 4514TIP3   OH213498   1.273   4.968   0.307 -0.4234  0.5380 -0.1516
 4514TIP3    H113499   1.278   4.874   0.322 -0.3017  0.7822  1.6358
 4514TIP3    H213500   1.179   4.987   0.304 -0.4682  0.2124 -1.8762
 4515TIP3   OH213501   2.290   5.228   1.053 -0.4374 -0.3374 -0.3250
 4515TIP3    H113502   2.373   5.243   1.098 -0.3313  0.5469 -0.7844
 4515TIP3    H213503   2.291   5.135   1.031 -0.2913 -0.6838  1.0688
 4516TIP3   OH213504   3.443   1.204   3.844  1.0555  0.3140  0.0245
 4516TIP3    H113505   3.432   1.110   3.859  0.7537  0.2900 -0.3122
 4516TIP3    H213506   3.528   1.211   3.801  0.3868  0.0118 -1.4133
 4517TIP3   OH213507   6.842   3.469   0.043 -0.1243  0.0498  0.0550
 4517TIP3    H113508   6.764   3.524   0.047  0.2990  0.6579  0.1402
 4517TIP3    H213509   6.830   3.405   0.113  1.1813  2.5027  2.7326
 4518TIP3   OH213510   2.762   0.844   3.120 -0.0537  0.5193 -0.6324
 4518TIP3    H113511   2.715   0.918   3.160  0.0326 -0.5838  1.6706
 4518TIP3    H213512   2.715   0.767   3.152  0.8446 -0.4721 -1.6496
 4519TIP3   OH213513   7.877   6.921   3.732  0.0796  0.2258 -0.1457
 4519TIP3    H113514   7.793   6.965   3.715 -1.4115  0.5145  5.7676
 4519TIP3    H213515   7.853   6.832   3.755  1.4342  0.1071  0.9134
 4520TIP3   OH213516   1.620   4.016   6.656 -0.0866  0.2798 -0.4580
 4520TIP3    H113517   1.699   3.987   6.610 -0.2783 -0.0799 -0.5649
 4520TIP3    H213518   1.552   3.954   6.630 -0.3234  0.3799 -0.0986
 4521TIP3   OH213519   4.560   0.981   0.791  0.0880 -0.1345  0.3472
 4521TIP3    H113520   4.473   0.965   0.756 -0.7941  1.7616  1.5248
 4521TIP3    H213521   4.577   0.908   0.851 -1.0027 -0.1435  0.6555
 4522TIP3   OH213522   5.346   0.712   3.972 -0.0007 -0.4748  0.4378
 4522TIP3    H113523   5.302   0.640   4.018  0.2426 -1.0811 -0.2672
 4522TIP3    H213524   5.313   0.708   3.883 -0.3655  0.6179  0.5101
 4523TIP3   OH213525   2.411   2.520   6.519 -0.0163 -0.1519  0.0889
 4523TIP3    H113526   2.474   2.503   6.589 -1.4073 -2.2739  0.9595
 4523TIP3    H213527   2.326   2.519   6.564 -0.8558 -0.3588 -1.4571
 4524TIP3   OH213528   2.859   2.694   0.743  0.3759 -0.1120  0.4131
 4524TIP3    H113529   2.866   2.626   0.809 -2.1926 -0.0571  0.8382
 4524TIP3    H213530   2.805   2.656   0.674 -1.3301  1.4850  0.7696
 4525TIP3   OH213531   5.675   2.262   1.180  0.2886 -0.1037 -0.2248
 4525TIP3    H113532   5.669   2.337   1.239  0.0423  0.3411 -0.8018
 4525TIP3    H213533   5.745   2.207   1.217 -0.2788 -0.1493  0.8150
 4526TIP3   OH213534   0.655   6.511   4.308  0.1002  0.1512  0.2097
 4526TIP3    H113535   0.671   6.605   4.305 -1.2936  0.3751 -1.7915
 4526TIP3    H213536   0.738   6.474   4.341  0.8691  2.0082  0.4696
 4527TIP3   OH213537   3.663   3.460   3.294 -0.0950  0.3146 -0.1529
 4527TIP3    H113538   3.722   3.487   3.224 -0.4001  0.3885 -0.3819
 4527TIP3    H213539   3.582   3.436   3.249 -0.5887  1.1908  0.2444
 4528TIP3   OH213540   6.198   3.993   5.939 -0.5304 -0.7343  0.3930
 4528TIP3    H113541   6.184   3.980   5.846  0.6588 -1.1422  0.2539
 4528TIP3    H213542   6.293   3.986   5.950 -0.6401 -0.5121  1.6025
 4529TIP3   OH213543   5.660   4.273   2.615 -0.3560 -0.4755  0.0928
 4529TIP3    H113544   5.733   4.237   2.564 -0.3898  0.1094 -0.3776
 4529TIP3    H213545   5.595   4.298   2.549 -1.2474 -1.5404  0.5328
 4530TIP3   OH213546   8.029   4.032   2.163  0.2216 -0.7772  0.1891
 4530TIP3    H113547   8.077   4.064   2.239  0.3098  0.0994 -0.2282
 4530TIP3    H213548   7.946   4.080   2.165  1.4085  1.5516 -1.9417
 4531TIP3   OH213549   1.474   4.236   4.868  0.1964 -0.0219  0.2423
 4531TIP3    H113550   1.473   4.321   4.824  0.9499 -0.4465 -0.6328
 4531TIP3    H213551   1.458   4.257   4.961 -0.3197  0.9972 -0.0594
 4532TIP3   OH213552   1.957   2.367   6.606  0.9445  0.0601 -0.0777
 4532TIP3    H113553   1.988   2.392   6.519  1.4970  1.7472  0.5506
 4532TIP3    H213554   1.936   2.274   6.599  3.1649 -0.4020 -1.4040
 4533TIP3   OH213555   4.881   5.486   0.172 -0.5736 -0.3191 -0.1920
 4533TIP3    H113556   4.973   5.462   0.165 -0.6174 -1.0617  1.3643
 4533TIP3    H213557   4.834   5.404   0.159 -1.0906  0.1752 -1.6970
 4534TIP3   OH213558   1.620   2.775   0.339  0.1294 -0.4833  0.3130
 4534TIP3    H113559   1.691   2.819   0.292  1.0890 -1.1409  1.1118
 4534TIP3    H213560   1.594   2.838   0.407 -0.0674 -0.2416  0.0185
 4535TIP3   OH213561   4.957   5.298   1.263  0.1285  0.4228  0.3596
 4535TIP3    H113562   5.020   5.229   1.286  0.9300  0.7939 -0.6301
 4535TIP3    H213563   4.996   5.378   1.299  1.9949  1.2190 -2.9661
 4536TIP3   OH213564   3.626   2.099   3.086 -0.5474 -0.0305 -0.0301
 4536TIP3    H113565   3.571   2.099   3.164 -0.0033  1.2023  0.3668
 4536TIP3    H213566   3.582   2.038   3.026 -0.3537 -1.9282  1.6459
 4537TIP3   OH213567   4.830   7.284   6.288 -0.1377  0.0708  0.1273
 4537TIP3    H113568   4.795   7.278   6.200 -1.2788 -2.6789  0.6727
 4537TIP3    H213569   4.775   7.349   6.332 -0.5737  0.2935 -0.7329
 4538TIP3   OH213570   7.391   3.846   4.420  0.2835 -0.1509 -0.1231
 4538TIP3    H113571   7.331   3.921   4.418 -1.4463 -1.4060  1.1512
 4538TIP3    H213572   7.477   3.884   4.432 -0.0025  1.8273 -3.1589
 4539TIP3   OH213573   2.530   1.453   5.506  0.6704 -0.1220 -0.0039
 4539TIP3    H113574   2.469   1.456   5.433 -0.4921  1.1825  0.9768
 4539TIP3    H213575   2.550   1.545   5.525  0.2112 -0.3792  1.8879
 4540TIP3   OH213576   3.836   4.565   0.063 -0.2363 -0.1594  0.1293
 4540TIP3    H113577   3.844   4.659   0.081 -0.4450 -0.1246  0.0467
 4540TIP3    H213578   3.847   4.523   0.148  0.2687 -0.0832  0.1016
 4541TIP3   OH213579   3.126   4.098   3.592 -0.1075 -0.0058  0.2936
 4541TIP3    H113580   3.112   4.004   3.581 -0.4807  0.0724  0.0834
 4541TIP3    H213581   3.204   4.116   3.540 -0.1933 -0.1492  0.1151
 4542TIP3   OH213582   5.554   4.206   4.298  0.5087 -0.1219 -0.7235
 4542TIP3    H113583   5.462   4.214   4.324  0.4676  0.6325 -1.0588
 4542TIP3    H213584   5.584   4.297   4.290  1.2767 -0.3660 -0.6435
 4543TIP3   OH213585   2.751   3.495   3.495 -0.3780 -0.2550 -0.0611
 4543TIP3    H113586   2.757   3.521   3.403  0.8499  1.5508  0.4675
 4543TIP3    H213587   2.667   3.530   3.524 -0.9026 -1.0761 -0.5300
 4544TIP3   OH213588   2.838   0.617   5.540  0.3351  0.1116 -0.0120
 4544TIP3    H113589   2.840   0.553   5.610  0.0813 -0.1567 -0.2461
 4544TIP3    H213590   2.745   0.628   5.520  0.3947  0.3271 -0.1787
 4545TIP3   OH213591   3.296   0.231   4.153 -0.4547  0.1765 -0.5676
 4545TIP3    H113592   3.356   0.305   4.150  0.6170 -0.6842 -1.0911
 4545TIP3    H213593   3.307   0.188   4.068 -1.3486 -0.3651 -0.4206
 4546TIP3   OH213594   0.784   5.988   0.632  0.2114 -0.0081  0.5045
 4546TIP3    H113595   0.856   6.020   0.577 -0.6323  0.4753 -0.3556
 4546TIP3    H213596   0.818   5.908   0.672  1.7254  0.9838  1.2750
 4547TIP3   OH213597   2.323   2.098   4.069  0.8214 -0.2228 -0.2795
 4547TIP3    H113598   2.373   2.019   4.049  0.8305 -0.0110 -1.1666
 4547TIP3    H213599   2.368   2.167   4.020 -0.2841 -0.0110 -1.0229
 4548TIP3   OH213600   7.878   1.114   2.614  1.1209 -0.0837 -0.0337
 4548TIP3    H113601   7.961   1.158   2.597  0.8492  0.7417  0.7402
 4548TIP3    H213602   7.824   1.180   2.656  0.2194 -0.7506 -0.1222
 4549TIP3   OH213603   1.125   7.332   2.386  0.0531  0.3399  0.1594
 4549TIP3    H113604   1.041   7.286   2.391  0.8490 -1.1480  0.2939
 4549TIP3    H213605   1.101   7.424   2.372 -1.5824 -0.1430 -0.4660
 4550TIP3   OH213606   2.585   4.813   4.469 -0.5697  0.1736  0.0198
 4550TIP3    H113607   2.621   4.726   4.485  0.1071  0.7174  1.8406
 4550TIP3    H213608   2.613   4.835   4.380  0.2915 -0.9872 -0.0265
 4551TIP3   OH213609   7.953   7.781   2.668  0.0307  0.0359  0.0120
 4551TIP3    H113610   8.027   7.842   2.673 -0.0396  0.1252 -0.0243
 4551TIP3    H213611   7.932   7.778   2.575  1.0580 -1.2864 -0.2049
 4552TIP3   OH213612   1.774   1.261   4.383  0.0962 -0.6153 -0.7488
 4552TIP3    H113613   1.832   1.335   4.394  0.8107 -1.2370 -0.2063
 4552TIP3    H213614   1.784   1.234   4.292  0.4113 -0.5133 -0.7428
 4553TIP3   OH213615   0.184   2.983   2.432 -0.0821 -0.2909 -0.1190
 4553TIP3    H113616   0.153   2.939   2.511  1.8670  1.6785  1.8607
 4553TIP3    H213617   0.165   3.076   2.446 -0.5752  0.0292 -2.4390
 4554TIP3   OH213618   3.879   0.495   6.078  0.6465  0.6734 -0.4602
 4554TIP3    H113619   3.849   0.557   6.143 -1.8032  1.2984 -2.0620
 4554TIP3    H213620   3.935   0.434   6.127 -0.6150  1.4137  2.0750
 4555TIP3   OH213621   5.117   7.535   2.525  0.1474  0.0471 -0.3064
 4555TIP3    H113622   5.040   7.591   2.534  0.1284  0.0637 -0.5524
 4555TIP3    H213623   5.179   7.588   2.474 -0.0945 -0.3687 -1.0497
 4556TIP3   OH213624   1.620   6.707   2.838 -0.3763 -0.1419  0.0173
 4556TIP3    H113625   1.702   6.748   2.812 -1.2505  1.6591 -0.0530
 4556TIP3    H213626   1.559   6.727   2.766 -0.8583 -1.5629 -0.0032
 4557TIP3   OH213627   7.353   4.785   4.566  0.0813  0.5709  0.3861
 4557TIP3    H113628   7.266   4.780   4.526  1.2666 -2.0673 -2.1331
 4557TIP3    H213629   7.397   4.857   4.519  0.5182 -0.6784 -1.1930
 4558TIP3   OH213630   1.820   4.907   4.504 -0.6658  0.4170 -0.1832
 4558TIP3    H113631   1.728   4.923   4.528 -0.3153  1.8418  0.3005
 4558TIP3    H213632   1.815   4.868   4.417 -1.6942  2.4104 -1.1012
 4559TIP3   OH213633   5.350   7.107   1.450 -0.0029 -0.6399 -0.2254
 4559TIP3    H113634   5.423   7.130   1.392  1.3029 -2.0190  0.8190
 4559TIP3    H213635   5.368   7.154   1.531 -0.7331 -0.3363 -0.2313
 4560TIP3   OH213636   5.361   1.950   4.445  0.2117 -0.2641  0.3737
 4560TIP3    H113637   5.455   1.941   4.433  0.4181  2.1536 -0.4974
 4560TIP3    H213638   5.351   1.980   4.535  0.2259 -0.8990  0.5907
 4561TIP3   OH213639   3.562   6.744   4.200 -0.0052  0.2141 -0.2114
 4561TIP3    H113640   3.504   6.795   4.142  1.8566  2.2946 -0.3692
 4561TIP3    H213641   3.630   6.710   4.143  0.5605  0.3050  0.3946
 4562TIP3   OH213642   5.304   6.976   2.074 -0.2293  0.0235 -0.3655
 4562TIP3    H113643   5.356   7.056   2.072  0.0578 -0.1665 -1.4097
 4562TIP3    H213644   5.305   6.948   2.166 -0.3122  1.1902 -0.0006
 4563TIP3   OH213645   4.755   7.197   3.102  0.1712 -0.4463 -0.2388
 4563TIP3    H113646   4.835   7.162   3.142  0.1662 -1.3169 -0.9727
 4563TIP3    H213647   4.787   7.257   3.035  0.3543 -2.8423 -2.4663
 4564TIP3   OH213648   7.770   7.177   6.402  0.0349  0.0114 -0.8108
 4564TIP3    H113649   7.779   7.270   6.381  0.8879  0.2326  0.4899
 4564TIP3    H213650   7.859   7.146   6.414 -0.3268 -0.0370  2.6497
 4565TIP3   OH213651   6.043   2.971   1.175 -0.4603  0.0279  0.6271
 4565TIP3    H113652   6.006   3.019   1.101 -0.5892 -0.6511  0.2384
 4565TIP3    H213653   6.137   2.970   1.158 -0.4556  0.1625  0.6463
 4566TIP3   OH213654   2.616   2.078   3.544  0.3228  0.1299 -0.2284
 4566TIP3    H113655   2.564   2.151   3.576 -0.5438 -0.5379 -0.0777
 4566TIP3    H213656   2.671   2.053   3.619  0.8255  0.7864 -0.3660
 4567TIP3   OH213657   5.339   6.619   4.629 -0.0977  0.5131  0.3181
 4567TIP3    H113658   5.428   6.596   4.656 -0.0522  0.8747  0.4902
 4567TIP3    H213659   5.350   6.666   4.547 -0.3613 -2.1263 -1.3332
 4568TIP3   OH213660   0.192   6.898   3.200 -0.3132 -0.5862  0.3230
 4568TIP3    H113661   0.127   6.865   3.138 -1.6764 -0.8967  1.8462
 4568TIP3    H213662   0.228   6.819   3.242 -0.7851 -0.3191  1.2544
 4569TIP3   OH213663   1.229   0.518   4.710  0.0794 -0.1931  0.5887
 4569TIP3    H113664   1.216   0.498   4.617 -1.1144 -0.5432  0.8143
 4569TIP3    H213665   1.211   0.612   4.716 -2.3017 -0.5969  0.8304
 4570TIP3   OH213666   2.262   3.499   4.633 -0.1712  0.2102 -0.1339
 4570TIP3    H113667   2.303   3.414   4.616 -0.0435  0.3444 -0.5253
 4570TIP3    H213668   2.319   3.562   4.589 -1.9871  0.2045 -2.7187
 4571TIP3   OH213669   7.608   2.609   2.918 -0.1314 -0.3797 -0.3956
 4571TIP3    H113670   7.647   2.523   2.932  2.5435  0.4724 -1.9703
 4571TIP3    H213671   7.676   2.671   2.941 -2.5258  1.5145  2.3218
 4572TIP3   OH213672   3.356   7.540   3.691 -0.1288 -0.2199  0.1361
 4572TIP3    H113673   3.353   7.525   3.785 -0.3207 -2.4807 -0.1801
 4572TIP3    H213674   3.398   7.462   3.655  1.9432  1.5288 -1.5027
 4573TIP3   OH213675   7.480   5.027   5.913 -0.3871  0.1383  0.1870
 4573TIP3    H113676   7.421   5.018   5.838  0.4112 -1.5882 -0.2858
 4573TIP3    H213677   7.424   5.018   5.989 -1.1396  1.4328 -0.1904
 4574TIP3   OH213678   6.872   6.090   4.023  0.9927  0.0222 -0.2192
 4574TIP3    H113679   6.881   6.145   4.101  1.6488  0.7384 -0.7815
 4574TIP3    H213680   6.815   6.140   3.965 -0.6503 -1.1319  0.3191
 4575TIP3   OH213681   0.245   0.830   4.817  0.1135 -0.0347  0.2860
 4575TIP3    H113682   0.157   0.795   4.802  0.3734 -0.3828 -0.4853
 4575TIP3    H213683   0.293   0.808   4.738  1.1258 -0.5617  1.0291
 4576TIP3   OH213684   4.575   1.059   3.532  0.1781  0.3505 -0.4467
 4576TIP3    H113685   4.501   1.107   3.494  0.3265  0.1315 -1.0165
 4576TIP3    H213686   4.613   1.012   3.459  2.9867  3.0603 -0.9396
 4577TIP3   OH213687   2.397   3.268   6.311  0.3925 -0.4414 -0.2415
 4577TIP3    H113688   2.339   3.318   6.368  0.2220 -1.4237  0.4725
 4577TIP3    H213689   2.445   3.335   6.261  0.9888  0.4749  1.4721
 4578TIP3   OH213690   4.736   7.137   0.370 -0.7191  0.1526 -0.1740
 4578TIP3    H113691   4.752   7.222   0.413  0.0586 -0.2962  0.4523
 4578TIP3    H213692   4.822   7.096   0.366 -0.7316  0.2472 -2.3725
 4579TIP3   OH213693   5.368   4.590   4.781  0.4106  0.3012 -0.3866
 4579TIP3    H113694   5.438   4.625   4.835  0.0835  1.1175 -0.4850
 4579TIP3    H213695   5.309   4.664   4.766  0.6351  0.1924 -2.0847
 4580TIP3   OH213696   8.315   2.213   4.417  0.0663  0.6413 -0.1188
 4580TIP3    H113697   8.247   2.242   4.478 -1.5304  0.5488 -1.7581
 4580TIP3    H213698   8.318   2.118   4.427  0.3586  0.7039  0.3675
 4581TIP3   OH213699   6.037   3.683   1.037 -0.3274 -0.3320  0.4551
 4581TIP3    H113700   6.128   3.710   1.043 -0.7927  1.3606  0.3455
 4581TIP3    H213701   6.021   3.671   0.944 -0.4352  0.1939  0.4041
 4582TIP3   OH213702   7.320   2.330   2.677  0.4065  0.0397  0.0707
 4582TIP3    H113703   7.388   2.269   2.649  0.9999  0.7525 -0.0478
 4582TIP3    H213704   7.362   2.416   2.676  0.1731  0.2319  2.1801
 4583TIP3   OH213705   6.316   5.893   0.231  0.4606 -0.7897  0.5368
 4583TIP3    H113706   6.312   5.846   0.148  0.6182 -2.0107  1.1996
 4583TIP3    H213707   6.255   5.966   0.220  1.9403  0.2871 -1.3608
 4584TIP3   OH213708   2.557   4.894   0.858 -0.2233 -0.5954  0.0341
 4584TIP3    H113709   2.578   4.981   0.823 -0.6616  0.1428  1.5170
 4584TIP3    H213710   2.629   4.874   0.918 -0.5443 -0.8645  0.3377
 4585TIP3   OH213711   6.153   0.561   1.493  0.2830  0.0092  0.1332
 4585TIP3    H113712   6.209   0.543   1.569  0.0327  0.7718  0.5115
 4585TIP3    H213713   6.113   0.476   1.472  0.8446 -0.3417  0.4547
 4586TIP3   OH213714   4.751   7.190   1.690  0.3620  0.4374 -0.1273
 4586TIP3    H113715   4.764   7.222   1.779 -0.3525  0.3126  0.0269
 4586TIP3    H213716   4.819   7.233   1.639  0.2623  1.1544  0.3296
 4587TIP3   OH213717   5.179   2.687   2.586  0.0521 -0.3582 -0.4628
 4587TIP3    H113718   5.110   2.638   2.540  0.9216 -1.2113 -0.8875
 4587TIP3    H213719   5.134   2.728   2.660 -0.9867 -0.5731 -0.9603
 4588TIP3   OH213720   2.521   1.982   6.110 -0.4049 -0.8889 -0.1078
 4588TIP3    H113721   2.468   2.021   6.180 -0.5728 -0.0844 -0.6791
 4588TIP3    H213722   2.587   1.930   6.157 -0.1363  0.1320  0.6729
 4589TIP3   OH213723   5.368   2.369   4.887 -0.1352  0.9051  0.4001
 4589TIP3    H113724   5.427   2.294   4.895  0.1090  1.0473 -0.0922
 4589TIP3    H213725   5.414   2.431   4.831 -0.6989  1.0678  0.1124
 4590TIP3   OH213726   4.917   6.136   3.877 -0.3213  0.4724  0.5280
 4590TIP3    H113727   4.961   6.217   3.902  2.4855 -0.6376 -0.3342
 4590TIP3    H213728   4.858   6.161   3.806  1.2202  1.6713 -0.3995
 4591TIP3   OH213729   2.550   5.816   2.354  0.0460 -0.3186 -0.1988
 4591TIP3    H113730   2.468   5.822   2.305 -0.5128  2.1260  0.8726
 4591TIP3    H213731   2.613   5.867   2.302 -0.1018  0.8219  0.6808
 4592TIP3   OH213732   0.169   0.432   3.848 -0.2010 -0.6190 -0.4973
 4592TIP3    H113733   0.182   0.467   3.760  2.1088 -0.2586 -0.0688
 4592TIP3    H213734   0.080   0.396   3.846 -1.2958  1.8893 -2.0870
 4593TIP3   OH213735   6.843   5.195   3.668  0.1801 -0.1270 -1.1229
 4593TIP3    H113736   6.849   5.167   3.759  0.9295  1.5584 -0.5955
 4593TIP3    H213737   6.909   5.143   3.622 -0.7593 -1.5593 -0.8805
 4594TIP3   OH213738   5.814   1.472   4.347 -0.6268 -0.2314 -0.0024
 4594TIP3    H113739   5.898   1.426   4.351 -0.0426  0.6250 -1.4763
 4594TIP3    H213740   5.818   1.536   4.418  0.1056  0.0142 -0.2535
 4595TIP3   OH213741   5.192   0.581   5.265  0.2534  0.7146 -0.3737
 4595TIP3    H113742   5.277   0.560   5.305  1.5702  1.6729 -2.4853
 4595TIP3    H213743   5.153   0.496   5.245  0.5413  0.2526  0.9138
 4596TIP3   OH213744   3.480   6.823   5.489  0.3418  0.1892 -0.0706
 4596TIP3    H113745   3.393   6.860   5.502 -0.4704 -1.2282 -1.1627
 4596TIP3    H213746   3.467   6.728   5.498  2.0559  0.0201  1.1607
 4597TIP3   OH213747   6.458   3.634   3.903  0.2270 -0.1868 -0.9113
 4597TIP3    H113748   6.433   3.671   3.987  1.3705  0.0145 -0.6465
 4597TIP3    H213749   6.379   3.590   3.872  0.1739 -1.5366  0.9440
 4598TIP3   OH213750   2.853   5.680   0.634 -0.1530 -0.2289 -0.0541
 4598TIP3    H113751   2.844   5.742   0.562  1.0882  0.7744  0.6031
 4598TIP3    H213752   2.812   5.724   0.709  0.2712 -0.4222  0.2958
 4599TIP3   OH213753   6.607   1.855   3.341 -0.2164  0.6420 -0.1246
 4599TIP3    H113754   6.547   1.869   3.415  0.2684  0.9619  0.2093
 4599TIP3    H213755   6.555   1.878   3.264 -0.5408  0.8697  0.1554
 4600TIP3   OH213756   8.144   1.088   3.897  0.2230 -0.1310  0.1144
 4600TIP3    H113757   8.148   1.113   3.989  0.1316 -0.2507  0.1512
 4600TIP3    H213758   8.102   1.162   3.853 -0.0278 -0.2107  0.2185
 4601TIP3   OH213759   1.230   3.877   6.244 -0.3624  0.0221  0.1928
 4601TIP3    H113760   1.150   3.828   6.260  0.1925 -1.1850 -0.6521
 4601TIP3    H213761   1.238   3.882   6.149  1.2333 -1.0239  0.2403
 4602TIP3   OH213762   3.521   6.925   1.388 -0.3521  0.4161 -0.1172
 4602TIP3    H113763   3.540   6.831   1.387 -1.2399  0.2264 -0.6281
 4602TIP3    H213764   3.607   6.967   1.398 -0.0796 -0.4676  1.5881
 4603TIP3   OH213765   4.324   2.100   0.439 -0.5504  0.1209 -0.0125
 4603TIP3    H113766   4.277   2.182   0.419 -1.8503 -0.7184 -0.5568
 4603TIP3    H213767   4.367   2.078   0.356  0.6415  0.7608  0.4190
 4604TIP3   OH213768   8.046   7.405   5.985  0.1601  0.2794 -0.8092
 4604TIP3    H113769   7.960   7.365   5.996  0.1673 -0.2107 -2.3602
 4604TIP3    H213770   8.055   7.417   5.891  0.9070  2.3069 -0.5344
 4605TIP3   OH213771   3.877   5.594   2.494 -0.3252 -0.0594 -0.1759
 4605TIP3    H113772   3.823   5.602   2.573 -3.0166  0.7096 -1.9456
 4605TIP3    H213773   3.862   5.505   2.463  0.8974 -0.4328  0.2573
 4606TIP3   OH213774   2.412   5.038   1.539  0.1149  0.3246 -0.0382
 4606TIP3    H113775   2.400   5.018   1.632  1.6826  1.3732  0.4187
 4606TIP3    H213776   2.341   5.098   1.518 -0.9465 -0.8146  0.1473
 4607TIP3   OH213777   3.260   6.638   4.107 -0.1719  0.2122  0.3678
 4607TIP3    H113778   3.322   6.707   4.134 -1.0549  1.5128 -0.7631
 4607TIP3    H213779   3.283   6.619   4.016 -0.5565 -0.2881  0.3710
 4608TIP3   OH213780   4.358   3.590   2.408  0.5135  0.4092 -0.0336
 4608TIP3    H113781   4.395   3.659   2.463  0.5437  0.1731  0.2453
 4608TIP3    H213782   4.424   3.575   2.340  0.2660  1.0375 -0.4222
 4609TIP3   OH213783   4.690   6.262   5.520  0.2297  0.1244  0.3191
 4609TIP3    H113784   4.622   6.277   5.454  0.3714  1.4306  0.4417
 4609TIP3    H213785   4.772   6.264   5.470  0.2112 -1.4528  0.1707
 4610TIP3   OH213786   5.902   2.919   0.483  0.6510 -0.2134  0.3110
 4610TIP3    H113787   5.924   2.994   0.537  0.0841  0.0525  0.1776
 4610TIP3    H213788   5.807   2.923   0.473  0.8520  0.4975 -1.7847
 4611TIP3   OH213789   8.128   2.457   6.538 -0.5394 -0.1257  0.2666
 4611TIP3    H113790   8.059   2.511   6.575 -1.2378 -0.4806 -0.4863
 4611TIP3    H213791   8.190   2.445   6.609 -1.4290 -0.1013  1.0601
 4612TIP3   OH213792   6.845   1.744   0.716 -0.3193  0.0004 -0.9024
 4612TIP3    H113793   6.806   1.719   0.633 -4.6000  3.0266 -0.1496
 4612TIP3    H213794   6.772   1.746   0.778  1.9615  1.4343  2.0192
 4613TIP3   OH213795   7.901   4.511   5.073  0.2160 -0.1238  0.3026
 4613TIP3    H113796   7.881   4.419   5.057  0.3999 -0.1660  0.3107
 4613TIP3    H213797   7.832   4.559   5.027  0.1031 -0.2651  0.3230
 4614TIP3   OH213798   3.383   7.243   1.813 -0.0682  0.3515  0.1017
 4614TIP3    H113799   3.398   7.203   1.728  1.0616  1.5792 -0.3065
 4614TIP3    H213800   3.325   7.182   1.858  1.5619 -1.7371 -0.4672
 4615TIP3   OH213801   3.032   0.790   1.665 -0.1792  0.6951 -0.3179
 4615TIP3    H113802   2.948   0.808   1.708  0.5562  1.1300  0.9946
 4615TIP3    H213803   3.046   0.696   1.680  1.2900  1.2946  2.7943
 4616TIP3   OH213804   4.869   1.986   6.727 -0.6416 -0.1158 -0.3510
 4616TIP3    H113805   4.816   1.906   6.732  0.4430 -0.9303 -1.3121
 4616TIP3    H213806   4.945   1.961   6.674  0.3046  1.2377  0.3044
 4617TIP3   OH213807   1.997   5.029   3.803 -0.0436  0.4056  0.0827
 4617TIP3    H113808   1.937   5.043   3.730 -0.3738 -0.4874  0.1689
 4617TIP3    H213809   2.083   5.022   3.763 -0.1205  0.6930 -0.1390
 4618TIP3   OH213810   7.467   4.104   3.215  0.3765  0.0807 -0.0394
 4618TIP3    H113811   7.543   4.161   3.199 -0.4777  1.3813  0.3749
 4618TIP3    H213812   7.455   4.108   3.310  0.8585 -1.5773  0.1267
 4619TIP3   OH213813   1.883   4.587   3.807  0.5058  0.3741  0.2968
 4619TIP3    H113814   1.879   4.583   3.711 -0.6203 -0.9152  0.3657
 4619TIP3    H213815   1.842   4.670   3.829 -1.0377 -0.2068 -0.2795
 4620TIP3   OH213816   0.071   5.482   3.923  0.9022 -0.3711 -0.5108
 4620TIP3    H113817   0.164   5.499   3.907  0.8608 -2.3908 -3.6521
 4620TIP3    H213818   0.027   5.563   3.898  1.7099  0.1951 -0.1433
 4621TIP3   OH213819   4.412   5.308   3.177  0.1441 -0.2446 -0.2612
 4621TIP3    H113820   4.475   5.321   3.248  0.8484 -2.1637 -0.4587
 4621TIP3    H213821   4.428   5.218   3.148 -1.4496 -0.1497 -1.5618
 4622TIP3   OH213822   7.856   1.560   4.948 -0.1760 -0.1201  0.3024
 4622TIP3    H113823   7.950   1.551   4.931 -0.0866 -0.9603  1.1566
 4622TIP3    H213824   7.851   1.609   5.030 -0.4912  0.0331  0.1944
 4623TIP3   OH213825   1.582   1.948   0.094 -0.3272  0.4209 -0.1167
 4623TIP3    H113826   1.591   1.860   0.058 -1.7457  0.2574 -0.1257
 4623TIP3    H213827   1.605   2.006   0.021 -0.0722  0.0670 -0.3191
 4624TIP3   OH213828   5.847   3.587   2.474 -0.0192  0.1992  0.2274
 4624TIP3    H113829   5.880   3.621   2.557 -1.1701  1.5661  0.1705
 4624TIP3    H213830   5.755   3.616   2.471  0.2934  1.2109 -2.0344
 4625TIP3   OH213831   4.462   3.248   4.275  0.2971 -0.4321 -0.7657
 4625TIP3    H113832   4.405   3.306   4.326  0.4812 -0.1573 -0.8701
 4625TIP3    H213833   4.408   3.223   4.200 -0.1859 -1.3132 -0.1469
 4626TIP3   OH213834   0.746   1.760   3.299  0.3065  0.2053 -0.4005
 4626TIP3    H113835   0.784   1.842   3.331  0.0313  0.3426 -0.4221
 4626TIP3    H213836   0.680   1.737   3.363  0.2070  0.1333 -0.5285
 4627TIP3   OH213837   3.048   6.997   4.623 -0.1189  0.2058  0.1686
 4627TIP3    H113838   3.120   7.040   4.668 -0.4639 -0.1655  1.0977
 4627TIP3    H213839   3.040   6.912   4.665 -1.1740  0.2901  0.1848
 4628TIP3   OH213840   3.071   0.130   1.121  0.2106  0.4129  0.3456
 4628TIP3    H113841   3.079   0.093   1.033 -1.3983  0.3166  0.2074
 4628TIP3    H213842   3.160   0.158   1.143  0.2068  3.6362 -2.7544
 4629TIP3   OH213843   4.812   6.889   0.586 -0.2117  0.0712  0.4309
 4629TIP3    H113844   4.724   6.860   0.563  0.4602 -1.9358  0.1507
 4629TIP3    H213845   4.857   6.899   0.502  0.0186  0.4216  0.5936
 4630TIP3   OH213846   2.063   7.043   1.946 -0.3697 -0.0332 -0.1621
 4630TIP3    H113847   2.155   7.018   1.955 -1.1208 -2.6031  1.6081
 4630TIP3    H213848   2.052   7.115   2.009  0.8397  1.8883 -2.0213
 4631TIP3   OH213849   6.140   6.010   3.537  0.8145  0.0990 -0.4746
 4631TIP3    H113850   6.095   5.991   3.619  0.1362 -0.8772 -1.0604
 4631TIP3    H213851   6.225   6.046   3.564 -0.0002  1.2739  0.6359
 4632TIP3   OH213852   2.779   3.620   0.601  0.3315 -0.2400 -0.0584
 4632TIP3    H113853   2.762   3.663   0.685 -0.9308  0.6295 -0.7230
 4632TIP3    H213854   2.872   3.598   0.603  0.5545  0.7293  1.1337
 4633TIP3   OH213855   2.935   6.315   1.300  0.0237  0.8296  0.2327
 4633TIP3    H113856   2.999   6.256   1.259  0.6590  1.0159  0.9387
 4633TIP3    H213857   2.963   6.320   1.391 -2.2760 -0.8401  1.1298
 4634TIP3   OH213858   1.537   1.017   5.578 -1.1557  0.3698  0.1330
 4634TIP3    H113859   1.556   1.106   5.609 -1.0939  0.0821  0.9441
 4634TIP3    H213860   1.535   0.964   5.657  2.4275 -1.0806 -0.5671
 4635TIP3   OH213861   0.550   5.219   6.485  0.0519  0.2499  0.2704
 4635TIP3    H113862   0.506   5.166   6.418  0.4663 -1.0155  0.9725
 4635TIP3    H213863   0.487   5.289   6.505 -0.9344 -0.5374  0.0222
 4636TIP3   OH213864   6.570   2.217   3.632 -0.5319  1.2178  0.1941
 4636TIP3    H113865   6.529   2.241   3.548  0.5903  2.3574 -0.0548
 4636TIP3    H213866   6.637   2.284   3.646  1.5041 -0.7564  0.4012
 4637TIP3   OH213867   8.181   3.379   3.280  0.7055  0.3857 -0.1196
 4637TIP3    H113868   8.154   3.424   3.200  1.8736  1.0216 -0.1831
 4637TIP3    H213869   8.255   3.431   3.313  0.2922  0.0962  1.3391
 4638TIP3   OH213870   4.558   4.065   5.390 -0.0640  0.0138 -0.6482
 4638TIP3    H113871   4.467   4.091   5.376  0.0667  0.3435 -0.9031
 4638TIP3    H213872   4.577   4.090   5.480 -0.4255 -0.6701 -0.3689
 4639TIP3   OH213873   3.740   0.156   0.644  0.4175  0.2342 -0.1981
 4639TIP3    H113874   3.751   0.156   0.549  2.1035  1.4254 -0.0504
 4639TIP3    H213875   3.669   0.094   0.660  1.5748 -1.7076 -2.0515
 4640TIP3   OH213876   7.521   7.679   2.919  0.2041  0.6231 -0.1503
 4640TIP3    H113877   7.587   7.715   2.979 -0.2031  0.7924  0.2067
 4640TIP3    H213878   7.447   7.656   2.976 -0.7961  2.1973 -0.7386
 4641TIP3   OH213879   5.368   0.485   2.791  0.3414  0.6543 -0.4999
 4641TIP3    H113880   5.316   0.511   2.868  0.4866  0.1815 -0.2408
 4641TIP3    H213881   5.436   0.429   2.826 -0.5488 -0.9068 -1.1693
 4642TIP3   OH213882   0.355   0.643   1.090  0.0172  0.2758 -0.0570
 4642TIP3    H113883   0.317   0.652   1.003 -0.5883 -1.7860 -0.0527
 4642TIP3    H213884   0.407   0.563   1.086 -1.1664 -0.6803  1.8275
 4643TIP3   OH213885   6.473   2.990   4.453  0.2501 -0.2221  0.0654
 4643TIP3    H113886   6.468   2.988   4.357  0.1322  1.1235  0.0169
 4643TIP3    H213887   6.385   2.967   4.482 -0.1492  0.8579 -0.2122
 4644TIP3   OH213888   7.399   3.627   4.275  0.1313 -0.7393  0.0094
 4644TIP3    H113889   7.386   3.717   4.305  0.1252 -0.6903 -0.1394
 4644TIP3    H213890   7.494   3.617   4.269  0.1420  0.0093 -2.1927
 4645TIP3   OH213891   8.236   1.184   3.566 -0.1300  0.1484 -0.4352
 4645TIP3    H113892   8.274   1.145   3.644  1.1941  0.0932 -1.0771
 4645TIP3    H213893   8.302   1.248   3.536  1.1827 -2.3735 -3.5369
 4646TIP3   OH213894   4.470   3.991   4.903 -0.0256  0.1281  0.1185
 4646TIP3    H113895   4.414   3.982   4.980  0.0052 -2.0686 -0.0591
 4646TIP3    H213896   4.443   3.920   4.846  1.6800  0.1715 -0.7920
 4647TIP3   OH213897   2.875   3.710   0.261 -0.2182  0.7827  0.0373
 4647TIP3    H113898   2.867   3.780   0.196 -0.0944  0.7049 -0.0622
 4647TIP3    H213899   2.969   3.708   0.283 -0.0416 -0.0815 -0.7678
 4648TIP3   OH213900   1.166   4.705   1.342  0.0234  0.2317 -0.3573
 4648TIP3    H113901   1.170   4.647   1.266  1.9774  0.1685 -0.2567
 4648TIP3    H213902   1.072   4.716   1.359 -0.4465 -0.4444 -2.2333
 4649TIP3   OH213903   8.010   4.131   5.894 -0.0234 -0.1701  0.2435
 4649TIP3    H113904   7.996   4.210   5.946 -2.3906 -0.4218  0.0718
 4649TIP3    H213905   8.029   4.063   5.958  1.2058  0.3437  0.4472
 4650TIP3   OH213906   5.654   4.184   6.561  0.0156  0.0406 -0.5959
 4650TIP3    H113907   5.738   4.146   6.535  0.2297  0.1265 -0.0591
 4650TIP3    H213908   5.622   4.230   6.484  0.3350 -0.2148 -0.8825
 4651TIP3   OH213909   2.650   2.433   5.170 -0.0932  0.6213  0.0701
 4651TIP3    H113910   2.694   2.509   5.208  1.9167 -0.8187  0.7835
 4651TIP3    H213911   2.559   2.441   5.200  0.7448  1.1549  2.7237
 4652TIP3   OH213912   3.483   3.757   4.326 -0.4571 -0.0895 -0.0598
 4652TIP3    H113913   3.412   3.698   4.302 -1.5463  0.5863  1.3771
 4652TIP3    H213914   3.482   3.825   4.259  0.6787 -1.4962 -1.6227
 4653TIP3   OH213915   2.066   2.435   3.349  0.3244 -0.2960 -0.1167
 4653TIP3    H113916   2.146   2.451   3.299 -0.4482 -0.7147 -1.5372
 4653TIP3    H213917   2.083   2.352   3.395  0.0681 -1.3862 -1.8769
 4654TIP3   OH213918   5.465   5.505   3.553  0.3632  0.1559 -0.0463
 4654TIP3    H113919   5.425   5.490   3.467  0.7637 -0.0541 -0.1996
 4654TIP3    H213920   5.403   5.468   3.615 -0.1048  0.6403 -0.2192
 4655TIP3   OH213921   0.362   3.978   0.290 -0.0226  1.1903 -0.5777
 4655TIP3    H113922   0.366   3.937   0.203  1.6689 -0.4246  0.1927
 4655TIP3    H213923   0.341   3.906   0.349 -0.0770  2.0642  0.5031
 4656TIP3   OH213924   0.223   6.132   0.440 -0.1222 -0.2429  0.1984
 4656TIP3    H113925   0.156   6.199   0.454 -0.4857 -0.5071 -0.2747
 4656TIP3    H213926   0.269   6.127   0.525 -1.0075 -0.4028  0.6764
 4657TIP3   OH213927   5.356   6.268   3.976 -0.2799 -0.0351 -0.3577
 4657TIP3    H113928   5.375   6.200   4.041 -2.5689 -1.4844 -1.0950
 4657TIP3    H213929   5.419   6.252   3.905  0.8074  0.2171  0.5158
 4658TIP3   OH213930   6.312   6.767   6.046 -0.0901  0.1639  0.8583
 4658TIP3    H113931   6.313   6.843   6.104  0.6703 -0.5189  1.7804
 4658TIP3    H213932   6.360   6.700   6.094  0.5671 -0.4347 -0.5604
 4659TIP3   OH213933   5.646   0.224   4.438 -0.3428  0.1580  0.5116
 4659TIP3    H113934   5.680   0.290   4.498  1.0942  1.1985 -1.3119
 4659TIP3    H213935   5.604   0.275   4.368  0.1011 -0.8614 -0.5394
 4660TIP3   OH213936   6.935   2.099   1.067 -0.4118  0.3917  0.0163
 4660TIP3    H113937   6.998   2.031   1.091 -2.2084 -1.5647 -0.5294
 4660TIP3    H213938   6.987   2.166   1.023  1.1831 -1.5091 -1.1287
 4661TIP3   OH213939   4.894   5.771   0.019  0.1270  0.1205 -0.2938
 4661TIP3    H113940   4.906   5.695   0.075  0.5463  1.2779  1.2517
 4661TIP3    H213941   4.948   5.840   0.059 -2.4020  2.0713  0.0524
 4662TIP3   OH213942   1.776   0.789   2.851  0.3419 -0.5704 -0.0918
 4662TIP3    H113943   1.838   0.790   2.778 -0.5159  1.0102 -0.8436
 4662TIP3    H213944   1.708   0.852   2.826 -1.2946 -1.8498  0.9501
 4663TIP3   OH213945   6.137   3.152   5.763  0.0299  0.1587  0.1468
 4663TIP3    H113946   6.047   3.120   5.767  0.0664 -0.1720 -1.2155
 4663TIP3    H213947   6.185   3.100   5.827 -0.5855 -0.2418  0.2822
 4664TIP3   OH213948   7.573   6.104   1.391  0.4407 -0.1637  0.1547
 4664TIP3    H113949   7.486   6.091   1.354 -0.5790  0.3547  2.2031
 4664TIP3    H213950   7.563   6.180   1.448  2.9817  1.7646 -1.7165
 4665TIP3   OH213951   2.545   1.824   1.971 -0.2862 -0.1514 -0.1457
 4665TIP3    H113952   2.518   1.775   1.894  0.5446  0.3436 -0.7705
 4665TIP3    H213953   2.597   1.762   2.023 -2.7640 -1.2158  1.2321
 4666TIP3   OH213954   0.480   7.078   0.127 -0.3680 -0.0226 -0.1935
 4666TIP3    H113955   0.465   7.146   0.192 -1.5426  0.0433 -0.5089
 4666TIP3    H213956   0.427   7.004   0.158  0.6295 -0.6903 -0.0326
 4667TIP3   OH213957   4.079   6.036   0.799 -0.5677  0.8213 -0.2438
 4667TIP3    H113958   4.048   6.007   0.713  0.6096 -0.4618 -0.2549
 4667TIP3    H213959   4.155   6.091   0.780  0.3229 -0.3012  0.0030
 4668TIP3   OH213960   8.123   3.345   0.495 -0.1359 -0.1832  0.4396
 4668TIP3    H113961   8.091   3.400   0.424 -0.1477 -1.0948 -0.2750
 4668TIP3    H213962   8.046   3.298   0.527 -0.0063 -0.3067  0.5754
 4669TIP3   OH213963   5.067   1.363   3.064 -0.0204  0.3160 -0.3036
 4669TIP3    H113964   5.046   1.367   3.158 -0.5868  1.1528 -0.4590
 4669TIP3    H213965   4.993   1.404   3.021  0.5084  0.4632 -1.0884
 4670TIP3   OH213966   3.785   5.479   0.902 -0.4051 -1.0346 -0.2156
 4670TIP3    H113967   3.876   5.499   0.878 -0.0405 -0.8841  1.1591
 4670TIP3    H213968   3.732   5.534   0.845  0.4387  0.1852  0.1442
 4671TIP3   OH213969   2.594   2.885   4.501 -0.6698 -0.3576  0.0374
 4671TIP3    H113970   2.601   2.864   4.594  0.6988 -0.1067  0.0067
 4671TIP3    H213971   2.596   2.800   4.457  0.9591 -0.4019  0.1352
 4672TIP3   OH213972   5.087   4.235   5.443  0.2703  0.3331  0.0420
 4672TIP3    H113973   5.129   4.289   5.510  1.0821  1.0450 -0.9991
 4672TIP3    H213974   5.115   4.146   5.464 -0.0867  0.4419  1.0633
 4673TIP3   OH213975   7.125   3.201   6.362 -0.3362  0.2833 -0.5093
 4673TIP3    H113976   7.213   3.207   6.399 -0.3393 -0.2683 -0.4020
 4673TIP3    H213977   7.119   3.275   6.301  0.2540  0.2359 -0.6290
 4674TIP3   OH213978   7.370   1.115   6.374 -0.1319  0.5036 -0.1940
 4674TIP3    H113979   7.393   1.119   6.467 -1.0887  1.5659  0.0232
 4674TIP3    H213980   7.275   1.100   6.374  0.1167 -1.2963 -1.0272
 4675TIP3   OH213981   1.847   1.627   5.005  0.5661 -0.4092  0.7957
 4675TIP3    H113982   1.858   1.635   4.911 -1.0837  1.4532  0.6994
 4675TIP3    H213983   1.868   1.535   5.024  0.0204 -1.0676 -1.4969
 4676TIP3   OH213984   6.536   2.590   2.964  0.2596 -0.2203 -0.3610
 4676TIP3    H113985   6.453   2.601   3.011 -0.3436 -1.0796 -1.1799
 4676TIP3    H213986   6.598   2.563   3.032 -0.0803  0.5702  0.2875
 4677TIP3   OH213987   4.351   1.692   2.808  0.7305 -0.5827 -0.0608
 4677TIP3    H113988   4.293   1.769   2.800  0.6367 -0.5991  0.4779
 4677TIP3    H213989   4.438   1.726   2.787  1.0876  0.2057  2.3948
 4678TIP3   OH213990   1.489   1.479   6.719  0.2006 -0.3938  0.0885
 4678TIP3    H113991   1.472   1.440   6.633  1.2274  0.6975 -0.6436
 4678TIP3    H213992   1.528   1.408   6.770 -0.7173 -1.1422 -0.2280
 4679TIP3   OH213993   4.644   3.170   2.485 -0.0090  0.3371  0.0489
 4679TIP3    H113994   4.631   3.139   2.395  0.8359  0.5436 -0.1506
 4679TIP3    H213995   4.707   3.241   2.477  0.4545  0.0307  0.8609
 4680TIP3   OH213996   6.571   3.695   5.227 -0.1039  0.2318  0.1274
 4680TIP3    H113997   6.486   3.724   5.193 -0.5337  0.6837  1.5115
 4680TIP3    H213998   6.581   3.742   5.310  0.4387 -1.5587  1.1347
 4681TIP3   OH213999   3.563   1.808   1.902  0.1484  0.0312  0.4669
 4681TIP3    H114000   3.585   1.736   1.843  0.1853 -0.4740  1.0795
 4681TIP3    H214001   3.645   1.856   1.913  0.4650 -0.6325  1.1136
 4682TIP3   OH214002   1.379   1.339   0.487 -0.0286 -0.0967  0.0613
 4682TIP3    H114003   1.306   1.278   0.477 -1.2806  1.2623  0.4520
 4682TIP3    H214004   1.408   1.357   0.398  0.3367 -1.2232 -0.0540
 4683TIP3   OH214005   5.229   7.655   5.748  0.4737  0.4268 -0.1147
 4683TIP3    H114006   5.232   7.596   5.673  2.9101 -0.0525  0.2661
 4683TIP3    H214007   5.286   7.728   5.724  0.1505  0.9739  0.7235
 4684TIP3   OH214008   7.360   2.245   4.019 -0.5173 -0.0009  0.2124
 4684TIP3    H114009   7.366   2.209   4.108 -1.7453  0.3091  0.4470
 4684TIP3    H214010   7.373   2.339   4.031  0.4507 -0.0860 -0.1001
 4685TIP3   OH214011   1.428   6.732   2.316  0.4040 -0.0130  0.1699
 4685TIP3    H114012   1.344   6.693   2.291  0.5037  0.7234 -1.4120
 4685TIP3    H214013   1.404   6.813   2.360  0.2594  0.9403 -1.5741
 4686TIP3   OH214014   6.350   1.780   4.744 -0.3428  0.0567  0.4735
 4686TIP3    H114015   6.391   1.859   4.779  3.0499 -0.2298 -2.2914
 4686TIP3    H214016   6.395   1.708   4.788 -1.3878 -0.3749  0.8748
 4687TIP3   OH214017   3.918   3.101   5.095 -0.3276 -0.3068  0.7355
 4687TIP3    H114018   3.929   3.082   5.002 -0.3704  0.9250  0.4650
 4687TIP3    H214019   4.004   3.084   5.134 -0.6765 -2.3017  0.7820
 4688TIP3   OH214020   2.272   0.217   2.921  0.0284 -0.4000  0.1730
 4688TIP3    H114021   2.251   0.169   2.841  1.3156 -1.2148  0.2965
 4688TIP3    H214022   2.318   0.296   2.892  2.1064 -1.5623  0.1346
 4689TIP3   OH214023   6.451   5.520   2.930 -0.2936  0.2079 -0.3169
 4689TIP3    H114024   6.443   5.540   3.023 -0.8336  0.5508 -0.4319
 4689TIP3    H214025   6.377   5.462   2.912  0.9058 -1.4301 -0.1218
 4690TIP3   OH214026   6.749   1.458   0.882 -0.2684 -0.4137 -0.0345
 4690TIP3    H114027   6.837   1.435   0.913  0.4808 -0.6562 -2.1635
 4690TIP3    H214028   6.742   1.552   0.895  0.4477 -0.3379 -0.1714
 4691TIP3   OH214029   4.514   0.600   6.327  0.4579 -0.5251 -0.6419
 4691TIP3    H114030   4.449   0.547   6.281  0.9173  0.1276 -2.0885
 4691TIP3    H214031   4.594   0.590   6.276  1.2310 -0.4510  0.5076
 4692TIP3   OH214032   0.170   4.598   1.138  0.4040  0.0970 -0.4623
 4692TIP3    H114033   0.162   4.511   1.178 -2.1198 -0.3109 -1.6014
 4692TIP3    H214034   0.229   4.586   1.064  2.2134  0.0349  0.9266
 4693TIP3   OH214035   2.543   5.672   4.252 -0.8691 -0.4794 -0.3723
 4693TIP3    H114036   2.493   5.669   4.170 -1.7692  1.9070 -0.0082
 4693TIP3    H214037   2.545   5.765   4.275 -0.7540 -1.0759  2.3843
 4694TIP3   OH214038   6.362   5.032   1.758  0.2227  0.6797 -0.0385
 4694TIP3    H114039   6.309   5.102   1.794  1.7338  1.8198  0.0539
 4694TIP3    H214040   6.354   5.043   1.663 -2.0414 -1.0145 -0.1366
 4695TIP3   OH214041   3.022   3.847   5.262  0.0629 -0.7092 -0.5181
 4695TIP3    H114042   3.110   3.864   5.228 -0.6425 -0.3281 -2.2686
 4695TIP3    H214043   2.964   3.859   5.186 -1.4753 -1.2297  0.5218
 4696TIP3   OH214044   5.544   7.164   3.172 -0.6061  0.3278 -0.6505
 4696TIP3    H114045   5.518   7.073   3.156  1.6168 -0.2293 -1.5198
 4696TIP3    H214046   5.633   7.157   3.206 -0.9608  2.1456  0.8093
 4697TIP3   OH214047   2.893   3.613   5.259 -0.0313  0.0306  0.7548
 4697TIP3    H114048   2.939   3.687   5.299  0.5109  0.8104 -1.1990
 4697TIP3    H214049   2.800   3.638   5.262  0.0858  0.4802  0.7531
 4698TIP3   OH214050   2.347   3.725   4.488  0.2085 -0.1460 -0.0729
 4698TIP3    H114051   2.275   3.787   4.478 -0.0586 -0.1182  1.7459
 4698TIP3    H214052   2.421   3.778   4.514 -0.1821 -0.5918  2.1493
 4699TIP3   OH214053   2.196   0.133   6.757  0.3102  0.2966 -0.4177
 4699TIP3    H114054   2.184   0.227   6.772  1.3665  0.2198  1.1020
 4699TIP3    H214055   2.108   0.096   6.767  0.0214  1.0168 -0.2518
 4700TIP3   OH214056   7.832   5.430   0.512  0.2243  0.0551  0.2648
 4700TIP3    H114057   7.828   5.517   0.472  3.0263  0.1967  0.0624
 4700TIP3    H214058   7.904   5.386   0.467 -0.2946 -1.9166  1.2448
 4701TIP3   OH214059   0.265   2.083   0.042 -0.6237 -0.2771  0.7982
 4701TIP3    H114060   0.175   2.105   0.069 -1.2769 -1.4416 -0.3306
 4701TIP3    H214061   0.255   2.004  -0.010  0.9575  0.1592 -0.2118
 4702TIP3   OH214062   4.291   2.986   6.626  0.0439  0.0398 -0.3668
 4702TIP3    H114063   4.379   3.007   6.594  0.1778 -0.1214 -0.1105
 4702TIP3    H214064   4.232   3.016   6.557  0.3114 -0.0292 -0.6242
 4703TIP3   OH214065   6.036   0.311   5.298  0.4849 -0.1497 -0.3937
 4703TIP3    H114066   6.016   0.343   5.209 -0.7078  0.5699  0.1025
 4703TIP3    H214067   6.021   0.217   5.293  0.7554 -0.1666 -1.0393
 4704TIP3   OH214068   0.696   5.826   6.121 -0.0924  0.2742 -0.5813
 4704TIP3    H114069   0.631   5.879   6.075 -0.9157  1.1990  1.5308
 4704TIP3    H214070   0.644   5.773   6.182  1.0042 -0.3529 -0.1715
 4705TIP3   OH214071   1.105   0.349   1.880 -0.2415 -0.3642  0.3421
 4705TIP3    H114072   1.082   0.424   1.826  0.3694 -0.1694  0.3435
 4705TIP3    H214073   1.057   0.276   1.841 -0.7100 -0.0080  0.2419
 4706TIP3   OH214074   0.896   6.749   3.719 -0.1655 -0.0814 -0.2665
 4706TIP3    H114075   0.849   6.667   3.704 -0.5318 -0.1529  1.1680
 4706TIP3    H214076   0.832   6.806   3.760  0.2333  0.7655 -0.8015
 4707TIP3   OH214077   6.613   1.334   4.647 -0.0883  0.1591 -0.3476
 4707TIP3    H114078   6.690   1.277   4.651 -0.7687 -0.8754 -1.2381
 4707TIP3    H214079   6.610   1.364   4.556 -0.1365  1.0784 -0.0544
 4708TIP3   OH214080   5.515   5.012   2.497 -0.1321  0.1145 -0.0688
 4708TIP3    H114081   5.565   4.932   2.508  2.5414  1.5633 -0.8129
 4708TIP3    H214082   5.555   5.055   2.421 -1.7251  1.9677  0.0662
 4709TIP3   OH214083   5.091   3.173   5.528 -0.6300  0.3287 -0.8460
 4709TIP3    H114084   5.139   3.206   5.604 -1.7792  1.9920 -0.7824
 4709TIP3    H214085   5.032   3.107   5.564 -0.5151  0.4476 -0.4333
 4710TIP3   OH214086   3.802   2.936   0.264 -0.4407  0.3538  0.6696
 4710TIP3    H114087   3.770   2.913   0.352 -1.1171 -0.4308  0.2294
 4710TIP3    H214088   3.726   2.927   0.208  0.5239 -1.5609 -0.4219
 4711TIP3   OH214089   0.452   5.010   1.849 -0.0116  0.1801 -0.3893
 4711TIP3    H114090   0.385   4.974   1.791  0.1871  0.5037 -0.8244
 4711TIP3    H214091   0.472   4.938   1.910 -1.8860  0.5813  0.7801
 4712TIP3   OH214092   6.935   4.943   6.382  0.0725 -0.5853  0.4735
 4712TIP3    H114093   6.865   4.974   6.439 -0.6596 -2.3963  0.6197
 4712TIP3    H214094   6.920   4.849   6.375  1.7576 -0.8134 -0.5223
 4713TIP3   OH214095   7.334   5.749   2.745  0.1247  0.6654  0.1148
 4713TIP3    H114096   7.241   5.758   2.766  0.2541  1.0843  0.5346
 4713TIP3    H214097   7.365   5.839   2.733  0.4484  0.5217 -0.1385
 4714TIP3   OH214098   6.345   1.618   5.112 -0.3883 -0.0935  0.1489
 4714TIP3    H114099   6.403   1.693   5.106 -1.2962  0.5282 -1.3525
 4714TIP3    H214100   6.324   1.612   5.205  0.6161  0.7773  0.4540
 4715TIP3   OH214101   2.512   1.731   0.614  0.6007 -0.4926  0.2458
 4715TIP3    H114102   2.468   1.789   0.676  0.5020 -0.5915  0.2700
 4715TIP3    H214103   2.602   1.727   0.644  1.2273  1.5831 -1.1493
 4716TIP3   OH214104   6.757   2.373   1.249 -0.8888  0.2609 -0.3584
 4716TIP3    H114105   6.817   2.309   1.288 -0.6003  0.1349 -0.9863
 4716TIP3    H214106   6.680   2.371   1.305 -0.7231 -0.3487 -0.1395
 4717TIP3   OH214107   5.089   6.572   5.170  0.0760  0.1654  0.0982
 4717TIP3    H114108   5.015   6.574   5.230  0.4383  2.0277  0.5522
 4717TIP3    H214109   5.164   6.549   5.226  0.0281 -0.6797 -0.1645
 4718TIP3   OH214110   6.877   4.116   5.521  0.3770 -0.0865 -0.2073
 4718TIP3    H114111   6.945   4.123   5.588  0.6024  1.0439 -0.5383
 4718TIP3    H214112   6.924   4.094   5.441  0.3811  0.8397 -0.4670
 4719TIP3   OH214113   8.193   0.142   3.394  0.2871 -0.0644 -0.2924
 4719TIP3    H114114   8.107   0.125   3.355 -0.0453  0.6731  0.1104
 4719TIP3    H214115   8.221   0.056   3.427  0.1650 -0.5152 -1.3196
 4720TIP3   OH214116   3.010   1.651   2.366  0.0975  0.1349 -0.4507
 4720TIP3    H114117   3.041   1.726   2.317  4.3937 -2.0313 -1.5416
 4720TIP3    H214118   2.971   1.594   2.300  0.1464 -0.1100 -0.2691
 4721TIP3   OH214119   7.173   6.010   5.261  0.1075 -0.3891  0.3721
 4721TIP3    H114120   7.119   6.075   5.217  0.6765 -0.5194 -0.5315
 4721TIP3    H214121   7.150   6.019   5.354 -1.6855 -0.6668 -0.0122
 4722TIP3   OH214122   4.482   6.369   3.265 -0.0135 -0.4350  0.0777
 4722TIP3    H114123   4.399   6.379   3.312  0.2562 -0.9179  0.6761
 4722TIP3    H214124   4.539   6.435   3.304  0.2276 -0.8740  0.4801
 4723TIP3   OH214125   2.241   7.296   5.824  0.0372  0.1724 -0.0460
 4723TIP3    H114126   2.273   7.315   5.912  2.2859  1.3622 -1.0578
 4723TIP3    H214127   2.205   7.207   5.830 -1.8369  0.9929  2.5316
 4724TIP3   OH214128   0.999   6.786   4.313 -0.0632 -0.2046  0.3368
 4724TIP3    H114129   1.013   6.692   4.312 -1.6738 -0.4704 -0.5360
 4724TIP3    H214130   0.930   6.799   4.377  1.1860  0.5919  1.5843
 4725TIP3   OH214131   5.609   6.575   4.673 -0.4463  0.1262 -0.0596
 4725TIP3    H114132   5.632   6.516   4.745 -0.8092  1.5997  1.3149
 4725TIP3    H214133   5.685   6.573   4.615 -0.1850 -1.1573  0.2994
 4726TIP3   OH214134   3.464   5.480   3.137 -0.1644 -0.4026  0.9472
 4726TIP3    H114135   3.465   5.478   3.232 -0.7421 -1.3986  0.9544
 4726TIP3    H214136   3.433   5.392   3.112  2.0579 -0.9508 -0.1860
 4727TIP3   OH214137   7.354   4.829   2.730  0.1355 -0.2282  0.2015
 4727TIP3    H114138   7.295   4.849   2.657 -0.6477  2.1533  1.4038
 4727TIP3    H214139   7.298   4.786   2.795  0.3889 -0.5784  0.1903
 4728TIP3   OH214140   1.423   6.009   1.443 -0.7737  0.3761  0.8770
 4728TIP3    H114141   1.516   6.032   1.437 -0.9254  1.2620  1.6933
 4728TIP3    H214142   1.393   6.005   1.352 -0.4283  2.1992  0.6573
 4729TIP3   OH214143   8.188   5.093   6.414 -0.4212 -0.2747  0.0481
 4729TIP3    H114144   8.158   5.003   6.401  0.8590 -0.6186 -0.6914
 4729TIP3    H214145   8.283   5.088   6.405 -0.2993  1.0960  0.3729
 4730TIP3   OH214146   7.889   4.768   4.631 -0.0741 -0.6871 -0.1730
 4730TIP3    H114147   7.937   4.687   4.644  0.5235 -0.2938  0.1344
 4730TIP3    H214148   7.882   4.806   4.719 -1.2017 -0.8724 -0.1675
 4731TIP3   OH214149   4.714   0.321   4.361 -0.3237 -0.2658  0.4734
 4731TIP3    H114150   4.741   0.410   4.384 -1.2886 -0.2311  1.5247
 4731TIP3    H214151   4.788   0.286   4.310  0.7782  0.5628  1.4493
 4732TIP3   OH214152   6.726   0.157   1.187 -0.7565  0.2769  0.4915
 4732TIP3    H114153   6.796   0.160   1.252  1.1972  0.2175 -1.4696
 4732TIP3    H214154   6.710   0.064   1.173  1.5411  0.0715 -1.6698
 4733TIP3   OH214155   1.174   1.606   6.190 -0.2718 -0.4208  0.0346
 4733TIP3    H114156   1.187   1.696   6.160 -0.0334 -0.8808 -1.3064
 4733TIP3    H214157   1.082   1.602   6.214 -0.6315 -0.1645 -1.2099
 4734TIP3   OH214158   2.526   7.744   1.471 -0.3393  0.3277  0.3241
 4734TIP3    H114159   2.544   7.673   1.532 -1.2147  0.4932  0.7949
 4734TIP3    H214160   2.563   7.713   1.388  0.6943  0.0225  0.8768
 4735TIP3   OH214161   0.803   3.278   1.372 -0.5061 -0.3048  0.6475
 4735TIP3    H114162   0.837   3.190   1.355 -2.1043 -0.9248  0.5438
 4735TIP3    H214163   0.821   3.327   1.291 -1.9392 -1.2975 -0.3121
 4736TIP3   OH214164   0.021   5.893   5.011 -0.1443  0.2098 -0.1644
 4736TIP3    H114165  -0.015   5.840   5.082 -0.2573  1.2202  0.5498
 4736TIP3    H214166   0.018   5.983   5.044 -0.7156  0.7759 -1.6642
 4737TIP3   OH214167   0.765   7.088   3.588  0.5200  0.4800  0.1238
 4737TIP3    H114168   0.857   7.114   3.588 -0.0004  2.5685 -0.3300
 4737TIP3    H214169   0.747   7.065   3.497  0.6738 -0.2779  0.2825
 4738TIP3   OH214170   0.231   2.475   5.481 -0.3808  0.0702  0.3340
 4738TIP3    H114171   0.147   2.508   5.512 -0.0112  0.3057  1.1153
 4738TIP3    H214172   0.232   2.497   5.388 -2.3936 -2.4509 -0.4090
 4739TIP3   OH214173   5.894   5.919   0.154  0.0036  0.2369 -0.7595
 4739TIP3    H114174   5.811   5.871   0.148 -0.0698  0.5200 -2.4904
 4739TIP3    H214175   5.932   5.912   0.067  1.7366  0.2742 -0.0525
 4740TIP3   OH214176   5.432   6.709   2.921 -0.0064  0.0086  0.6973
 4740TIP3    H114177   5.486   6.649   2.869 -0.6930 -0.7308  0.8109
 4740TIP3    H214178   5.347   6.710   2.876  0.0105  0.9343  0.6752
 4741TIP3   OH214179   7.164   4.686   1.884  0.5036  0.2069 -0.2883
 4741TIP3    H114180   7.259   4.683   1.894  0.4984 -0.3555 -0.3473
 4741TIP3    H214181   7.143   4.610   1.829  0.1525  1.0920 -1.4342
 4742TIP3   OH214182   7.053   3.369   5.257  0.3381 -0.0028  0.1787
 4742TIP3    H114183   6.995   3.427   5.306 -0.0499 -1.8784  2.0897
 4742TIP3    H214184   7.139   3.378   5.300  0.4874 -0.1631 -0.0820
 4743TIP3   OH214185   1.968   2.814   2.275 -0.1094  0.2626 -0.3084
 4743TIP3    H114186   1.905   2.837   2.206 -0.0674  0.9849 -0.1129
 4743TIP3    H214187   2.051   2.848   2.243  0.2303 -0.8167 -0.6324
 4744TIP3   OH214188   7.787   3.583   3.953 -0.3991  0.9918  0.1352
 4744TIP3    H114189   7.793   3.620   3.865  2.1747  1.2953  0.3741
 4744TIP3    H214190   7.795   3.658   4.011 -1.5290  0.7252  0.6706
 4745TIP3   OH214191   4.906   1.582   5.032 -0.3078 -0.0391  0.3619
 4745TIP3    H114192   4.871   1.573   5.121  0.7041  1.5313  0.9610
 4745TIP3    H214193   4.829   1.605   4.979 -0.9577 -1.1992  0.7603
 4746TIP3   OH214194   5.278   1.033   5.121 -0.5197 -0.1262  0.4350
 4746TIP3    H114195   5.360   0.997   5.155  0.4816 -0.0116 -1.6776
 4746TIP3    H214196   5.297   1.052   5.029 -2.1074  2.4953  0.5645
 4747TIP3   OH214197   4.878   3.921   4.937  0.3246  0.0560  0.6269
 4747TIP3    H114198   4.935   3.847   4.914 -0.4814 -0.5043  0.3769
 4747TIP3    H214199   4.847   3.901   5.025 -1.3257 -0.8463 -0.1197
 4748TIP3   OH214200   1.188   4.106   5.383 -0.3655 -0.0756 -0.7097
 4748TIP3    H114201   1.137   4.084   5.306  0.4197 -2.7582 -0.5543
 4748TIP3    H214202   1.127   4.095   5.456 -0.4441  0.0343 -0.7580
 4749TIP3   OH214203   4.939   4.505   0.682 -0.0641  0.6956  0.4672
 4749TIP3    H114204   4.881   4.518   0.757 -1.1374 -1.0830  0.0039
 4749TIP3    H214205   5.026   4.532   0.714 -0.3882 -0.4595  2.5092
 4750TIP3   OH214206   8.097   4.210   1.693  0.1479 -0.0687 -1.1927
 4750TIP3    H114207   8.111   4.136   1.753 -1.0291 -0.0477 -0.8573
 4750TIP3    H214208   8.185   4.237   1.667  0.6009 -1.8150 -1.6040
 4751TIP3   OH214209   8.243   1.017   2.888  0.8402  0.3845  0.2538
 4751TIP3    H114210   8.229   0.947   2.952  0.5456  0.3239  0.1265
 4751TIP3    H214211   8.337   1.032   2.889  0.6330  2.0732  2.4916
 4752TIP3   OH214212   1.437   1.494   3.346 -0.2203  0.2193  0.3705
 4752TIP3    H114213   1.495   1.450   3.409 -1.5393 -0.3164  1.2431
 4752TIP3    H214214   1.484   1.489   3.263  1.7617  1.2935  1.3487
 4753TIP3   OH214215   5.362   1.484   4.857  0.0706 -0.0067 -0.4859
 4753TIP3    H114216   5.439   1.501   4.803  0.9615  0.4538  0.8643
 4753TIP3    H214217   5.381   1.528   4.940 -1.1666 -0.8236  0.2659
 4754TIP3   OH214218   3.363   1.819   2.485 -0.7427 -0.4139 -0.0445
 4754TIP3    H114219   3.443   1.815   2.537 -1.1558 -0.8040  0.5665
 4754TIP3    H214220   3.347   1.729   2.458  0.7243  0.0443 -2.8359
 4755TIP3   OH214221   4.852   3.134   3.876 -0.0759  0.1708  0.8936
 4755TIP3    H114222   4.850   3.049   3.921 -0.4952  0.7254  1.9458
 4755TIP3    H214223   4.759   3.158   3.868  0.0739  0.9030  1.3194
 4756TIP3   OH214224   1.879   6.053   0.579  0.0304  0.1963  0.1140
 4756TIP3    H114225   1.844   5.988   0.641  0.7196 -1.3707 -1.0720
 4756TIP3    H214226   1.974   6.042   0.585  0.1255  0.5424 -0.6897
 4757TIP3   OH214227   0.239   5.198   5.407 -0.4269  0.3662 -0.4178
 4757TIP3    H114228   0.284   5.166   5.329  1.0166  0.2485  0.4306
 4757TIP3    H214229   0.236   5.123   5.466 -1.1523  0.5623 -0.1943
 4758TIP3   OH214230   2.891   1.903   4.166  0.8178  0.4101 -0.0190
 4758TIP3    H114231   2.955   1.975   4.165  1.4071 -0.0895  0.7914
 4758TIP3    H214232   2.914   1.851   4.243 -1.1049  0.6830  0.7887
 4759TIP3   OH214233   7.813   7.466   1.738 -0.5860 -0.2644  0.0233
 4759TIP3    H114234   7.793   7.491   1.647 -0.4796  0.8115  0.2803
 4759TIP3    H214235   7.908   7.475   1.745 -0.2331 -2.9527 -0.4905
 4760TIP3   OH214236   8.235   3.110   3.266 -0.1140 -0.4800  0.3001
 4760TIP3    H114237   8.200   3.186   3.313  0.2760 -0.8919  1.2871
 4760TIP3    H214238   8.314   3.143   3.224  0.5890 -0.5405  1.5158
 4761TIP3   OH214239   5.079   5.959   3.644  0.8735 -0.3798  0.0915
 4761TIP3    H114240   5.012   5.957   3.576  1.0521  1.5604 -0.2150
 4761TIP3    H214241   5.031   5.985   3.723  0.9063 -1.1994  0.3870
 4762TIP3   OH214242   8.079   5.626   2.529 -0.6365 -0.6076  0.2473
 4762TIP3    H114243   8.151   5.688   2.517  0.8613 -2.2975  0.2113
 4762TIP3    H214244   8.017   5.648   2.459  2.1973 -2.3405 -3.0991
 4763TIP3   OH214245   4.065   0.761   1.179 -0.4176  0.0544  0.1406
 4763TIP3    H114246   3.999   0.701   1.212 -1.3984  0.4353 -1.0549
 4763TIP3    H214247   4.142   0.706   1.164 -0.5102 -0.4283  1.3526
 4764TIP3   OH214248   7.934   5.590   1.609 -0.0575 -0.5126  0.1930
 4764TIP3    H114249   7.843   5.614   1.626 -0.0962  0.3150 -1.0814
 4764TIP3    H214250   7.982   5.628   1.683 -0.2251  3.0603 -1.3488
 4765TIP3   OH214251   6.247   7.649   5.875 -0.0772  0.3863 -0.1039
 4765TIP3    H114252   6.197   7.619   5.798  0.8783  0.6377 -0.8408
 4765TIP3    H214253   6.337   7.656   5.843  0.5200 -0.4907  1.3254
 4766TIP3   OH214254   5.158   1.290   0.033  0.1668  0.2274  0.5680
 4766TIP3    H114255   5.239   1.284  -0.018 -0.4157 -0.1768 -0.3157
 4766TIP3    H214256   5.144   1.384   0.045 -0.0930  0.3628 -0.6837
 4767TIP3   OH214257   7.645   0.097   5.655  0.0410  0.0396  0.0476
 4767TIP3    H114258   7.666   0.022   5.711  1.2233 -0.3262 -0.8644
 4767TIP3    H214259   7.568   0.136   5.696  0.6997 -0.3873  1.7753
 4768TIP3   OH214260   7.656   4.824   6.385 -0.2431 -0.3896  0.1850
 4768TIP3    H114261   7.573   4.791   6.420 -0.6672 -1.5279 -1.7284
 4768TIP3    H214262   7.721   4.761   6.417 -0.2994 -0.1681  0.7318
 4769TIP3   OH214263   7.639   4.690   0.111  0.9598 -0.5297  0.3723
 4769TIP3    H114264   7.644   4.767   0.168  1.3985 -0.9919  0.9714
 4769TIP3    H214265   7.704   4.630   0.146  1.1214 -0.8949 -0.5259
 4770TIP3   OH214266   2.843   4.655   5.435 -0.0314  0.0157 -0.0304
 4770TIP3    H114267   2.894   4.719   5.386 -1.9437  1.0725 -0.7340
 4770TIP3    H214268   2.852   4.682   5.526  3.3068 -1.7975  0.3412
 4771TIP3   OH214269   3.505   6.368   2.289 -0.2500 -0.7591  0.4280
 4771TIP3    H114270   3.574   6.406   2.235 -1.2514 -0.1347 -0.4446
 4771TIP3    H214271   3.511   6.274   2.274 -1.1056 -0.5518 -1.5551
 4772TIP3   OH214272   3.605   0.082   3.275 -0.4045  0.3131 -0.2720
 4772TIP3    H114273   3.682   0.117   3.232 -0.2736  1.0850  0.5799
 4772TIP3    H214274   3.545   0.062   3.203  0.5332 -0.2096 -0.9325
 4773TIP3   OH214275   5.715   5.843   4.855  0.3472 -0.1775  0.1198
 4773TIP3    H114276   5.691   5.762   4.809  0.5456 -0.3818  0.3779
 4773TIP3    H214277   5.703   5.823   4.947  1.4169 -0.2557  0.2522
 4774TIP3   OH214278   7.967   0.537   5.226 -0.8781 -0.5197 -0.3568
 4774TIP3    H114279   8.057   0.567   5.242 -1.2884  1.4704 -1.4267
 4774TIP3    H214280   7.974   0.442   5.223  1.5956 -0.3719 -2.4859
 4775TIP3   OH214281   7.100   5.072   4.251 -0.4373  0.0342  0.2392
 4775TIP3    H114282   7.126   5.095   4.162 -2.1680 -2.0643 -0.9067
 4775TIP3    H214283   7.028   5.009   4.240  0.2617 -1.4541  3.0979
 4776TIP3   OH214284   3.210   6.041   1.510 -0.1273  0.1852 -0.3036
 4776TIP3    H114285   3.139   6.036   1.445 -0.3774 -1.5358  0.0486
 4776TIP3    H214286   3.166   6.026   1.594  0.3909  1.0636  0.1410
 4777TIP3   OH214287   3.934   5.697   2.799 -0.1953  0.5206 -0.0011
 4777TIP3    H114288   3.962   5.698   2.890 -0.0718 -0.0531 -0.0289
 4777TIP3    H214289   3.954   5.608   2.769  0.5951  0.9596 -0.8427
 4778TIP3   OH214290   1.752   1.573   3.415 -1.0127 -0.1298  0.0230
 4778TIP3    H114291   1.683   1.639   3.416  1.1286  2.2898 -1.0353
 4778TIP3    H214292   1.790   1.577   3.502 -0.2372  0.8112 -0.3454
 4779TIP3   OH214293   6.217   3.103   2.545 -0.1179  0.3539  0.5127
 4779TIP3    H114294   6.197   3.126   2.455 -0.0843  0.4997  0.5419
 4779TIP3    H214295   6.289   3.040   2.538 -0.9533 -0.6105  0.3854
 4780TIP3   OH214296   7.917   4.963   6.572 -0.2523  0.5134 -0.1326
 4780TIP3    H114297   7.840   5.010   6.542 -0.4330 -0.5454 -1.4293
 4780TIP3    H214298   7.885   4.875   6.592  0.8420 -0.4480 -2.2767
 4781TIP3   OH214299   0.258   2.398   3.381 -0.0579 -0.2647 -0.3965
 4781TIP3    H114300   0.306   2.468   3.425  0.5984 -1.2810  0.5426
 4781TIP3    H214301   0.270   2.321   3.437 -0.9965 -1.0709 -1.2571
 4782TIP3   OH214302   1.761   4.204   4.840  0.2529 -0.2365 -0.4560
 4782TIP3    H114303   1.669   4.209   4.867  0.5137 -2.9663  1.3415
 4782TIP3    H214304   1.759   4.163   4.754 -0.2051 -1.2784  0.0322
 4783TIP3   OH214305   7.637   4.480   3.471  0.6537  0.1311  0.3530
 4783TIP3    H114306   7.617   4.435   3.553  1.9062 -0.6388  0.2544
 4783TIP3    H214307   7.589   4.563   3.477 -1.1936 -0.9225  0.8091
 4784TIP3   OH214308   7.467   5.685   0.019 -0.4257 -0.3457  0.3312
 4784TIP3    H114309   7.489   5.689   0.112  1.1869  1.2911 -0.0380
 4784TIP3    H214310   7.372   5.697   0.016 -0.3552  0.9579  1.7408
 4785TIP3   OH214311   8.150   3.582   5.266 -0.0763  0.7028  0.5723
 4785TIP3    H114312   8.234   3.604   5.306 -1.0539  2.5133  1.7546
 4785TIP3    H214313   8.104   3.530   5.332  0.2148 -0.6262 -0.2229
 4786TIP3   OH214314   7.629   5.497   4.466 -0.4232 -0.2995  0.6388
 4786TIP3    H114315   7.562   5.436   4.495 -0.1848 -0.3410  1.1079
 4786TIP3    H214316   7.702   5.484   4.527  0.3360 -0.8509 -0.3498
 4787TIP3   OH214317   5.678   6.366   5.987  0.2466 -0.1087 -0.0721
 4787TIP3    H114318   5.661   6.458   5.965  0.2507 -0.6185 -2.4615
 4787TIP3    H214319   5.768   6.365   6.018  1.0949  0.4038 -2.3467
 4788TIP3   OH214320   7.584   3.350   1.861  0.2180  0.1815  0.6869
 4788TIP3    H114321   7.590   3.255   1.854 -0.1170  0.2638 -2.1063
 4788TIP3    H214322   7.669   3.382   1.829  0.0767  0.8259  0.9390
 4789TIP3   OH214323   5.505   0.892   1.115 -0.1658 -0.1876 -0.6751
 4789TIP3    H114324   5.569   0.874   1.184  0.5430  1.0841 -0.9663
 4789TIP3    H214325   5.442   0.820   1.121  0.3750 -0.5773  0.6978
 4790TIP3   OH214326   7.877   2.311   3.234  0.4158  0.3044 -0.4694
 4790TIP3    H114327   7.943   2.356   3.181  1.5835 -0.4976  0.2599
 4790TIP3    H214328   7.867   2.366   3.312  1.1569 -0.1959 -0.0087
 4791TIP3   OH214329   0.893   3.221   3.058  0.4440 -0.1338  0.2398
 4791TIP3    H114330   0.949   3.296   3.075  1.6641 -0.8633 -0.3869
 4791TIP3    H214331   0.833   3.218   3.132 -0.7924  2.4411 -0.5411
 4792TIP3   OH214332   2.365   3.746   6.334 -0.0750 -0.9355  0.2249
 4792TIP3    H114333   2.418   3.798   6.394 -0.8297  1.2069 -0.8730
 4792TIP3    H214334   2.335   3.672   6.387  1.6959 -0.7222  1.6225
 4793TIP3   OH214335   8.085   1.697   1.498  0.4445  0.3421 -0.2006
 4793TIP3    H114336   8.089   1.674   1.590 -0.4472  1.8918  0.2642
 4793TIP3    H214337   8.145   1.637   1.455  0.0445 -1.1381  1.2292
 4794TIP3   OH214338   5.767   2.407   6.710 -0.6181 -0.4886  0.4927
 4794TIP3    H114339   5.713   2.399   6.632  0.4698  0.6439 -0.4306
 4794TIP3    H214340   5.760   2.499   6.735  0.6306 -0.3761  0.5074
 4795TIP3   OH214341   1.250   2.290   2.540  0.5153  0.0066  0.1247
 4795TIP3    H114342   1.270   2.361   2.479 -0.7754 -0.1219 -0.4888
 4795TIP3    H214343   1.279   2.322   2.625 -1.0644  1.7883  0.0794
 4796TIP3   OH214344   2.232   5.341   2.964  0.0765 -0.2191 -0.1161
 4796TIP3    H114345   2.246   5.406   2.896 -2.2763  2.5933  1.8179
 4796TIP3    H214346   2.273   5.378   3.042  0.9650 -2.3777  0.5281
 4797TIP3   OH214347   2.549   3.812   1.341 -0.1525 -0.0995 -0.1412
 4797TIP3    H114348   2.590   3.764   1.413  0.8796 -0.0289 -0.6633
 4797TIP3    H214349   2.522   3.895   1.379  0.7375  0.0920  0.0852
 4798TIP3   OH214350   8.056   2.212   1.236  0.1871 -0.5357  0.0272
 4798TIP3    H114351   8.119   2.178   1.299  0.9854  0.1655 -0.3771
 4798TIP3    H214352   8.022   2.134   1.192  2.6656 -0.8478 -1.5299
 4799TIP3   OH214353   6.792   2.898   6.143 -0.4517 -0.1089 -0.0285
 4799TIP3    H114354   6.850   2.974   6.151 -0.7382  0.1034  0.0671
 4799TIP3    H214355   6.727   2.911   6.212 -1.4765  0.4289 -1.0750
 4800TIP3   OH214356   3.128   1.493   5.117  0.5601  0.0120 -0.5709
 4800TIP3    H114357   3.117   1.577   5.073 -1.3167 -0.7405 -1.6375
 4800TIP3    H214358   3.067   1.497   5.191 -0.4000 -0.7922 -1.2818
 4801TIP3   OH214359   2.427   3.589   4.206  0.0389 -0.0590 -0.5255
 4801TIP3    H114360   2.418   3.494   4.212  3.1502 -0.4948 -0.6720
 4801TIP3    H214361   2.403   3.622   4.292  0.6809 -1.2042  0.1084
 4802TIP3   OH214362   6.487   7.591   0.167 -0.4451 -0.1050 -0.3871
 4802TIP3    H114363   6.468   7.503   0.132 -0.6273 -1.0090  1.8362
 4802TIP3    H214364   6.402   7.623   0.196 -0.2263  0.4281 -0.3388
 4803TIP3   OH214365   0.194   1.451   6.674  0.8330  0.1731 -0.0487
 4803TIP3    H114366   0.219   1.359   6.683 -0.2611  0.0199  1.9571
 4803TIP3    H214367   0.274   1.499   6.693  0.6380 -0.3645  2.4579
 4804TIP3   OH214368   5.397   4.954   5.111 -0.1704  0.0534 -0.3593
 4804TIP3    H114369   5.344   4.879   5.134 -1.5890  0.7115 -1.3573
 4804TIP3    H214370   5.420   4.994   5.195 -0.2606 -0.8935  0.1242
 4805TIP3   OH214371   6.752   4.832   6.735 -0.3592 -0.2342 -0.2351
 4805TIP3    H114372   6.805   4.755   6.715  2.2803  1.3055  0.2799
 4805TIP3    H214373   6.703   4.808   6.814 -0.5373 -1.7498 -0.7766
 4806TIP3   OH214374   0.598   0.184   2.313 -0.4026  0.3393 -0.2180
 4806TIP3    H114375   0.561   0.097   2.302 -0.3275  0.3046 -0.1983
 4806TIP3    H214376   0.692   0.169   2.321 -0.5610  0.2010  2.1294
 4807TIP3   OH214377   6.793   1.024   6.678 -0.4274  0.5014  0.6395
 4807TIP3    H114378   6.884   1.048   6.697 -0.0443 -0.7383  0.4664
 4807TIP3    H214379   6.796   0.991   6.588 -0.5066 -2.0647  1.4953
 4808TIP3   OH214380   3.486   3.410   2.908 -0.2780  0.0508  0.2036
 4808TIP3    H114381   3.437   3.480   2.865 -0.0225  1.7984  2.6098
 4808TIP3    H214382   3.571   3.409   2.865 -0.1321  1.5464  0.4333
 4809TIP3   OH214383   2.232   7.288   1.151  0.1753 -0.4110 -0.0484
 4809TIP3    H114384   2.236   7.340   1.231  0.7376 -1.6781  0.7584
 4809TIP3    H214385   2.240   7.197   1.179  0.2390 -0.9002 -1.5230
 4810TIP3   OH214386   6.465   7.166   2.024  0.0218 -0.5410  0.0065
 4810TIP3    H114387   6.384   7.214   2.041  0.4163  1.2043 -2.4722
 4810TIP3    H214388   6.503   7.210   1.949  1.9357 -3.0049 -0.5997
 4811TIP3   OH214389   6.440   0.897   0.702  0.4648 -0.2685 -0.1341
 4811TIP3    H114390   6.501   0.890   0.629  0.0343  0.4841 -0.5836
 4811TIP3    H214391   6.466   0.827   0.762  0.5262 -1.2130 -1.2269
 4812TIP3   OH214392   6.412   1.044   1.769  0.5080  0.0693 -0.5548
 4812TIP3    H114393   6.479   1.087   1.822  0.2646 -1.0600  0.7372
 4812TIP3    H214394   6.433   0.951   1.775 -0.6967 -0.2369 -0.7965
 4813TIP3   OH214395   7.795   0.155   2.768 -0.6262 -0.5848  0.5542
 4813TIP3    H114396   7.858   0.084   2.758  0.3393 -0.4938  4.4473
 4813TIP3    H214397   7.848   0.235   2.770 -1.0862 -0.2824  1.3746
 4814TIP3   OH214398   1.151   6.460   2.818 -0.2107 -0.0727 -0.4949
 4814TIP3    H114399   1.175   6.535   2.872 -1.4183 -0.5899  0.8133
 4814TIP3    H214400   1.223   6.398   2.832 -0.8542 -0.5008  1.1657
 4815TIP3   OH214401   3.511   6.687   2.848 -0.1402  0.1159 -0.1688
 4815TIP3    H114402   3.606   6.688   2.840 -0.2137  0.1173 -1.1257
 4815TIP3    H214403   3.488   6.594   2.853  0.0248  0.1366  1.8203
 4816TIP3   OH214404   5.916   4.154   3.517 -0.3105  0.3675 -0.1506
 4816TIP3    H114405   5.980   4.121   3.454 -1.1471 -0.0013 -0.8103
 4816TIP3    H214406   5.916   4.249   3.504  0.8026  0.4836  0.5324
 4817TIP3   OH214407   2.779   7.411   2.975 -0.0801 -0.0212 -0.2542
 4817TIP3    H114408   2.798   7.326   3.016 -1.9042  0.5311  1.8947
 4817TIP3    H214409   2.733   7.388   2.895  2.5018 -1.0904 -1.5862
 4818TIP3   OH214410   6.523   7.009   6.403 -0.7687  0.0024 -0.6988
 4818TIP3    H114411   6.459   7.026   6.334  0.8185  0.1090 -2.2031
 4818TIP3    H214412   6.575   7.090   6.408  0.9184 -0.9945 -1.3826
 4819TIP3   OH214413   6.074   2.244   1.787 -0.0295 -0.0349 -1.0775
 4819TIP3    H114414   6.066   2.303   1.862 -1.1455 -3.3686  1.6995
 4819TIP3    H214415   6.165   2.253   1.759  0.3987  1.3933  0.6076
 4820TIP3   OH214416   3.030   0.688   2.391 -0.4010  0.0952 -0.1450
 4820TIP3    H114417   2.979   0.720   2.316 -1.8360 -1.0656  0.2997
 4820TIP3    H214418   2.986   0.725   2.467  0.4975  0.5129  0.1798
 4821TIP3   OH214419   1.826   3.311   1.096 -0.0431  0.2769 -0.0388
 4821TIP3    H114420   1.822   3.359   1.013  0.1153 -0.1545 -0.2984
 4821TIP3    H214421   1.758   3.244   1.088  0.7523 -0.5184 -0.3044
 4822TIP3   OH214422   1.588   0.035   2.701 -0.3881  0.4795 -0.0259
 4822TIP3    H114423   1.519   0.101   2.698 -0.7647  0.1182  0.6754
 4822TIP3    H214424   1.622   0.032   2.611 -0.7554  1.2105 -0.1937
 4823TIP3   OH214425   4.213   2.288   3.181  0.1663  0.2707  0.9504
 4823TIP3    H114426   4.213   2.279   3.086 -1.0995  1.6182  0.7985
 4823TIP3    H214427   4.122   2.305   3.204  0.6460  1.1941  2.2768
 4824TIP3   OH214428   2.579   5.787   0.382  0.3152 -0.4739  0.7649
 4824TIP3    H114429   2.661   5.822   0.415 -0.8276  1.9406  1.2703
 4824TIP3    H214430   2.535   5.862   0.341 -1.2772 -1.8730 -0.2250
 4825TIP3   OH214431   6.707   3.194   1.341  0.0264 -0.1969  0.6582
 4825TIP3    H114432   6.728   3.233   1.426  1.6627 -0.5782  0.4547
 4825TIP3    H214433   6.613   3.210   1.330 -0.0128  0.7223  2.0866
 4826TIP3   OH214434   6.986   1.092   3.629  0.5821  0.0964  0.6851
 4826TIP3    H114435   7.008   1.173   3.675  2.0099  1.0724 -1.5364
 4826TIP3    H214436   6.893   1.078   3.648 -0.5962  3.9454 -1.1737
 4827TIP3   OH214437   5.496   6.613   5.873 -0.2158  0.4779  0.7024
 4827TIP3    H114438   5.496   6.694   5.923 -2.0618  0.9673 -0.0053
 4827TIP3    H214439   5.515   6.641   5.783  1.0470 -0.1382  0.7580
 4828TIP3   OH214440   7.865   0.359   3.861 -0.1047  0.2585 -0.4432
 4828TIP3    H114441   7.895   0.414   3.934  3.0087 -1.6027 -0.1599
 4828TIP3    H214442   7.871   0.416   3.784  3.2378  0.4098 -0.2035
 4829TIP3   OH214443   2.665   2.295   2.663  0.3736  0.4983  0.5398
 4829TIP3    H114444   2.602   2.317   2.594  0.9418  1.3674  0.2727
 4829TIP3    H214445   2.625   2.223   2.711 -0.5566  0.6528  0.0117
 4830TIP3   OH214446   4.933   6.031   5.265  0.2536  0.4169 -0.1956
 4830TIP3    H114447   5.015   6.053   5.219 -0.4373 -0.1883 -1.7851
 4830TIP3    H214448   4.958   5.964   5.329  0.8072 -0.7330 -1.5673
 4831TIP3   OH214449   6.471   4.182   2.352 -0.4717  0.0929 -0.6103
 4831TIP3    H114450   6.406   4.239   2.392  0.8602  0.4182  1.2408
 4831TIP3    H214451   6.504   4.230   2.277 -3.2286 -0.6337 -2.4365
 4832TIP3   OH214452   1.228   7.793   4.110  0.0188  0.6624  0.3352
 4832TIP3    H114453   1.133   7.782   4.119 -0.0507 -0.9140 -1.6107
 4832TIP3    H214454   1.238   7.855   4.037  0.5313  2.2555  1.6948
 4833TIP3   OH214455   4.674   4.200   0.124  0.1677  0.1047 -0.6490
 4833TIP3    H114456   4.681   4.295   0.118  1.6140  0.1232  0.7061
 4833TIP3    H214457   4.670   4.170   0.033 -0.2984  1.4389 -1.0905
 4834TIP3   OH214458   5.310   3.677   6.203  0.2939 -0.0810  0.2166
 4834TIP3    H114459   5.297   3.747   6.139  0.3702 -1.8736 -1.8754
 4834TIP3    H214460   5.308   3.597   6.152  0.8438 -1.6120  2.4324
 4835TIP3   OH214461   4.924   7.020   2.110 -0.6874 -0.7234  0.4750
 4835TIP3    H114462   4.883   6.945   2.152 -3.2357 -0.0631 -0.6354
 4835TIP3    H214463   4.851   7.075   2.081  1.0260  1.0142 -0.8632
 4836TIP3   OH214464   0.418   2.968   6.485  0.4725 -0.0995 -0.6604
 4836TIP3    H114465   0.404   2.916   6.563  0.8415  0.4882 -0.1936
 4836TIP3    H214466   0.428   2.904   6.414 -0.8872 -0.6171 -0.4174
 4837TIP3   OH214467   5.515   5.732   1.602  0.1314  0.0609 -1.0523
 4837TIP3    H114468   5.578   5.755   1.534  1.2184  2.3775  0.6141
 4837TIP3    H214469   5.479   5.816   1.631  0.5201 -0.6829  1.9361
 4838TIP3   OH214470   3.189   6.346   2.603 -0.4929 -0.2434 -1.1127
 4838TIP3    H114471   3.148   6.372   2.520 -1.4537  2.6430  0.1578
 4838TIP3    H214472   3.279   6.376   2.596 -0.6353  0.2074 -1.0378
 4839TIP3   OH214473   4.313   6.838   2.091  0.4825 -0.1922 -0.4371
 4839TIP3    H114474   4.365   6.791   2.025  1.9562  2.9373 -1.6730
 4839TIP3    H214475   4.245   6.882   2.041  0.8462  1.2349  0.2864
 4840TIP3   OH214476   1.439   3.140   1.557  0.2260 -0.3063 -0.7665
 4840TIP3    H114477   1.348   3.167   1.568  0.3750 -0.2056  0.3260
 4840TIP3    H214478   1.490   3.207   1.603  0.8065 -0.7616 -0.7288
 4841TIP3   OH214479   0.062   5.953   0.948  0.1493  0.1130 -0.0569
 4841TIP3    H114480   0.014   5.905   1.015  1.2386 -0.4565  0.3460
 4841TIP3    H214481   0.143   5.903   0.935  0.2780  0.5953 -1.2935
 4842TIP3   OH214482   1.622   4.252   3.234  0.6156 -0.0763  0.0533
 4842TIP3    H114483   1.695   4.246   3.296  1.2879  1.5488 -0.5345
 4842TIP3    H214484   1.561   4.314   3.273 -1.1103 -2.2906  1.1068
 4843TIP3   OH214485   0.158   4.123   6.126 -0.4666  0.1215 -0.2592
 4843TIP3    H114486   0.217   4.198   6.122  1.2348 -1.1455 -0.2103
 4843TIP3    H214487   0.127   4.113   6.036 -1.2936  1.2902 -0.1260
 4844TIP3   OH214488   1.276   4.369   5.418  0.3664 -0.1125  0.3350
 4844TIP3    H114489   1.220   4.426   5.365 -1.3817  0.5937  2.7630
 4844TIP3    H214490   1.246   4.281   5.399  1.3399 -0.0924 -1.5129
 4845TIP3   OH214491   7.141   7.282   4.340  0.4729  0.0818 -0.2592
 4845TIP3    H114492   7.200   7.320   4.276  0.5329  0.1435 -0.1677
 4845TIP3    H214493   7.193   7.215   4.384  1.2522  1.7360  1.4764
 4846TIP3   OH214494   7.985   3.205   2.999 -0.3887 -0.0124  0.0220
 4846TIP3    H114495   7.988   3.119   3.039  2.2473 -0.9697 -1.9081
 4846TIP3    H214496   7.903   3.206   2.950 -0.4675 -1.4415  0.0835
 4847TIP3   OH214497   6.649   7.325   6.162  0.4058 -0.0141  0.5449
 4847TIP3    H114498   6.582   7.394   6.171  0.7841  0.4118  0.1446
 4847TIP3    H214499   6.607   7.258   6.107  0.3933  0.3761  0.0670
 4848TIP3   OH214500   1.895   3.126   5.710 -0.6717  0.3789 -0.7037
 4848TIP3    H114501   1.872   3.038   5.740 -1.8239  0.4529 -1.3164
 4848TIP3    H214502   1.893   3.119   5.614 -2.5657  1.4942 -0.7871
 4849TIP3   OH214503   1.640   1.616   3.680  0.0249 -0.1598  0.2407
 4849TIP3    H114504   1.581   1.690   3.668  0.9396  0.4535 -0.6671
 4849TIP3    H214505   1.646   1.605   3.775 -1.1591  0.0607  0.3621
 4850TIP3   OH214506   0.465   2.309   4.665  0.1815  0.1275  0.1580
 4850TIP3    H114507   0.384   2.275   4.626 -0.2627  1.0228  0.2730
 4850TIP3    H214508   0.515   2.231   4.688 -1.4999 -0.5159  1.9242
 4851TIP3   OH214509   0.094   4.986   1.714  0.1207 -0.1009  0.7209
 4851TIP3    H114510   0.181   4.955   1.691 -0.6855 -0.7997 -1.7581
 4851TIP3    H214511   0.066   4.929   1.786  0.7493 -1.5477 -0.1518
 4852TIP3   OH214512   1.008   7.366   3.757 -0.5574  0.3805  0.2933
 4852TIP3    H114513   1.018   7.449   3.805 -1.0314  0.0443  1.0058
 4852TIP3    H214514   0.967   7.391   3.674 -1.9316  0.7451  1.0395
 4853TIP3   OH214515   4.108   5.884   6.568  0.3879  0.6113 -0.1481
 4853TIP3    H114516   4.049   5.899   6.642  0.7321 -0.0854  0.2731
 4853TIP3    H214517   4.144   5.797   6.582  0.3412  0.3988 -1.2205
 4854TIP3   OH214518   6.749   1.442   0.128 -0.2585  0.1402 -0.1792
 4854TIP3    H114519   6.819   1.408   0.184 -0.2055 -0.5195 -0.6365
 4854TIP3    H214520   6.734   1.373   0.064 -1.2743  0.3084 -0.1410
 4855TIP3   OH214521   0.644   0.066   3.137  0.2650 -0.3138 -0.2897
 4855TIP3    H114522   0.630  -0.021   3.098  0.3913 -0.0405 -0.9486
 4855TIP3    H214523   0.582   0.069   3.210 -1.4318 -0.0949 -1.6538
 4856TIP3   OH214524   0.827   0.280   3.399  0.0743  0.1706 -0.1164
 4856TIP3    H114525   0.820   0.344   3.469 -4.1434 -2.2606  2.1545
 4856TIP3    H214526   0.775   0.317   3.328  0.6736  0.7558 -0.2601
 4857TIP3   OH214527   4.639   6.833   2.566 -0.3416  0.6901  0.1929
 4857TIP3    H114528   4.604   6.744   2.567  1.1202  0.0771 -0.0345
 4857TIP3    H214529   4.595   6.877   2.639 -0.2491 -0.5790  1.0576
 4858TIP3   OH214530   3.690   5.714   2.178 -0.4865  0.1744 -0.4248
 4858TIP3    H114531   3.712   5.625   2.150 -2.0565 -0.4459  0.2213
 4858TIP3    H214532   3.714   5.717   2.271 -2.9396 -0.5365  0.3171
 4859TIP3   OH214533   7.537   6.714   0.487 -0.4834  0.1846  0.0238
 4859TIP3    H114534   7.621   6.760   0.495 -1.2115  1.5409  0.2136
 4859TIP3    H214535   7.516   6.719   0.394 -0.2250 -0.3896 -0.0647
 4860TIP3   OH214536   1.202   1.410   4.063 -0.0150 -0.9303 -0.4699
 4860TIP3    H114537   1.246   1.493   4.048 -1.1843 -0.2754 -0.4271
 4860TIP3    H214538   1.155   1.422   4.146  0.7623 -2.0582  0.1543
 4861TIP3   OH214539   7.725   3.826   0.183  0.4798  0.3361 -0.3950
 4861TIP3    H114540   7.704   3.883   0.109 -1.3011  0.4880  0.2004
 4861TIP3    H214541   7.644   3.778   0.202  1.3456 -0.8775  0.4559
 4862TIP3   OH214542   1.732   1.884   0.766  0.1795  0.0062  0.5080
 4862TIP3    H114543   1.651   1.919   0.802 -1.3047  0.2880 -2.7919
 4862TIP3    H214544   1.796   1.955   0.778 -1.0805  1.3189 -0.2279
 4863TIP3   OH214545   1.437   2.097   5.914  0.2998  0.2656  0.1914
 4863TIP3    H114546   1.366   2.161   5.913 -0.9665 -1.0316  1.4345
 4863TIP3    H214547   1.482   2.114   5.997 -0.9127 -1.2896  1.2169
 4864TIP3   OH214548   7.391   1.734   1.638  0.2522  0.4182 -0.3444
 4864TIP3    H114549   7.398   1.683   1.558  1.3223  0.1449 -0.0963
 4864TIP3    H214550   7.429   1.819   1.615  0.5805  0.3323 -0.1337
 4865TIP3   OH214551   6.537   4.986   5.627 -0.1152 -0.2091  0.4510
 4865TIP3    H114552   6.491   4.947   5.701  0.9598 -0.9256  0.7493
 4865TIP3    H214553   6.474   5.050   5.592 -1.1181 -0.7541  1.1926
 4866TIP3   OH214554   5.635   4.098   0.946  0.1126 -0.5584  0.1737
 4866TIP3    H114555   5.593   4.028   0.896  0.5327 -1.5450  1.1564
 4866TIP3    H214556   5.727   4.095   0.920 -0.2163  1.0102 -1.3088
 4867TIP3   OH214557   7.973   7.715   1.159  0.4009  0.7568  0.7347
 4867TIP3    H114558   7.965   7.797   1.111  1.2630  0.3241 -0.1975
 4867TIP3    H214559   7.978   7.741   1.251 -1.1436  1.6190  0.6085
 4868TIP3   OH214560   1.305   3.391   5.775  0.3427  0.2226  0.2443
 4868TIP3    H114561   1.388   3.370   5.817  1.6615  1.2550 -1.6607
 4868TIP3    H214562   1.255   3.439   5.842  1.8289  0.7347  1.0323
 4869TIP3   OH214563   3.710   6.856   0.755 -0.0083  0.1906  0.5536
 4869TIP3    H114564   3.760   6.814   0.825  0.4643  0.5057  0.4172
 4869TIP3    H214565   3.680   6.784   0.700  1.3465  0.0416 -0.0430
 4870TIP3   OH214566   0.530   7.774   4.803 -1.0403 -0.1501  0.5120
 4870TIP3    H114567   0.439   7.804   4.800 -2.1756 -3.0610  1.8399
 4870TIP3    H214568   0.536   7.710   4.733  0.3921  0.7988 -0.2837
 4871TIP3   OH214569   4.036   5.628   3.888  0.2262  0.7452 -0.0721
 4871TIP3    H114570   4.014   5.599   3.799 -0.5930  3.1389 -0.7192
 4871TIP3    H214571   3.958   5.606   3.940 -0.4918  1.9133 -0.6087
 4872TIP3   OH214572   0.134   2.206   4.148  0.0885 -0.0726 -0.4239
 4872TIP3    H114573   0.118   2.229   4.240  0.5986  1.1017 -0.6125
 4872TIP3    H214574   0.128   2.289   4.101  0.8818 -0.4951 -1.3044
 4873TIP3   OH214575   5.437   0.628   3.314  0.7573 -0.4554 -0.0755
 4873TIP3    H114576   5.437   0.704   3.256 -0.9875 -0.3458  0.0251
 4873TIP3    H214577   5.528   0.599   3.315  1.8704  2.7011  1.3306
 4874TIP3   OH214578   5.307   2.327   4.238 -0.1837  0.1620  0.0994
 4874TIP3    H114579   5.298   2.422   4.244 -1.4617  0.1793 -1.4138
 4874TIP3    H214580   5.285   2.295   4.325 -1.7292  1.1548  0.1092
 4875TIP3   OH214581   6.074   7.701   5.362  0.2418 -0.3473  0.2625
 4875TIP3    H114582   6.041   7.612   5.370  0.6145 -0.2847  3.8591
 4875TIP3    H214583   6.018   7.754   5.419  0.7321  1.5533 -0.8985
 4876TIP3   OH214584   2.651   4.712   1.190 -0.1273  0.2782 -0.2068
 4876TIP3    H114585   2.584   4.644   1.191  0.3780 -0.2187  0.4318
 4876TIP3    H214586   2.603   4.793   1.211 -0.4352 -0.1629  0.8305
 4877TIP3   OH214587   3.233   2.472   3.818  0.2890  0.0317  0.4180
 4877TIP3    H114588   3.196   2.547   3.771 -0.5994 -0.5814  0.1172
 4877TIP3    H214589   3.259   2.508   3.903  1.4221  1.0315 -0.3181
 4878TIP3   OH214590   6.025   5.564   6.662  0.3238 -0.4220 -0.1090
 4878TIP3    H114591   6.089   5.559   6.591 -1.5223 -2.0020 -1.7762
 4878TIP3    H214592   5.940   5.562   6.618 -0.9102  0.5346  2.0748
 4879TIP3   OH214593   6.278   3.435   1.553  0.1437  0.4588  0.3331
 4879TIP3    H114594   6.263   3.388   1.635 -0.9732 -0.4632 -0.3543
 4879TIP3    H214595   6.355   3.489   1.569  0.8508 -0.8412  1.5071
 4880TIP3   OH214596   2.075   1.414   4.095 -0.5128 -0.1769 -0.0022
 4880TIP3    H114597   2.102   1.440   4.007 -0.2986  0.5956  0.2833
 4880TIP3    H214598   2.076   1.318   4.093  2.6489 -0.2711  0.0777
 4881TIP3   OH214599   0.038   4.304   3.470  0.1460  0.0643 -0.5958
 4881TIP3    H114600   0.079   4.349   3.544 -0.0462  0.4650 -0.7295
 4881TIP3    H214601   0.108   4.295   3.406  0.6007 -1.2738  0.0631
 4882TIP3   OH214602   4.301   4.071   1.893 -0.5151  0.7281  0.0335
 4882TIP3    H114603   4.357   3.994   1.891  1.6998  2.2571 -0.7772
 4882TIP3    H214604   4.217   4.039   1.925  0.3846 -1.9450 -0.0594
 4883TIP3   OH214605   7.224   2.125   5.313  0.4307 -0.6499 -0.0244
 4883TIP3    H114606   7.255   2.074   5.238  0.0377  0.2251 -0.8056
 4883TIP3    H214607   7.251   2.214   5.293 -1.6597 -0.0176 -0.2563
 4884TIP3   OH214608   3.481   0.554   1.387  0.2819 -0.1398 -0.0696
 4884TIP3    H114609   3.461   0.639   1.425 -0.2197  0.0942 -0.8334
 4884TIP3    H214610   3.425   0.549   1.309 -0.7874 -1.7998  0.7629
 4885TIP3   OH214611   5.164   4.506   1.366  0.4914  0.2116 -0.3316
 4885TIP3    H114612   5.190   4.420   1.332  1.2903 -0.1280  1.0668
 4885TIP3    H214613   5.242   4.540   1.409 -0.3307  0.8165  0.7466
 4886TIP3   OH214614   5.377   2.718   0.006 -0.0041  0.1836  1.1324
 4886TIP3    H114615   5.418   2.638  -0.027 -0.5490 -0.8798  2.9407
 4886TIP3    H214616   5.408   2.726   0.096 -1.0784  1.2418  1.4365
 4887TIP3   OH214617   4.528   3.614   6.037 -0.2855 -0.1397 -0.1149
 4887TIP3    H114618   4.585   3.542   6.063 -0.2955 -0.3256 -0.5864
 4887TIP3    H214619   4.460   3.571   5.984 -0.4042  0.1881 -0.2270
 4888TIP3   OH214620   4.365   6.416   5.019 -0.1953 -0.0751  0.0110
 4888TIP3    H114621   4.450   6.377   4.999  0.5137 -0.1231  2.7287
 4888TIP3    H214622   4.386   6.504   5.051 -1.1944  0.0219  0.4348
 4889TIP3   OH214623   5.526   1.250   4.753 -0.2037 -0.5224 -0.6519
 4889TIP3    H114624   5.491   1.161   4.753  3.2717 -2.0665 -0.6883
 4889TIP3    H214625   5.521   1.278   4.662 -5.0458  1.1851 -0.1400
 4890TIP3   OH214626   3.571   1.211   4.959  0.4909 -0.6822 -0.1720
 4890TIP3    H114627   3.662   1.191   4.983  0.7857  1.3468  0.6923
 4890TIP3    H214628   3.522   1.203   5.040  0.0842 -0.7968 -0.4257
 4891TIP3   OH214629   4.631   4.940   2.192  0.0346 -0.0180  0.9142
 4891TIP3    H114630   4.658   5.027   2.222 -1.6339  1.1899 -0.7653
 4891TIP3    H214631   4.668   4.933   2.104 -1.6202 -0.0169  0.1769
 4892TIP3   OH214632   4.155   0.148   1.786  0.5379  0.6235 -0.3569
 4892TIP3    H114633   4.213   0.211   1.829  1.1225 -0.1319 -0.0036
 4892TIP3    H214634   4.079   0.199   1.760  0.8673  1.4132  0.1879
 4893TIP3   OH214635   4.889   2.924   1.904  0.2008 -0.1634  0.0343
 4893TIP3    H114636   4.817   2.945   1.845  1.1175 -0.3580 -1.1951
 4893TIP3    H214637   4.967   2.923   1.848  1.5705  2.4216  1.7061
 4894TIP3   OH214638   1.678   0.599   4.240  0.2936  0.1524 -0.2212
 4894TIP3    H114639   1.770   0.575   4.226  0.1774 -0.2925 -0.2206
 4894TIP3    H214640   1.682   0.686   4.279  0.7528 -0.3890  0.9685
 4895TIP3   OH214641   2.871   4.583   2.801 -0.2757 -0.2553 -0.3471
 4895TIP3    H114642   2.797   4.531   2.770 -0.0764 -0.6001 -0.2570
 4895TIP3    H214643   2.947   4.545   2.757 -0.5010  2.3870 -3.3361
 4896TIP3   OH214644   4.475   1.030   2.444  0.1682 -0.2006 -0.3770
 4896TIP3    H114645   4.530   1.014   2.367  0.4265  0.4804 -0.3446
 4896TIP3    H214646   4.416   0.954   2.448 -1.1091  0.5955 -2.3452
 4897TIP3   OH214647   8.230   6.590   4.652  0.1425 -0.0180  0.6676
 4897TIP3    H114648   8.175   6.587   4.574  2.0032 -0.2570 -0.7101
 4897TIP3    H214649   8.177   6.551   4.721 -0.5976 -2.3591 -1.1013
 4898TIP3   OH214650   6.246   3.275   6.416  0.1902  0.6312 -0.0946
 4898TIP3    H114651   6.242   3.322   6.499  0.5411  0.0686  0.2491
 4898TIP3    H214652   6.339   3.256   6.403 -0.0559 -1.0313  0.3976
 4899TIP3   OH214653   1.606   4.582   2.254  0.4322 -0.7605  0.3284
 4899TIP3    H114654   1.671   4.576   2.325 -0.5061 -0.9661  1.1851
 4899TIP3    H214655   1.649   4.541   2.179  1.3738 -0.7083  0.8241
 4900TIP3   OH214656   1.663   5.830   5.562  0.4969  0.0403  0.0592
 4900TIP3    H114657   1.714   5.802   5.638 -0.9443 -0.4211  0.8896
 4900TIP3    H214658   1.722   5.818   5.488  1.9942  0.6698  1.1055
 4901TIP3   OH214659   1.835   0.159   6.179  0.4498  0.4301 -0.5198
 4901TIP3    H114660   1.906   0.194   6.124  1.5837 -2.2164 -0.8735
 4901TIP3    H214661   1.792   0.095   6.123 -0.4984  0.0557  0.6189
 4902TIP3   OH214662   7.793   6.451   2.858 -0.3640  0.3630  0.5897
 4902TIP3    H114663   7.838   6.497   2.787 -0.8879  1.0159  0.6717
 4902TIP3    H214664   7.721   6.404   2.815  0.2894 -0.5620  0.4780
 4903TIP3   OH214665   7.971   4.942   0.191 -0.2619 -0.1353 -0.0452
 4903TIP3    H114666   7.982   4.878   0.121 -0.3281 -0.2030  0.0066
 4903TIP3    H214667   7.907   5.004   0.156  0.8970  0.7361 -0.6891
 4904TIP3   OH214668   2.091   5.580   1.354 -0.2577  0.0404 -0.2174
 4904TIP3    H114669   2.177   5.578   1.395  0.2191 -1.3185 -1.2315
 4904TIP3    H214670   2.058   5.669   1.372  2.3757  1.4805 -1.9298
 4905TIP3   OH214671   7.204   3.886   1.738 -0.1053 -0.0061 -0.0637
 4905TIP3    H114672   7.282   3.860   1.788 -0.1512 -0.5370 -0.2554
 4905TIP3    H214673   7.178   3.970   1.775  0.7718  0.3516 -0.2313
 4906TIP3   OH214674   5.860   6.891   3.411 -0.2324 -0.9327  0.0020
 4906TIP3    H114675   5.801   6.841   3.468 -1.0446  1.0366  0.9765
 4906TIP3    H214676   5.940   6.902   3.461 -0.2165 -0.8901 -0.0315
 4907TIP3   OH214677   7.719   6.854   4.704  0.6536 -0.3220  0.4327
 4907TIP3    H114678   7.670   6.936   4.718  1.7308  0.2597  0.9519
 4907TIP3    H214679   7.796   6.881   4.654  0.1208 -1.3419 -1.0112
 4908TIP3   OH214680   0.244   0.565   5.633 -0.1293  0.1793 -0.2588
 4908TIP3    H114681   0.180   0.636   5.636 -1.7646 -1.2524 -0.1785
 4908TIP3    H214682   0.195   0.489   5.601  0.5395 -1.9362  3.2140
 4909TIP3   OH214683   0.532   6.380   5.719  0.0143 -0.2201 -0.3695
 4909TIP3    H114684   0.564   6.444   5.783  1.4473 -0.0440 -1.2137
 4909TIP3    H214685   0.449   6.416   5.688 -0.4065 -0.0122  0.9281
 4910TIP3   OH214686   1.007   0.777   5.745  0.7773 -0.1709 -0.3571
 4910TIP3    H114687   0.967   0.712   5.802 -0.8606  1.5916  0.5843
 4910TIP3    H214688   0.977   0.754   5.657 -1.8761  0.7186  0.2466
 4911TIP3   OH214689   7.759   6.104   2.685  0.4757 -0.1999 -0.1194
 4911TIP3    H114690   7.785   6.034   2.625  0.1283  0.5539 -1.1711
 4911TIP3    H214691   7.793   6.076   2.771 -0.4544 -2.1014 -0.3257
 4912TIP3   OH214692   6.385   7.485   4.867 -0.2842  0.3114 -0.2917
 4912TIP3    H114693   6.366   7.480   4.773  0.8522  0.9030 -0.5734
 4912TIP3    H214694   6.413   7.396   4.890  0.3839  0.4031 -0.7371
 4913TIP3   OH214695   3.561   4.316   4.822  0.0073 -0.0628  0.1647
 4913TIP3    H114696   3.542   4.325   4.728  1.2384 -1.3429 -0.2419
 4913TIP3    H214697   3.657   4.314   4.827 -0.0526 -0.9102  1.3599
 4914TIP3   OH214698   2.999   1.034   2.114  0.1704 -0.3476 -0.0847
 4914TIP3    H114699   2.983   1.041   2.020 -1.5657 -1.6370  0.0675
 4914TIP3    H214700   2.964   1.115   2.151  0.2055 -0.1523 -0.4812
 4915TIP3   OH214701   2.689   0.808   0.121  0.4589 -0.4342 -0.1764
 4915TIP3    H114702   2.690   0.713   0.108  0.0848 -0.4795  0.1146
 4915TIP3    H214703   2.661   0.843   0.036 -2.2378 -0.7457  0.4916
 4916TIP3   OH214704   4.452   6.341   1.576 -0.2531  0.3898  0.7863
 4916TIP3    H114705   4.515   6.412   1.586  0.6012 -0.5040  1.9961
 4916TIP3    H214706   4.505   6.264   1.557 -1.1687  0.0497 -0.5288
 4917TIP3   OH214707   6.406   5.163   3.436 -0.6902  0.0121 -0.4737
 4917TIP3    H114708   6.384   5.252   3.411 -0.8764 -0.3688 -1.7271
 4917TIP3    H214709   6.327   5.129   3.478  0.0318  1.0711  1.9375
 4918TIP3   OH214710   5.904   3.905   1.832 -0.3162  0.3699 -0.9475
 4918TIP3    H114711   5.956   3.982   1.808  0.6851 -0.7545 -2.6428
 4918TIP3    H214712   5.814   3.928   1.807 -0.2397  1.3852 -0.3579
 4919TIP3   OH214713   4.437   2.942   4.384 -0.1209  0.1755 -0.0489
 4919TIP3    H114714   4.358   2.971   4.338 -0.1898 -0.9019 -0.6374
 4919TIP3    H214715   4.408   2.927   4.474 -0.8030 -0.9975 -0.4419
 4920TIP3   OH214716   0.192   2.156   2.323  0.2005  0.1087  0.4775
 4920TIP3    H114717   0.208   2.092   2.254 -1.7535 -3.5664  3.1232
 4920TIP3    H214718   0.259   2.137   2.389  0.7046  2.1037  0.6035
 4921TIP3   OH214719   5.553   1.729   4.229 -0.0685  0.0558  0.1900
 4921TIP3    H114720   5.535   1.821   4.250 -1.5924 -0.2602  0.4013
 4921TIP3    H214721   5.531   1.682   4.309  2.4010 -0.3735  0.7026
 4922TIP3   OH214722   1.300   0.748   4.452 -0.4096  0.2773 -0.3504
 4922TIP3    H114723   1.208   0.773   4.449 -0.8590 -1.1002  0.7467
 4922TIP3    H214724   1.311   0.686   4.380 -0.4444  0.1517 -0.2488
 4923TIP3   OH214725   1.708   4.039   1.283 -0.5576  0.6182  0.8435
 4923TIP3    H114726   1.655   4.112   1.312 -3.2887 -1.3997  1.3150
 4923TIP3    H214727   1.704   4.042   1.187 -1.6699  0.4485  0.8702
 4924TIP3   OH214728   5.689   7.514   3.391 -0.4750 -0.8223 -0.5964
 4924TIP3    H114729   5.776   7.519   3.352  0.3056  0.6046  1.1948
 4924TIP3    H214730   5.683   7.425   3.427  0.1636 -0.9781 -0.8783
 4925TIP3   OH214731   4.168   0.928   5.612 -0.0398 -0.0199 -0.4732
 4925TIP3    H114732   4.097   0.981   5.649 -1.4360 -1.8549 -0.3381
 4925TIP3    H214733   4.173   0.955   5.520 -1.6406 -0.5100 -0.7441
 4926TIP3   OH214734   5.716   7.763   1.357  0.1289  0.1805 -0.1722
 4926TIP3    H114735   5.623   7.782   1.369  0.0908  0.4815 -0.8840
 4926TIP3    H214736   5.755   7.848   1.333  0.7613  0.2625  1.0279
 4927TIP3   OH214737   7.559   3.338   5.286 -0.3185  0.2571 -0.0627
 4927TIP3    H114738   7.624   3.408   5.277 -0.6145  0.4097 -1.0577
 4927TIP3    H214739   7.515   3.335   5.202 -1.4262 -0.0277  0.5122
 4928TIP3   OH214740   5.740   6.956   6.661  0.2054 -0.4685 -0.4782
 4928TIP3    H114741   5.690   6.985   6.585  1.1186 -0.6567 -1.1640
 4928TIP3    H214742   5.827   6.992   6.649  0.5830 -1.1552  0.0745
 4929TIP3   OH214743   5.959   5.364   6.159  0.0105  0.2566  0.4084
 4929TIP3    H114744   6.010   5.283   6.159 -0.6436 -0.2187 -1.8607
 4929TIP3    H214745   5.873   5.337   6.128 -0.4874  1.6866  0.5133
 4930TIP3   OH214746   3.064   0.307   3.931  0.5680  0.2057 -0.8937
 4930TIP3    H114747   3.034   0.371   3.994 -0.4580 -0.9809 -0.1271
 4930TIP3    H214748   3.119   0.356   3.870 -2.1177  2.3219 -1.8090
 4931TIP3   OH214749   4.908   6.577   5.794 -0.1770 -0.2733 -0.2380
 4931TIP3    H114750   4.871   6.665   5.798 -1.7111 -0.9408  1.1208
 4931TIP3    H214751   4.932   6.556   5.885  0.2239 -1.2407 -0.5453
 4932TIP3   OH214752   5.248   5.794   2.574  0.2994 -0.2484 -0.1869
 4932TIP3    H114753   5.241   5.704   2.605  0.4937  0.0261  0.6743
 4932TIP3    H214754   5.157   5.824   2.564  0.2067  0.1290  1.5475
 4933TIP3   OH214755   0.987   2.909   6.395 -0.6651 -0.4274  0.1447
 4933TIP3    H114756   1.037   2.986   6.367 -0.6445 -1.0439 -1.6181
 4933TIP3    H214757   1.005   2.902   6.489  3.7558 -1.3872 -0.5413
 4934TIP3   OH214758   5.949   5.209   3.144  0.3960 -0.0526  0.5221
 4934TIP3    H114759   5.922   5.300   3.139  1.3624  0.7017  4.6880
 4934TIP3    H214760   5.868   5.159   3.134 -0.6418  1.4454  1.0722
 4935TIP3   OH214761   5.143   3.848   3.968  0.7478  0.2373 -0.1995
 4935TIP3    H114762   5.112   3.759   3.951 -2.7548  1.4507 -1.0293
 4935TIP3    H214763   5.238   3.843   3.955  0.3982 -2.8177 -2.8214
 4936TIP3   OH214764   1.687   7.558   2.702 -0.2937 -0.0922 -0.0176
 4936TIP3    H114765   1.741   7.479   2.714 -1.8794 -1.0322  1.4383
 4936TIP3    H214766   1.751   7.629   2.697  1.1624 -1.3696 -0.5276
 4937TIP3   OH214767   0.561   0.257   5.670 -0.1157  0.1656  0.6257
 4937TIP3    H114768   0.644   0.233   5.712  1.0180 -0.6483 -1.8243
 4937TIP3    H214769   0.586   0.325   5.607 -1.4684  0.4466  0.3710
 4938TIP3   OH214770   4.619   6.409   6.725  0.1675  0.2882  0.7503
 4938TIP3    H114771   4.573   6.345   6.670  1.2164  0.4711 -0.3950
 4938TIP3    H214772   4.712   6.387   6.714  0.5039  1.5969  0.8648
 4939TIP3   OH214773   0.638   0.821   6.758 -0.0172  0.5144 -0.3862
 4939TIP3    H114774   0.665   0.762   6.828 -0.7024 -1.3558 -1.6079
 4939TIP3    H214775   0.720   0.848   6.716  0.4980  2.5879  1.7387
 4940TIP3   OH214776   4.002   1.138   2.123  0.4927 -0.0956  0.4303
 4940TIP3    H114777   3.997   1.168   2.033  0.6501 -0.8936  0.1537
 4940TIP3    H214778   3.954   1.205   2.173  0.4121  0.3508 -0.2337
 4941TIP3   OH214779   3.869   2.900   3.922 -0.0280 -0.6286 -0.8673
 4941TIP3    H114780   3.958   2.876   3.899  1.1790  2.6402 -0.1585
 4941TIP3    H214781   3.864   2.994   3.905 -2.3399 -0.0608  2.0315
 4942TIP3   OH214782   0.600   1.383   3.563 -0.0586  0.4001  0.3382
 4942TIP3    H114783   0.668   1.355   3.501  0.3342  0.9916  0.4954
 4942TIP3    H214784   0.638   1.367   3.649 -0.0168  0.9846  0.4272
 4943TIP3   OH214785   8.174   4.080   3.587  0.2647  0.2774 -0.1620
 4943TIP3    H114786   8.200   4.142   3.519  0.5587 -0.3595 -0.6460
 4943TIP3    H214787   8.220   3.999   3.564  0.1376 -0.0309  0.6339
 4944TIP3   OH214788   1.511   3.483   5.003  0.2934 -0.0261  0.2495
 4944TIP3    H114789   1.504   3.527   5.088  1.7105  2.6806 -0.9185
 4944TIP3    H214790   1.585   3.525   4.960 -1.2605 -0.2313 -2.9403
 4945TIP3   OH214791   6.123   5.148   0.308  0.3868 -0.0141 -0.2483
 4945TIP3    H114792   6.063   5.075   0.324  2.4577 -1.4060  1.7267
 4945TIP3    H214793   6.174   5.121   0.232 -0.1261  0.2688 -0.6987
 4946TIP3   OH214794   0.213   2.767   5.928 -0.6787  0.4469 -0.4322
 4946TIP3    H114795   0.290   2.824   5.936 -0.3049  0.2045 -2.0778
 4946TIP3    H214796   0.201   2.731   6.016  1.8443 -0.4747 -0.3911
 4947TIP3   OH214797   6.344   1.218   4.492  0.1360 -0.2590  0.0853
 4947TIP3    H114798   6.339   1.289   4.555  0.8571  1.7271 -1.9737
 4947TIP3    H214799   6.414   1.244   4.432 -0.9144 -1.7559 -1.8957
 4948TIP3   OH214800   2.513   4.395   6.175  0.1124  0.1873 -0.1259
 4948TIP3    H114801   2.543   4.304   6.172  0.6427  0.1656  2.9474
 4948TIP3    H214802   2.558   4.436   6.101  0.6745 -1.7981 -0.9749
 4949TIP3   OH214803   7.070   3.861   4.603  0.6309 -0.0655 -0.2316
 4949TIP3    H114804   7.098   3.940   4.557  3.1219 -0.6199  0.1652
 4949TIP3    H214805   7.055   3.891   4.693 -0.7464  0.3417 -0.5648
 4950TIP3   OH214806   1.495   0.623   4.051  0.5197  0.5390 -0.1765
 4950TIP3    H114807   1.575   0.608   4.101 -0.5196 -1.6594  0.9586
 4950TIP3    H214808   1.522   0.614   3.959  1.4501 -1.0002  0.2123
 4951TIP3   OH214809   1.146   2.391   3.010 -0.1088 -0.0857 -0.5532
 4951TIP3    H114810   1.168   2.368   2.919 -0.4869  1.5481 -1.0988
 4951TIP3    H214811   1.165   2.484   3.016  0.0480 -0.1927  1.1224
 4952TIP3   OH214812   1.692   5.603   1.609  0.2515  0.8183 -0.4212
 4952TIP3    H114813   1.761   5.654   1.565 -0.0694  1.2274 -0.4540
 4952TIP3    H214814   1.686   5.523   1.557  2.6630 -0.5324  1.1743
 4953TIP3   OH214815   5.345   5.270   6.475 -0.0746 -0.8571  0.1437
 4953TIP3    H114816   5.273   5.315   6.431 -0.5560 -1.9808 -0.2586
 4953TIP3    H214817   5.321   5.272   6.568 -0.0709 -0.2722  0.1366
 4954TIP3   OH214818   2.656   6.616   0.964 -0.1548  0.2773 -0.2616
 4954TIP3    H114819   2.672   6.700   1.005  2.3677  0.3791 -1.2590
 4954TIP3    H214820   2.594   6.572   1.021 -2.2447  3.1010 -0.1615
 4955TIP3   OH214821   8.245   2.492   5.502 -0.1632  0.4305  0.7181
 4955TIP3    H114822   8.194   2.418   5.469  3.1454 -1.5649 -0.3659
 4955TIP3    H214823   8.190   2.529   5.571 -2.2028 -2.7540  1.0429
 4956TIP3   OH214824   4.340   1.445   3.980 -0.2362  0.6099  0.1198
 4956TIP3    H114825   4.373   1.356   3.987 -1.6432  0.1636  1.5517
 4956TIP3    H214826   4.276   1.442   3.909 -1.2639  0.1345  1.0423
 4957TIP3   OH214827   2.100   4.900   4.655 -0.0465 -0.1864  0.1119
 4957TIP3    H114828   2.189   4.865   4.655  0.2977  0.6504 -0.8457
 4957TIP3    H214829   2.049   4.836   4.605  0.1725 -0.2934  0.0240
 4958TIP3   OH214830   6.536   0.646   0.209 -0.4898  0.3998 -0.2138
 4958TIP3    H114831   6.531   0.576   0.274  1.3213  0.1621 -0.2805
 4958TIP3    H214832   6.445   0.662   0.184 -1.1782 -0.0379  1.7968
 4959TIP3   OH214833   3.667   2.049   6.338 -0.5709 -0.0587 -0.4297
 4959TIP3    H114834   3.653   2.102   6.260  0.1823  0.7135 -0.0566
 4959TIP3    H214835   3.762   2.047   6.348 -0.5490 -1.8487 -0.6746
 4960TIP3   OH214836   5.341   7.631   2.335 -0.3775  0.2209  0.1478
 4960TIP3    H114837   5.371   7.572   2.265  0.4457  1.6971 -0.7959
 4960TIP3    H214838   5.382   7.715   2.314  0.0973  0.6563  2.5621
 4961TIP3   OH214839   6.798   3.284   5.996  0.2796 -0.4112 -0.0594
 4961TIP3    H114840   6.774   3.371   6.026  0.3350  0.1233 -1.4770
 4961TIP3    H214841   6.716   3.244   5.967 -0.0330 -1.5348  2.2036
 4962TIP3   OH214842   2.564   7.328   1.190  0.1511  0.3059 -0.2654
 4962TIP3    H114843   2.520   7.292   1.113  2.8821 -0.3445 -1.6521
 4962TIP3    H214844   2.493   7.365   1.243 -2.3044 -2.7577 -1.0915
 4963TIP3   OH214845   5.689   1.837   2.464  0.6476 -0.4447  0.2249
 4963TIP3    H114846   5.757   1.810   2.401 -0.1394  1.9471 -1.7816
 4963TIP3    H214847   5.689   1.767   2.529  4.4250 -1.0064 -0.1393
 4964TIP3   OH214848   2.253   2.516   6.254  0.1006 -0.4735  0.0429
 4964TIP3    H114849   2.265   2.556   6.168  0.4183  0.4739  0.5151
 4964TIP3    H214850   2.317   2.560   6.310  0.5615 -1.7386  0.5593
 4965TIP3   OH214851   4.266   4.618   4.876  0.5539 -0.2077 -0.2490
 4965TIP3    H114852   4.339   4.556   4.879  0.0533 -0.7930  0.0342
 4965TIP3    H214853   4.239   4.619   4.784 -0.6273 -1.8430  0.0319
 4966TIP3   OH214854   8.169   7.806   3.626  0.4750 -0.0349  0.2898
 4966TIP3    H114855   8.168   7.735   3.562 -1.7842  0.4651 -0.3151
 4966TIP3    H214856   8.217   7.877   3.582 -0.4241  0.0483 -0.5941
 4967TIP3   OH214857   1.735   1.640   5.453  0.0302 -0.4167  0.9950
 4967TIP3    H114858   1.750   1.655   5.546 -0.1556  0.0055  0.9594
 4967TIP3    H214859   1.773   1.554   5.436 -0.2972 -0.6787  1.5505
 4968TIP3   OH214860   3.012   7.197   1.638  0.4977 -0.6944  0.4365
 4968TIP3    H114861   3.038   7.182   1.547 -0.7671 -0.5489  0.0333
 4968TIP3    H214862   2.986   7.111   1.670 -0.0882 -0.5671  0.3130
 4969TIP3   OH214863   0.595   5.112   5.372  0.2350  0.1632  0.1276
 4969TIP3    H114864   0.511   5.068   5.385 -1.3702  2.7822 -0.5837
 4969TIP3    H214865   0.612   5.102   5.278  1.3174 -1.2285  0.4321
 4970TIP3   OH214866   3.809   6.421   1.528  0.2933 -0.0750 -0.1845
 4970TIP3    H114867   3.866   6.395   1.455  0.7665 -1.6121  0.6802
 4970TIP3    H214868   3.858   6.490   1.573  0.1447  0.6507 -1.1195
 4971TIP3   OH214869   1.237   3.366   4.496 -0.2282 -0.1871 -0.2853
 4971TIP3    H114870   1.214   3.458   4.480  0.7711 -0.0819 -1.2541
 4971TIP3    H214871   1.173   3.317   4.444 -0.0177  0.0090 -0.7401
 4972TIP3   OH214872   5.287   2.346   5.351 -0.3689  0.2787 -0.2579
 4972TIP3    H114873   5.219   2.279   5.357 -0.7877  0.7398  0.2752
 4972TIP3    H214874   5.316   2.343   5.259  1.2304 -2.1579  0.2455
 4973TIP3   OH214875   3.112   5.644   5.001  0.3665  0.3455  0.2035
 4973TIP3    H114876   3.131   5.736   5.022  0.6583  0.1273  0.9146
 4973TIP3    H214877   3.173   5.623   4.930  1.2764  0.2942  0.9860
 4974TIP3   OH214878   2.193   4.682   5.953 -0.1535 -0.2312  0.0988
 4974TIP3    H114879   2.120   4.698   6.014  0.4892  0.5508  0.6825
 4974TIP3    H214880   2.269   4.672   6.010  0.0590 -1.9539 -0.4562
 4975TIP3   OH214881   5.904   3.297   3.451  0.5507 -0.5111 -0.1987
 4975TIP3    H114882   5.952   3.288   3.534 -0.9894 -0.6088  0.7121
 4975TIP3    H214883   5.971   3.322   3.388  2.0305 -1.8408  0.7606
 4976TIP3   OH214884   3.982   0.603   4.612  0.1703 -0.0935 -0.4915
 4976TIP3    H114885   3.994   0.641   4.525 -1.2642  0.8198 -0.3226
 4976TIP3    H214886   3.923   0.528   4.597 -1.7742  1.2882 -0.0849
 4977TIP3   OH214887   2.530   2.369   6.305  0.1974  0.2412  0.7899
 4977TIP3    H114888   2.500   2.423   6.378 -0.8681 -0.1075  0.6385
 4977TIP3    H214889   2.557   2.431   6.238 -0.4219  0.5823  0.8524
 4978TIP3   OH214890   0.987   1.549   3.524 -0.4562  0.5612  0.1205
 4978TIP3    H114891   1.051   1.505   3.580  0.2427  1.2428 -0.1265
 4978TIP3    H214892   1.039   1.585   3.452 -1.2088  0.5758 -0.4291
 4979TIP3   OH214893   1.637   5.503   5.759  0.4017 -0.3234  0.2931
 4979TIP3    H114894   1.611   5.419   5.797  1.4733 -0.4879  0.6857
 4979TIP3    H214895   1.727   5.490   5.729  0.3574  0.4934 -0.2375
 4980TIP3   OH214896   5.508   1.245   2.360 -0.2618  0.3997  0.1324
 4980TIP3    H114897   5.524   1.295   2.281 -1.3090 -2.0317 -1.7561
 4980TIP3    H214898   5.595   1.231   2.397  0.3087  1.1434 -0.8708
 4981TIP3   OH214899   3.745   1.301   3.896 -0.6263 -0.4721 -0.4421
 4981TIP3    H114900   3.797   1.258   3.964  0.1150  1.1106  0.0336
 4981TIP3    H214901   3.778   1.263   3.814  1.1746  0.3357 -0.1422
 4982TIP3   OH214902   0.354   0.681   5.193  0.2276  0.0970  0.6969
 4982TIP3    H114903   0.411   0.627   5.138  1.5379  2.1263 -0.0639
 4982TIP3    H214904   0.270   0.682   5.146  0.6766  0.0015 -0.1389
 4983TIP3   OH214905   4.411   2.449   1.623 -0.1867 -0.0089 -0.8042
 4983TIP3    H114906   4.450   2.448   1.711  0.7470 -1.1360 -1.2058
 4983TIP3    H214907   4.403   2.542   1.602  1.4863  0.2780 -0.3339
 4984TIP3   OH214908   6.782   1.986   4.173 -0.4139  0.0697  0.0463
 4984TIP3    H114909   6.859   2.038   4.192 -1.0424  1.1126 -0.2115
 4984TIP3    H214910   6.709   2.033   4.214 -0.9808 -0.6749 -0.0650
 4985TIP3   OH214911   4.355   4.611   2.142  0.5381  0.1634 -0.2659
 4985TIP3    H114912   4.379   4.588   2.053  0.5810 -2.5814  0.3657
 4985TIP3    H214913   4.265   4.643   2.135  0.5680  0.0398 -1.2988
 4986TIP3   OH214914   1.991   5.625   1.008  0.4676  0.3155 -0.7253
 4986TIP3    H114915   2.022   5.535   1.020 -0.8788 -0.2067 -0.9714
 4986TIP3    H214916   2.055   5.665   0.949  2.2031  0.1745  0.9272
 4987TIP3   OH214917   3.192   3.946   5.000 -0.3326 -0.3615 -0.7705
 4987TIP3    H114918   3.108   3.903   4.988 -0.3909 -0.1396 -1.1507
 4987TIP3    H214919   3.170   4.035   5.028 -0.2143 -0.4881 -0.2504
 4988TIP3   OH214920   6.375   7.612   3.814  0.3941 -0.5009  0.8598
 4988TIP3    H114921   6.325   7.534   3.790  0.9855 -0.5049 -0.4596
 4988TIP3    H214922   6.352   7.628   3.905  0.1384 -2.1291  1.1168
 4989TIP3   OH214923   4.506   4.655   5.555 -0.9262 -0.7119  0.0963
 4989TIP3    H114924   4.564   4.578   5.555 -0.6402 -0.4969  0.1866
 4989TIP3    H214925   4.518   4.694   5.469  0.0114  0.0400  0.5515
 4990TIP3   OH214926   1.349   2.627   1.333  0.3486  0.2202  0.1716
 4990TIP3    H114927   1.424   2.624   1.275  1.3788  0.7637  1.4243
 4990TIP3    H214928   1.373   2.690   1.400 -1.9939  1.8713 -0.4142
 4991TIP3   OH214929   7.211   1.996   6.495 -0.2486 -0.4808  0.1904
 4991TIP3    H114930   7.165   2.019   6.576  1.4493  0.1821  1.0191
 4991TIP3    H214931   7.177   1.910   6.472 -1.8966 -0.0183  0.7304
 4992TIP3   OH214932   1.361   7.370   2.499 -0.2356 -0.7597 -0.2262
 4992TIP3    H114933   1.359   7.446   2.557 -0.0704  0.2199 -1.4510
 4992TIP3    H214934   1.269   7.352   2.480 -0.2320  0.3523 -1.4244
 4993TIP3   OH214935   2.738   2.205   2.095 -0.1171  0.8380 -0.4001
 4993TIP3    H114936   2.824   2.209   2.054 -0.4984  0.1512 -1.2878
 4993TIP3    H214937   2.680   2.170   2.028 -0.5953 -1.2178  0.9717
 4994TIP3   OH214938   3.718   7.301   3.330 -0.5785  0.0814  0.2898
 4994TIP3    H114939   3.781   7.230   3.322  1.5325  1.9986 -1.7448
 4994TIP3    H214940   3.653   7.283   3.263  0.9063  0.8666 -1.4390
 4995TIP3   OH214941   8.192   0.899   2.306  0.1521  0.2097  0.2172
 4995TIP3    H114942   8.204   0.994   2.315 -0.7611  0.4061 -0.4714
 4995TIP3    H214943   8.154   0.872   2.389 -0.3400  0.5891  0.1211
 4996TIP3   OH214944   3.831   7.733   0.588 -0.6710 -0.2011 -0.0012
 4996TIP3    H114945   3.901   7.773   0.640 -0.7982  0.4328 -0.3040
 4996TIP3    H214946   3.849   7.639   0.591 -0.5644 -0.1540  1.0203
 4997TIP3   OH214947   4.771   7.044   6.671  0.1131  0.0492 -0.0852
 4997TIP3    H114948   4.728   7.091   6.742 -0.7143  1.2913 -1.3633
 4997TIP3    H214949   4.865   7.058   6.688 -0.0035 -0.7206  1.4134
 4998TIP3   OH214950   4.079   2.693   1.442 -0.3166  0.4635 -0.4394
 4998TIP3    H114951   4.155   2.649   1.404 -0.6775  0.3736 -1.0700
 4998TIP3    H214952   4.022   2.712   1.367  0.3819  3.1571 -0.3941
 4999TIP3   OH214953   4.670   2.123   5.152  0.5713  0.1185 -0.3190
 4999TIP3    H114954   4.633   2.036   5.137  1.5082 -0.1323 -1.2915
 4999TIP3    H214955   4.635   2.150   5.237 -1.3902 -0.3181 -0.9359
 5000TIP3   OH214956   3.902   0.281   5.454  0.6027  0.3009 -0.5089
 5000TIP3    H114957   3.867   0.300   5.541  1.6439 -0.0206 -0.0098
 5000TIP3    H214958   3.928   0.367   5.420  0.3994  0.4015 -0.4126
 5001TIP3   OH214959   4.003   5.675   2.033 -0.5754  0.1202 -0.1870
 5001TIP3    H114960   3.999   5.583   2.061  1.3615 -0.0726 -0.4157
 5001TIP3    H214961   4.076   5.712   2.082 -0.0591  1.0013 -1.5675
 5002TIP3   OH214962   0.911   7.222   3.301 -0.9541 -0.4381 -0.0112
 5002TIP3    H114963   0.853   7.149   3.280  1.1164 -2.0798 -0.4784
 5002TIP3    H214964   0.984   7.181   3.348  1.5229  0.8350 -2.4747
 5003TIP3   OH214965   0.413   4.238   3.011 -0.2562 -0.6325  0.0366
 5003TIP3    H114966   0.469   4.238   3.089  0.9317  0.8154 -0.7584
 5003TIP3    H214967   0.349   4.168   3.027  0.2071 -0.6437  2.1035
 5004TIP3   OH214968   8.185   4.644   1.400 -0.4442 -0.1535 -0.0952
 5004TIP3    H114969   8.203   4.706   1.470  0.0228 -0.5937  0.1841
 5004TIP3    H214970   8.163   4.698   1.324 -1.3834  0.3176  0.4979
 5005TIP3   OH214971   7.487   2.729   6.434  0.3939  0.0899  0.3709
 5005TIP3    H114972   7.401   2.770   6.431  0.4367  0.2271  1.0226
 5005TIP3    H214973   7.540   2.785   6.491  1.2432  0.6029 -0.8518
 5006TIP3   OH214974   7.715   1.784   1.284 -0.1361  0.3399 -0.2396
 5006TIP3    H114975   7.790   1.730   1.260 -1.0931 -0.2837 -2.0702
 5006TIP3    H214976   7.741   1.828   1.365  0.9158 -2.3963  1.0380
 5007TIP3   OH214977   3.547   5.749   1.888 -0.2150 -0.2086 -0.0582
 5007TIP3    H114978   3.505   5.704   1.961  1.6514 -2.4678 -0.2526
 5007TIP3    H214979   3.485   5.818   1.863 -0.9320  0.7256  3.6275
 5008TIP3   OH214980   4.956   1.651   0.938  0.3998 -0.2079 -0.3337
 5008TIP3    H114981   4.967   1.656   0.843  0.2173  0.6020 -0.3106
 5008TIP3    H214982   4.884   1.589   0.950 -0.0086  0.1831 -0.7439
 5009TIP3   OH214983   0.718   3.107   5.197 -0.5612  0.9976 -0.0776
 5009TIP3    H114984   0.753   3.100   5.109 -0.1483  0.5941  0.1142
 5009TIP3    H214985   0.771   3.176   5.238  0.1152  0.2973  0.2534
 5010TIP3   OH214986   1.738   2.156   6.114  0.1654  0.5256  0.1771
 5010TIP3    H114987   1.823   2.143   6.154  0.5121 -0.9701 -0.9421
 5010TIP3    H214988   1.756   2.166   6.021 -0.8308  1.0354  0.0203
 5011TIP3   OH214989   7.935   4.435   4.327 -0.3706 -0.2629  0.4073
 5011TIP3    H114990   8.026   4.460   4.345  0.1312 -0.2357 -1.8629
 5011TIP3    H214991   7.906   4.391   4.407  1.2597  0.7147  1.6063
 5012TIP3   OH214992   6.267   3.021   5.564 -0.3296  0.6092 -0.2793
 5012TIP3    H114993   6.239   3.084   5.630  0.6308  0.1138  0.6190
 5012TIP3    H214994   6.316   2.955   5.612  0.2356  0.1360 -1.4593
 5013TIP3   OH214995   7.389   2.594   2.351 -0.0960 -0.5263  0.3595
 5013TIP3    H114996   7.378   2.689   2.345 -0.6829 -0.5045  1.4674
 5013TIP3    H214997   7.333   2.560   2.282 -0.9604 -0.0995  0.8263
 5014TIP3   OH214998   3.906   0.849   6.151  0.5423  0.2751 -0.3383
 5014TIP3    H114999   3.859   0.826   6.231 -1.5089  0.7415 -1.3389
 5014TIP3    H215000   3.903   0.945   6.149 -0.7525  0.2439 -1.6692
 5015TIP3   OH215001   8.117   6.512   1.103  0.2804  0.0421 -0.0345
 5015TIP3    H115002   8.027   6.481   1.117  0.5284  0.5224  3.7808
 5015TIP3    H215003   8.171   6.434   1.113  0.4022  0.0169 -0.8226
 5016TIP3   OH215004   1.936   1.621   0.322  0.0174  0.8431  0.0342
 5016TIP3    H115005   1.914   1.696   0.376 -0.6146  1.0630 -0.5205
 5016TIP3    H215006   2.002   1.654   0.261 -0.1812  0.9183 -0.1393
 5017TIP3   OH215007   2.653   3.565   4.651 -0.1347 -0.3823 -0.2754
 5017TIP3    H115008   2.738   3.575   4.694 -1.0776  1.3878  1.3630
 5017TIP3    H215009   2.671   3.580   4.558  1.1070  1.9491  0.2471
 5018TIP3   OH215010   3.873   1.481   1.349 -0.4643 -0.1501  0.1201
 5018TIP3    H115011   3.788   1.486   1.306 -1.2328 -2.3305  1.2075
 5018TIP3    H215012   3.861   1.526   1.433 -0.9958 -1.5933  0.8488
 5019TIP3   OH215013   6.902   5.814   3.101  0.1706 -0.3131  0.0511
 5019TIP3    H115014   6.921   5.894   3.053  1.2212  0.5226  1.7849
 5019TIP3    H215015   6.813   5.791   3.074  0.0350  1.1536 -0.8507
 5020TIP3   OH215016   2.210   4.385   3.631 -0.2770  0.2148  0.0593
 5020TIP3    H115017   2.218   4.294   3.661  3.0494 -0.3330 -1.9233
 5020TIP3    H215018   2.127   4.387   3.584  0.2532 -2.3706 -1.2066
 5021TIP3   OH215019   3.349   2.065   1.050  0.1108  0.1539  0.0778
 5021TIP3    H115020   3.373   1.975   1.073 -0.7204  0.0400  0.5315
 5021TIP3    H215021   3.340   2.064   0.955 -0.3701 -0.3661  0.1239
 5022TIP3   OH215022   1.144   3.190   5.887  0.0293  0.3243  0.1530
 5022TIP3    H115023   1.056   3.169   5.855 -0.4394  1.0740  0.9018
 5022TIP3    H215024   1.198   3.196   5.809  0.5532 -4.7780 -0.2203
 5023TIP3   OH215025   7.747   3.195   6.261  0.1245 -0.0602 -0.1865
 5023TIP3    H115026   7.753   3.154   6.348 -0.9045 -0.4197 -0.2717
 5023TIP3    H215027   7.800   3.140   6.205 -0.6420 -0.8734 -0.1410
 5024TIP3   OH215028   7.231   4.205   2.967 -0.0162 -0.1667  0.1748
 5024TIP3    H115029   7.152   4.192   2.915 -0.1168  0.8880  0.0421
 5024TIP3    H215030   7.284   4.264   2.915  0.8093 -0.7477  0.3365
 5025TIP3   OH215031   3.993   0.295   6.227 -0.3787  0.5876  0.1834
 5025TIP3    H115032   4.075   0.249   6.212 -0.2879  0.5980  0.6329
 5025TIP3    H215033   3.946   0.241   6.292 -0.5374  0.8052  0.2518
 5026TIP3   OH215034   6.411   4.587   2.596 -0.1630  0.7373  0.1097
 5026TIP3    H115035   6.333   4.641   2.581  0.2054  0.6428 -2.7397
 5026TIP3    H215036   6.389   4.503   2.556  1.1357  0.4828 -0.1072
 5027TIP3   OH215037   5.910   5.294   1.578 -0.0190  0.3504  0.2082
 5027TIP3    H115038   5.854   5.222   1.606 -1.4109  1.4285  0.3456
 5027TIP3    H215039   5.897   5.361   1.646 -0.0542  1.3460 -0.7579
 5028TIP3   OH215040   5.186   4.796   3.336  0.0276  0.3160 -0.6132
 5028TIP3    H115041   5.111   4.764   3.286 -0.9223  0.4252  0.6669
 5028TIP3    H215042   5.186   4.743   3.416  0.4657  1.2412  0.0229
 5029TIP3   OH215043   5.479   1.657   1.575  0.0566 -0.1942 -0.3493
 5029TIP3    H115044   5.518   1.690   1.656 -1.5638  2.0200 -0.3718
 5029TIP3    H215045   5.388   1.640   1.598 -0.0537 -1.0084 -1.3506
 5030TIP3   OH215046   6.887   5.003   3.405  0.0298  0.3645  0.1347
 5030TIP3    H115047   6.801   5.045   3.398 -0.2075 -0.3250 -1.9527
 5030TIP3    H215048   6.867   4.914   3.434 -0.1556 -0.1898 -1.5505
 5031TIP3   OH215049   3.767   5.713   5.510 -0.3897  0.1443  0.6167
 5031TIP3    H115050   3.842   5.703   5.450 -0.0820  1.5754  0.7343
 5031TIP3    H215051   3.741   5.805   5.502 -0.0739  0.5136  2.9687
 5032TIP3   OH215052   7.324   0.919   4.834 -0.2894  0.7309  0.2532
 5032TIP3    H115053   7.387   0.964   4.890 -1.3145  3.1024 -0.3741
 5032TIP3    H215054   7.242   0.967   4.845 -1.2624 -0.4932 -1.1116
 5033TIP3   OH215055   3.545   1.848   6.770  0.2642  0.1453  0.1218
 5033TIP3    H115056   3.516   1.848   6.679  1.5463 -1.6955 -0.3387
 5033TIP3    H215057   3.615   1.784   6.773 -0.0424 -0.1730  2.5180
 5034TIP3   OH215058   6.132   6.630   3.749 -0.0565 -0.0245  0.3055
 5034TIP3    H115059   6.191   6.575   3.696 -0.2011 -1.8602  1.9375
 5034TIP3    H215060   6.191   6.676   3.809 -0.0893  0.1018  0.2404
 5035TIP3   OH215061   3.788   5.924   4.421  0.1852 -0.6781  0.2252
 5035TIP3    H115062   3.862   5.921   4.360  1.3802  0.1347  1.5700
 5035TIP3    H215063   3.824   5.965   4.500 -1.9782  0.7674  0.5337
 5036TIP3   OH215064   4.663   0.717   5.015  0.3966 -0.2452  0.5576
 5036TIP3    H115065   4.664   0.701   5.109 -0.3670 -0.0190  0.6157
 5036TIP3    H215066   4.691   0.808   5.005  1.7759 -0.6621  0.4553
 5037TIP3   OH215067   3.493   0.153   1.697  0.1939 -0.1552 -0.3572
 5037TIP3    H115068   3.402   0.128   1.713  0.5978 -1.5628 -0.1524
 5037TIP3    H215069   3.509   0.224   1.759 -0.5956 -0.2880  0.0127
 5038TIP3   OH215070   7.269   0.085   3.182  0.4742 -0.0730 -0.4034
 5038TIP3    H115071   7.190   0.118   3.224  0.5751 -0.7152  0.3104
 5038TIP3    H215072   7.341   0.127   3.228  0.6360 -1.8561  1.0889
 5039TIP3   OH215073   7.812   0.797   1.877  0.2756 -0.1495 -0.8530
 5039TIP3    H115074   7.887   0.838   1.919  0.2575  0.0940 -1.0581
 5039TIP3    H215075   7.747   0.867   1.870 -0.5338 -0.7122  0.6704
 5040TIP3   OH215076   7.209   5.501   5.068  0.7356 -0.0218  0.1536
 5040TIP3    H115077   7.207   5.591   5.100  1.6938  0.1714 -0.2817
 5040TIP3    H215078   7.145   5.499   4.997 -0.4219 -0.1052  1.1719
 5041TIP3   OH215079   4.276   6.125   2.161  0.4716 -0.2107  0.3457
 5041TIP3    H115080   4.290   6.095   2.071 -1.5506 -1.0516  0.2530
 5041TIP3    H215081   4.298   6.218   2.159 -1.5339  0.3160 -1.5979
 5042TIP3   OH215082   3.449   4.171   6.012 -0.3160  0.4216  0.2493
 5042TIP3    H115083   3.449   4.256   6.057 -1.2861  0.5459  0.0227
 5042TIP3    H215084   3.509   4.184   5.938 -0.4131  0.8879  0.2451
 5043TIP3   OH215085   5.492   4.809   3.733 -0.3869 -0.2148  0.5942
 5043TIP3    H115086   5.468   4.870   3.803 -1.5926  0.1052 -0.0625
 5043TIP3    H215087   5.473   4.723   3.770 -3.8630  0.0369 -0.2310
 5044TIP3   OH215088   0.837   6.156   2.280  0.0959  0.3481 -0.5677
 5044TIP3    H115089   0.933   6.156   2.272  0.1895 -1.6199 -0.1420
 5044TIP3    H215090   0.808   6.091   2.216 -0.7524 -0.5510  0.6599
 5045TIP3   OH215091   3.309   5.738   3.681  0.1111 -0.2100 -0.1319
 5045TIP3    H115092   3.273   5.808   3.736 -0.1583  1.4772 -2.2865
 5045TIP3    H215093   3.360   5.785   3.615  1.5657 -2.2210 -0.5168
 5046TIP3   OH215094   7.843   6.269   3.733  0.1590  0.0707  0.5181
 5046TIP3    H115095   7.804   6.337   3.788  0.4421  1.2995 -0.7430
 5046TIP3    H215096   7.830   6.301   3.643  0.9925 -1.1741 -0.0688
 5047TIP3   OH215097   3.982   5.652   5.374  0.1176  0.0785  0.3441
 5047TIP3    H115098   4.034   5.580   5.411  0.6554  1.0604  1.5807
 5047TIP3    H215099   4.007   5.655   5.282  0.0603 -1.3336  0.2564
 5048TIP3   OH215100   1.085   7.126   6.654 -0.5206  0.0416 -0.1111
 5048TIP3    H115101   1.026   7.058   6.623 -2.7342  0.9848  1.7872
 5048TIP3    H215102   1.046   7.158   6.735  1.8735  1.7244  0.5120
 5049TIP3   OH215103   7.434   3.316   0.982  0.1988  0.8211 -0.2539
 5049TIP3    H115104   7.452   3.344   0.893  1.4356  2.3886  0.4228
 5049TIP3    H215105   7.339   3.304   0.985  0.2564 -0.3445 -2.0359
 5050TIP3   OH215106   1.387   1.097   6.715 -0.8702 -0.0560  0.8040
 5050TIP3    H115107   1.456   1.073   6.652  0.0953  0.5729  1.5860
 5050TIP3    H215108   1.431   1.155   6.777 -1.8768 -0.4326  1.8982
 5051TIP3   OH215109   7.987   4.710   0.016  0.0806 -0.0833 -0.2952
 5051TIP3    H115110   8.030   4.680   0.097 -1.3815  0.6101  0.7781
 5051TIP3    H215111   8.055   4.701  -0.051  1.0340 -1.6125  0.8049
 5052TIP3   OH215112   2.528   5.221   6.634  0.2734 -0.0538 -0.1207
 5052TIP3    H115113   2.436   5.248   6.641  0.1101 -0.1725 -1.6529
 5052TIP3    H215114   2.575   5.282   6.692 -0.9837 -1.3906  2.4857
 5053TIP3   OH215115   8.095   5.003   5.267 -0.0867  0.1998  0.0980
 5053TIP3    H115116   8.035   5.026   5.338  0.4351 -0.6551  0.8267
 5053TIP3    H215117   8.057   4.924   5.228  1.0298 -0.9019  1.1703
 5054TIP3   OH215118   1.242   7.039   6.343  0.2323  0.5994 -0.5070
 5054TIP3    H115119   1.288   6.968   6.298 -0.6926 -0.0276 -0.4925
 5054TIP3    H215120   1.249   7.018   6.436 -0.4277  0.2810 -0.5270
 5055TIP3   OH215121   5.219   2.494   6.617 -0.7863  0.3509 -0.2457
 5055TIP3    H115122   5.179   2.579   6.634 -1.4290  0.3891 -1.8022
 5055TIP3    H215123   5.182   2.436   6.684 -0.0758  1.3429  1.0457
 5056TIP3   OH215124   0.694   4.182   5.328  0.1718 -0.1681  0.1680
 5056TIP3    H115125   0.607   4.167   5.293  0.0919  0.9293 -0.1431
 5056TIP3    H215126   0.704   4.116   5.397 -0.6111 -0.7683 -0.2793
 5057TIP3   OH215127   6.505   4.315   3.136  0.6875 -0.3336 -0.3790
 5057TIP3    H115128   6.421   4.299   3.178  2.1414 -2.8984  1.8433
 5057TIP3    H215129   6.492   4.287   3.045 -0.8993 -0.3514 -0.1744
 5058TIP3   OH215130   7.688   7.786   2.422  0.5996 -0.3790 -0.1847
 5058TIP3    H115131   7.778   7.760   2.403  0.2853 -2.7013  1.0758
 5058TIP3    H215132   7.637   7.706   2.409 -1.0732  0.5342  0.4295
 5059TIP3   OH215133   4.648   7.798   6.051 -0.5108 -0.0400 -0.2531
 5059TIP3    H115134   4.714   7.777   5.986  0.4016 -1.0655  0.9454
 5059TIP3    H215135   4.618   7.712   6.083 -1.1473  0.4320  0.4582
 5060TIP3   OH215136   6.065   7.770   4.344 -0.3660  0.0690 -0.2593
 5060TIP3    H115137   6.076   7.807   4.257 -0.8027 -0.2382 -0.4466
 5060TIP3    H215138   5.970   7.764   4.356 -0.3163  0.5155  0.4103
 5061TIP3   OH215139   3.519   2.437   2.386  0.2840  0.3873  0.1002
 5061TIP3    H115140   3.454   2.420   2.318  1.5484 -2.4237 -0.5500
 5061TIP3    H215141   3.473   2.421   2.468 -0.1571 -0.5703 -0.3164
 5062TIP3   OH215142   2.264   4.641   1.791 -0.0152 -0.6828  0.1561
 5062TIP3    H115143   2.238   4.711   1.851  0.4127 -0.7128  0.3772
 5062TIP3    H215144   2.261   4.681   1.704  1.6965  0.0718  0.3992
 5063TIP3   OH215145   0.082   6.359   0.728 -0.1096 -0.0826  0.0908
 5063TIP3    H115146   0.019   6.295   0.760 -0.6508  0.3408 -0.0976
 5063TIP3    H215147   0.161   6.345   0.781 -0.5329 -0.2936  0.6731
 5064TIP3   OH215148   4.695   6.648   1.257  0.0159 -0.0794  0.0406
 5064TIP3    H115149   4.717   6.734   1.292 -1.5931  1.0283 -1.4753
 5064TIP3    H215150   4.747   6.586   1.309  1.0960  1.7760  1.2682
 5065TIP3   OH215151   3.010   2.925   0.790  0.3020 -0.0256  0.2452
 5065TIP3    H115152   2.950   2.855   0.762  0.8809 -0.8454  1.0031
 5065TIP3    H215153   3.068   2.939   0.716  1.0768 -1.3511  0.5812
 5066TIP3   OH215154   3.225   2.988   1.226  0.0329  0.8223 -0.5935
 5066TIP3    H115155   3.289   3.050   1.190  2.1709 -1.4566 -0.9768
 5066TIP3    H215156   3.197   2.937   1.150 -2.0203  1.4711 -0.3528
 5067TIP3   OH215157   6.353   2.070   2.057  0.0972  0.3443 -0.2575
 5067TIP3    H115158   6.282   2.123   2.092  0.5615  1.2707 -0.6648
 5067TIP3    H215159   6.347   2.082   1.962  0.3619 -0.1363 -0.3383
 5068TIP3   OH215160   4.558   1.070   2.156  0.0195  0.2222 -0.7337
 5068TIP3    H115161   4.507   0.989   2.167  0.8556 -0.2506 -0.1880
 5068TIP3    H215162   4.492   1.139   2.149 -0.7000 -0.3625  0.0547
 5069TIP3   OH215163   3.857   7.328   6.513 -0.5815 -0.2433  0.3994
 5069TIP3    H115164   3.787   7.371   6.463 -0.8080 -0.5182  0.4773
 5069TIP3    H215165   3.926   7.395   6.520 -0.1738 -0.4786 -1.0442
 5070TIP3   OH215166   5.967   2.005   0.655  0.1024  0.7024 -0.3372
 5070TIP3    H115167   5.880   1.970   0.633  1.4246 -2.3509 -1.2887
 5070TIP3    H215168   5.952   2.060   0.732 -2.6455  0.2794 -0.4564
 5071TIP3   OH215169   5.080   7.598   0.029  1.9184 -0.7632 -0.4824
 5071TIP3    H115170   4.990   7.622   0.010  1.7371 -1.1586 -0.1623
 5071TIP3    H215171   5.084   7.504   0.010  2.0944 -0.8764  0.0952
 5072TIP3   OH215172   1.649   6.371   2.727  0.4123 -0.1271 -0.1003
 5072TIP3    H115173   1.574   6.349   2.781  1.3145 -2.1546  0.4325
 5072TIP3    H215174   1.674   6.288   2.686  0.8867  0.9832 -2.1992
 5073TIP3   OH215175   7.720   5.181   4.119  0.3831  0.0352 -0.1554
 5073TIP3    H115176   7.692   5.270   4.143  0.5674  0.1575 -0.3820
 5073TIP3    H215177   7.734   5.137   4.203 -0.8216 -0.1453 -0.0229
 5074TIP3   OH215178   0.847   3.858   5.303  0.0099 -0.4206 -0.5257
 5074TIP3    H115179   0.902   3.800   5.356 -0.5845 -1.1456 -0.6916
 5074TIP3    H215180   0.771   3.876   5.358 -0.9534 -1.7507 -1.3699
 5075TIP3   OH215181   4.109   4.918   3.527  0.4740 -0.0448  0.2114
 5075TIP3    H115182   4.092   4.986   3.462  0.1513 -0.6573 -0.3521
 5075TIP3    H215183   4.157   4.963   3.596 -0.0681  0.8463  0.0267
 5076TIP3   OH215184   1.701   7.073   0.904  0.1148 -0.1089 -0.0776
 5076TIP3    H115185   1.693   7.137   0.974  0.3947  0.8381 -0.8994
 5076TIP3    H215186   1.615   7.073   0.862  0.1146 -0.2751 -0.0786
 5077TIP3   OH215187   2.004   4.081   1.382 -0.4424 -0.4612 -0.2811
 5077TIP3    H115188   1.912   4.072   1.409 -0.0654 -1.5170  0.7706
 5077TIP3    H215189   2.017   4.012   1.317 -0.2561 -0.7003  0.0048
 5078TIP3   OH215190   2.211   6.791   1.743  0.0655  0.2032 -0.0276
 5078TIP3    H115191   2.181   6.781   1.833 -0.6054 -0.7399 -0.3429
 5078TIP3    H215192   2.279   6.858   1.748 -0.9109  1.1623  0.9631
 5079TIP3   OH215193   5.939   1.835   3.393 -0.4553  0.0574 -0.1602
 5079TIP3    H115194   5.903   1.922   3.413 -0.2140  0.3565 -0.9838
 5079TIP3    H215195   5.868   1.774   3.414  0.7498 -0.0552  4.7972
 5080TIP3   OH215196   3.239   3.167   1.673 -0.4384  0.0173 -0.1236
 5080TIP3    H115197   3.240   3.262   1.685  0.2702 -0.2328  2.3295
 5080TIP3    H215198   3.159   3.150   1.623  0.1179  1.9757 -1.8087
 5081TIP3   OH215199   0.162   2.791   2.621 -0.5195  0.0312 -0.5652
 5081TIP3    H115200   0.081   2.743   2.602 -0.5003 -1.0437  1.7633
 5081TIP3    H215201   0.231   2.739   2.580 -0.9390  0.9302 -2.5314
 5082TIP3   OH215202   6.889   0.479   2.905  0.2275  0.3479 -0.6497
 5082TIP3    H115203   6.852   0.500   2.990  1.5074 -2.1663  0.6355
 5082TIP3    H215204   6.982   0.498   2.913  0.0815  2.0331 -2.2313
 5083TIP3   OH215205   4.020   1.957   3.309  0.0839 -0.5091  0.0690
 5083TIP3    H115206   4.033   1.883   3.369  1.8191 -0.0266  0.3440
 5083TIP3    H215207   4.067   2.029   3.350  1.4431 -0.1839 -1.9051
 5084TIP3   OH215208   3.962   7.088   0.695 -0.0095  0.3021  0.1173
 5084TIP3    H115209   3.893   7.095   0.629  0.8815 -0.5618 -0.9283
 5084TIP3    H215210   3.925   7.131   0.772 -1.7380 -0.1808 -0.3994
 5085TIP3   OH215211   5.108   2.557   0.320 -0.0397 -0.4660  0.7268
 5085TIP3    H115212   5.126   2.508   0.401  1.0947  1.0318  1.4305
 5085TIP3    H215213   5.032   2.611   0.342  1.1162  0.9868  1.3174
 5086TIP3   OH215214   5.119   2.610   4.838  0.3279 -0.1629 -0.3159
 5086TIP3    H115215   5.150   2.668   4.769  1.7063 -1.1146 -0.5392
 5086TIP3    H215216   5.196   2.595   4.893 -0.8204  0.9125  1.7087
 5087TIP3   OH215217   1.168   1.967   1.326 -0.4748 -0.7907 -0.2558
 5087TIP3    H115218   1.201   2.057   1.323  2.3142 -1.7008  0.2962
 5087TIP3    H215219   1.140   1.954   1.416  0.0537 -0.7549 -0.0822
 5088TIP3   OH215220   1.754   3.073   2.956  0.1879  0.1701  0.2943
 5088TIP3    H115221   1.674   3.081   2.904  0.0557  0.4712  0.5432
 5088TIP3    H215222   1.782   2.983   2.942  0.4552  0.4109 -0.7331
 5089TIP3   OH215223   7.174   2.047   0.871 -0.1323 -0.1967 -0.6232
 5089TIP3    H115224   7.208   2.032   0.959 -1.6229  0.6781  0.1263
 5089TIP3    H215225   7.237   2.108   0.832  0.1569 -0.0321  0.0816
 5090TIP3   OH215226   6.785   3.542   5.270  0.3544  0.6952 -0.0871
 5090TIP3    H115227   6.773   3.447   5.268  0.3004  0.7112 -0.6332
 5090TIP3    H215228   6.699   3.577   5.245 -0.0418  0.9230  1.4708
 5091TIP3   OH215229   5.095   4.504   6.347  0.0603  0.0858 -0.2824
 5091TIP3    H115230   5.038   4.571   6.383  2.2432  3.1958 -2.1483
 5091TIP3    H215231   5.090   4.516   6.252  1.0270 -2.0352 -0.6812
 5092TIP3   OH215232   1.643   1.291   3.042 -0.6585  0.5751 -0.5977
 5092TIP3    H115233   1.655   1.268   3.134 -3.0202  1.1106 -0.1069
 5092TIP3    H215234   1.673   1.382   3.035  1.2153 -0.0009 -0.8222
 5093TIP3   OH215235   6.828   5.753   1.648  0.5326 -0.2655 -0.1576
 5093TIP3    H115236   6.909   5.800   1.628 -0.0720  0.1042 -1.9210
 5093TIP3    H215237   6.857   5.669   1.683  1.7367 -0.5458 -1.6964
 5094TIP3   OH215238   2.167   7.472   1.665 -0.4149 -0.1143 -0.5180
 5094TIP3    H115239   2.254   7.435   1.683 -0.3352 -1.1459 -2.6254
 5094TIP3    H215240   2.110   7.395   1.655 -1.4251  0.5297  0.1198
 5095TIP3   OH215241   2.259   2.913   4.982 -0.5164  0.3443  0.5297
 5095TIP3    H115242   2.197   2.920   4.909 -0.8182  0.3953  0.7898
 5095TIP3    H215243   2.304   2.830   4.968  0.3445  0.9376 -0.4328
 5096TIP3   OH215244   6.960   2.161   0.214 -0.1960 -0.5417 -0.3535
 5096TIP3    H115245   6.912   2.119   0.286  2.5062  0.5462  2.2776
 5096TIP3    H215246   7.004   2.088   0.170 -0.3091 -1.0683  0.3684
 5097TIP3   OH215247   0.868   2.618   5.761 -0.1457 -0.4813 -0.0618
 5097TIP3    H115248   0.818   2.662   5.693 -0.6278 -0.3438  0.3780
 5097TIP3    H215249   0.866   2.525   5.737 -2.4072 -0.7889  1.0423
 5098TIP3   OH215250   6.649   1.742   4.439 -0.1747  0.1834  0.2342
 5098TIP3    H115251   6.563   1.701   4.453 -0.7706  0.9907 -0.8055
 5098TIP3    H215252   6.633   1.835   4.452  0.8856  0.2307  1.3861
 5099TIP3   OH215253   0.058   5.454   4.889 -0.2400 -0.2054 -0.0582
 5099TIP3    H115254  -0.009   5.499   4.940 -0.7759  0.5216 -1.3582
 5099TIP3    H215255   0.009   5.397   4.830  0.3253 -0.4322 -0.3181
 5100TIP3   OH215256   8.210   4.591   3.043  0.1343 -0.4148  0.3611
 5100TIP3    H115257   8.233   4.507   3.003  0.2178 -1.1299  1.8598
 5100TIP3    H215258   8.183   4.569   3.132  1.9454  1.3407  1.4225
 5101TIP3   OH215259   1.805   7.513   5.165 -0.4185  0.2846 -0.1709
 5101TIP3    H115260   1.759   7.466   5.234 -3.0726  0.2361 -1.8227
 5101TIP3    H215261   1.863   7.448   5.126 -0.1269 -0.1239  0.8934
 5102TIP3   OH215262   3.025   2.247   1.224 -0.4654 -0.4217 -0.2518
 5102TIP3    H115263   3.036   2.158   1.190 -0.0441  0.2472 -1.9945
 5102TIP3    H215264   3.113   2.284   1.221 -0.5901 -0.0217  0.7291
 5103TIP3   OH215265   2.324   1.971   1.596 -0.5108 -0.4460 -0.1242
 5103TIP3    H115266   2.315   2.040   1.530  1.1027 -1.6776 -1.7282
 5103TIP3    H215267   2.369   1.900   1.550  1.0113 -1.2299  2.4133
 5104TIP3   OH215268   5.177   6.368   5.974  0.4087  0.1441  0.0495
 5104TIP3    H115269   5.085   6.375   6.001  0.3894  2.9211 -0.4505
 5104TIP3    H215270   5.226   6.405   6.047  1.2808 -2.1370  0.6981
 5105TIP3   OH215271   4.536   3.810   0.263 -0.2938 -0.2064  0.0997
 5105TIP3    H115272   4.495   3.888   0.225 -1.3213 -0.3955  0.7650
 5105TIP3    H215273   4.600   3.845   0.325  1.8479  0.1162 -2.1258
 5106TIP3   OH215274   6.018   0.272   4.534 -0.0906  0.1658 -1.2158
 5106TIP3    H115275   6.093   0.250   4.479 -0.1331  0.2278 -1.2987
 5106TIP3    H215276   5.997   0.362   4.511 -1.4061 -0.4492 -2.6119
 5107TIP3   OH215277   7.389   3.691   4.665 -0.3116  0.2503  0.0690
 5107TIP3    H115278   7.333   3.615   4.650 -0.8760  0.5663  0.5489
 5107TIP3    H215279   7.361   3.755   4.600 -0.1089  0.1902 -0.0758
 5108TIP3   OH215280   6.887   3.839   3.028  0.1370  0.0442 -0.2288
 5108TIP3    H115281   6.832   3.815   2.953  0.2184  0.6003 -0.4719
 5108TIP3    H215282   6.896   3.758   3.078 -0.6895 -0.1186 -0.3275
 5109TIP3   OH215283   5.889   3.848   5.544  0.0438  0.1307  0.1624
 5109TIP3    H115284   5.857   3.937   5.528  1.2852  0.1725 -2.6091
 5109TIP3    H215285   5.828   3.792   5.496  0.2382 -0.3542  0.4791
 5110TIP3   OH215286  -0.023   3.598   2.247  0.2478 -0.7074 -0.7479
 5110TIP3    H115287   0.059   3.549   2.240  1.1526  0.2635  1.7547
 5110TIP3    H215288  -0.019   3.662   2.176  1.9339 -0.3758 -0.3940
 5111TIP3   OH215289   0.252   3.455   3.198 -0.3049  0.1801 -0.5775
 5111TIP3    H115290   0.240   3.385   3.134 -1.2252 -0.4911  0.2853
 5111TIP3    H215291   0.238   3.536   3.149 -0.7295 -0.3042 -1.2797
 5112TIP3   OH215292   6.598   2.614   0.478  0.3176 -0.6793 -0.0915
 5112TIP3    H115293   6.589   2.709   0.475  0.4523 -0.6795 -0.5905
 5112TIP3    H215294   6.510   2.582   0.496  0.7406 -0.3451  3.0303
 5113TIP3   OH215295   0.481   2.372   1.730 -0.7813  0.4400  0.5254
 5113TIP3    H115296   0.397   2.415   1.714 -1.0666 -0.5519 -0.7467
 5113TIP3    H215297   0.498   2.320   1.651  0.8027  0.2470  0.9502
 5114TIP3   OH215298   1.834   3.413   4.472  0.7148 -0.4757 -0.5963
 5114TIP3    H115299   1.915   3.398   4.424 -0.1012 -2.1228 -1.5572
 5114TIP3    H215300   1.820   3.508   4.467  2.3076 -0.2283 -0.8100
 5115TIP3   OH215301   2.453   1.233   0.451 -0.4704  0.2070 -0.1252
 5115TIP3    H115302   2.375   1.217   0.504  0.6319 -1.6464  1.0676
 5115TIP3    H215303   2.455   1.159   0.389  0.9920 -0.5296  0.7461
 5116TIP3   OH215304   6.451   2.524   5.252 -0.2466 -0.0134  0.2171
 5116TIP3    H115305   6.461   2.435   5.285  1.0707  0.7980  2.2472
 5116TIP3    H215306   6.440   2.578   5.330 -0.7088  1.6579 -0.9306
 5117TIP3   OH215307   2.667   1.679   6.032 -0.2278 -0.1727 -0.4892
 5117TIP3    H115308   2.698   1.591   6.053 -1.3857 -0.5317 -0.2103
 5117TIP3    H215309   2.656   1.722   6.117  1.0868  0.5281 -0.6494
 5118TIP3   OH215310   0.520   6.915   1.818 -0.6965  0.5493 -0.3440
 5118TIP3    H115311   0.434   6.936   1.853 -0.7835 -0.9082  0.4024
 5118TIP3    H215312   0.580   6.974   1.865 -0.6779 -1.9900  3.2531
 5119TIP3   OH215313   8.009   6.281   1.788 -0.4231  0.0199  0.0260
 5119TIP3    H115314   7.924   6.237   1.787 -0.9728  0.9799  1.6150
 5119TIP3    H215315   7.993   6.365   1.831  1.7981 -0.8227  2.7727
 5120TIP3   OH215316   0.756   0.969   1.677 -0.2446  0.0509 -0.0679
 5120TIP3    H115317   0.775   0.918   1.756  0.1241  1.0149  0.4874
 5120TIP3    H215318   0.669   1.005   1.694  0.4699  1.5417  0.6285
 5121TIP3   OH215319   0.159   5.717   1.059  0.4643  0.1573 -0.0060
 5121TIP3    H115320   0.078   5.741   1.103  0.5552  2.0040 -0.7447
 5121TIP3    H215321   0.148   5.624   1.038 -0.7857 -0.0223  1.2720
 5122TIP3   OH215322   1.466   3.194   4.230 -0.0752 -0.2693 -0.2910
 5122TIP3    H115323   1.530   3.124   4.241 -0.5408 -0.5483  0.7861
 5122TIP3    H215324   1.461   3.236   4.316 -0.9612  0.0677 -0.4903
 5123TIP3   OH215325   5.352   1.581   2.251  0.0863  0.0914 -0.0983
 5123TIP3    H115326   5.340   1.673   2.273  1.0042  0.9297 -2.7130
 5123TIP3    H215327   5.423   1.551   2.309 -0.4569  0.8795  1.0141
 5124TIP3   OH215328   5.321   1.814   0.276  0.4564  0.2523  0.3261
 5124TIP3    H115329   5.320   1.721   0.299 -0.6134  0.0544 -0.4645
 5124TIP3    H215330   5.367   1.856   0.349  0.2909 -0.8015  1.0568
 5125TIP3   OH215331   0.791   3.224   4.262  0.1002 -0.1884  0.4614
 5125TIP3    H115332   0.768   3.135   4.234 -2.7559  0.6118 -0.0968
 5125TIP3    H215333   0.797   3.273   4.180 -2.5253  0.9329  0.8331
 5126TIP3   OH215334   7.837   0.126   1.836  0.2364  0.1663 -0.2782
 5126TIP3    H115335   7.898   0.199   1.829  0.4160  0.0127 -0.3228
 5126TIP3    H215336   7.760   0.163   1.880 -0.5987  0.9490 -2.2875
 5127TIP3   OH215337   5.061   1.254   1.964  0.1377 -0.4960 -0.0692
 5127TIP3    H115338   5.084   1.294   2.048 -0.1808 -0.0344 -0.1995
 5127TIP3    H215339   5.128   1.284   1.903 -0.5735  0.5368 -0.3606
 5128TIP3   OH215340   8.253   4.055   0.335 -0.0225  0.0659 -0.1256
 5128TIP3    H115341   8.163   4.089   0.332 -0.3409 -0.7908 -1.7072
 5128TIP3    H215342   8.252   3.991   0.406 -0.3887  0.7550  0.5011
 5129TIP3   OH215343   2.083   4.741   3.432 -0.6620 -0.3148 -0.3331
 5129TIP3    H115344   2.111   4.663   3.384 -0.1171 -1.6908  2.0076
 5129TIP3    H215345   1.991   4.752   3.410 -0.6882 -1.5046 -0.8899
 5130TIP3   OH215346   4.128   4.386   3.561  0.6138  0.0436  0.1430
 5130TIP3    H115347   4.139   4.477   3.588  0.4692 -0.1552  0.8988
 5130TIP3    H215348   4.211   4.344   3.585  0.6474 -0.0388 -0.1209
 5131TIP3   OH215349   6.140   4.563   1.300 -0.2670  0.1649  0.1112
 5131TIP3    H115350   6.231   4.564   1.331 -0.8014 -1.0276  1.9320
 5131TIP3    H215351   6.136   4.630   1.233  1.7588  0.8513  0.6153
 5132TIP3   OH215352   7.862   3.677   0.800 -0.4078  0.3762 -0.3733
 5132TIP3    H115353   7.882   3.584   0.801 -0.8028  0.2888 -0.3425
 5132TIP3    H215354   7.776   3.683   0.758 -1.9376  0.3852  2.4893
 5133TIP3   OH215355   5.266   0.281   0.820 -0.3206 -0.0594  0.4102
 5133TIP3    H115356   5.281   0.197   0.778 -1.9480 -1.3358  2.2286
 5133TIP3    H215357   5.208   0.328   0.760  0.7217 -0.1443 -0.6890
 5134TIP3   OH215358   2.879   5.194   5.581 -0.5829 -0.3299 -0.3287
 5134TIP3    H115359   2.947   5.236   5.528  0.0232  0.5511  1.0783
 5134TIP3    H215360   2.870   5.252   5.657 -2.6284 -0.6544 -0.2828
 5135TIP3   OH215361   1.170   5.079   2.667 -0.0949 -0.5623 -0.6016
 5135TIP3    H115362   1.101   5.033   2.714 -1.8355 -0.2875 -2.7110
 5135TIP3    H215363   1.143   5.171   2.669  1.8800  0.0683  1.1642
 5136TIP3   OH215364   4.001   6.273   0.571 -0.0990  0.5316  0.7128
 5136TIP3    H115365   4.092   6.245   0.562 -0.0565  1.1378 -1.4266
 5136TIP3    H215366   4.004   6.346   0.632  0.8627  0.5762  0.6237
 5137TIP3   OH215367   7.902   0.545   3.677  0.2056 -0.4022 -0.0177
 5137TIP3    H115368   7.933   0.563   3.588  1.4721 -3.1275 -0.2382
 5137TIP3    H215369   7.858   0.625   3.704 -1.3094  0.1129 -3.5376
 5138TIP3   OH215370   8.108   1.581   2.248 -0.0127  0.3291 -0.0710
 5138TIP3    H115371   8.105   1.663   2.298  0.5853  0.1102  0.3353
 5138TIP3    H215372   8.137   1.607   2.161  1.1456  0.4249  0.3351
 5139TIP3   OH215373   4.774   2.698   4.408 -0.3354 -0.1438  0.1192
 5139TIP3    H115374   4.794   2.627   4.346 -0.1898  1.3451 -1.6242
 5139TIP3    H215375   4.742   2.653   4.486 -1.2391 -2.1086 -1.2933
 5140TIP3   OH215376   3.736   5.359   2.440 -0.2726 -0.0015 -0.0735
 5140TIP3    H115377   3.738   5.264   2.433  0.5266 -0.3503  3.1548
 5140TIP3    H215378   3.647   5.383   2.415 -0.6898 -1.6719 -0.3172
 5141TIP3   OH215379   7.109   3.018   3.870 -0.6652  0.0880 -0.2198
 5141TIP3    H115380   7.194   3.020   3.827 -0.6305  0.4476 -0.1370
 5141TIP3    H215381   7.057   3.083   3.824 -0.5805  0.5804  0.3785
 5142TIP3   OH215382   2.999   6.352   3.250 -0.0586  0.3561  0.6059
 5142TIP3    H115383   3.036   6.440   3.249  0.2083  0.2450  0.4961
 5142TIP3    H215384   3.066   6.298   3.207 -1.5764  0.6378 -2.3506
 5143TIP3   OH215385   6.968   0.733   6.223 -0.4347 -0.1672  0.4177
 5143TIP3    H115386   6.961   0.772   6.136 -1.7228  0.9501  0.9898
 5143TIP3    H215387   7.050   0.767   6.258  0.7211 -1.5907 -0.7836
 5144TIP3   OH215388   5.050   7.399   2.009 -0.3795 -0.4923  0.0518
 5144TIP3    H115389   4.955   7.402   2.022 -0.6389 -1.2505 -1.5131
 5144TIP3    H215390   5.074   7.490   1.990 -0.7759 -0.2822  0.5350
 5145TIP3   OH215391   1.423   2.408   5.736  0.0316 -0.3237 -0.2666
 5145TIP3    H115392   1.469   2.397   5.819 -1.3143 -2.6843  0.2579
 5145TIP3    H215393   1.484   2.373   5.670  0.5390  0.2382 -0.1024
 5146TIP3   OH215394   1.519   6.868   6.291 -0.2461  0.1492  0.5906
 5146TIP3    H115395   1.553   6.817   6.363 -3.5452 -1.0660  1.4716
 5146TIP3    H215396   1.522   6.809   6.215 -0.9972 -0.2223  0.8401
 5147TIP3   OH215397   7.359   1.092   6.675  0.4011  0.2615  0.9658
 5147TIP3    H115398   7.442   1.047   6.691  0.6541  0.8524  1.3455
 5147TIP3    H215399   7.348   1.151   6.750 -0.8027 -0.4366  1.3616
 5148TIP3   OH215400   1.134   2.468   6.701 -0.8829  0.4732 -0.2194
 5148TIP3    H115401   1.175   2.541   6.654  0.4073  0.0078  0.1563
 5148TIP3    H215402   1.085   2.421   6.633  1.7341 -0.7604 -1.4018
 5149TIP3   OH215403   3.248   0.593   6.064 -0.4584 -0.0423 -0.5949
 5149TIP3    H115404   3.195   0.628   5.992 -0.9939 -0.5241 -0.4470
 5149TIP3    H215405   3.290   0.670   6.103 -1.4556  0.4176 -0.3959
 5150TIP3   OH215406   6.352   2.509   5.793  0.0564 -0.0502 -0.4762
 5150TIP3    H115407   6.348   2.552   5.707 -0.0944 -1.0441 -0.9867
 5150TIP3    H215408   6.427   2.549   5.837  1.1205 -0.6186 -1.6990
 5151TIP3   OH215409   0.668   0.629   5.252 -0.4026 -0.4759 -0.5031
 5151TIP3    H115410   0.590   0.595   5.295 -0.8589  2.5461  1.3713
 5151TIP3    H215411   0.741   0.596   5.304 -0.6627 -0.6870 -0.2716
 5152TIP3   OH215412   0.037   6.939   5.329  0.0510 -0.2637  0.3255
 5152TIP3    H115413   0.075   6.883   5.261  0.8920 -0.9362  1.3190
 5152TIP3    H215414   0.086   7.021   5.323  0.9719 -0.7490  0.8904
 5153TIP3   OH215415   6.538   0.082   0.181 -0.2312  0.4203  0.8061
 5153TIP3    H115416   6.523   0.093   0.275 -0.9772 -0.7011  0.8371
 5153TIP3    H215417   6.493   0.157   0.141 -2.9877 -0.9272  1.1456
 5154TIP3   OH215418   4.537   0.500   6.576 -0.1004  0.4026 -0.1118
 5154TIP3    H115419   4.536   0.537   6.488  0.2045  0.3917 -0.1216
 5154TIP3    H215420   4.591   0.559   6.627 -0.9935  0.8885  0.2913
 5155TIP3   OH215421   0.857   3.769   2.800 -0.0975  0.2478 -0.2028
 5155TIP3    H115422   0.817   3.849   2.833 -3.8692 -1.3474 -0.4747
 5155TIP3    H215423   0.806   3.698   2.838  0.0287 -1.9007 -3.5760
 5156TIP3   OH215424   4.710   7.739   6.585 -0.0027 -0.5346 -0.2060
 5156TIP3    H115425   4.630   7.785   6.560  0.8538  0.5174 -1.1210
 5156TIP3    H215426   4.761   7.734   6.505  1.7457  0.7148  0.7509
 5157TIP3   OH215427   5.800   0.199   0.546  0.5646 -0.0831 -0.1729
 5157TIP3    H115428   5.749   0.270   0.506 -0.4185 -0.9370 -0.4784
 5157TIP3    H215429   5.735   0.138   0.579  1.3830 -0.2773  1.1793
 5158TIP3   OH215430   1.698   6.410   5.198 -0.0772 -0.0675 -0.1764
 5158TIP3    H115431   1.643   6.488   5.188 -1.4593 -1.0563 -0.4353
 5158TIP3    H215432   1.749   6.407   5.117 -2.1338 -1.0215 -1.5027
 5159TIP3   OH215433   8.072   5.636   2.219  0.9969 -0.0140  0.1877
 5159TIP3    H115434   7.987   5.663   2.252  1.4847 -0.3207  1.7393
 5159TIP3    H215435   8.070   5.540   2.221  0.5261 -0.1148 -2.0783
 5160TIP3   OH215436   4.906   6.408   3.036  0.2524 -0.1532 -0.5659
 5160TIP3    H115437   4.823   6.454   3.021  0.3208 -0.4787 -2.0942
 5160TIP3    H215438   4.909   6.341   2.968  1.5127 -0.5295 -0.1676
 5161TIP3   OH215439   3.782   6.851   2.575  0.4931 -0.0470 -0.0878
 5161TIP3    H115440   3.817   6.805   2.499 -0.3059 -1.6470  0.4737
 5161TIP3    H215441   3.857   6.859   2.634  0.1427 -2.9678  0.8801
 5162TIP3   OH215442   6.895   1.113   5.782 -0.0863  0.6145 -0.3380
 5162TIP3    H115443   6.829   1.170   5.744  0.3995  1.6643  0.3494
 5162TIP3    H215444   6.974   1.130   5.731 -0.2632 -0.4347 -0.9835
 5163TIP3   OH215445   3.743   5.035   5.275  0.3290 -0.4405  0.1189
 5163TIP3    H115446   3.693   5.071   5.348 -0.0059  0.1022 -0.3644
 5163TIP3    H215447   3.831   5.070   5.286 -0.0471  0.7357 -0.4673
 5164TIP3   OH215448   4.400   4.433   1.579  0.4765  0.4830  0.3559
 5164TIP3    H115449   4.335   4.365   1.596  0.1646  0.9372  1.0749
 5164TIP3    H215450   4.474   4.387   1.539 -0.4540  0.0317 -0.9057
 5165TIP3   OH215451   2.384   7.495   0.346  0.0718  0.3674 -0.6151
 5165TIP3    H115452   2.406   7.579   0.386 -1.1143  0.6235 -0.4730
 5165TIP3    H215453   2.407   7.430   0.412  0.8681  0.5819 -0.6740
 5166TIP3   OH215454   4.231   3.083   2.038 -0.2820 -0.3509  0.1803
 5166TIP3    H115455   4.296   3.042   1.981  0.4133 -0.6671  1.1693
 5166TIP3    H215456   4.284   3.130   2.103 -1.0596  0.7377  0.0412
 5167TIP3   OH215457   3.084   6.415   4.545 -0.2098  0.5078  0.3009
 5167TIP3    H115458   3.120   6.485   4.490  0.6737  0.4166  0.7414
 5167TIP3    H215459   3.023   6.460   4.604 -1.7488  0.5039 -1.2105
 5168TIP3   OH215460   0.489   0.313   0.445 -0.5921  0.1464 -0.0021
 5168TIP3    H115461   0.569   0.280   0.486 -0.0160  1.3583 -0.1049
 5168TIP3    H215462   0.480   0.402   0.479 -1.9636 -0.0068  0.0934
 5169TIP3   OH215463   3.456   5.213   4.587  0.2800  0.2629 -0.7592
 5169TIP3    H115464   3.426   5.303   4.580 -0.7834 -0.0438 -0.2450
 5169TIP3    H215465   3.390   5.169   4.640  0.8203 -0.8078 -0.9425
 5170TIP3   OH215466   7.928   4.812   4.167  0.6054  0.3259  0.0835
 5170TIP3    H115467   8.006   4.855   4.201  1.1896  0.8147 -1.7665
 5170TIP3    H215468   7.913   4.853   4.082 -0.1640 -1.5493 -0.7309
 5171TIP3   OH215469   3.961   5.128   1.080  0.3298 -0.2367 -0.4532
 5171TIP3    H115470   3.947   5.037   1.107 -1.1836  0.0729 -0.1282
 5171TIP3    H215471   3.964   5.123   0.984 -0.4823 -0.5523 -0.4736
 5172TIP3   OH215472   6.596   0.450   4.246  0.6984  0.4616 -0.2510
 5172TIP3    H115473   6.513   0.421   4.282 -0.3290  0.8660 -2.1593
 5172TIP3    H215474   6.662   0.398   4.292 -0.6817 -0.8017  0.3820
 5173TIP3   OH215475   2.944   4.893   3.300  0.1565  0.5606  0.0742
 5173TIP3    H115476   2.973   4.804   3.282  1.3944  1.1841 -1.2432
 5173TIP3    H215477   3.024   4.940   3.323 -0.7702  0.8461  3.1929
 5174TIP3   OH215478   6.209   1.181   6.247  0.4147  0.2362  0.0184
 5174TIP3    H115479   6.238   1.183   6.338  2.1636  2.0887 -0.5293
 5174TIP3    H215480   6.274   1.127   6.202 -1.0186 -1.5638 -0.0133
 5175TIP3   OH215481   3.110   3.622   4.521 -0.1846 -0.5496 -0.2671
 5175TIP3    H115482   3.177   3.628   4.590 -0.1945  1.2266 -0.3597
 5175TIP3    H215483   3.029   3.647   4.564 -0.3430 -0.2828 -0.7123
 5176TIP3   OH215484   7.891   6.901   3.190  0.2398  0.0571  0.2905
 5176TIP3    H115485   7.887   6.985   3.145 -0.7974 -1.2830 -2.3136
 5176TIP3    H215486   7.941   6.845   3.132  1.1830 -1.0998  2.1269
 5177TIP3   OH215487   7.923   5.374   4.395 -0.5378  0.2628  0.0242
 5177TIP3    H115488   7.981   5.408   4.463  0.1297  0.2755 -0.5429
 5177TIP3    H215489   7.948   5.422   4.316 -0.5983 -0.4826 -0.4589
 5178TIP3   OH215490   8.216   2.021   3.140 -0.6843  0.0929  0.3377
 5178TIP3    H115491   8.230   2.091   3.076  2.8958  0.9142  1.7735
 5178TIP3    H215492   8.188   1.946   3.088  2.5997  0.5262 -2.4329
 5179TIP3   OH215493   6.447   5.859   2.637 -0.1410  0.1327  0.0970
 5179TIP3    H115494   6.449   5.778   2.586  0.2394  0.1655  0.0603
 5179TIP3    H215495   6.448   5.929   2.572 -0.4358  0.1718  0.1297
 5180TIP3   OH215496   3.362   0.291   3.594  0.6118  0.5157  0.2028
 5180TIP3    H115497   3.429   0.326   3.535 -0.2560  0.0300 -1.1193
 5180TIP3    H215498   3.350   0.358   3.661  1.0369  1.4568 -0.6458
 5181TIP3   OH215499   2.785   3.273   2.510 -0.0633 -0.1415  0.1427
 5181TIP3    H115500   2.844   3.348   2.505 -0.9098  0.5788  0.6149
 5181TIP3    H215501   2.698   3.311   2.498 -0.6775 -0.7813  2.1776
 5182TIP3   OH215502   1.556   1.271   5.666  0.1545  0.0162 -0.4302
 5182TIP3    H115503   1.463   1.296   5.660  0.1757 -0.1911 -2.6604
 5182TIP3    H215504   1.577   1.277   5.759 -2.0133  0.3676  0.0881
 5183TIP3   OH215505   6.562   6.333   5.457  0.6173  0.1768 -0.1786
 5183TIP3    H115506   6.536   6.418   5.492 -0.4153 -0.5135  0.8097
 5183TIP3    H215507   6.541   6.271   5.527  0.1651 -1.0406 -1.3523
 5184TIP3   OH215508   7.984   2.279   1.973 -0.6649 -0.3078  0.5431
 5184TIP3    H115509   7.950   2.331   2.045 -0.8396  0.5454 -0.1350
 5184TIP3    H215510   8.074   2.307   1.963 -1.4722  1.8882 -1.5238
 5185TIP3   OH215511   3.046   4.908   3.022  0.3946  0.1715 -0.0149
 5185TIP3    H115512   2.987   4.840   3.053  3.0149 -2.3661 -0.2352
 5185TIP3    H215513   3.083   4.946   3.102  1.7055 -1.3242  0.1306
 5186TIP3   OH215514   2.447   0.928   4.362 -0.8770 -0.5072 -0.4918
 5186TIP3    H115515   2.380   0.996   4.373  1.1330  1.5243  0.1744
 5186TIP3    H215516   2.445   0.878   4.443 -1.5551 -0.4221 -0.4569
 5187TIP3   OH215517   4.923   0.829   3.217 -0.0233 -0.5933 -0.2379
 5187TIP3    H115518   5.003   0.867   3.179  0.5336 -1.4174  0.0806
 5187TIP3    H215519   4.870   0.807   3.141 -0.4323  0.9246 -0.4328
 5188TIP3   OH215520   6.418   1.877   0.593  0.2646 -0.0984  0.0272
 5188TIP3    H115521   6.346   1.845   0.538 -0.5014  1.6060 -0.0271
 5188TIP3    H215522   6.482   1.911   0.532  1.2984 -1.8555  0.0643
 5189TIP3   OH215523   3.528   0.736   0.944 -0.3729 -0.4686  0.2363
 5189TIP3    H115524   3.468   0.770   0.877  0.2699 -1.5493 -0.9331
 5189TIP3    H215525   3.486   0.756   1.027 -1.4102  0.5235 -0.5010
 5190TIP3   OH215526   2.353   4.740   2.255 -0.1859  0.5310 -0.4581
 5190TIP3    H115527   2.260   4.752   2.236 -0.8097 -1.7110  0.7753
 5190TIP3    H215528   2.365   4.781   2.341 -0.3449 -0.2165 -0.0701
 5191TIP3   OH215529   2.974   3.967   4.127 -0.0284 -0.3078 -0.0833
 5191TIP3    H115530   2.888   3.930   4.110 -2.5449  4.7159 -0.3141
 5191TIP3    H215531   3.021   3.957   4.044 -0.7933 -2.0053 -0.3539
 5192TIP3   OH215532   6.854   0.544   0.257 -0.4072 -0.5491  0.0696
 5192TIP3    H115533   6.770   0.553   0.212 -1.0721  0.3133  1.3969
 5192TIP3    H215534   6.831   0.531   0.349  0.8973  0.9888  0.6691
 5193TIP3   OH215535   4.319   2.980   0.490  0.6235  0.0330 -0.3391
 5193TIP3    H115536   4.297   2.975   0.397  1.2798 -3.3228 -0.4413
 5193TIP3    H215537   4.237   2.959   0.535  0.9251 -1.2480 -0.3309
 5194TIP3   OH215538   1.305   7.532   4.582  0.2705  0.4287  0.1616
 5194TIP3    H115539   1.390   7.495   4.606  1.0377  1.8210 -0.2999
 5194TIP3    H215540   1.281   7.485   4.502 -0.1156 -0.9795  1.0526
 5195TIP3   OH215541   5.391   4.012   6.431  0.1044 -0.2575  0.2241
 5195TIP3    H115542   5.302   4.047   6.440 -0.2190 -1.0734  0.3139
 5195TIP3    H215543   5.421   4.045   6.346  0.3543  1.3810  0.9192
 5196TIP3   OH215544   7.923   6.885   5.491  0.4303  0.1514  0.0191
 5196TIP3    H115545   7.906   6.825   5.564 -0.7102  0.2055 -0.1800
 5196TIP3    H215546   7.841   6.886   5.441  0.1411  2.4390  0.4191
 5197TIP3   OH215547   5.737   3.005   1.866 -0.3432 -0.0023  0.2752
 5197TIP3    H115548   5.703   3.080   1.817  0.9075  1.0375  0.9263
 5197TIP3    H215549   5.679   2.998   1.942 -2.5365 -1.8683 -1.4056
 5198TIP3   OH215550   7.807   7.286   0.180 -0.1884 -0.1119  0.0310
 5198TIP3    H115551   7.883   7.320   0.133 -0.1834 -0.2153 -0.0364
 5198TIP3    H215552   7.830   7.293   0.272  0.5052 -1.5160 -0.0062
 5199TIP3   OH215553   3.181   0.220   3.411 -0.4013 -0.9695  0.9875
 5199TIP3    H115554   3.249   0.239   3.346 -0.9810 -2.3789 -0.0649
 5199TIP3    H215555   3.224   0.237   3.495  1.0558 -1.2257  0.3255
 5200TIP3   OH215556   7.277   6.644   4.577 -0.3055  0.7749  0.8249
 5200TIP3    H115557   7.229   6.623   4.657  1.5248  0.1518  1.7996
 5200TIP3    H215558   7.287   6.560   4.532 -0.2131  0.9232  0.5631
 5201TIP3   OH215559   6.016   5.951   2.012 -0.1063  0.1224  0.2127
 5201TIP3    H115560   6.024   6.046   2.013 -0.1931  0.1632 -1.3284
 5201TIP3    H215561   5.972   5.931   1.929 -0.1516 -1.2579  0.5448
 5202TIP3   OH215562   1.495   3.980   6.097  0.3984  0.4664  0.2972
 5202TIP3    H115563   1.430   3.948   6.034  0.8004 -0.0880  0.1573
 5202TIP3    H215564   1.578   3.974   6.050  0.5394  1.3767  0.3997
 5203TIP3   OH215565   4.134   0.954   4.187  0.2287  0.9113 -0.0823
 5203TIP3    H115566   4.192   1.030   4.181  0.4430  0.6588 -1.8681
 5203TIP3    H215567   4.175   0.889   4.130 -0.0710 -0.4897  1.2352
 5204TIP3   OH215568   4.914   7.332   4.102  0.2040  0.5311  0.1555
 5204TIP3    H115569   4.991   7.279   4.085 -0.3366 -0.2734  0.1765
 5204TIP3    H215570   4.846   7.296   4.046 -0.3206  0.8539  0.5687
 5205TIP3   OH215571   1.637   2.763   2.523  0.4497  0.3026 -0.0711
 5205TIP3    H115572   1.729   2.739   2.518  0.0757 -1.0538 -1.1919
 5205TIP3    H215573   1.596   2.696   2.577 -0.0313  0.3991 -0.3048
 5206TIP3   OH215574   5.024   6.735   2.160 -0.4692  0.0117 -0.3527
 5206TIP3    H115575   5.070   6.707   2.080  1.2543 -2.0487  1.2107
 5206TIP3    H215576   5.063   6.820   2.182  1.2041 -0.7421 -0.2047
 5207TIP3   OH215577   8.243   2.861   2.935 -0.6664 -0.3711  0.6910
 5207TIP3    H115578   8.299   2.797   2.979  0.0366 -0.1580  0.1150
 5207TIP3    H215579   8.290   2.883   2.854 -1.3827  0.1197  0.4014
 5208TIP3   OH215580   6.632   5.666   6.232  0.3227  0.5468  0.5684
 5208TIP3    H115581   6.670   5.625   6.310  1.4229  0.8889  0.2234
 5208TIP3    H215582   6.705   5.678   6.172 -0.5567  0.0186 -0.6624
 5209TIP3   OH215583   2.139   0.978   4.634 -0.1740  0.1477  0.1290
 5209TIP3    H115584   2.094   0.961   4.717  0.1621 -1.8286 -0.0441
 5209TIP3    H215585   2.232   0.965   4.655 -0.0291  0.3456 -0.3936
 5210TIP3   OH215586   0.969   3.910   3.651  0.3199 -0.1346  0.1575
 5210TIP3    H115587   0.953   3.911   3.746 -0.3151  0.0466  0.0536
 5210TIP3    H215588   1.064   3.904   3.643  0.4692  0.9683  0.8272
 5211TIP3   OH215589   1.901   0.274   4.515  0.0195  0.1280  0.4597
 5211TIP3    H115590   1.816   0.315   4.524 -0.8439 -1.7282  1.3533
 5211TIP3    H215591   1.926   0.289   4.424 -0.4839  2.0563  0.5977
 5212TIP3   OH215592   0.663   0.248   4.178 -0.6897 -0.2264  0.0229
 5212TIP3    H115593   0.737   0.291   4.135 -1.7728  1.0695 -0.6429
 5212TIP3    H215594   0.615   0.319   4.220 -1.0212 -1.1717  1.3103
 5213TIP3   OH215595   3.831   5.883   3.547  0.2553  0.4894 -0.2156
 5213TIP3    H115596   3.857   5.969   3.580  1.2517 -0.2513  1.0438
 5213TIP3    H215597   3.758   5.857   3.603 -0.4188  0.7447 -0.9637
 5214TIP3   OH215598   1.186   3.583   5.953 -0.5236 -0.1474 -0.8472
 5214TIP3    H115599   1.151   3.577   6.042 -1.3262  1.2859 -1.0446
 5214TIP3    H215600   1.279   3.601   5.966 -0.6338  0.0519 -0.3061
 5215TIP3   OH215601   5.883   1.119   5.453  0.6487  0.0346 -0.0395
 5215TIP3    H115602   5.941   1.045   5.471 -0.3208 -0.4229  1.3362
 5215TIP3    H215603   5.896   1.137   5.360  1.2409 -1.5772 -0.3030
 5216TIP3   OH215604   7.053   2.062   1.518 -0.1843  0.1592 -0.3158
 5216TIP3    H115605   6.992   1.989   1.518 -1.8471  1.3341  2.7028
 5216TIP3    H215606   7.125   2.034   1.575  0.5865 -0.0993 -1.3936
 5217TIP3   OH215607   1.961   3.747   4.558  0.0535 -0.1603 -0.1013
 5217TIP3    H115608   1.890   3.732   4.496  0.1749  0.7961 -0.4821
 5217TIP3    H215609   2.016   3.813   4.516  0.5120 -0.0121  0.7182
 5218TIP3   OH215610   2.447   7.710   5.479 -0.3018  0.4642 -0.0150
 5218TIP3    H115611   2.385   7.771   5.439  1.5627  2.1084 -0.5239
 5218TIP3    H215612   2.489   7.667   5.405  0.6469  0.8982  0.2673
 5219TIP3   OH215613   2.224   1.843   6.054  0.4518 -0.5853 -0.6218
 5219TIP3    H115614   2.254   1.852   6.145  0.7118 -2.0477 -0.5420
 5219TIP3    H215615   2.304   1.820   6.005  0.9195  2.9206 -1.7682
 5220TIP3   OH215616   4.704   6.270   5.990  0.0765  0.0516 -0.1213
 5220TIP3    H115617   4.618   6.265   5.948 -0.2274  1.3740  0.3026
 5220TIP3    H215618   4.685   6.274   6.084  0.4821  2.0215 -0.0863
 5221TIP3   OH215619   0.791   1.797   4.321 -0.5768  0.5367  0.0310
 5221TIP3    H115620   0.709   1.834   4.355 -0.9800  0.3233 -0.6943
 5221TIP3    H215621   0.845   1.873   4.300 -0.4491  0.6783  0.8119
 5222TIP3   OH215622   2.114   5.945   2.378  0.4141  0.0066  0.0119
 5222TIP3    H115623   2.073   5.938   2.292 -0.4236  0.2808  0.3780
 5222TIP3    H215624   2.153   6.032   2.379  0.6614 -0.0992 -0.1839
 5223TIP3   OH215625   0.797   2.750   0.208  0.1378  0.2148 -0.3756
 5223TIP3    H115626   0.781   2.722   0.118 -1.2903 -1.2081  0.2803
 5223TIP3    H215627   0.860   2.686   0.241 -0.9352 -0.5293  0.2569
 5224TIP3   OH215628   6.102   4.344   2.300  0.6637  0.4195  0.3579
 5224TIP3    H115629   6.044   4.279   2.260 -0.6121  0.5311  1.9024
 5224TIP3    H215630   6.181   4.342   2.247  0.2562 -1.6312 -0.2483
 5225TIP3   OH215631   6.862   2.500   0.806 -0.1955  0.1992 -0.3167
 5225TIP3    H115632   6.866   2.553   0.726  1.0311  0.7071  0.0523
 5225TIP3    H215633   6.831   2.561   0.873  0.8041  0.3734  0.0163
 5226TIP3   OH215634   1.425   2.984   3.504  0.3110  0.1207 -0.0819
 5226TIP3    H115635   1.385   2.980   3.591 -2.7485  1.5742 -1.2660
 5226TIP3    H215636   1.492   3.052   3.511  1.5555 -1.1859  1.5633
 5227TIP3   OH215637   0.013   1.697   5.644  0.3862 -0.3186  0.1550
 5227TIP3    H115638   0.023   1.604   5.628  1.0198 -0.1460 -0.5360
 5227TIP3    H215639  -0.032   1.730   5.566 -0.4921 -0.1604  0.7194
 5228TIP3   OH215640   7.315   4.128   4.407  0.0874  0.4215 -0.3118
 5228TIP3    H115641   7.318   4.175   4.324  0.0884 -0.7700 -1.0140
 5228TIP3    H215642   7.223   4.131   4.433 -0.1678 -0.3393 -1.0616
 5229TIP3   OH215643   3.152   7.199   3.143  0.1428 -0.0227  0.2938
 5229TIP3    H115644   3.181   7.203   3.234  2.0276  0.9898 -0.3055
 5229TIP3    H215645   3.120   7.110   3.131  0.0917 -0.2334  1.8693
 5230TIP3   OH215646   7.281   4.304   2.047 -0.1860  0.0237 -0.0100
 5230TIP3    H115647   7.305   4.345   1.964 -0.5033  1.1469  0.4426
 5230TIP3    H215648   7.314   4.363   2.115  1.9847 -1.9107  0.7713
 5231TIP3   OH215649   2.182   3.307   5.576  0.5375  0.0960 -0.4395
 5231TIP3    H115650   2.190   3.253   5.497 -0.0399 -1.0585  0.2635
 5231TIP3    H215651   2.253   3.277   5.633  0.7054  0.6435 -0.3557
 5232TIP3   OH215652   0.402   5.775   4.010 -0.0285 -0.1573  0.0544
 5232TIP3    H115653   0.495   5.795   3.997 -0.4012  0.7961 -1.5350
 5232TIP3    H215654   0.389   5.777   4.105  1.6317 -0.6550  0.3177
 5233TIP3   OH215655   6.586   1.581   1.380 -0.0117  0.4536  0.1582
 5233TIP3    H115656   6.519   1.627   1.432 -2.7044 -1.9035 -0.9459
 5233TIP3    H215657   6.610   1.642   1.311 -1.0871  1.3663  0.5711
 5234TIP3   OH215658   3.992   2.165   6.595 -0.5505  0.5751  0.1637
 5234TIP3    H115659   3.951   2.245   6.628 -0.0829  0.5337  0.8691
 5234TIP3    H215660   4.071   2.196   6.551 -2.0668  0.8123 -2.5935
 5235TIP3   OH215661   1.791   4.849   1.423 -0.1958 -0.3362  0.2769
 5235TIP3    H115662   1.782   4.939   1.393 -1.7703 -0.7061 -0.5188
 5235TIP3    H215663   1.797   4.856   1.519 -2.2869  0.5684  0.4128
 5236TIP3   OH215664   1.526   2.745   4.066 -0.5064 -0.0809 -0.0766
 5236TIP3    H115665   1.578   2.743   4.146 -0.9469  0.5277  0.2343
 5236TIP3    H215666   1.436   2.763   4.095 -0.6504  0.2932 -0.7064
 5237TIP3   OH215667   1.576   0.615   0.194 -0.0583  0.0822  0.1208
 5237TIP3    H115668   1.504   0.552   0.187 -0.0577  0.2162 -1.5586
 5237TIP3    H215669   1.533   0.700   0.186  0.1255  0.2426  0.7669
 5238TIP3   OH215670   4.076   6.702   5.466 -0.0754  0.4339  0.3919
 5238TIP3    H115671   4.136   6.773   5.442 -1.5389  1.8512  0.7757
 5238TIP3    H215672   4.053   6.719   5.557 -2.1762  0.8050 -0.1544
 5239TIP3   OH215673   7.603   1.543   5.946  0.5594  0.2994 -0.2220
 5239TIP3    H115674   7.641   1.556   5.859 -1.5400 -0.5390 -1.3465
 5239TIP3    H215675   7.600   1.630   5.985 -1.3731  1.3052 -2.3484
 5240TIP3   OH215676   6.294   2.413   2.363 -0.2946 -0.4765  0.0170
 5240TIP3    H115677   6.346   2.383   2.288 -0.4158  0.0111 -0.2710
 5240TIP3    H215678   6.319   2.354   2.435 -0.3818 -1.1197 -0.4740
 5241TIP3   OH215679   5.979   2.222   0.851 -0.3877 -0.0669  0.0504
 5241TIP3    H115680   6.050   2.266   0.897 -1.8466  2.6492 -0.0951
 5241TIP3    H215681   5.900   2.268   0.878 -1.9719 -2.0824 -0.8528
 5242TIP3   OH215682   3.413   5.026   6.577  0.6240 -0.3984 -0.3828
 5242TIP3    H115683   3.359   5.006   6.654 -0.1851  1.6715 -0.3357
 5242TIP3    H215684   3.486   4.964   6.581 -1.1124 -2.5465  0.1997
 5243TIP3   OH215685   6.672   4.742   4.833  0.1175 -0.0375  0.2712
 5243TIP3    H115686   6.767   4.749   4.840  0.6224 -1.7088 -2.9010
 5243TIP3    H215687   6.653   4.650   4.853 -0.5015 -0.2396 -1.0854
 5244TIP3   OH215688   5.069   3.133   0.278 -0.3325 -0.0501  0.3925
 5244TIP3    H115689   5.053   3.183   0.198 -0.7727 -0.0306  0.4903
 5244TIP3    H215690   5.142   3.077   0.256 -0.9255 -0.5865 -0.2750
 5245TIP3   OH215691   0.734   3.691   2.253  0.4040  0.0228  0.1327
 5245TIP3    H115692   0.823   3.725   2.263  1.1945 -1.7390 -0.6018
 5245TIP3    H215693   0.703   3.679   2.343  1.2470 -0.1878  0.4066
 5246TIP3   OH215694   0.674   6.443   5.502  0.8431 -0.2264 -0.6711
 5246TIP3    H115695   0.609   6.426   5.434  0.7338 -0.2716 -0.5561
 5246TIP3    H215696   0.633   6.411   5.582  0.6055  0.6489 -0.4348
 5247TIP3   OH215697   7.419   4.480   2.227  0.3887  0.1228  0.0202
 5247TIP3    H115698   7.511   4.505   2.230  0.4144  0.2011 -1.2010
 5247TIP3    H215699   7.373   4.553   2.270  0.8583  0.2120  0.3749
 5248TIP3   OH215700   7.214   0.228   4.114 -0.4915  0.3605  0.4689
 5248TIP3    H115701   7.256   0.253   4.197 -1.5181  0.7199  0.9039
 5248TIP3    H215702   7.244   0.139   4.098  2.3105  1.3983 -0.4937
 5249TIP3   OH215703   2.471   0.628   1.416 -0.6829 -0.0293 -0.0394
 5249TIP3    H115704   2.395   0.668   1.375  0.8114  0.0406 -3.0126
 5249TIP3    H215705   2.524   0.596   1.343  3.0178  1.5060  1.6927
 5250TIP3   OH215706   7.047   5.138   1.439 -0.2393 -0.1910  0.3233
 5250TIP3    H115707   7.053   5.047   1.466 -0.9718 -1.9398 -4.4194
 5250TIP3    H215708   7.137   5.171   1.446  0.6126 -2.2111 -0.3640
 5251TIP3   OH215709   1.231   2.699   6.606  0.6546 -0.3710 -0.3804
 5251TIP3    H115710   1.300   2.716   6.542  0.6872  0.6882 -0.0762
 5251TIP3    H215711   1.261   2.744   6.685  0.4478 -1.3751  0.2843
 5252TIP3   OH215712   6.356   2.444   4.672 -0.0311  0.4763 -0.1441
 5252TIP3    H115713   6.262   2.444   4.691  0.1651 -0.3030  0.9227
 5252TIP3    H215714   6.383   2.535   4.685 -0.5189  0.5813  0.1625
 5253TIP3   OH215715   0.833   2.330   5.716  0.4462 -0.1525  0.4168
 5253TIP3    H115716   0.741   2.314   5.695  0.6179 -2.6403  1.2221
 5253TIP3    H215717   0.873   2.355   5.632 -0.7195 -0.2946 -0.1931
 5254TIP3   OH215718   3.910   5.986   2.782  0.5923 -0.4116 -0.0159
 5254TIP3    H115719   3.823   5.977   2.821  0.8219 -0.7816  0.4166
 5254TIP3    H215720   3.931   5.898   2.751  0.7648 -0.2961 -0.2248
 5255TIP3   OH215721   6.874   1.847   1.444 -0.3497 -0.2016 -0.1691
 5255TIP3    H115722   6.854   1.767   1.394  1.2135 -0.5659 -0.2676
 5255TIP3    H215723   6.888   1.914   1.377 -0.8781 -0.0427 -0.1185
 5256TIP3   OH215724   1.418   4.710   4.199  0.0521 -0.5543  0.1526
 5256TIP3    H115725   1.341   4.744   4.153  1.0847 -2.3895 -3.2589
 5256TIP3    H215726   1.405   4.616   4.202  0.0961 -0.5593  3.8296
 5257TIP3   OH215727   4.481   4.378   6.640 -0.2574  0.1005 -0.1401
 5257TIP3    H115728   4.553   4.353   6.581 -0.5553 -0.6053 -0.2165
 5257TIP3    H215729   4.433   4.446   6.592  0.1359  0.3008 -0.2498
 5258TIP3   OH215730   0.549   3.280   2.176 -0.4567 -0.0662 -0.3795
 5258TIP3    H115731   0.601   3.206   2.206  0.7186  1.2514  1.0150
 5258TIP3    H215732   0.462   3.243   2.158 -0.1789 -1.6161  1.1975
 5259TIP3   OH215733   5.674   0.726   0.131  0.3325 -1.0607 -0.0050
 5259TIP3    H115734   5.671   0.634   0.155 -0.1264 -0.2993  3.2409
 5259TIP3    H215735   5.584   0.756   0.138  0.9481  0.4840  3.2627
 5260TIP3   OH215736   5.058   6.983   2.890  0.2095  0.3682 -0.7057
 5260TIP3    H115737   5.070   7.073   2.919 -0.4359 -0.1851  1.4827
 5260TIP3    H215738   4.992   6.947   2.949 -1.7325 -0.7473 -3.3213
 5261TIP3   OH215739   5.736   6.805   4.017  0.6357  0.0645  0.1954
 5261TIP3    H115740   5.768   6.826   4.105  1.0883  1.7776 -0.3413
 5261TIP3    H215741   5.653   6.760   4.032  1.1115 -0.4431  1.5004
 5262TIP3   OH215742   0.485   4.885   1.305  0.1667  0.1541 -0.0788
 5262TIP3    H115743   0.404   4.837   1.324 -0.1464  0.9623  0.7508
 5262TIP3    H215744   0.476   4.915   1.215 -0.1900 -0.2665 -0.1833
 5263TIP3   OH215745   2.818   3.648   2.755 -0.2035 -0.4908  0.1187
 5263TIP3    H115746   2.889   3.633   2.693 -1.1471 -3.2496 -0.4157
 5263TIP3    H215747   2.808   3.743   2.757  3.6990  0.0485  0.5273
 5264TIP3   OH215748   2.102   4.463   3.942  0.3817 -0.1174  0.3944
 5264TIP3    H115749   2.179   4.518   3.934  0.0850  0.1452 -0.9116
 5264TIP3    H215750   2.029   4.519   3.914 -0.0990 -0.7744  0.2987
 5265TIP3   OH215751   4.481   2.086   6.321 -0.0656 -0.3862  0.4740
 5265TIP3    H115752   4.463   2.065   6.413 -0.8346 -2.0491 -0.0063
 5265TIP3    H215753   4.543   2.018   6.293 -0.7689 -0.6298 -0.5498
 5266TIP3   OH215754   5.632   5.666   4.665  0.2117  0.0039 -0.0600
 5266TIP3    H115755   5.702   5.704   4.613  1.3018 -1.2862  0.4040
 5266TIP3    H215756   5.594   5.598   4.609  1.6938 -1.7131  0.8872
 5267TIP3   OH215757   1.850   1.747   1.102 -0.1408 -0.1230  0.1469
 5267TIP3    H115758   1.799   1.828   1.104 -1.0157 -0.5004 -2.5353
 5267TIP3    H215759   1.791   1.680   1.137 -1.0867 -0.3125 -1.6827
 5268TIP3   OH215760   4.659   2.256   1.936 -0.0700 -0.2349  0.3529
 5268TIP3    H115761   4.607   2.191   1.984 -0.3125 -2.1424 -2.2948
 5268TIP3    H215762   4.596   2.317   1.900 -0.1339 -0.4015  0.1838
 5269TIP3   OH215763   3.457   4.776   2.132  0.0917 -0.4243 -0.3427
 5269TIP3    H115764   3.387   4.811   2.187 -0.1406 -0.9800 -0.2719
 5269TIP3    H215765   3.538   4.806   2.173 -0.1031  0.2176 -0.4176
 5270TIP3   OH215766   4.759   4.250   1.071 -0.1542  0.0546 -0.2568
 5270TIP3    H115767   4.848   4.217   1.063  0.0437  0.5385 -0.1007
 5270TIP3    H215768   4.741   4.251   1.165 -0.3182 -0.0314 -0.2871
 5271TIP3   OH215769   3.995   7.227   0.265  0.4514  0.0163 -0.4393
 5271TIP3    H115770   4.009   7.307   0.316 -1.2106 -0.6314  1.1034
 5271TIP3    H215771   4.080   7.183   0.267  1.1342  1.2559 -0.5145
 5272TIP3   OH215772   0.293   5.050   3.882  0.3756  0.2557 -0.1518
 5272TIP3    H115773   0.260   5.080   3.797  1.3913 -0.2924 -0.7548
 5272TIP3    H215774   0.265   4.958   3.888 -1.0548  0.7177  0.8304
 5273TIP3   OH215775   7.552   6.850   3.222 -0.2048 -0.6262 -0.2973
 5273TIP3    H115776   7.518   6.762   3.234  0.5507 -0.8229  0.4520
 5273TIP3    H215777   7.646   6.839   3.211  0.2831  0.2427  2.3243
 5274TIP3   OH215778   2.088   6.214   5.397 -0.4199  0.2850 -0.6308
 5274TIP3    H115779   2.029   6.147   5.431  2.3417 -1.8807  0.3229
 5274TIP3    H215780   2.136   6.170   5.326  1.0672  1.4023 -0.3856
 5275TIP3   OH215781   5.083   7.007   4.206  0.1828  0.5806 -0.3639
 5275TIP3    H115782   5.093   6.924   4.253 -0.5525  0.1772 -0.8898
 5275TIP3    H215783   5.002   7.044   4.241  0.7174  1.2774  0.1544
 5276TIP3   OH215784   6.301   7.342   1.685  0.4516 -0.8981  0.1539
 5276TIP3    H115785   6.254   7.408   1.634 -0.4246 -1.9224 -0.3852
 5276TIP3    H215786   6.303   7.379   1.774 -0.2884 -0.2753 -0.0725
 5277TIP3   OH215787   1.206   7.284   0.536  0.0563 -0.0037  0.0027
 5277TIP3    H115788   1.183   7.230   0.611 -1.5823  2.9789  1.8652
 5277TIP3    H215789   1.124   7.292   0.486 -0.0106  1.4175  0.2937
 5278TIP3   OH215790   5.276   5.176   1.641 -0.6163 -0.2448  0.0988
 5278TIP3    H115791   5.219   5.171   1.717 -0.7755  2.2553  0.2127
 5278TIP3    H215792   5.313   5.264   1.644  3.7990 -1.8369  0.3679
 5279TIP3   OH215793   4.265   2.316   6.524  0.5365  0.0580 -0.3158
 5279TIP3    H115794   4.329   2.244   6.520 -1.2608 -1.5759 -1.2965
 5279TIP3    H215795   4.251   2.330   6.618  2.2154  0.4069 -0.0729
 5280TIP3   OH215796   5.408   0.990   4.206 -0.3494  0.0902  0.2154
 5280TIP3    H115797   5.441   1.004   4.117  0.8669  1.7688  0.8759
 5280TIP3    H215798   5.394   0.896   4.212 -3.1526  0.1331 -2.6470
 5281TIP3   OH215799   1.706   0.854   4.361 -0.0674 -0.1736 -0.2980
 5281TIP3    H115800   1.626   0.879   4.408  0.2125  0.7448 -0.2896
 5281TIP3    H215801   1.776   0.901   4.407  0.2477  0.4980 -1.4213
 5282TIP3   OH215802   1.395   7.006   2.431 -0.6272 -0.1180 -0.1406
 5282TIP3    H115803   1.330   7.034   2.496 -1.1463 -0.3346 -0.5552
 5282TIP3    H215804   1.458   7.078   2.427  0.8272 -1.0953  2.4072
 5283TIP3   OH215805   6.875   1.908   4.445  0.1741  0.0890  0.4579
 5283TIP3    H115806   6.808   1.842   4.428 -0.7701  0.7818  1.3322
 5283TIP3    H215807   6.829   1.991   4.435  0.6674  0.5664  1.9229
 5284TIP3   OH215808   3.820   1.515   1.979 -0.0382  0.1784  0.5174
 5284TIP3    H115809   3.859   1.494   2.063  0.9778 -1.9719 -0.3969
 5284TIP3    H215810   3.885   1.485   1.915 -1.8209 -0.5521 -1.0345
 5285TIP3   OH215811   4.184   0.314   1.280 -0.1038 -0.1670  0.5817
 5285TIP3    H115812   4.110   0.293   1.338  0.6737  1.2282  2.1910
 5285TIP3    H215813   4.257   0.263   1.314  0.3001  0.4654  0.6891
 5286TIP3   OH215814   6.413   4.932   6.561 -0.1163 -0.3471 -0.0067
 5286TIP3    H115815   6.414   4.861   6.626 -0.4220  0.5380  0.9938
 5286TIP3    H215816   6.329   4.976   6.575  0.2291  0.4345 -0.3537
 5287TIP3   OH215817   4.851   6.355   1.679  0.7798 -0.7262 -0.0730
 5287TIP3    H115818   4.944   6.331   1.687  0.6711 -1.0655  0.2004
 5287TIP3    H215819   4.844   6.397   1.593  1.3504  0.0544  0.2467
 5288TIP3   OH215820   8.027   5.609   1.140  0.4257  0.3713  0.2094
 5288TIP3    H115821   7.987   5.522   1.129 -0.1625  0.6193  0.3405
 5288TIP3    H215822   8.007   5.654   1.058  0.1860  0.5948  0.3894
 5289TIP3   OH215823   3.948   1.586   5.494  0.5207 -0.2522 -0.3398
 5289TIP3    H115824   3.899   1.615   5.416 -1.6675 -0.2498  0.9426
 5289TIP3    H215825   3.978   1.498   5.472 -1.1547 -0.7578 -0.7912
 5290TIP3   OH215826   2.579   5.368   5.725 -0.0200  0.8987 -0.2915
 5290TIP3    H115827   2.609   5.456   5.750 -2.0571  1.4488  0.4218
 5290TIP3    H215828   2.493   5.383   5.686 -0.8245 -0.8523  0.6993
 5291TIP3   OH215829   4.642   4.136   3.573  0.0906  0.6677  0.1823
 5291TIP3    H115830   4.715   4.090   3.533  1.0883 -0.3265  2.9090
 5291TIP3    H215831   4.668   4.147   3.665 -2.3996  1.9657  0.8190
 5292TIP3   OH215832   1.515   6.555   0.325  0.2770  0.0563 -0.3679
 5292TIP3    H115833   1.529   6.548   0.420  3.2866 -0.3970 -0.7276
 5292TIP3    H215834   1.460   6.480   0.303 -0.0380 -0.1250  0.9617
 5293TIP3   OH215835   7.030   4.212   1.570  0.3143  0.9676  0.7086
 5293TIP3    H115836   7.061   4.152   1.638  0.3684 -0.9932 -0.9500
 5293TIP3    H215837   6.950   4.250   1.606  0.2065 -0.2082  1.7741
 5294TIP3   OH215838   1.419   2.100   0.251  0.1219  0.1463 -0.0060
 5294TIP3    H115839   1.420   2.166   0.182  1.7369  0.3724  0.1981
 5294TIP3    H215840   1.465   2.025   0.213 -0.1793 -0.2277  0.3602
 5295TIP3   OH215841   3.168   2.091   4.507  0.5954  0.1453  0.2821
 5295TIP3    H115842   3.149   2.019   4.448 -1.0688  0.2148  0.6737
 5295TIP3    H215843   3.186   2.165   4.449 -0.6421  0.1205 -0.1798
 5296TIP3   OH215844   7.494   0.783   3.103  0.1406 -0.0987  0.2992
 5296TIP3    H115845   7.587   0.782   3.081 -0.1258  0.3217 -0.8866
 5296TIP3    H215846   7.470   0.876   3.102 -0.3209 -0.2124  0.4967
 5297TIP3   OH215847   5.854   1.894   5.598  0.2619  0.2669 -0.2852
 5297TIP3    H115848   5.774   1.853   5.566 -0.1255  0.7364  0.0660
 5297TIP3    H215849   5.924   1.851   5.549 -0.1246 -0.8315  0.0778
 5298TIP3   OH215850   1.627   5.703   4.726  0.2879 -0.7511 -0.1053
 5298TIP3    H115851   1.580   5.620   4.720 -0.5613 -0.3720  1.0424
 5298TIP3    H215852   1.656   5.721   4.636  2.1147 -3.1805 -0.1190
 5299TIP3   OH215853   5.263   0.651   2.602  0.3970  0.6487  0.2976
 5299TIP3    H115854   5.239   0.719   2.665  2.0352  1.4940  0.0724
 5299TIP3    H215855   5.305   0.583   2.654 -0.6867  0.0814  0.4445
 5300TIP3   OH215856   6.104   1.568   1.457 -0.0822 -0.0424 -0.2012
 5300TIP3    H115857   6.011   1.590   1.455 -0.6873 -2.2099  1.1352
 5300TIP3    H215858   6.133   1.581   1.366 -2.1717 -1.2132 -1.1077
 5301TIP3   OH215859   7.518   3.221   4.295 -0.5776  0.2529 -0.0609
 5301TIP3    H115860   7.452   3.249   4.359 -2.4093 -2.6010 -0.5132
 5301TIP3    H215861   7.602   3.240   4.336 -1.6885  1.2606  1.8673
 5302TIP3   OH215862   4.741   0.973   0.590 -0.3566  0.4169 -0.0979
 5302TIP3    H115863   4.682   0.984   0.664  0.0375  0.1311  0.2639
 5302TIP3    H215864   4.760   0.879   0.588  1.6182  0.7365  1.0010
 5303TIP3   OH215865   0.635   4.558   0.920 -0.1334  0.3497  0.0733
 5303TIP3    H115866   0.586   4.629   0.877 -1.1138 -1.5647 -2.2538
 5303TIP3    H215867   0.604   4.478   0.876  1.1252 -1.5158  2.3487
 5304TIP3   OH215868   7.410   1.790   6.294  0.0797  0.6788  0.2969
 5304TIP3    H115869   7.348   1.863   6.304 -0.4020  0.1958  0.9336
 5304TIP3    H215870   7.459   1.790   6.375  1.1640  1.2618 -0.3397
 5305TIP3   OH215871   3.806   5.548   4.020 -0.5363  0.5507  0.1685
 5305TIP3    H115872   3.734   5.486   4.014 -1.2375  1.4976 -1.9810
 5305TIP3    H215873   3.765   5.631   4.042  0.0132  0.9155 -0.1693
 5306TIP3   OH215874   5.320   4.436   3.342  0.3798  0.0019 -0.3126
 5306TIP3    H115875   5.351   4.481   3.420 -2.2795  1.1447  0.1908
 5306TIP3    H215876   5.349   4.345   3.353  1.2302  0.4344  1.2910
 5307TIP3   OH215877   7.585   7.478   1.513 -0.2115  0.0072  0.8517
 5307TIP3    H115878   7.491   7.485   1.530 -0.2076 -0.3264  1.0136
 5307TIP3    H215879   7.614   7.569   1.503 -0.9557  0.0624 -1.4303
 5308TIP3   OH215880   3.719   1.140   6.401  0.4872 -0.3069  0.3227
 5308TIP3    H115881   3.685   1.229   6.388  0.5222 -0.2790  0.4234
 5308TIP3    H215882   3.757   1.117   6.316 -0.2121 -0.5276  0.0547
 5309TIP3   OH215883   7.197   5.967   3.796  0.4521 -0.3163  0.2266
 5309TIP3    H115884   7.122   5.907   3.796  0.1934 -0.0458  1.8029
 5309TIP3    H215885   7.250   5.940   3.722  1.0238 -3.3943  1.6167
 5310TIP3   OH215886   5.410   4.464   0.401 -0.0671  0.4439 -0.3604
 5310TIP3    H115887   5.490   4.467   0.349  0.1162 -0.6800 -0.1856
 5310TIP3    H215888   5.427   4.396   0.466 -0.0654  2.1821  1.5624
 5311TIP3   OH215889   7.027   5.737   3.614 -0.0327  0.4062  0.1477
 5311TIP3    H115890   7.013   5.655   3.566 -2.4613  0.2523  0.9444
 5311TIP3    H215891   7.010   5.805   3.548 -0.8699  0.2113  0.1403
 5312TIP3   OH215892   8.156   6.410   0.126  0.5024  1.0846 -0.2250
 5312TIP3    H115893   8.174   6.464   0.049  0.6141  1.7912  0.2790
 5312TIP3    H215894   8.068   6.376   0.112  1.2734 -0.4540 -1.6014
 5313TIP3   OH215895   6.743   4.216   5.914 -0.7825  0.0510 -0.3640
 5313TIP3    H115896   6.660   4.249   5.947 -0.2629  1.7541 -0.6411
 5313TIP3    H215897   6.810   4.264   5.963  0.0409 -0.9325 -0.4800
 5314TIP3   OH215898   5.786   6.531   3.013  0.0590  0.1233 -0.0556
 5314TIP3    H115899   5.768   6.594   2.943 -0.1477  1.1375  0.8909
 5314TIP3    H215900   5.857   6.571   3.063 -0.8596  0.1743  1.2395
 5315TIP3   OH215901   5.918   0.308   5.008 -0.8373  0.2766  0.0282
 5315TIP3    H115902   5.924   0.218   4.976  0.0685  0.4697 -0.3796
 5315TIP3    H215903   6.000   0.349   4.981 -0.3025  0.6396  2.0193
 5316TIP3   OH215904   7.578   1.167   0.580  0.3996  0.0732  0.1073
 5316TIP3    H115905   7.623   1.150   0.497  2.0144 -2.4852  1.3974
 5316TIP3    H215906   7.499   1.114   0.575 -0.4879  1.3906 -0.4908
 5317TIP3   OH215907   0.328   5.459   2.286 -0.0196 -0.5610  0.4214
 5317TIP3    H115908   0.365   5.546   2.298  0.4376 -0.8918  1.5887
 5317TIP3    H215909   0.375   5.405   2.350  0.1958 -1.8039 -0.7452
 5318TIP3   OH215910   3.157   5.506   0.204 -0.1309  0.5115 -0.1718
 5318TIP3    H115911   3.087   5.440   0.200 -0.6477  1.1043 -1.3422
 5318TIP3    H215912   3.234   5.457   0.233 -0.5199 -0.6112 -0.9636
 5319TIP3   OH215913   2.910   3.183   5.948 -0.3215 -0.4004 -0.5957
 5319TIP3    H115914   2.933   3.264   5.993  0.8596 -1.0712  0.0366
 5319TIP3    H215915   2.843   3.143   6.004 -1.2972  0.3618 -1.1770
 5320TIP3   OH215916   5.352   2.574   0.848 -0.1974 -0.1966  0.1269
 5320TIP3    H115917   5.379   2.484   0.829  1.3314 -0.4208  2.7881
 5320TIP3    H215918   5.262   2.566   0.878 -0.2251 -0.7810 -0.0872
 5321TIP3   OH215919   3.834   6.260   2.439 -0.0900  0.1843 -0.2548
 5321TIP3    H115920   3.789   6.284   2.358  1.9937  0.1597 -1.4938
 5321TIP3    H215921   3.807   6.170   2.456 -1.1827  0.4586 -0.4297
 5322TIP3   OH215922   3.316   4.007   0.477  0.3158 -0.6612 -0.2896
 5322TIP3    H115923   3.331   4.089   0.523  1.7042 -2.0354  1.8770
 5322TIP3    H215924   3.354   4.021   0.390  2.4235  0.3657  0.7268
 5323TIP3   OH215925   5.286   7.627   1.302  0.3833  0.3906  0.6162
 5323TIP3    H115926   5.336   7.697   1.344  0.6609 -0.5963  1.9869
 5323TIP3    H215927   5.214   7.609   1.362 -0.6567  0.6011 -0.5166
 5324TIP3   OH215928   2.075   6.820   5.775  0.1711 -0.5927  0.4510
 5324TIP3    H115929   2.042   6.734   5.749  1.3571 -0.5814 -1.2606
 5324TIP3    H215930   2.104   6.860   5.693  1.6445  0.5694  1.4902
 5325TIP3   OH215931   2.515   7.539   5.278 -0.8986 -0.0585  0.5585
 5325TIP3    H115932   2.583   7.474   5.296 -0.1473  0.6206  0.1962
 5325TIP3    H215933   2.487   7.521   5.188  0.4757  1.1465 -0.1345
 5326TIP3   OH215934   6.947   2.220   5.399  0.1069 -0.3508 -0.5646
 5326TIP3    H115935   7.021   2.260   5.354  1.6477 -2.4946 -0.0775
 5326TIP3    H215936   6.902   2.170   5.332 -0.5709  0.4522 -0.7264
 5327TIP3   OH215937   3.947   1.359   5.740  1.3537 -0.4572 -0.3438
 5327TIP3    H115938   3.961   1.454   5.737  1.8864 -0.4079  1.9034
 5327TIP3    H215939   3.858   1.349   5.775  1.4202 -0.7759 -0.2567
 5328TIP3   OH215940   0.093   2.723   4.092 -0.1667  0.3838  0.2067
 5328TIP3    H115941   0.137   2.768   4.020  2.7667  0.2505  1.8023
 5328TIP3    H215942   0.052   2.793   4.142  0.5252  0.8218  0.1762
 5329TIP3   OH215943   6.329   7.766   2.351 -0.0036  0.0056 -0.0261
 5329TIP3    H115944   6.347   7.722   2.434  0.5800 -3.5683 -1.8768
 5329TIP3    H215945   6.396   7.834   2.345  1.3563 -1.1356  1.4507
 5330TIP3   OH215946   6.387   2.656   0.846  0.7356 -0.0661 -1.0271
 5330TIP3    H115947   6.365   2.712   0.771 -0.2307 -1.2376 -1.6644
 5330TIP3    H215948   6.357   2.569   0.820  0.8424 -0.5998  0.5339
 5331TIP3   OH215949   2.351   0.911   1.451 -0.1337 -0.1135  0.4872
 5331TIP3    H115950   2.265   0.873   1.432 -1.6794  3.0794  0.3201
 5331TIP3    H215951   2.397   0.910   1.367 -0.1922 -1.3927  0.4620
 5332TIP3   OH215952   7.150   5.904   2.194 -0.0447 -0.2095  0.4260
 5332TIP3    H115953   7.079   5.906   2.130  0.7619 -0.9114 -0.5155
 5332TIP3    H215954   7.108   5.930   2.276 -1.2827 -0.1397 -0.1961
 5333TIP3   OH215955   2.722   3.194   1.949  0.1871  0.3979 -0.8371
 5333TIP3    H115956   2.717   3.100   1.970 -2.0434  0.3763 -1.2471
 5333TIP3    H215957   2.811   3.219   1.973  0.5667 -1.6377  0.0831
 5334TIP3   OH215958   8.087   5.513   5.024 -0.1701  0.3678 -0.1357
 5334TIP3    H115959   8.044   5.441   4.977  2.9264 -0.6897 -1.6397
 5334TIP3    H215960   8.085   5.486   5.115  0.3236 -1.3768 -0.5941
 5335TIP3   OH215961   5.164   6.091   4.737  0.2706  0.1927 -0.2432
 5335TIP3    H115962   5.127   6.175   4.712  1.7955  0.3429 -2.2528
 5335TIP3    H215963   5.168   6.041   4.655 -0.4958 -1.8323  0.8754
 5336TIP3   OH215964   4.974   5.002   4.247 -0.7509  0.0723 -0.1018
 5336TIP3    H115965   4.878   5.007   4.244 -0.8338 -1.0444  0.3253
 5336TIP3    H215966   4.993   4.909   4.253  0.3897  0.2591 -0.5972
 5337TIP3   OH215967   2.811   5.799   0.182  0.2140 -0.0439 -0.6485
 5337TIP3    H115968   2.738   5.769   0.128 -0.4067 -2.1550  1.2441
 5337TIP3    H215969   2.782   5.882   0.218  0.0951  0.7308 -2.4246
 5338TIP3   OH215970   1.454   2.372   1.091  0.7472 -0.1385  0.1900
 5338TIP3    H115971   1.415   2.351   1.006  0.1456 -0.2050  0.4738
 5338TIP3    H215972   1.505   2.294   1.114 -1.0053 -1.1172  0.9689
 5339TIP3   OH215973   0.817   3.199   0.359 -0.4849  0.7446 -0.2500
 5339TIP3    H115974   0.749   3.251   0.315  0.0323  1.8210  0.1810
 5339TIP3    H215975   0.784   3.188   0.448 -1.4624 -1.3086 -0.7947
 5340TIP3   OH215976   5.020   7.238   2.245 -0.2767  0.2338 -0.0987
 5340TIP3    H115977   5.047   7.322   2.208  0.8379  0.4260  1.0899
 5340TIP3    H215978   5.008   7.181   2.169  1.5150  0.7397 -0.7965
 5341TIP3   OH215979   6.763   5.187   6.248 -0.4148  0.0392  0.0353
 5341TIP3    H115980   6.738   5.100   6.278  1.3401 -0.7423 -0.6158
 5341TIP3    H215981   6.701   5.208   6.178 -0.4685 -0.9753 -0.2305
 5342TIP3   OH215982   5.763   2.414   5.813  0.6640  0.1819 -0.4050
 5342TIP3    H115983   5.857   2.402   5.799  1.1112  0.1113  2.2264
 5342TIP3    H215984   5.725   2.329   5.794  1.4971 -0.5112  0.8834
 5343TIP3   OH215985   0.956   1.644   5.848  0.1707  0.3414  0.1852
 5343TIP3    H115986   0.993   1.575   5.902 -1.9142 -2.2611 -1.4458
 5343TIP3    H215987   1.023   1.664   5.784  0.1709 -1.5914 -0.4627
 5344TIP3   OH215988   5.993   5.175   6.433 -0.7438 -0.3857 -0.8265
 5344TIP3    H115989   5.972   5.106   6.496 -0.4932  0.3416  0.0846
 5344TIP3    H215990   5.924   5.240   6.446  1.3309  1.5476  1.4539
 5345TIP3   OH215991   8.111   4.257   0.685 -0.3080  0.2902 -0.4289
 5345TIP3    H115992   8.042   4.272   0.620 -0.9673  0.6582  0.3407
 5345TIP3    H215993   8.176   4.203   0.639 -0.5430  0.9050 -1.5285
 5346TIP3   OH215994   6.704   6.183   3.601  0.0478 -0.3030  0.0517
 5346TIP3    H115995   6.789   6.221   3.581  0.0344 -0.1107  0.3515
 5346TIP3    H215996   6.719   6.089   3.604 -0.0112 -0.3675 -1.1635
 5347TIP3   OH215997   0.136   6.248   6.201 -0.2092 -0.3283  0.3460
 5347TIP3    H115998   0.225   6.216   6.187  0.1148  0.5760  0.2743
 5347TIP3    H215999   0.084   6.206   6.133  0.6377  1.0366 -1.2165
 5348TIP3   OH216000   0.793   5.576   5.803 -0.2724  0.0794  0.0505
 5348TIP3    H116001   0.763   5.503   5.857 -1.7178  1.3197  1.0162
 5348TIP3    H216002   0.811   5.646   5.866 -0.3563  1.0303 -0.9646
 5349TIP3   OH216003   4.467   7.099   1.074 -0.1229  0.3028 -0.2615
 5349TIP3    H116004   4.508   7.070   0.993  0.6012 -1.1814  0.6040
 5349TIP3    H216005   4.474   7.024   1.133 -0.5150  1.3882  1.2255
 5350TIP3   OH216006   3.864   0.318   4.901 -0.5758  0.5311  0.0568
 5350TIP3    H116007   3.861   0.223   4.904  0.5460  0.4420 -0.9128
 5350TIP3    H216008   3.781   0.346   4.939 -0.2979 -0.7924  1.7439
 5351TIP3   OH216009   4.078   1.043   2.916 -0.0905 -0.0937 -0.4103
 5351TIP3    H116010   4.027   1.109   2.868  1.1456 -0.2016 -1.9420
 5351TIP3    H216011   4.090   1.081   3.003 -0.7936  0.9665 -0.7578
 5352TIP3   OH216012   4.485   0.017   6.533  0.1894  0.2914 -0.0617
 5352TIP3    H116013   4.544   0.061   6.594 -1.7262 -0.6486  2.6818
 5352TIP3    H216014   4.533  -0.061   6.505  1.4757  1.2358 -0.5810
 5353TIP3   OH216015   8.026   5.738   0.644 -0.0805 -0.4627 -0.0695
 5353TIP3    H116016   8.115   5.759   0.672 -0.1158 -0.6223  0.1558
 5353TIP3    H216017   7.983   5.702   0.721 -0.7068  0.7074  0.1457
 5354TIP3   OH216018   8.194   1.432   6.344 -0.0632 -0.1847  0.5599
 5354TIP3    H116019   8.237   1.513   6.371 -0.7828  0.1629  0.6852
 5354TIP3    H216020   8.118   1.425   6.401 -0.9365 -0.0672 -0.5478
 5355TIP3   OH216021   3.739   1.862   6.545 -0.5021  0.3240 -0.1133
 5355TIP3    H116022   3.772   1.822   6.464 -0.3453  0.9887 -0.3943
 5355TIP3    H216023   3.658   1.905   6.518 -1.1944 -0.6326  0.4014
 5356TIP3   OH216024   7.364   4.692   5.612 -0.0875 -0.2112  0.0532
 5356TIP3    H116025   7.452   4.685   5.647  0.4212 -1.5042 -1.4154
 5356TIP3    H216026   7.347   4.786   5.610  1.1486  0.0448  0.5674
 5357TIP3   OH216027   7.478   4.361   4.842  0.3193  0.4331 -1.0010
 5357TIP3    H116028   7.482   4.271   4.810 -2.2340  0.2878 -1.1036
 5357TIP3    H216029   7.401   4.363   4.899  2.0413  1.8333  1.4766
 5358TIP3   OH216030   1.288   6.041   6.703 -0.4267  0.0877  0.2163
 5358TIP3    H116031   1.375   6.015   6.733 -0.8789 -0.6867  0.9273
 5358TIP3    H216032   1.228   5.986   6.754 -1.3065  0.0031 -0.8640
 5359TIP3   OH216033   0.976   1.034   6.252 -0.4799  0.6895 -0.7002
 5359TIP3    H116034   0.999   0.981   6.328 -1.6615  1.9795  0.6281
 5359TIP3    H216035   1.035   1.109   6.256 -0.8135  0.9606 -0.8169
 5360TIP3   OH216036   7.321   4.251   6.375  0.0396 -0.7469  0.8763
 5360TIP3    H116037   7.297   4.158   6.379 -0.2731 -0.7521 -0.5894
 5360TIP3    H216038   7.415   4.252   6.391  0.1580 -1.3879  0.2591
 5361TIP3   OH216039   3.515   5.808   5.086  0.1599  0.3067 -0.5829
 5361TIP3    H116040   3.505   5.725   5.039  1.1979  0.7339 -1.5929
 5361TIP3    H216041   3.444   5.863   5.053  1.2495  0.8186 -2.1791
 5362TIP3   OH216042   0.164   2.848   3.500 -0.2191  0.0381 -0.1935
 5362TIP3    H116043   0.154   2.913   3.570  0.6883 -0.8531  0.8068
 5362TIP3    H216044   0.075   2.836   3.466 -0.5780  0.9543  0.3745
 5363TIP3   OH216045   3.077   5.622   4.623  0.5669 -0.5563  0.1562
 5363TIP3    H116046   2.983   5.602   4.615  0.4854 -0.8367  1.6061
 5363TIP3    H216047   3.090   5.697   4.565 -0.7922  0.1885  0.7645
 5364TIP3   OH216048   4.413   4.787   2.961  0.1454  0.0722  0.1122
 5364TIP3    H116049   4.378   4.850   3.025 -0.5236 -0.7661  0.5781
 5364TIP3    H216050   4.371   4.704   2.983  0.9690 -0.5316 -0.5469
 5365TIP3   OH216051   5.011   0.747   4.559  0.0954  0.8411  0.1717
 5365TIP3    H116052   4.932   0.800   4.558 -0.0438  0.6410  0.4757
 5365TIP3    H216053   5.018   0.715   4.649 -1.3377 -1.8810 -0.5750
 5366TIP3   OH216054   7.117   4.471   5.244 -0.6552  0.4499  0.2347
 5366TIP3    H116055   7.173   4.547   5.257 -0.7617  0.4251  0.8413
 5366TIP3    H216056   7.070   4.490   5.162 -1.2423  1.3939  0.7699
 5367TIP3   OH216057   8.232   4.857   0.243  0.2747 -0.1360 -0.0667
 5367TIP3    H116058   8.197   4.768   0.238 -1.1086  0.3246  0.7606
 5367TIP3    H216059   8.157   4.913   0.226  1.1240  0.8885 -0.5604
 5368TIP3   OH216060   4.500   2.647   6.608  0.0753 -0.1964  0.3617
 5368TIP3    H116061   4.504   2.705   6.684 -2.9324  0.0472  0.4542
 5368TIP3    H216062   4.505   2.706   6.532  1.1836 -0.2569  0.3765
 5369TIP3   OH216063   7.536   2.122   5.411  0.3710  0.1008 -0.1438
 5369TIP3    H116064   7.459   2.075   5.444 -0.2277 -0.1957 -1.8644
 5369TIP3    H216065   7.549   2.193   5.473 -1.0188 -0.1173  0.4371
 5370TIP3   OH216066   6.600   0.471   3.531 -0.2145 -0.1172 -0.5731
 5370TIP3    H116067   6.523   0.414   3.534 -0.8473  0.7127  2.1573
 5370TIP3    H216068   6.674   0.413   3.551 -0.7015 -0.2168  1.0341
 5371TIP3   OH216069   6.413   4.833   4.246  0.5925  0.4238 -0.2094
 5371TIP3    H116070   6.461   4.884   4.180  0.6704  0.0679 -0.4259
 5371TIP3    H216071   6.328   4.815   4.206  0.5551  0.4025 -0.1209
 5372TIP3   OH216072   5.081   4.419   4.871  0.0430 -0.3003 -0.1874
 5372TIP3    H116073   5.109   4.328   4.865  1.2230 -0.0750  1.3752
 5372TIP3    H216074   5.143   4.460   4.931 -1.7322  1.0407  0.8369
 5373TIP3   OH216075   1.105   3.459   5.166 -0.0821 -0.0531  0.3979
 5373TIP3    H116076   1.156   3.382   5.191  1.0230  0.2021 -0.9312
 5373TIP3    H216077   1.125   3.472   5.073  2.0280  3.4295  1.1313
 5374TIP3   OH216078   3.774   3.981   4.467 -0.1666 -0.0834  0.8018
 5374TIP3    H116079   3.840   4.050   4.460  1.1821 -1.1648  2.0904
 5374TIP3    H216080   3.788   3.927   4.388  1.3623 -0.9803  1.6379
 5375TIP3   OH216081   1.261   0.680   1.827  0.4171  1.1689 -0.4185
 5375TIP3    H116082   1.314   0.668   1.906  0.1847 -0.6537 -0.4822
 5375TIP3    H216083   1.196   0.746   1.851 -0.2687 -0.0457  1.2929
 5376TIP3   OH216084   1.546   2.678   4.488  0.2545 -0.7422 -0.1551
 5376TIP3    H116085   1.457   2.673   4.523 -0.3611 -0.6672 -1.6435
 5376TIP3    H216086   1.545   2.621   4.411  1.5217 -0.7955 -0.1572
 5377TIP3   OH216087   4.109   2.305   6.049  0.7660  0.1614  0.2378
 5377TIP3    H116088   4.146   2.337   5.966 -0.1009  1.1122  0.2089
 5377TIP3    H216089   4.186   2.282   6.102  1.3347 -0.4780 -0.8259
 5378TIP3   OH216090   5.008   4.916   5.373 -0.3215 -0.2968  0.4747
 5378TIP3    H116091   4.919   4.886   5.354 -1.2004  1.9977  0.6580
 5378TIP3    H216092   5.049   4.842   5.417 -0.9980 -2.6526 -2.5544
 5379TIP3   OH216093   3.953   1.974   1.328  0.0676 -0.2761  0.0513
 5379TIP3    H116094   3.884   2.040   1.334  1.3572  1.0471  1.6042
 5379TIP3    H216095   3.910   1.892   1.352 -1.3541  0.1574 -0.8923
 5380TIP3   OH216096   0.855   4.785   5.279  0.2333 -0.0458 -0.0930
 5380TIP3    H116097   0.904   4.867   5.278  2.1863 -1.0483  2.1739
 5380TIP3    H216098   0.804   4.786   5.198  2.4796  2.0348 -1.6181
 5381TIP3   OH216099   4.376   6.721   6.013  0.4690 -0.1920 -0.1034
 5381TIP3    H116100   4.468   6.729   6.038  0.3741  0.6066  0.0500
 5381TIP3    H216101   4.357   6.627   6.016  0.2663 -0.1942  3.7250
 5382TIP3   OH216102   3.173   0.089   6.323  0.4179 -0.3826  0.3731
 5382TIP3    H116103   3.205   0.160   6.268  0.0616  0.6710  1.4687
 5382TIP3    H216104   3.250   0.037   6.342  0.9515  0.4811  0.6370
 5383TIP3   OH216105   6.535   2.337   5.019  0.0723  0.4185 -0.0695
 5383TIP3    H116106   6.513   2.429   5.026 -0.2700  0.4596 -1.4326
 5383TIP3    H216107   6.550   2.322   4.925 -1.3940 -1.2229 -0.1015
 5384TIP3   OH216108   6.585   3.402   0.701 -0.1742  0.7335 -0.1795
 5384TIP3    H116109   6.626   3.316   0.714 -1.7559 -0.0381 -0.0471
 5384TIP3    H216110   6.655   3.456   0.663  1.0685 -0.3894  0.4155
 5385TIP3   OH216111   6.856   0.956   3.351 -0.1843 -0.5168  0.1834
 5385TIP3    H116112   6.799   1.028   3.378  0.0417 -0.6526  1.0450
 5385TIP3    H216113   6.832   0.939   3.260 -0.1378  0.7514 -0.0878
 5386TIP3   OH216114   5.263   6.671   4.269  0.0854 -0.6441  0.3096
 5386TIP3    H116115   5.345   6.699   4.229  0.1104 -1.6280 -0.3554
 5386TIP3    H216116   5.247   6.584   4.234 -1.5797 -0.2193 -0.0965
 5387TIP3   OH216117   5.117   1.867   0.969 -0.1974  0.6366 -0.0898
 5387TIP3    H116118   5.209   1.844   0.954 -0.5648  0.2548 -2.1005
 5387TIP3    H216119   5.069   1.785   0.957 -0.7338  0.4686  2.5527
 5388TIP3   OH216120   7.503   7.055   2.654 -0.7068  0.4088 -0.3078
 5388TIP3    H116121   7.427   7.093   2.610 -1.4610  0.8753  1.3006
 5388TIP3    H216122   7.505   7.098   2.739 -0.1711 -1.4295  0.6662
 5389TIP3   OH216123   2.327   6.508   4.987  0.0168 -0.0849 -0.0107
 5389TIP3    H116124   2.261   6.439   4.993 -1.2695  1.1792  1.0850
 5389TIP3    H216125   2.286   6.578   4.936  0.9299  0.2883 -0.2691
 5390TIP3   OH216126   1.652   1.749   5.755 -0.1785  0.6499  0.4807
 5390TIP3    H116127   1.679   1.792   5.837  0.0562 -0.7599  1.1766
 5390TIP3    H216128   1.652   1.656   5.776  1.3899  0.1187 -1.5654
 5391TIP3   OH216129   1.164   7.681   1.408 -0.1786  0.6883  0.3614
 5391TIP3    H116130   1.171   7.718   1.321 -1.2396 -0.5607 -0.2833
 5391TIP3    H216131   1.106   7.605   1.398  1.3738 -0.7664  1.7304
 5392TIP3   OH216132   0.434   2.593   1.416 -0.0935  0.0676  0.1676
 5392TIP3    H116133   0.499   2.633   1.359  2.1775 -2.6037  0.6312
 5392TIP3    H216134   0.413   2.660   1.480  0.2774  1.8332 -1.4863
 5393TIP3   OH216135   0.737   3.596   0.787 -0.7496 -0.0034 -0.0927
 5393TIP3    H116136   0.811   3.645   0.752 -2.4839  2.3971 -0.6806
 5393TIP3    H216137   0.710   3.538   0.716 -0.6341  0.5666 -0.6135
 5394TIP3   OH216138   7.901   3.493   3.519  0.3783  0.2432 -0.2680
 5394TIP3    H116139   7.863   3.417   3.563  3.5760 -1.6507 -0.4455
 5394TIP3    H216140   7.888   3.476   3.426  0.8445  0.0057 -0.2961
 5395TIP3   OH216141   4.298   2.326   4.153  0.2289 -0.1337 -0.1425
 5395TIP3    H116142   4.252   2.361   4.077 -1.8899 -0.1389  1.0668
 5395TIP3    H216143   4.388   2.316   4.124  0.1112  2.5573 -1.7823
 5396TIP3   OH216144   2.284   0.459   1.240  0.2528  0.5450  0.3692
 5396TIP3    H116145   2.240   0.433   1.159 -0.7283 -0.0712  1.0792
 5396TIP3    H216146   2.374   0.428   1.229  0.4725  1.5144 -0.9632
 5397TIP3   OH216147   7.184   1.624   1.071  0.1834  0.1288 -0.1965
 5397TIP3    H116148   7.238   1.546   1.058  1.6627  1.0327  0.3221
 5397TIP3    H216149   7.191   1.673   0.988 -1.5035 -0.6861 -0.8790
 5398TIP3   OH216150   0.163   6.313   4.553  0.0734  0.0970  0.2943
 5398TIP3    H116151   0.098   6.248   4.580 -0.1559  0.1505 -0.1211
 5398TIP3    H216152   0.169   6.303   4.457  1.8453 -1.0137  0.4598
 5399TIP3   OH216153   2.803   5.894   2.486  0.6213 -0.0031 -0.2779
 5399TIP3    H116154   2.817   5.829   2.417  0.6338  0.1525 -0.4223
 5399TIP3    H216155   2.708   5.897   2.498  0.6176 -0.0128 -0.3055
 5400TIP3   OH216156   6.657   4.148   0.081 -0.0792 -0.0822  0.5085
 5400TIP3    H116157   6.681   4.236   0.108  1.9971 -0.5431  0.3373
 5400TIP3    H216158   6.683   4.142  -0.011  1.0885 -1.2451  0.8691
 5401TIP3   OH216159   1.467   7.774   4.569  0.7859  0.2710  0.0010
 5401TIP3    H116160   1.430   7.701   4.619 -1.1340  1.8758  1.0624
 5401TIP3    H216161   1.403   7.789   4.498 -0.0172  2.2451  1.0720
 5402TIP3   OH216162   0.298   2.323   0.364  0.4687 -0.2836  0.1434
 5402TIP3    H116163   0.237   2.304   0.293 -2.4000  0.8059  2.1155
 5402TIP3    H216164   0.368   2.374   0.323 -1.5207  1.0901 -1.7585
 5403TIP3   OH216165   7.440   5.762   4.957 -1.0140  0.4238  0.1739
 5403TIP3    H116166   7.350   5.794   4.962 -0.5050  1.7949  1.2447
 5403TIP3    H216167   7.471   5.789   4.871 -0.7536  2.5784  0.8576
 5404TIP3   OH216168   1.450   3.820   5.792  0.2692 -0.0882 -0.0050
 5404TIP3    H116169   1.474   3.906   5.759  0.0312  0.2018  0.5748
 5404TIP3    H216170   1.378   3.791   5.735  0.7411 -0.1671 -0.5741
 5405TIP3   OH216171   2.114   1.784   0.201 -0.5267  0.1587  0.0449
 5405TIP3    H116172   2.196   1.753   0.162  0.1217 -1.0529  2.1577
 5405TIP3    H216173   2.094   1.865   0.155  0.6209 -0.6736 -2.0785
 5406TIP3   OH216174   6.566   0.765   5.061 -0.1802 -0.0601  0.1693
 5406TIP3    H116175   6.555   0.800   4.973 -2.2275  2.6156  1.3799
 5406TIP3    H216176   6.616   0.832   5.107 -0.4372 -0.7237  1.4413
 5407TIP3   OH216177   0.840   0.604   1.197 -0.0578 -0.5019  0.5897
 5407TIP3    H116178   0.932   0.632   1.192  0.2486 -1.3009  1.6107
 5407TIP3    H216179   0.843   0.509   1.196 -0.8665 -0.5382  0.9364
 5408TIP3   OH216180   1.114   2.095   2.894  0.1226 -0.4751 -0.2817
 5408TIP3    H116181   1.172   2.069   2.822  0.0984 -0.0776 -0.4538
 5408TIP3    H216182   1.165   2.080   2.973  0.5378  0.0483 -0.4433
 5409TIP3   OH216183   6.635   4.762   3.272  0.0954 -0.0017 -0.0107
 5409TIP3    H116184   6.673   4.772   3.184  0.6147  0.0276  0.2138
 5409TIP3    H216185   6.626   4.667   3.282  2.4684 -0.1943  0.9017
 5410TIP3   OH216186   4.539   0.941   5.954  0.2759  0.1942 -0.3474
 5410TIP3    H116187   4.591   0.989   5.889  0.1213 -0.5027 -1.0039
 5410TIP3    H216188   4.601   0.882   5.995  0.3791  0.6547  0.1707
 5411TIP3   OH216189   0.293   5.776   0.005 -0.4862 -0.0698  0.5897
 5411TIP3    H116190   0.388   5.763  -0.002 -0.3663  1.4175 -2.0947
 5411TIP3    H216191   0.282   5.871  -0.002 -2.2037 -0.3011 -0.4722
 5412TIP3   OH216192   0.963   1.480   2.264 -0.0824 -0.0278  0.2446
 5412TIP3    H116193   1.013   1.498   2.184  1.2639  0.0977  1.0835
 5412TIP3    H216194   0.959   1.565   2.309 -1.6941  0.1283 -0.1322
 5413TIP3   OH216195   0.095   0.492   0.318  0.3123 -0.2639 -0.4543
 5413TIP3    H116196   0.119   0.544   0.241  2.9625  0.3907  0.6900
 5413TIP3    H216197   0.018   0.536   0.352  0.8289  1.2571 -1.1112
 5414TIP3   OH216198   6.821   4.074   1.988 -0.1069  0.5169  0.0433
 5414TIP3    H116199   6.788   3.990   1.956 -1.1056  0.6255  0.7596
 5414TIP3    H216200   6.915   4.070   1.972 -0.1891 -0.5945 -0.2488
 5415TIP3   OH216201   7.831   1.749   3.205  0.8609 -0.3360 -0.2209
 5415TIP3    H116202   7.745   1.720   3.238  0.6120  0.7759  0.1675
 5415TIP3    H216203   7.861   1.813   3.270  0.5813  1.5865 -1.8545
 5416TIP3   OH216204   5.364   6.731   3.602  0.4422 -0.3056 -0.1615
 5416TIP3    H116205   5.393   6.654   3.554  0.4385  0.3558 -1.2386
 5416TIP3    H216206   5.444   6.778   3.623  0.6545 -1.6304  2.3640
 5417TIP3   OH216207   5.306   0.875   5.372  0.1049  0.3431 -0.3381
 5417TIP3    H116208   5.340   0.829   5.449 -1.2233  0.1693  0.1591
 5417TIP3    H216209   5.371   0.858   5.304  0.5530 -0.7455  0.3342
 5418TIP3   OH216210   0.567   6.337   3.763 -0.6216 -0.3590  0.3741
 5418TIP3    H116211   0.648   6.355   3.811 -0.0801 -0.9325 -0.2915
 5418TIP3    H216212   0.533   6.256   3.803 -0.4814 -0.5125  0.1858
 5419TIP3   OH216213   5.993   7.141   0.330  0.7154 -0.0214  0.0017
 5419TIP3    H116214   5.920   7.100   0.377 -1.0305  0.6814 -1.9268
 5419TIP3    H216215   6.031   7.070   0.278  1.0252 -0.2564  0.5401
 5420TIP3   OH216216   4.352   1.362   3.145  0.1718 -0.0644  0.2121
 5420TIP3    H116217   4.384   1.421   3.077 -2.3787 -0.2777 -1.3078
 5420TIP3    H216218   4.277   1.407   3.182 -0.6260 -1.4787  0.3842
 5421TIP3   OH216219   3.810   3.586   4.588  0.2504  0.1005  0.1416
 5421TIP3    H116220   3.892   3.618   4.549  0.5154 -1.8914 -1.0853
 5421TIP3    H216221   3.837   3.512   4.643 -0.8002 -1.4362 -1.3184
 5422TIP3   OH216222   6.183   0.217   0.147 -0.1438  0.0462 -0.2301
 5422TIP3    H116223   6.094   0.205   0.178 -0.6581  0.9384 -1.2966
 5422TIP3    H216224   6.224   0.131   0.158 -1.1118 -0.3631  0.2982
 5423TIP3   OH216225   0.695   4.003   3.693  0.1876  0.2301  0.2622
 5423TIP3    H116226   0.766   3.968   3.638  1.6007  0.0949  2.0900
 5423TIP3    H216227   0.714   4.097   3.700  0.6628  0.0694  1.3712
 5424TIP3   OH216228   7.700   7.256   4.993 -0.4273  0.0934  0.0903
 5424TIP3    H116229   7.751   7.208   5.059  0.6568 -0.7390 -1.2952
 5424TIP3    H216230   7.760   7.323   4.960 -0.8802  0.3529 -0.2220
 5425TIP3   OH216231   4.712   0.255   4.811 -0.6007 -0.1830 -0.1015
 5425TIP3    H116232   4.689   0.303   4.890 -0.7904 -0.5183  0.0495
 5425TIP3    H216233   4.775   0.311   4.766 -2.9006  1.5583 -1.3635
 5426TIP3   OH216234   5.668   6.713   1.131  0.1332 -0.3044  0.1227
 5426TIP3    H116235   5.606   6.782   1.107  0.3270  0.1736  0.9615
 5426TIP3    H216236   5.614   6.645   1.172  0.0532 -0.2734  0.0696
 5427TIP3   OH216237   3.193   7.094   1.942  0.2908 -0.5109 -0.1364
 5427TIP3    H116238   3.253   7.033   1.985  1.2869  0.9629  0.6638
 5427TIP3    H216239   3.109   7.082   1.988  0.6236 -0.8842  0.3812
 5428TIP3   OH216240   2.163   1.614   1.656 -0.0329  0.4901 -0.3351
 5428TIP3    H116241   2.221   1.548   1.693  0.5883  0.8525 -0.6407
 5428TIP3    H216242   2.094   1.626   1.721  1.0783  1.1806  0.7396
 5429TIP3   OH216243   4.696   2.403   2.873  0.3063 -0.1010  0.1704
 5429TIP3    H116244   4.737   2.319   2.851  1.2543  0.3822  0.0604
 5429TIP3    H216245   4.679   2.445   2.788  3.3775  1.4824  0.2114
 5430TIP3   OH216246   8.152   0.756   4.421  0.1101  0.0747 -0.2860
 5430TIP3    H116247   8.217   0.708   4.472 -1.6736  0.6409  2.7730
 5430TIP3    H216248   8.203   0.805   4.357  2.4538 -1.2523  0.4458
 5431TIP3   OH216249   1.250   4.686   0.796  0.0777 -0.2923 -0.2460
 5431TIP3    H116250   1.177   4.724   0.845  0.2432 -0.6146  0.2587
 5431TIP3    H216251   1.288   4.760   0.749  0.3027  0.1431  0.6066
 5432TIP3   OH216252   5.578   2.676   6.092 -0.2837  0.0608  0.3944
 5432TIP3    H116253   5.506   2.691   6.031 -0.5961 -1.6924  0.2790
 5432TIP3    H216254   5.541   2.698   6.178 -0.6344  0.1179  0.2317
 5433TIP3   OH216255   2.712   3.049   2.885 -0.2178 -0.7314 -0.1356
 5433TIP3    H116256   2.797   3.062   2.843 -0.6460 -0.3330 -0.9087
 5433TIP3    H216257   2.723   2.970   2.937  0.1004 -1.7658 -1.6967
 5434TIP3   OH216258   1.524   3.583   6.405  0.0726  0.2578  0.0545
 5434TIP3    H116259   1.618   3.570   6.420  0.0203 -0.4398 -0.2149
 5434TIP3    H216260   1.519   3.666   6.358  0.3997  1.3931  1.9001
 5435TIP3   OH216261   7.693   5.022   2.375 -0.3941  0.1018  0.0578
 5435TIP3    H116262   7.628   5.023   2.305 -0.4886 -0.7824  0.1213
 5435TIP3    H216263   7.759   5.086   2.348 -0.5425 -0.0710 -0.7227
 5436TIP3   OH216264   3.264   1.432   0.054  0.1516  0.3062 -0.4373
 5436TIP3    H116265   3.207   1.362   0.023  0.7955 -0.3035 -0.2604
 5436TIP3    H216266   3.242   1.507  -0.001 -0.4893 -0.0523 -0.6797
 5437TIP3   OH216267   0.298   5.941   3.735 -0.4105  0.0568 -0.3154
 5437TIP3    H116268   0.259   5.909   3.816  0.9155  0.0640  0.3531
 5437TIP3    H216269   0.303   5.864   3.679 -0.7573 -0.0801 -0.1630
 5438TIP3   OH216270   5.379   7.385   1.223 -0.2413 -0.0049 -0.3327
 5438TIP3    H116271   5.424   7.423   1.147 -0.5970 -0.9637 -1.0372
 5438TIP3    H216272   5.334   7.460   1.263  1.1246  0.7814 -0.2082
 5439TIP3   OH216273   0.178   2.307   6.543 -0.3347  0.0007 -0.1813
 5439TIP3    H116274   0.190   2.250   6.467 -0.4514  0.2096 -0.3568
 5439TIP3    H216275   0.241   2.274   6.608 -0.8976 -0.7820 -0.0203
 5440TIP3   OH216276   7.824   4.111   3.774  0.2809 -0.2082  0.0093
 5440TIP3    H116277   7.866   4.030   3.746  0.0506 -0.2797 -0.1299
 5440TIP3    H216278   7.749   4.083   3.827 -0.7370 -0.1355 -1.3364
 5441TIP3   OH216279   2.144   4.681   6.769  0.0389 -0.4317 -0.5529
 5441TIP3    H116280   2.087   4.646   6.700  0.0063 -0.0602 -0.7158
 5441TIP3    H216281   2.155   4.773   6.747 -0.7822 -0.0664  0.4789
 5442TIP3   OH216282   6.422   6.374   5.839  0.0021  0.3645  0.2827
 5442TIP3    H116283   6.390   6.461   5.813  1.3524  0.8571  0.1567
 5442TIP3    H216284   6.430   6.379   5.934 -0.1710  0.2874  0.3014
 5443TIP3   OH216285   2.203   4.781   0.701 -0.4136 -0.0621  0.0467
 5443TIP3    H116286   2.282   4.740   0.665  0.1627 -1.1658  2.3915
 5443TIP3    H216287   2.212   4.773   0.796 -1.6044  3.1465  0.5593
 5444TIP3   OH216288   1.193   1.048   2.769  0.2350  0.0787 -0.3226
 5444TIP3    H116289   1.190   1.115   2.837  1.0133 -1.2839  1.1288
 5444TIP3    H216290   1.115   0.995   2.783  1.3433 -1.3605  0.8337
 5445TIP3   OH216291   7.672   6.747   5.450  0.7924  0.0150 -0.0991
 5445TIP3    H116292   7.680   6.656   5.421 -0.5317  0.1022 -0.7660
 5445TIP3    H216293   7.609   6.744   5.522  0.6466  0.4286 -0.2088
 5446TIP3   OH216294   0.448   0.908   0.286 -0.2246  0.1914  0.1969
 5446TIP3    H116295   0.508   0.924   0.359  0.0402 -2.4964  0.6678
 5446TIP3    H216296   0.361   0.921   0.324 -0.0701 -0.7104  0.9064
 5447TIP3   OH216297   3.213   2.555   3.447  0.7843 -0.0251 -0.9098
 5447TIP3    H116298   3.241   2.467   3.422 -3.6952 -1.4661 -1.6749
 5447TIP3    H216299   3.141   2.576   3.387 -1.2694  2.2434  2.0156
 5448TIP3   OH216300   5.393   4.124   4.773 -0.6911 -0.4539  0.0172
 5448TIP3    H116301   5.310   4.163   4.802 -0.1516  0.0016  0.9753
 5448TIP3    H216302   5.419   4.177   4.698 -1.1783 -0.4982 -0.1895
 5449TIP3   OH216303   1.302   4.795   6.477 -0.5295  0.0756 -0.1428
 5449TIP3    H116304   1.323   4.714   6.524 -0.2971  0.2126 -0.0080
 5449TIP3    H216305   1.255   4.766   6.399  0.9374 -0.3083 -0.9205
 5450TIP3   OH216306   6.301   0.313   1.886  0.1147  0.0806 -0.5301
 5450TIP3    H116307   6.395   0.306   1.903 -0.1444  0.8162  1.4183
 5450TIP3    H216308   6.260   0.257   1.952 -0.9405  2.7023  1.2217
 5451TIP3   OH216309   4.818   7.591   4.153 -0.3882 -0.0242 -0.4687
 5451TIP3    H116310   4.863   7.508   4.138  0.5566  0.7419 -2.1368
 5451TIP3    H216311   4.888   7.651   4.180 -0.8372  0.5763 -0.6274
 5452TIP3   OH216312   4.596   6.139   1.521 -0.4512 -0.3598  0.1700
 5452TIP3    H116313   4.559   6.059   1.485 -0.2682  0.4415 -1.9673
 5452TIP3    H216314   4.676   6.153   1.471  0.1813  0.5125  1.3697
 5453TIP3   OH216315   7.979   2.674   5.989 -0.1024 -0.4582 -0.3231
 5453TIP3    H116316   8.056   2.710   5.946  0.0256 -1.3778 -0.8936
 5453TIP3    H216317   7.922   2.647   5.917 -0.5886 -0.5561  0.0931
 5454TIP3   OH216318   0.224   7.117   5.983 -0.1444 -0.1075 -0.0324
 5454TIP3    H116319   0.232   7.145   6.075 -0.9330 -1.2218  0.3898
 5454TIP3    H216320   0.131   7.098   5.971 -0.2086  0.8520 -1.3378
 5455TIP3   OH216321   4.442   4.242   2.977 -0.3687 -0.4650 -0.3791
 5455TIP3    H116322   4.356   4.245   3.019  0.1223 -2.3921  0.9197
 5455TIP3    H216323   4.425   4.203   2.891 -0.8462 -0.5028 -0.2704
 5456TIP3   OH216324   1.665   7.023   1.597  0.3518  0.2489  0.0988
 5456TIP3    H116325   1.606   7.059   1.664  1.0607  0.1701  0.7806
 5456TIP3    H216326   1.750   7.017   1.641  0.9713  0.7474 -0.9977
 5457TIP3   OH216327   4.700   2.353   1.229 -0.1486  0.0686  0.3369
 5457TIP3    H116328   4.705   2.371   1.322 -0.9520  0.9324  0.2321
 5457TIP3    H216329   4.671   2.436   1.190 -0.4902 -0.4695 -0.5914
 5458TIP3   OH216330   6.571   4.348   5.264 -0.1625  0.0558 -0.3905
 5458TIP3    H116331   6.566   4.403   5.342 -2.6880 -1.3204  0.5565
 5458TIP3    H216332   6.625   4.397   5.203 -1.7326  3.2912  0.6029
 5459TIP3   OH216333   4.181   6.838   6.478 -0.0051 -0.4833  0.3337
 5459TIP3    H116334   4.254   6.845   6.418  0.2619 -1.0165  0.5896
 5459TIP3    H216335   4.172   6.926   6.516 -0.3224 -0.0826 -0.6333
 5460TIP3   OH216336   2.220   1.800   6.327 -0.1506  0.1236  0.0998
 5460TIP3    H116337   2.242   1.889   6.356 -0.1700  0.2607 -0.2943
 5460TIP3    H216338   2.179   1.759   6.403  1.6377 -0.2171  0.9303
 5461TIP3   OH216339   6.089   3.908   3.905  0.5736 -0.6003  0.0504
 5461TIP3    H116340   6.043   3.905   3.822  0.5173 -4.5209  0.0104
 5461TIP3    H216341   6.182   3.900   3.881  0.6290 -0.7479  0.3050
 5462TIP3   OH216342   4.416   2.096   0.693 -0.8512  0.6114  0.5652
 5462TIP3    H116343   4.406   2.104   0.598 -0.7139  2.3314  0.6671
 5462TIP3    H216344   4.398   2.003   0.711 -1.7895  0.4455 -1.0106
 5463TIP3   OH216345   7.932   1.914   5.505  0.3261  0.1308  0.0586
 5463TIP3    H116346   7.847   1.884   5.474  0.1080 -0.1588  0.9022
 5463TIP3    H216347   7.985   1.923   5.426 -0.6981  1.0316 -0.5521
 5464TIP3   OH216348   2.217   6.729   3.084 -0.4546  0.0235  0.2149
 5464TIP3    H116349   2.233   6.638   3.059 -0.3148  0.5819 -1.9525
 5464TIP3    H216350   2.304   6.764   3.103 -0.0060  0.6169 -2.5476
 5465TIP3   OH216351   3.951  -0.004   0.772  0.0206  0.2986 -0.3163
 5465TIP3    H116352   4.032  -0.025   0.727  0.2048  3.2237 -1.5272
 5465TIP3    H216353   3.899   0.046   0.709 -2.0752 -0.1041  0.9515
 5466TIP3   OH216354   6.012   2.320   5.646 -0.0564 -0.1988 -0.0614
 5466TIP3    H116355   5.929   2.286   5.612 -0.8340 -0.3588  1.8314
 5466TIP3    H216356   6.051   2.246   5.692 -0.3062  0.6179  1.5370
 5467TIP3   OH216357   3.248   3.077   6.406 -0.4003  0.4790  0.2011
 5467TIP3    H116358   3.294   3.109   6.483 -1.1998  0.5249  0.6673
 5467TIP3    H216359   3.162   3.120   6.409  0.2490  2.1254 -1.8211
 5468TIP3   OH216360   0.069   3.793   3.675  0.3221 -0.3364  0.1753
 5468TIP3    H116361   0.028   3.706   3.677  2.4074 -1.3993 -0.2085
 5468TIP3    H216362   0.060   3.821   3.584  0.8581 -0.8024 -0.0312
 5469TIP3   OH216363   4.473   7.154   5.858  0.2933 -0.1307  0.1124
 5469TIP3    H116364   4.455   7.094   5.930  1.7453 -0.4495  0.2420
 5469TIP3    H216365   4.473   7.099   5.780  0.3536 -0.0763  0.0733
 5470TIP3   OH216366   2.371   2.014   6.497 -0.1490 -0.0218  0.5616
 5470TIP3    H116367   2.346   2.072   6.569  3.2982  0.7941  1.2767
 5470TIP3    H216368   2.346   2.062   6.418 -1.9352  0.0641  1.1241
 5471TIP3   OH216369   0.913   5.950   4.127 -0.1695  0.2227 -0.0169
 5471TIP3    H116370   0.994   5.904   4.103 -0.3589 -0.0504 -0.1323
 5471TIP3    H216371   0.877   5.899   4.199 -1.6911 -1.3029 -1.7519
 5472TIP3   OH216372   8.019   7.341   2.427  0.0765 -0.6563 -0.6572
 5472TIP3    H116373   8.010   7.347   2.332  0.8782  1.0828 -0.6555
 5472TIP3    H216374   7.934   7.369   2.461  0.8328  2.1359 -0.8551
 5473TIP3   OH216375   3.742   2.128   0.941  0.8027  0.2410  0.1870
 5473TIP3    H116376   3.775   2.171   1.021 -1.0833  1.7960  0.2059
 5473TIP3    H216377   3.705   2.046   0.972 -0.0238  0.8834  0.9765
 5474TIP3   OH216378   3.604   0.753   4.186  0.4257  0.4952  0.4291
 5474TIP3    H116379   3.515   0.731   4.215  0.0234  0.0650 -1.0182
 5474TIP3    H216380   3.660   0.689   4.228 -0.1201 -0.0543  0.3271
 5475TIP3   OH216381   2.054   6.315   0.438 -0.2334 -0.1985 -0.1735
 5475TIP3    H116382   2.024   6.401   0.410 -0.4410 -0.0972  0.3492
 5475TIP3    H216383   1.991   6.254   0.398  1.3948 -0.3452 -2.7314
 5476TIP3   OH216384   1.640   4.812   5.663  0.1316 -0.1117  0.2056
 5476TIP3    H116385   1.546   4.816   5.649  0.1347  1.3404  0.4759
 5476TIP3    H216386   1.674   4.774   5.582 -0.5885  0.4443 -0.3717
 5477TIP3   OH216387   6.462   1.475   6.019  0.7664 -0.6755 -0.1569
 5477TIP3    H116388   6.459   1.386   6.054  0.0180 -0.4898  0.2711
 5477TIP3    H216389   6.371   1.498   6.003  0.9396  0.0685 -0.1368
 5478TIP3   OH216390   3.300   5.114   2.980 -0.5882  0.3874  0.3868
 5478TIP3    H116391   3.253   5.043   2.936 -2.2659  0.6423  1.6999
 5478TIP3    H216392   3.295   5.093   3.073  1.7257  0.5720  0.6120
 5479TIP3   OH216393   1.720   6.237   0.914  0.3132 -0.0725  0.0547
 5479TIP3    H116394   1.750   6.299   0.848  1.0151 -0.9481 -0.4648
 5479TIP3    H216395   1.665   6.175   0.866  0.9300 -0.7901  0.2464
 5480TIP3   OH216396   7.995   0.531   6.711  0.1170  0.3727  0.4648
 5480TIP3    H116397   7.964   0.469   6.777  0.8034  0.8315  1.2510
 5480TIP3    H216398   7.931   0.602   6.712 -0.6212 -0.2587 -0.3727
 5481TIP3   OH216399   8.154   4.306   1.035 -0.6483  0.1500  0.3646
 5481TIP3    H116400   8.175   4.395   1.005 -1.4115  0.4230  0.6032
 5481TIP3    H216401   8.104   4.268   0.963  0.1081 -0.2764  0.0527
 5482TIP3   OH216402   5.953   0.145   1.470  0.6744  0.2578 -0.0946
 5482TIP3    H116403   5.936   0.110   1.382 -0.2542 -1.0436  0.5599
 5482TIP3    H216404   5.914   0.233   1.469 -1.5930 -0.6668 -0.2769
 5483TIP3   OH216405   2.769   2.483   0.324 -0.3609 -0.1332  0.0910
 5483TIP3    H116406   2.811   2.402   0.296 -2.1017 -1.1836  0.3917
 5483TIP3    H216407   2.688   2.487   0.274 -0.3564  1.3790  0.1654
 5484TIP3   OH216408   5.608   2.530   2.521  0.2520  0.6477  0.8552
 5484TIP3    H116409   5.538   2.507   2.581  1.7494  0.2431  2.5298
 5484TIP3    H216410   5.630   2.621   2.544  0.0427  0.9097  0.0656
 5485TIP3   OH216411   4.714   0.036   3.101 -0.0549 -0.5132 -0.1451
 5485TIP3    H116412   4.729  -0.017   3.179  0.9599  0.4974  0.3793
 5485TIP3    H216413   4.621   0.024   3.082 -0.2769 -0.9524  1.0947
 5486TIP3   OH216414   6.810   2.376   3.640 -0.4861  0.4045  0.2774
 5486TIP3    H116415   6.765   2.460   3.651 -1.4544 -0.2222  1.3505
 5486TIP3    H216416   6.900   2.393   3.665 -0.5954  1.2005  0.1508
 5487TIP3   OH216417   6.849   2.029   2.562 -0.2169  0.0798  0.0437
 5487TIP3    H116418   6.892   2.054   2.480  0.1008 -2.3400 -0.5859
 5487TIP3    H216419   6.769   1.984   2.535  1.4627 -3.7105  0.8089
 5488TIP3   OH216420   5.897   6.962   5.041 -0.1129 -0.0472 -0.5214
 5488TIP3    H116421   5.969   6.907   5.072  0.1267  0.2206 -0.6020
 5488TIP3    H216422   5.850   6.906   4.980  0.1568 -0.1512 -0.6375
 5489TIP3   OH216423   6.226   3.689   5.876 -0.3090 -0.1955 -0.0200
 5489TIP3    H116424   6.298   3.681   5.814 -0.8970 -1.4723 -0.5745
 5489TIP3    H216425   6.201   3.781   5.873  0.7090  0.0735 -0.4822
 5490TIP3   OH216426   0.356   7.586   6.133  0.0351 -0.3003  0.3943
 5490TIP3    H116427   0.268   7.609   6.163 -0.7144 -0.3478 -1.5932
 5490TIP3    H216428   0.372   7.499   6.170 -1.3054 -0.8381 -0.2344
 5491TIP3   OH216429   7.376   5.959   4.680 -0.1743  0.0716 -0.3833
 5491TIP3    H116430   7.432   5.968   4.757 -0.7727  0.6858 -0.0180
 5491TIP3    H216431   7.425   5.899   4.623  1.2384  1.2009 -0.4250
 5492TIP3   OH216432   1.688   3.587   3.661 -0.3188  0.1539  0.1898
 5492TIP3    H116433   1.690   3.607   3.755  2.2812 -1.7379  0.6441
 5492TIP3    H216434   1.669   3.493   3.657  1.5656 -0.2387 -0.9989
 5493TIP3   OH216435   2.756   3.316   3.018 -0.0462  0.5628  0.5614
 5493TIP3    H116436   2.739   3.227   2.989  0.1848  0.0034  2.0466
 5493TIP3    H216437   2.751   3.369   2.938 -2.6170 -0.3949 -0.0002
 5494TIP3   OH216438   6.218   0.686   4.811  0.1778 -0.3156 -0.2359
 5494TIP3    H116439   6.210   0.705   4.718 -1.0411  1.6495  0.2018
 5494TIP3    H216440   6.235   0.772   4.851 -1.1904 -0.7921  1.5188
 5495TIP3   OH216441   6.373   7.003   6.706  0.3311 -0.1459 -0.1154
 5495TIP3    H116442   6.362   7.010   6.611  0.8350 -0.3433 -0.1952
 5495TIP3    H216443   6.330   7.081   6.741  0.8531  0.3641 -0.5678
 5496TIP3   OH216444   5.335   6.705   1.738  0.3678  0.6975  0.6565
 5496TIP3    H116445   5.282   6.703   1.818 -0.7036  0.3639 -0.0369
 5496TIP3    H216446   5.298   6.778   1.688  0.4913  0.3760  0.1006
 5497TIP3   OH216447   6.220   1.935   3.414 -0.2892  0.4411  0.0967
 5497TIP3    H116448   6.191   2.019   3.381 -0.2713  1.1337  1.7419
 5497TIP3    H216449   6.139   1.886   3.431 -0.3096 -0.7628 -2.7993
 5498TIP3   OH216450   0.543   7.476   2.917 -0.1342 -0.0802  0.1440
 5498TIP3    H116451   0.527   7.569   2.899 -1.2327  0.0044  1.4784
 5498TIP3    H216452   0.495   7.429   2.848 -0.6578  0.3106  0.2436
 5499TIP3   OH216453   3.351   7.678   6.672 -0.3380  0.3533 -0.1960
 5499TIP3    H116454   3.446   7.667   6.675 -0.2756 -0.0294 -2.1877
 5499TIP3    H216455   3.318   7.590   6.655 -0.9953  0.6323 -0.3711
 5500TIP3   OH216456   4.722   4.444   4.093 -0.3462 -0.2470 -0.1207
 5500TIP3    H116457   4.644   4.398   4.062  0.7557 -1.5551 -1.0663
 5500TIP3    H216458   4.748   4.500   4.020 -0.5589  0.4281  0.3092
 5501TIP3   OH216459   0.217   1.833   5.021 -0.1859  0.4370  0.6467
 5501TIP3    H116460   0.303   1.793   5.037 -0.3854 -0.2086  0.1718
 5501TIP3    H216461   0.233   1.899   4.954 -0.2119 -0.3370 -0.1371
 5502TIP3   OH216462   0.679   0.546   2.214  0.0126 -0.0440  0.4279
 5502TIP3    H116463   0.727   0.548   2.296 -1.3190 -2.1908  1.3360
 5502TIP3    H216464   0.590   0.524   2.238 -0.8834  1.1966 -1.4571
 5503TIP3   OH216465   3.072   2.609   5.857  0.0201  0.1563  0.1971
 5503TIP3    H116466   3.070   2.523   5.899  1.9362 -1.0946 -1.9825
 5503TIP3    H216467   3.137   2.658   5.906 -1.4539  0.6037  1.7763
 5504TIP3   OH216468   3.845   3.048   3.223 -0.3513 -0.2752 -0.1198
 5504TIP3    H116469   3.787   3.107   3.176 -0.7741 -1.2738 -0.8714
 5504TIP3    H216470   3.795   2.967   3.234  0.6235 -0.9104 -0.1524
 5505TIP3   OH216471   8.235   0.946   5.014 -0.0425  0.3053 -0.1432
 5505TIP3    H116472   8.187   1.026   4.990 -1.0401  0.4616  2.1289
 5505TIP3    H216473   8.176   0.900   5.073  1.1592 -1.3696 -0.1877
 5506TIP3   OH216474   4.737  -0.017   4.833  0.1450 -0.4630  0.0104
 5506TIP3    H116475   4.713   0.071   4.862  0.5433 -0.6183  0.8497
 5506TIP3    H216476   4.657  -0.053   4.795 -0.3373 -0.1711  0.7426
 5507TIP3   OH216477   5.500   0.868   3.428 -0.1051 -0.0750  0.2269
 5507TIP3    H116478   5.470   0.779   3.444 -0.0213  0.2063  2.2727
 5507TIP3    H216479   5.595   0.864   3.438 -0.1913  0.4066  1.3878
 5508TIP3   OH216480   7.502   1.271   5.535  0.3940  0.2160 -0.1221
 5508TIP3    H116481   7.591   1.271   5.572  1.0526  0.9287 -1.6327
 5508TIP3    H216482   7.486   1.179   5.512  0.3048 -0.0926  1.0893
 5509TIP3   OH216483   7.489   4.022   2.878 -0.6146  0.4659  0.0184
 5509TIP3    H116484   7.521   4.112   2.870 -0.6789  0.3874 -1.3542
 5509TIP3    H216485   7.456   4.000   2.791 -1.8562 -0.4310  0.6808
 5510TIP3   OH216486   0.554   7.720   0.547 -0.1116  0.3607  0.6810
 5510TIP3    H116487   0.526   7.630   0.527  0.4947  0.2463  0.3209
 5510TIP3    H216488   0.472   7.768   0.558 -0.4836  0.1848 -0.9928
 5511TIP3   OH216489   6.066   5.743   5.361 -0.2738  0.1689 -0.9547
 5511TIP3    H116490   6.090   5.689   5.436  2.5702  1.3734 -0.8844
 5511TIP3    H216491   6.112   5.703   5.287  0.2698  1.3213 -1.2573
 5512TIP3   OH216492   4.626   0.249   2.906 -0.4016 -0.6151 -0.1917
 5512TIP3    H116493   4.704   0.216   2.950 -0.6253 -0.4536  0.3305
 5512TIP3    H216494   4.564   0.176   2.906 -0.4216 -0.5982 -0.1962
 5513TIP3   OH216495   0.580   4.515   2.073  0.1276  0.3674 -0.1612
 5513TIP3    H116496   0.546   4.459   2.003  0.1326 -0.3811  0.4199
 5513TIP3    H216497   0.513   4.511   2.141  0.2092  0.9411 -0.0467
 5514TIP3   OH216498   0.688   7.101   0.534  0.2154  0.4788  0.2458
 5514TIP3    H116499   0.605   7.133   0.500 -0.4723 -0.6835  0.7877
 5514TIP3    H216500   0.691   7.009   0.509  1.5626  0.6120 -0.1755
 5515TIP3   OH216501   1.627   2.198   2.737  0.0982 -0.6668  0.1583
 5515TIP3    H116502   1.592   2.131   2.678  0.7746  1.3139 -2.7053
 5515TIP3    H216503   1.722   2.182   2.737  0.1839 -0.1683  0.0516
 5516TIP3   OH216504   6.074   0.429   2.052 -0.7298 -0.4699 -0.1354
 5516TIP3    H116505   6.070   0.516   2.090  2.6428 -1.2041  2.3066
 5516TIP3    H216506   6.148   0.432   1.991  0.0001 -1.7689  0.6258
 5517TIP3   OH216507   4.701   4.299   2.996  0.3497 -0.0268 -0.2877
 5517TIP3    H116508   4.610   4.304   3.027  0.8115 -1.2344  1.4051
 5517TIP3    H216509   4.698   4.239   2.922 -0.1524 -0.5357  0.1357
 5518TIP3   OH216510   4.765   2.794   0.562 -0.5055  0.2205  0.4272
 5518TIP3    H116511   4.793   2.862   0.624  1.3095 -0.5105  0.4912
 5518TIP3    H216512   4.826   2.804   0.488 -1.9230  0.3585 -0.7524
 5519TIP3   OH216513   1.613   3.790   3.855 -0.0023  0.6417 -0.2684
 5519TIP3    H116514   1.612   3.861   3.920 -1.9259  1.5481 -1.2085
 5519TIP3    H216515   1.658   3.828   3.780  0.0256  0.4506 -0.3470
 5520TIP3   OH216516   2.058   1.745   0.660  0.1304  0.1472  0.4921
 5520TIP3    H116517   2.125   1.776   0.720 -0.0126  1.1652  0.1323
 5520TIP3    H216518   1.986   1.717   0.717  2.0418 -4.2394  1.1587
 5521TIP3   OH216519   0.620   5.340   1.199  0.6077 -0.8228 -0.4138
 5521TIP3    H116520   0.605   5.403   1.270  1.3688 -0.9439 -0.1285
 5521TIP3    H216521   0.637   5.257   1.244  0.6901 -0.9888 -0.7514
 5522TIP3   OH216522   3.319   1.455   1.815  0.1869 -0.1840 -0.7182
 5522TIP3    H116523   3.304   1.486   1.904 -1.0399 -0.0279 -0.9510
 5522TIP3    H216524   3.336   1.534   1.764  1.2488 -0.3060 -0.5695
 5523TIP3   OH216525   7.939   0.501   6.030  0.6507  0.1754 -0.0307
 5523TIP3    H116526   7.857   0.451   6.035  0.1588  1.0722  1.4529
 5523TIP3    H216527   7.915   0.585   5.993  0.1845  1.6795  3.3352
 5524TIP3   OH216528   0.154   7.150   2.501  0.3647 -0.6004 -0.1534
 5524TIP3    H116529   0.087   7.216   2.520  0.5060  0.4641 -2.9768
 5524TIP3    H216530   0.105   7.072   2.477  0.2030 -1.5779  2.8563
 5525TIP3   OH216531   7.745   7.740   0.220  0.0087 -0.5895 -0.3481
 5525TIP3    H116532   7.771   7.832   0.213  0.6867 -0.8924 -2.3878
 5525TIP3    H216533   7.826   7.694   0.243 -0.0103 -0.8281 -0.7458
 5526TIP3   OH216534   0.549   3.903   3.121 -0.6186 -0.0078  0.5669
 5526TIP3    H116535   0.543   3.971   3.189  0.4161  0.3869  0.2829
 5526TIP3    H216536   0.605   3.942   3.054 -0.9204 -0.7304 -0.1160
 5527TIP3   OH216537   0.632   6.569   5.885 -0.3077  0.1454  0.5608
 5527TIP3    H116538   0.620   6.549   5.978 -0.4524 -0.5788  0.3916
 5527TIP3    H216539   0.707   6.628   5.883 -0.9236  0.9752  1.2224
 5528TIP3   OH216540   2.411   6.356   2.569  0.4371 -0.1297  0.3728
 5528TIP3    H116541   2.345   6.400   2.623 -1.0697  0.9475 -2.1876
 5528TIP3    H216542   2.394   6.263   2.582 -1.1679  0.1284  0.2814
 5529TIP3   OH216543   4.882   4.119   0.276  0.2265 -0.1770  0.5744
 5529TIP3    H116544   4.897   4.202   0.323 -4.6371  0.3223  1.8460
 5529TIP3    H216545   4.811   4.139   0.215 -0.7893 -3.2984  0.5666
 5530TIP3   OH216546   7.517   2.269   2.142 -0.1993  0.0947  0.1045
 5530TIP3    H116547   7.529   2.261   2.048  1.0563 -1.3154  0.3578
 5530TIP3    H216548   7.543   2.359   2.162 -1.4901  0.7429 -1.0126
 5531TIP3   OH216549   4.922   6.418   6.075  0.1745  0.3646 -0.0629
 5531TIP3    H116550   4.937   6.340   6.128 -1.6938  2.1032  3.3526
 5531TIP3    H216551   4.847   6.396   6.020  0.1157 -0.4354  0.3197
 5532TIP3   OH216552   1.969   2.044   0.301 -0.5442  0.2379 -0.5747
 5532TIP3    H116553   1.948   1.977   0.367  0.6976  1.9664  1.7162
 5532TIP3    H216554   1.897   2.106   0.307 -0.0688  0.7697 -0.3211
 5533TIP3   OH216555   3.897   6.802   1.544 -0.0142 -0.9766  0.0276
 5533TIP3    H116556   3.954   6.789   1.468  0.8261 -2.0212  0.8137
 5533TIP3    H216557   3.928   6.740   1.609 -1.9833 -1.5024  0.5495
 5534TIP3   OH216558   2.461   3.742   5.432  1.3057 -0.8206 -0.2203
 5534TIP3    H116559   2.388   3.681   5.432  1.9912 -1.6749 -0.7942
 5534TIP3    H216560   2.428   3.818   5.384  0.1148 -0.2840  1.3677
 5535TIP3   OH216561   7.075   3.747   2.207  0.7980  0.2193 -0.0724
 5535TIP3    H116562   6.992   3.760   2.161  0.7140  1.1815  0.3427
 5535TIP3    H216563   7.055   3.766   2.299  1.2147 -0.6647  0.2168
 5536TIP3   OH216564   0.399   7.349   4.649  0.1274  0.0360  0.7636
 5536TIP3    H116565   0.462   7.282   4.674 -0.4425 -0.9056 -0.2617
 5536TIP3    H216566   0.332   7.346   4.718  0.4862  0.0731  1.1148
 5537TIP3   OH216567   5.164   5.474   0.459 -0.0790 -0.1361 -0.4730
 5537TIP3    H116568   5.225   5.424   0.512  1.4207  1.6968 -0.4023
 5537TIP3    H216569   5.104   5.513   0.522  1.0470  1.1666 -0.1690
 5538TIP3   OH216570   7.341   1.515   6.617 -0.1038  0.1908  0.4132
 5538TIP3    H116571   7.387   1.482   6.695  0.8743  1.4795  0.4228
 5538TIP3    H216572   7.259   1.467   6.615  0.0781 -0.2363  1.9688
 5539TIP3   OH216573   3.063   7.707   3.601  0.3257  0.2466  0.3621
 5539TIP3    H116574   3.137   7.765   3.623 -1.4021  2.0132  1.8593
 5539TIP3    H216575   3.020   7.750   3.527  0.3406 -0.3836 -0.0194
 5540TIP3   OH216576   5.630   0.123   6.132 -0.2706 -0.0607 -0.2363
 5540TIP3    H116577   5.681   0.110   6.213 -0.0537  2.1208  0.0333
 5540TIP3    H216578   5.696   0.122   6.063 -0.3515 -1.0324 -0.3157
 5541TIP3   OH216579   3.129   1.170   0.235  0.1520  0.1867  0.2572
 5541TIP3    H116580   3.111   1.076   0.225  0.7861  0.0374  0.4826
 5541TIP3    H216581   3.042   1.210   0.241 -0.1152 -0.4564  0.8158
 5542TIP3   OH216582   0.192   3.457   1.285 -0.0206 -0.0395  0.2921
 5542TIP3    H116583   0.152   3.517   1.222  1.2726  2.8429  2.0005
 5542TIP3    H216584   0.231   3.388   1.232  2.4039  3.0577 -2.2903
 5543TIP3   OH216585   6.291   6.233   1.781  0.3006 -0.2683 -0.0742
 5543TIP3    H116586   6.381   6.235   1.812  0.0442 -0.8544  0.7449
 5543TIP3    H216587   6.239   6.210   1.859 -0.5267 -0.1792 -0.5851
 5544TIP3   OH216588   5.084   7.291   2.923  0.1905 -0.4169  0.3152
 5544TIP3    H116589   5.038   7.355   2.978  0.0598 -0.6620  0.4925
 5544TIP3    H216590   5.177   7.310   2.937  0.1823 -1.0727  1.3418
 5545TIP3   OH216591   3.218   6.943   2.204 -0.5551  0.0382  0.1255
 5545TIP3    H116592   3.123   6.936   2.195 -0.6377 -1.3746  1.6261
 5545TIP3    H216593   3.252   6.864   2.163 -0.1160 -0.0253  0.5990
 5546TIP3   OH216594   7.667   6.106   2.270 -0.0961  0.3993 -0.1565
 5546TIP3    H116595   7.714   6.146   2.197 -0.8689  2.0267  0.1954
 5546TIP3    H216596   7.586   6.073   2.232 -0.5217  1.2917 -0.0424
 5547TIP3   OH216597   6.016   2.077   5.726 -0.0639  0.0218 -0.6485
 5547TIP3    H116598   5.949   2.022   5.685 -1.1228  0.0759  0.9563
 5547TIP3    H216599   6.047   2.026   5.801  0.6559  0.6273 -0.5193
 5548TIP3   OH216600   4.957   7.371   1.565 -0.1770  0.0310 -0.0471
 5548TIP3    H116601   4.917   7.425   1.497 -0.5590  0.7745  0.7646
 5548TIP3    H216602   5.041   7.413   1.583  1.1566 -1.6314 -1.8894
 5549TIP3   OH216603   6.108   1.541   4.997 -0.2638 -0.5521  0.0729
 5549TIP3    H116604   6.192   1.553   5.042  0.1455 -1.4101 -0.4276
 5549TIP3    H216605   6.112   1.602   4.923 -0.0656 -0.6138  0.0307
 5550TIP3   OH216606   7.169   2.219   1.298  0.1433 -0.0514 -0.1449
 5550TIP3    H116607   7.158   2.151   1.364  1.7362 -0.9863 -0.7797
 5550TIP3    H216608   7.210   2.174   1.224 -1.3820  1.0048 -1.7145
 5551TIP3   OH216609   1.143   0.176   0.695 -0.0138 -0.4207  0.0239
 5551TIP3    H116610   1.207   0.196   0.627 -0.1742 -1.4380 -0.4573
 5551TIP3    H216611   1.179   0.100   0.741  0.0746  0.2367  1.0660
 5552TIP3   OH216612   4.731   5.796   6.342 -0.3515  0.0573  0.1729
 5552TIP3    H116613   4.649   5.772   6.384 -0.2125  1.4499  1.3006
 5552TIP3    H216614   4.798   5.780   6.409  0.1772  0.0479 -0.3419
 5553TIP3   OH216615   3.725   5.236   4.630 -0.1665 -0.4058  0.3693
 5553TIP3    H116616   3.771   5.164   4.674 -1.7079 -1.2969  0.5739
 5553TIP3    H216617   3.632   5.215   4.639 -0.5992 -0.2229 -2.6369
 5554TIP3   OH216618   3.972   1.576   4.125 -0.0674 -0.3720  0.0693
 5554TIP3    H116619   4.063   1.597   4.147  0.1733 -1.0781 -0.2193
 5554TIP3    H216620   3.925   1.579   4.208  0.1591  0.2821  0.1801
 5555TIP3   OH216621   4.218   1.915   2.731  0.4495 -0.0128  0.3708
 5555TIP3    H116622   4.219   2.004   2.696 -2.2727 -0.5779 -1.4878
 5555TIP3    H216623   4.136   1.878   2.698  0.5433 -2.5909  2.6827
 5556TIP3   OH216624   7.055   0.706   1.715  0.3176 -0.3526 -0.4270
 5556TIP3    H116625   7.114   0.779   1.699  0.1438 -0.0846  0.1340
 5556TIP3    H216626   6.968   0.745   1.724 -0.1143 -0.8331 -2.1640
 5557TIP3   OH216627   7.785   5.074   3.844  0.1900  0.1576  0.1563
 5557TIP3    H116628   7.725   5.029   3.785  0.1041 -2.0811  1.8342
 5557TIP3    H216629   7.730   5.107   3.914  0.2887  2.8227 -0.9247
 5558TIP3   OH216630   4.486   5.159   1.886 -0.0438 -0.3413  0.3832
 5558TIP3    H116631   4.494   5.070   1.853 -1.2881 -1.1777  2.1523
 5558TIP3    H216632   4.549   5.210   1.835  1.2115 -2.3580 -0.1997
 5559TIP3   OH216633   3.071   6.913   0.674  0.1291  0.3818  0.5380
 5559TIP3    H116634   3.095   6.859   0.599  2.7111  2.9193 -0.6082
 5559TIP3    H216635   3.096   6.860   0.750 -1.0561 -1.5691 -0.3440
 5560TIP3   OH216636   2.776   7.152   0.451  0.5652  0.2088 -0.0481
 5560TIP3    H116637   2.698   7.162   0.396  0.1277  1.7335  0.7873
 5560TIP3    H216638   2.847   7.189   0.398  0.2655  1.0692  0.1350
 5561TIP3   OH216639   3.406   5.662   4.222  0.3049  0.1924 -0.7306
 5561TIP3    H116640   3.427   5.570   4.236 -1.0238 -0.5556 -3.0978
 5561TIP3    H216641   3.426   5.677   4.129 -0.8697  1.8862 -0.7538
 5562TIP3   OH216642   4.856   1.215   5.834 -0.1100  0.3169 -0.0003
 5562TIP3    H116643   4.938   1.168   5.850  0.6956  1.2920 -1.0409
 5562TIP3    H216644   4.841   1.264   5.915 -0.2668 -0.7010  0.6072
 5563TIP3   OH216645   4.353   5.954   3.088  0.1003 -0.5663  0.0565
 5563TIP3    H116646   4.347   5.862   3.113  1.9908 -0.7575 -0.0573
 5563TIP3    H216647   4.418   5.956   3.018 -1.5558  0.5993 -1.5244
 5564TIP3   OH216648   2.700   4.470   2.419 -0.5568 -0.2051 -0.8204
 5564TIP3    H116649   2.667   4.388   2.383 -1.8359 -0.8223  1.5779
 5564TIP3    H216650   2.794   4.455   2.431 -0.8973 -1.6655  0.3387
 5565TIP3   OH216651   3.041   5.161   5.278  0.1067 -0.2349 -0.4650
 5565TIP3    H116652   3.122   5.143   5.327  0.9780 -0.4380 -1.9063
 5565TIP3    H216653   3.050   5.253   5.251  0.1521 -0.4295 -1.1298
 5566TIP3   OH216654   5.989   7.222   1.406  0.1212  0.1073  0.1485
 5566TIP3    H116655   5.937   7.292   1.447  0.4151  0.7897 -0.6189
 5566TIP3    H216656   5.933   7.189   1.336  0.0008 -0.4047  0.4818
 5567TIP3   OH216657   6.748   1.160   0.391  0.3215  0.1131  0.5642
 5567TIP3    H116658   6.689   1.153   0.316  1.2428 -0.6522 -0.1132
 5567TIP3    H216659   6.705   1.222   0.450 -1.6214 -1.1374  0.5488
 5568TIP3   OH216660   1.224   2.244   4.288  0.1868  0.5891 -0.4114
 5568TIP3    H116661   1.168   2.250   4.211  0.3200 -1.4984 -0.7226
 5568TIP3    H216662   1.172   2.197   4.352  1.0584 -0.1349 -0.2166
 5569TIP3   OH216663   0.752   1.932   5.586  0.0106  0.1468 -0.4565
 5569TIP3    H116664   0.715   1.950   5.672 -1.4466  0.9690 -1.2273
 5569TIP3    H216665   0.840   1.898   5.605 -1.2977 -2.5283  1.4715
 5570TIP3   OH216666   4.924   4.974   2.827  0.0912 -0.0188  0.1001
 5570TIP3    H116667   4.995   4.936   2.878  1.3058 -0.7065 -1.9912
 5570TIP3    H216668   4.947   4.956   2.736 -3.0624 -0.8633 -0.6689
 5571TIP3   OH216669   3.312   3.132   0.977 -0.2368 -0.2011 -0.3747
 5571TIP3    H116670   3.388   3.075   0.986  0.4721  0.9107  1.1005
 5571TIP3    H216671   3.313   3.159   0.885  1.6580  0.4529 -0.1930
 5572TIP3   OH216672   7.588   5.400   2.712 -0.0655  0.3960  0.0611
 5572TIP3    H116673   7.593   5.316   2.756 -1.0398 -0.5595 -1.5471
 5572TIP3    H216674   7.616   5.464   2.777 -0.9669 -0.9846  1.8692
 5573TIP3   OH216675   1.387   6.426   5.380  0.1272 -0.3687 -0.0488
 5573TIP3    H116676   1.432   6.499   5.337 -0.5218 -0.2113 -0.4680
 5573TIP3    H216677   1.297   6.432   5.350 -0.1865 -0.6771  0.7938
 5574TIP3   OH216678   2.763   1.490   4.489  0.1184 -0.1548  0.1400
 5574TIP3    H116679   2.839   1.463   4.540  0.0180 -0.6098  0.0578
 5574TIP3    H216680   2.718   1.553   4.545 -0.0630 -0.7492  0.6852
 5575TIP3   OH216681   6.511   4.925   2.336 -0.9943  0.8441  1.3071
 5575TIP3    H116682   6.439   4.938   2.398 -0.8025  1.8770  1.3302
 5575TIP3    H216683   6.585   4.899   2.390 -0.9372  1.3291  1.4624
 5576TIP3   OH216684   5.311   0.483   4.103  0.0059  0.0055  0.3322
 5576TIP3    H116685   5.370   0.448   4.036 -0.3038 -0.9667  0.5460
 5576TIP3    H216686   5.325   0.426   4.178  1.1904  1.7670  1.5235
 5577TIP3   OH216687   5.842   4.109   5.527  0.0610 -0.2640  0.2147
 5577TIP3    H116688   5.749   4.122   5.509  0.2339  0.1117 -0.4079
 5577TIP3    H216689   5.886   4.181   5.482  0.5644  0.2635  1.4938
 5578TIP3   OH216690   2.027   6.436   0.707  0.7601 -0.3238  0.1876
 5578TIP3    H116691   2.088   6.494   0.753 -0.0078 -0.7540  1.8347
 5578TIP3    H216692   2.075   6.355   0.694  1.2442  0.0652 -0.5162
 5579TIP3   OH216693   0.469   3.693   2.198  0.0531  0.4314  0.0214
 5579TIP3    H116694   0.434   3.770   2.242  0.3571  0.6409 -0.1004
 5579TIP3    H216695   0.564   3.705   2.201  0.0629  0.7334 -1.2208
 5580TIP3   OH216696   6.682   1.172   2.844 -0.2323  0.0685  0.2062
 5580TIP3    H116697   6.763   1.175   2.793 -0.0688  1.0831  0.5105
 5580TIP3    H216698   6.707   1.135   2.928 -0.0957  0.3166  0.2750
 5581TIP3   OH216699   3.269   7.680   1.794  0.1636  0.0251  0.2466
 5581TIP3    H116700   3.318   7.638   1.866  0.7804  0.1071 -0.1187
 5581TIP3    H216701   3.298   7.634   1.716  0.5924  0.9065 -0.1212
 5582TIP3   OH216702   7.588   0.806   3.970 -0.4351 -0.3344 -0.2145
 5582TIP3    H116703   7.672   0.851   3.977 -1.2731  1.2079  0.1964
 5582TIP3    H216704   7.612   0.713   3.962  1.3380  0.1772 -1.4702
 5583TIP3   OH216705   5.357   4.208   3.149 -0.4929  0.6513  0.0868
 5583TIP3    H116706   5.449   4.192   3.128 -0.4819 -0.2438  0.7676
 5583TIP3    H216707   5.331   4.277   3.088  0.7282  1.1855  0.1329
 5584TIP3   OH216708   4.371   6.325   0.222  0.0809 -0.7240  0.6386
 5584TIP3    H116709   4.392   6.313   0.315 -1.1628 -0.7157  0.9510
 5584TIP3    H216710   4.452   6.307   0.176  0.8735 -0.1531  1.7697
 5585TIP3   OH216711   7.218   6.834   5.703  0.1225 -0.0501 -0.3600
 5585TIP3    H116712   7.219   6.765   5.770 -1.1492 -0.0026 -0.2545
 5585TIP3    H216713   7.129   6.870   5.708 -0.0636 -0.1796 -2.2117
 5586TIP3   OH216714   3.029   4.111   1.611  0.8578 -0.3320 -0.0541
 5586TIP3    H116715   2.984   4.193   1.632 -1.7729 -2.0272  1.5659
 5586TIP3    H216716   3.012   4.098   1.517 -1.4294 -0.4701  0.3217
 5587TIP3   OH216717   7.442   0.926   4.167 -0.0735  0.2065 -0.5263
 5587TIP3    H116718   7.483   0.877   4.097 -0.1408 -1.3896  0.4989
 5587TIP3    H216719   7.417   0.860   4.231  1.0790  1.6823  1.5833
 5588TIP3   OH216720   3.233   2.255   6.255  0.2675 -0.4649 -0.5408
 5588TIP3    H116721   3.174   2.226   6.324  1.7157 -1.1219  0.4643
 5588TIP3    H216722   3.291   2.319   6.297  1.5649 -1.3279 -0.9427
 5589TIP3   OH216723   7.133   5.077   3.349 -0.0191  0.2129 -0.4369
 5589TIP3    H116724   7.112   5.170   3.342  0.6593  0.2245 -3.1698
 5589TIP3    H216725   7.050   5.035   3.368 -0.2342  1.3671  1.5221
 5590TIP3   OH216726   7.004   6.285   0.017  0.2589 -0.1302  0.6081
 5590TIP3    H116727   6.960   6.328   0.090  2.3174  3.0898  0.1444
 5590TIP3    H216728   7.071   6.231   0.058  0.6705  0.7854  1.1781
 5591TIP3   OH216729   4.844   0.327   5.899 -0.6493 -0.0646  0.2940
 5591TIP3    H116730   4.806   0.405   5.858 -0.3632 -0.7272 -1.3058
 5591TIP3    H216731   4.780   0.302   5.966 -1.1103  1.0867  0.3111
 5592TIP3   OH216732   4.288   4.460   5.530 -0.2952  0.3227  0.7195
 5592TIP3    H116733   4.349   4.398   5.569  1.4718  1.1958 -0.5130
 5592TIP3    H216734   4.338   4.542   5.524 -1.8863  1.3211  0.4410
 5593TIP3   OH216735   5.544   1.271   2.724  0.0228  0.1185 -0.0837
 5593TIP3    H116736   5.508   1.193   2.767  0.0264  0.5948  0.8151
 5593TIP3    H216737   5.476   1.338   2.736 -0.4211 -0.0013 -1.7338
 5594TIP3   OH216738   6.569   7.727   3.247  0.0344  0.2215 -0.3624
 5594TIP3    H116739   6.604   7.673   3.177 -0.5674 -0.0060 -0.4968
 5594TIP3    H216740   6.551   7.667   3.319 -3.7873 -0.4622 -1.6383
 5595TIP3   OH216741   1.113   0.490   2.423  0.0208 -0.4166  0.3461
 5595TIP3    H116742   1.183   0.429   2.448  0.5413 -0.0182 -0.1280
 5595TIP3    H216743   1.144   0.531   2.342 -1.2319 -1.0126 -0.4673
 5596TIP3   OH216744   6.910   7.318   2.316 -0.8181 -0.0938  0.8372
 5596TIP3    H116745   6.824   7.277   2.316 -0.4009 -0.9865  0.7253
 5596TIP3    H216746   6.970   7.248   2.289 -0.1819  0.7828 -0.0894
 5597TIP3   OH216747   1.798   6.302   5.944 -0.0167 -0.0730  0.0708
 5597TIP3    H116748   1.835   6.243   5.878 -2.6130 -1.0858 -0.6006
 5597TIP3    H216749   1.820   6.260   6.027  1.5599  0.1586 -0.1960
 5598TIP3   OH216750   0.593   5.271   0.678 -0.4413 -0.2532  0.7307
 5598TIP3    H116751   0.560   5.246   0.764  2.0706 -1.4882  1.4244
 5598TIP3    H216752   0.648   5.347   0.694 -1.5092  0.7372 -0.1341
 5599TIP3   OH216753   7.727   3.779   4.249  0.6465  0.0942  0.7694
 5599TIP3    H116754   7.784   3.853   4.228  1.2895 -0.6743 -0.2838
 5599TIP3    H216755   7.683   3.805   4.330  1.2728  1.3910  0.7172
 5600TIP3   OH216756   1.502   6.459   4.421 -0.1870 -0.1643  0.1401
 5600TIP3    H116757   1.519   6.455   4.327 -0.5377 -1.6318  0.1152
 5600TIP3    H216758   1.517   6.370   4.452 -2.0756 -0.2061  1.1074
 5601TIP3   OH216759   0.493   6.441   1.102 -0.1836  0.3160  0.3287
 5601TIP3    H116760   0.527   6.516   1.053  0.1457  0.1332  0.2801
 5601TIP3    H216761   0.415   6.414   1.052 -1.2147  1.5783  1.1864
 5602TIP3   OH216762   5.471   0.227   0.288 -0.1889 -0.5111  0.0460
 5602TIP3    H116763   5.472   0.134   0.267  2.2127 -0.6577  0.5900
 5602TIP3    H216764   5.519   0.235   0.370 -2.0160  1.0291  1.0549
 5603TIP3   OH216765   1.079   2.522   4.301  0.2540 -0.2915 -0.2079
 5603TIP3    H116766   1.046   2.589   4.241 -0.5990  0.6735  1.2785
 5603TIP3    H216767   1.071   2.440   4.253  1.2866  0.6231 -2.0707
 5604TIP3   OH216768   7.390   0.344   2.063  0.5741  0.1465  0.5359
 5604TIP3    H116769   7.308   0.297   2.079  0.1711  1.1157  1.4503
 5604TIP3    H216770   7.367   0.410   1.998  0.6103  0.4524  0.8315
 5605TIP3   OH216771   5.700   1.900   0.982  0.0561 -0.4030  0.0706
 5605TIP3    H116772   5.773   1.864   0.931  0.8406  1.4265 -0.1709
 5605TIP3    H216773   5.736   1.913   1.070  0.5996  2.0857 -0.4667
 5606TIP3   OH216774   0.392   4.339   0.518  0.2361  0.2672 -0.0832
 5606TIP3    H116775   0.328   4.405   0.493  0.6768  0.8805  0.3877
 5606TIP3    H216776   0.452   4.334   0.444 -0.0995  0.0040 -0.3420
 5607TIP3   OH216777   4.640   3.167   4.489 -0.2486  0.1471  0.1757
 5607TIP3    H116778   4.569   3.127   4.438 -0.9293  0.4032  0.9055
 5607TIP3    H216779   4.704   3.097   4.500  0.0871  0.1807 -1.3277
 5608TIP3   OH216780   5.429   0.892   4.583  0.2111 -0.2407  0.0601
 5608TIP3    H116781   5.338   0.901   4.612  0.5606  0.4654  0.9865
 5608TIP3    H216782   5.456   0.981   4.562  0.7158 -0.4379 -0.1218
 5609TIP3   OH216783   2.969   5.696   6.010  0.4154  0.2581 -0.0733
 5609TIP3    H116784   2.946   5.788   6.025  1.1162  0.6196 -1.1166
 5609TIP3    H216785   3.051   5.684   6.057 -0.6286 -0.4046  1.7061
 5610TIP3   OH216786   0.266   4.530   0.902  0.0065 -0.1912 -0.2583
 5610TIP3    H116787   0.202   4.475   0.857 -0.5341 -0.3464  0.6654
 5610TIP3    H216788   0.315   4.573   0.832 -0.4211 -0.8660 -0.9843
 5611TIP3   OH216789   2.652   6.422   1.309  0.2794  0.0283 -0.2167
 5611TIP3    H116790   2.620   6.458   1.227  0.1616  0.5720  0.0589
 5611TIP3    H216791   2.740   6.389   1.289 -0.2303 -1.0022 -0.8554
 5612TIP3   OH216792   6.643   7.556   5.976  0.2027 -0.0576  0.2192
 5612TIP3    H116793   6.561   7.561   5.926  0.6993  1.9040 -0.4989
 5612TIP3    H216794   6.712   7.560   5.910  0.8676  1.2468  0.9492
 5613TIP3   OH216795   3.859   2.485   1.136 -0.1876  0.1049  0.0185
 5613TIP3    H116796   3.776   2.509   1.094 -0.1278 -1.3486 -0.9914
 5613TIP3    H216797   3.909   2.441   1.067  2.0017  2.0942  0.2038
 5614TIP3   OH216798   5.094   7.711   0.457 -0.0521  1.0673  0.8940
 5614TIP3    H116799   5.095   7.760   0.375 -1.5984 -0.9357 -0.4319
 5614TIP3    H216800   5.005   7.724   0.491  0.4421  1.5242  2.0450
 5615TIP3   OH216801   0.513   1.706   6.492  0.0406  0.7439  0.5833
 5615TIP3    H116802   0.526   1.624   6.445 -0.1700 -0.0971  1.9399
 5615TIP3    H216803   0.423   1.702   6.523  0.0025  1.5292  0.5831
 5616TIP3   OH216804   3.804   2.312   0.726  0.0476  0.0054  0.8996
 5616TIP3    H116805   3.775   2.254   0.797  0.0288 -0.3659  0.5919
 5616TIP3    H216806   3.756   2.282   0.649 -0.9187  1.2434  0.9871
 5617TIP3   OH216807   2.515   1.927   5.724  0.1374 -0.2066 -0.1289
 5617TIP3    H116808   2.475   1.884   5.800  0.0245 -0.1234 -0.1397
 5617TIP3    H216809   2.499   1.867   5.651  0.5351 -0.4419 -0.0264
 5618TIP3   OH216810   0.113   5.197   5.860  0.0083 -0.6957  0.0674
 5618TIP3    H116811   0.029   5.151   5.856  0.5849 -1.9404 -4.9195
 5618TIP3    H216812   0.090   5.290   5.861 -1.6134 -0.9568 -2.7167
 5619TIP3   OH216813   7.843   5.177   2.154  0.4306 -0.2465  0.1554
 5619TIP3    H116814   7.764   5.224   2.181  0.8792  2.6806 -2.8968
 5619TIP3    H216815   7.822   5.142   2.067  2.0057 -0.6909 -0.0836
 5620TIP3   OH216816   4.798   3.835   0.882  0.3471 -0.4657 -0.2111
 5620TIP3    H116817   4.739   3.804   0.951 -2.1756 -1.0653 -2.4769
 5620TIP3    H216818   4.787   3.772   0.811  3.3601 -0.2470 -1.0147
 5621TIP3   OH216819   7.688   0.929   1.208  0.0485 -0.7032 -0.4307
 5621TIP3    H116820   7.687   0.840   1.173  0.3326 -0.3471 -1.3752
 5621TIP3    H216821   7.624   0.976   1.155  0.9383 -0.0009 -0.9061
 5622TIP3   OH216822   6.223   7.198   3.010  0.2088 -0.2379 -0.2152
 5622TIP3    H116823   6.296   7.162   3.059  1.6456 -2.3725 -3.5538
 5622TIP3    H216824   6.146   7.177   3.063  1.5886 -2.7115  1.0096
 5623TIP3   OH216825   8.169   6.019   0.616 -0.1166  0.5614  0.1987
 5623TIP3    H116826   8.191   6.026   0.523 -1.1488 -0.0789 -0.1081
 5623TIP3    H216827   8.230   5.954   0.651 -0.7283 -0.3579 -0.3901
 5624TIP3   OH216828   7.574   6.318   2.703 -0.1325 -0.1625  0.2046
 5624TIP3    H116829   7.531   6.330   2.787 -0.1589  0.4270  0.1169
 5624TIP3    H216830   7.610   6.230   2.706 -0.6172 -0.3491  0.6084
 5625TIP3   OH216831   5.957   3.933   2.103 -0.4060  0.4167 -0.1503
 5625TIP3    H116832   5.988   3.846   2.128  2.4582  1.0956 -0.9233
 5625TIP3    H216833   5.914   3.920   2.019  1.3279 -0.1186 -1.0024
 5626TIP3   OH216834   2.291   3.537   5.491 -0.2889  0.1040 -0.4291
 5626TIP3    H116835   2.293   3.443   5.507 -0.9107 -0.0254 -1.0310
 5626TIP3    H216836   2.238   3.573   5.562 -1.2627 -0.1928 -0.9899
 5627TIP3   OH216837   7.044   7.617   3.551  0.1864 -0.1868 -0.6791
 5627TIP3    H116838   6.964   7.669   3.543  0.8265  0.7606 -1.0546
 5627TIP3    H216839   7.061   7.615   3.646 -0.5139 -0.7622 -0.5612
 5628TIP3   OH216840   4.640   2.137   4.118  0.0200 -0.0729 -0.3966
 5628TIP3    H116841   4.720   2.176   4.084 -0.0889 -0.6038 -1.2847
 5628TIP3    H216842   4.578   2.143   4.046  0.0164 -1.9211 -0.5763
 5629TIP3   OH216843   5.106   2.032   3.659  0.9704 -0.0087 -0.4940
 5629TIP3    H116844   5.182   2.019   3.602  0.5813 -0.9999 -0.8060
 5629TIP3    H216845   5.031   2.004   3.606  0.4842  0.0926  0.1237
 5630TIP3   OH216846   4.105   6.798   6.168 -0.5390 -0.2969 -0.1765
 5630TIP3    H116847   4.114   6.797   6.263 -0.7518 -2.2198 -0.1410
 5630TIP3    H216848   4.183   6.752   6.136 -0.8842 -0.4040 -0.8887
 5631TIP3   OH216849   1.920   3.598   3.066  0.3995  0.4235 -0.0306
 5631TIP3    H116850   1.861   3.534   3.025  1.2089  1.2258 -2.6429
 5631TIP3    H216851   1.976   3.545   3.123 -1.3468 -0.6410  0.7817
 5632TIP3   OH216852   5.046   0.732   4.830  0.3937  0.1469 -0.1781
 5632TIP3    H116853   5.075   0.755   4.919 -0.7436 -0.1455  0.2754
 5632TIP3    H216854   4.951   0.736   4.834  0.3192 -0.3713 -1.2597
 5633TIP3   OH216855   3.315   5.197   5.504 -0.0111  0.6658  0.3593
 5633TIP3    H116856   3.239   5.255   5.507 -0.8542 -0.3932 -0.0719
 5633TIP3    H216857   3.326   5.166   5.594 -1.3314 -0.7314  0.0646
 5634TIP3   OH216858   3.447   7.659   0.529 -0.5141  0.4018  0.8156
 5634TIP3    H116859   3.511   7.684   0.595 -0.3066  2.3408 -0.0671
 5634TIP3    H216860   3.368   7.709   0.551 -0.8294  0.1467  0.2967
 5635TIP3   OH216861   2.855   0.818   2.199  0.1263 -0.1010 -0.8575
 5635TIP3    H116862   2.769   0.853   2.174 -1.0564 -0.5992  2.1059
 5635TIP3    H216863   2.914   0.894   2.194 -0.9291  0.7448 -0.9642
 5636TIP3   OH216864   0.619   0.062   0.325 -0.4089 -0.3114 -0.0742
 5636TIP3    H116865   0.695   0.030   0.374 -0.9442 -1.9443 -0.2477
 5636TIP3    H216866   0.544   0.036   0.378 -0.9252 -0.6011 -0.9316
 5637TIP3   OH216867   2.891   7.803   6.615  0.4390 -0.4470 -0.1525
 5637TIP3    H116868   2.886   7.753   6.534  4.0841 -0.5846 -0.4590
 5637TIP3    H216869   2.855   7.744   6.681 -1.6554 -0.7126 -1.4518
 5638TIP3   OH216870   1.191   6.786   5.292  0.2210 -0.0534  0.7747
 5638TIP3    H116871   1.226   6.699   5.272  0.4102  0.0526  0.6332
 5638TIP3    H216872   1.160   6.820   5.208  2.1539  0.8957  0.3734
 5639TIP3   OH216873   8.058   1.940   0.120 -0.0937 -0.3517  0.1427
 5639TIP3    H116874   8.016   1.907   0.040 -0.7968  2.3820 -0.7419
 5639TIP3    H216875   8.010   1.897   0.191 -0.8476 -1.2911 -0.8872
 5640TIP3   OH216876   4.415   0.504   0.884  0.4016  0.2819  0.0484
 5640TIP3    H116877   4.331   0.494   0.840 -1.0984  1.4980  2.4482
 5640TIP3    H216878   4.428   0.421   0.930  0.1303  0.3700  0.2850
 5641TIP3   OH216879   3.258   1.173   5.888 -0.1593 -0.0310  1.0445
 5641TIP3    H116880   3.244   1.103   5.952  2.0398 -1.5780 -0.0287
 5641TIP3    H216881   3.256   1.129   5.803 -0.2257  1.4923  0.2178
 5642TIP3   OH216882   4.667   1.214   0.904  0.5209  0.3141 -0.2136
 5642TIP3    H116883   4.622   1.143   0.858  1.7373  0.4050 -1.6303
 5642TIP3    H216884   4.706   1.173   0.981 -0.7836 -0.0396  0.2726
 5643TIP3   OH216885   6.374   0.542   5.160  0.1675 -0.9363  0.5512
 5643TIP3    H116886   6.353   0.587   5.242 -0.4100 -0.6838  0.2734
 5643TIP3    H216887   6.447   0.593   5.123  1.5060 -1.9818  1.6578
 5644TIP3   OH216888   4.413   3.049   4.643 -0.1153  0.0013 -0.8402
 5644TIP3    H116889   4.353   2.975   4.651 -0.2213  0.2792  2.2428
 5644TIP3    H216890   4.500   3.011   4.658 -0.1481  0.4302  0.5231
 5645TIP3   OH216891   4.766   7.226   1.011 -0.2969  0.2518 -0.2862
 5645TIP3    H116892   4.750   7.137   1.043  0.9092  0.1025 -0.0250
 5645TIP3    H216893   4.686   7.274   1.031 -0.2697 -0.3066  1.3093
 5646TIP3   OH216894   6.755   3.960   3.499  0.0563  0.7017  0.6880
 5646TIP3    H116895   6.765   3.879   3.449  0.5090  0.5457  1.0264
 5646TIP3    H216896   6.802   3.943   3.581  0.3518  1.3913  0.6640
 5647TIP3   OH216897   0.442   6.516   5.056  0.0565  0.2043  0.2021
 5647TIP3    H116898   0.392   6.517   4.975 -0.1823  1.7419  0.3517
 5647TIP3    H216899   0.399   6.580   5.112  0.7895 -0.1505  1.1978
 5648TIP3   OH216900   3.149   4.359   4.151  0.2068 -0.4559 -0.6363
 5648TIP3    H116901   3.190   4.431   4.104  0.2297  0.0992  0.2075
 5648TIP3    H216902   3.128   4.395   4.237 -0.5845 -1.2046 -0.5015
 5649TIP3   OH216903   2.315   7.442   3.232  0.1981  0.5056 -0.3449
 5649TIP3    H116904   2.274   7.457   3.147  0.6349 -0.2493 -0.6977
 5649TIP3    H216905   2.380   7.512   3.240  1.0948 -0.1952 -1.2466
 5650TIP3   OH216906   2.359   5.035   1.813  0.7300 -0.2000 -0.4518
 5650TIP3    H116907   2.269   5.002   1.824  0.5929 -0.6740 -2.4671
 5650TIP3    H216908   2.408   4.996   1.886 -0.7987  0.5888  1.0624
 5651TIP3   OH216909   7.162   0.721   4.328 -0.6050 -0.4883  0.0655
 5651TIP3    H116910   7.178   0.744   4.236  0.4735 -0.5903  0.2204
 5651TIP3    H216911   7.076   0.759   4.347 -0.8842 -0.5449 -1.0076
 5652TIP3   OH216912   5.572   6.592   1.826 -0.4034  0.1999  0.0698
 5652TIP3    H116913   5.640   6.659   1.833 -0.2420 -0.1316  2.2858
 5652TIP3    H216914   5.493   6.640   1.799  0.6168  0.5999 -2.4502
 5653TIP3   OH216915   2.392   2.279   5.239 -0.2273 -0.1714  0.1756
 5653TIP3    H116916   2.415   2.307   5.328  0.5292 -0.0046 -0.0647
 5653TIP3    H216917   2.332   2.205   5.252  0.7863 -0.9126  0.8476
 5654TIP3   OH216918   4.205   4.735   4.362  0.0751 -0.1222  0.4162
 5654TIP3    H116919   4.275   4.726   4.426  0.6942 -0.5816 -0.3059
 5654TIP3    H216920   4.192   4.830   4.354 -0.2924 -0.0714  1.5009
 5655TIP3   OH216921   2.847   4.184   5.710  0.1766  0.2689 -0.0538
 5655TIP3    H116922   2.899   4.159   5.634 -1.8354  1.7154 -2.0294
 5655TIP3    H216923   2.851   4.279   5.713 -0.6512  0.2998  0.9941
 5656TIP3   OH216924   3.817   4.557   3.432 -0.1989  0.1754 -0.3823
 5656TIP3    H116925   3.743   4.499   3.417 -1.0521  1.0306  0.3109
 5656TIP3    H216926   3.815   4.574   3.527  0.6523  0.5010 -0.4157
 5657TIP3   OH216927   3.950   2.149   2.200  0.6454  0.5011  0.1676
 5657TIP3    H116928   3.921   2.241   2.200  1.5068  0.7795  0.0942
 5657TIP3    H216929   4.035   2.151   2.243  0.9062 -0.1889 -0.3070
 5658TIP3   OH216930   5.189   6.046   0.948 -0.3173 -0.9051  0.4319
 5658TIP3    H116931   5.283   6.037   0.931 -0.2283 -1.2926  1.0810
 5658TIP3    H216932   5.148   5.979   0.895 -0.3208 -0.1060 -0.6027
 5659TIP3   OH216933   8.128   3.190   5.177  0.3944  0.2466  0.0844
 5659TIP3    H116934   8.041   3.188   5.218 -0.2174 -1.2000 -1.2019
 5659TIP3    H216935   8.114   3.232   5.093  1.0697  0.5889  0.1436
 5660TIP3   OH216936   8.013   4.078   5.347 -0.1703 -0.2203 -0.7073
 5660TIP3    H116937   8.010   4.009   5.414 -0.1545  0.8947  0.4903
 5660TIP3    H216938   8.105   4.084   5.322  0.0762  0.3177  0.2536
 5661TIP3   OH216939   5.618   2.063   0.220  0.1830 -0.3856 -0.2530
 5661TIP3    H116940   5.611   2.149   0.179 -2.2562 -1.0444 -1.4109
 5661TIP3    H216941   5.659   2.081   0.305  0.1559  1.8438 -0.6371
 5662TIP3   OH216942   6.762   3.540   6.365  0.3022  0.4827 -0.0544
 5662TIP3    H116943   6.669   3.548   6.344  0.0413  1.1847  1.2813
 5662TIP3    H216944   6.783   3.619   6.414  1.1355 -0.5149  1.2822
 5663TIP3   OH216945   7.876   2.192   0.964 -0.5399 -0.6307  0.5308
 5663TIP3    H116946   7.847   2.148   1.044  0.1871 -0.3408  0.9690
 5663TIP3    H216947   7.873   2.285   0.985 -0.6828 -0.5347  0.0993
 5664TIP3   OH216948   7.857   4.290   1.561 -0.2916  0.4034  0.1666
 5664TIP3    H116949   7.904   4.372   1.570 -1.2785  0.8805  1.2534
 5664TIP3    H216950   7.905   4.229   1.617  0.0952  0.3876 -0.1763
 5665TIP3   OH216951   2.769   2.780   2.846  0.4539  0.4931 -0.2377
 5665TIP3    H116952   2.856   2.778   2.885 -0.2040 -0.3281  1.2963
 5665TIP3    H216953   2.752   2.689   2.822 -1.1991 -0.0252  2.4767
 5666TIP3   OH216954   0.226   6.257   5.332  0.4923 -0.2882 -0.1171
 5666TIP3    H116955   0.262   6.261   5.421  0.2339  0.4347 -0.0357
 5666TIP3    H216956   0.293   6.213   5.281  0.1167 -1.8615  0.6874
 5667TIP3   OH216957   4.082   3.305   1.624  0.1627 -0.2281 -0.8842
 5667TIP3    H116958   4.013   3.243   1.645 -0.4464  0.5643 -0.4754
 5667TIP3    H216959   4.043   3.362   1.557  1.2967 -1.3193 -2.5462
 5668TIP3   OH216960   8.310   6.348   4.313 -0.2527  0.7109 -0.2725
 5668TIP3    H116961   8.238   6.352   4.376  0.2034  1.8480  0.1992
 5668TIP3    H216962   8.306   6.431   4.266  0.2722  0.4478 -0.7965
 5669TIP3   OH216963   7.257   1.763   6.033 -0.3060  0.7358 -0.7678
 5669TIP3    H116964   7.178   1.816   6.046 -0.1616  0.8975 -0.5636
 5669TIP3    H216965   7.302   1.764   6.117 -0.1392  0.5509 -0.8521
 5670TIP3   OH216966   2.633   0.823   0.964  0.0513  0.2165 -0.1936
 5670TIP3    H116967   2.667   0.735   0.947 -3.1281 -1.2355  0.2090
 5670TIP3    H216968   2.639   0.868   0.880 -0.7188 -1.3484 -1.1322
 5671TIP3   OH216969   0.794   0.551   0.555 -0.0989  0.7447 -0.0490
 5671TIP3    H116970   0.754   0.628   0.595  1.2393  0.1999  2.5731
 5671TIP3    H216971   0.857   0.521   0.619 -1.2925 -3.1992 -0.4406
 5672TIP3   OH216972   2.288   7.758   3.011 -0.3685 -0.8233  0.6777
 5672TIP3    H116973   2.265   7.668   2.989 -0.8031 -0.5183 -0.1307
 5672TIP3    H216974   2.324   7.752   3.100  1.3486 -2.0634 -0.0460
 5673TIP3   OH216975   4.475   3.957   1.369  0.2340  0.1723  0.1452
 5673TIP3    H116976   4.514   3.987   1.452 -0.6820 -0.9358  1.0034
 5673TIP3    H216977   4.463   3.863   1.381 -2.0505  0.3541 -0.3455
 5674TIP3   OH216978   2.751   5.432   5.353  0.2006  0.0260  0.1170
 5674TIP3    H116979   2.814   5.362   5.335  0.2759 -0.5366  2.2299
 5674TIP3    H216980   2.669   5.385   5.371 -0.0432  0.5472  0.3760
 5675TIP3   OH216981   1.603   1.650   0.679  0.1514  0.0531  1.0108
 5675TIP3    H116982   1.625   1.737   0.711  0.0443  1.0865 -1.5158
 5675TIP3    H216983   1.508   1.644   0.687  0.2057 -0.0417  1.6285
 5676TIP3   OH216984   5.768   2.691   5.792 -0.4091  0.2781 -0.0134
 5676TIP3    H116985   5.779   2.739   5.874 -1.1793 -1.1470  0.9591
 5676TIP3    H216986   5.695   2.631   5.809 -1.3186  0.6942 -2.0997
 5677TIP3   OH216987   2.684   2.802   2.239 -0.2248 -0.5866  0.2672
 5677TIP3    H116988   2.691   2.871   2.306  1.6816 -0.4919  0.0248
 5677TIP3    H216989   2.723   2.725   2.280  1.2818 -0.4418 -0.7922
 5678TIP3   OH216990   7.603   3.131   6.756 -0.6089  0.1367  0.0197
 5678TIP3    H116991   7.522   3.161   6.714 -0.3426  2.2635  0.8799
 5678TIP3    H216992   7.603   3.175   6.841  2.0598  1.2253 -0.4461
 5679TIP3   OH216993   5.148   3.274   4.118 -1.0482 -0.1900 -0.1782
 5679TIP3    H116994   5.074   3.213   4.120 -1.1917 -0.1451 -2.3777
 5679TIP3    H216995   5.165   3.289   4.025  2.5257 -1.1610  0.1590
 5680TIP3   OH216996   7.562   0.320   2.560  0.4615  0.0883 -0.2569
 5680TIP3    H116997   7.584   0.250   2.622  0.1627 -0.3844 -0.6671
 5680TIP3    H216998   7.647   0.353   2.530  0.6158 -0.5567 -0.5556
 5681TIP3   OH216999   4.179   4.822   1.158  0.2279 -0.2201  0.3423
 5681TIP3    H117000   4.226   4.743   1.186  0.3242 -0.0517  0.6560
 5681TIP3    H217001   4.243   4.892   1.165 -0.2395  0.1139  1.3501
 5682TIP3   OH217002   1.566   5.148   0.689 -0.0608 -0.1790  0.0268
 5682TIP3    H117003   1.560   5.153   0.593  0.0494  1.3791  0.0833
 5682TIP3    H217004   1.500   5.209   0.720 -0.4239 -1.0279  0.9764
 5683TIP3   OH217005   1.913   1.690   1.778 -0.2579 -0.3627 -0.1165
 5683TIP3    H117006   1.869   1.770   1.805 -1.0012 -0.4218 -1.1256
 5683TIP3    H217007   1.918   1.637   1.858 -0.4967  0.3466  0.3720
 5684TIP3   OH217008   2.353   0.364   2.241  0.2551 -0.1638 -0.5634
 5684TIP3    H117009   2.268   0.408   2.248  1.2924  1.8146  0.7422
 5684TIP3    H217010   2.415   0.435   2.221  1.8994 -1.1529  0.7359
 5685TIP3   OH217011   2.745   3.753   1.067 -0.1578  0.0407  0.4347
 5685TIP3    H117012   2.653   3.726   1.064  0.3388 -1.6769 -1.3340
 5685TIP3    H217013   2.742   3.847   1.086 -2.3329  0.2119 -0.4679
 5686TIP3   OH217014   8.181   2.476   4.998 -0.7089  0.2212  0.4831
 5686TIP3    H117015   8.110   2.521   4.953 -0.2211  0.0710 -0.4575
 5686TIP3    H217016   8.168   2.496   5.091 -2.8392 -1.0037  0.5011
 5687TIP3   OH217017   5.354   3.506   5.097  0.3158  0.3245  0.4295
 5687TIP3    H117018   5.379   3.554   5.018  2.4687  0.6344  1.2165
 5687TIP3    H217019   5.261   3.524   5.108 -0.2339 -0.2756 -2.3735
 5688TIP3   OH217020   4.016   0.706   2.552 -0.3492 -0.2323 -0.1024
 5688TIP3    H117021   4.074   0.770   2.510 -0.4247 -0.1023 -0.0096
 5688TIP3    H217022   3.972   0.755   2.621  0.1048 -0.5553  0.4229
 5689TIP3   OH217023   5.023   5.235   3.163 -0.7457  0.0159 -0.0013
 5689TIP3    H117024   5.076   5.280   3.097 -1.6574  1.0893 -0.0377
 5689TIP3    H217025   4.964   5.303   3.195 -2.5758 -1.3117 -0.4440
 5690TIP3   OH217026   4.302   0.500   4.834  0.7806 -0.1132 -0.3291
 5690TIP3    H117027   4.212   0.532   4.832 -1.0182 -4.3147  1.7109
 5690TIP3    H217028   4.309   0.442   4.758  1.7054 -0.0241 -0.3272
 5691TIP3   OH217029   6.634   1.772   1.208 -0.4145 -0.5404 -0.0845
 5691TIP3    H117030   6.680   1.854   1.226 -1.3117 -0.2703  1.0840
 5691TIP3    H217031   6.541   1.794   1.215 -0.8142 -0.9795 -2.8019
 5692TIP3   OH217032   5.080   6.583   0.649  0.1163  0.6761 -0.2099
 5692TIP3    H117033   5.044   6.664   0.686 -1.2035  0.2717 -0.5231
 5692TIP3    H217034   5.167   6.575   0.688 -0.5177  1.1876  1.3956
 5693TIP3   OH217035   6.416   3.412   5.995  0.3881 -0.1731  0.3864
 5693TIP3    H117036   6.321   3.413   5.981  0.1328  1.5263  1.8720
 5693TIP3    H217037   6.432   3.486   6.054  2.8223  0.4576 -0.9423
 5694TIP3   OH217038   4.948   6.212   3.219  0.0238  0.1944  0.8543
 5694TIP3    H117039   4.913   6.244   3.135 -2.0026 -2.2561  0.6519
 5694TIP3    H217040   5.013   6.277   3.244  2.5099 -0.1432 -3.7606
 5695TIP3   OH217041   3.060   2.419   3.096  0.2342  0.5108 -0.8706
 5695TIP3    H117042   3.025   2.417   3.007 -0.3521 -0.7231 -0.6323
 5695TIP3    H217043   3.136   2.477   3.090  0.9008 -0.4465 -2.4491
 5696TIP3   OH217044   0.482   2.179   1.527 -0.1483 -0.3214  0.2864
 5696TIP3    H117045   0.530   2.113   1.575 -1.6717 -0.1084  2.2461
 5696TIP3    H217046   0.473   2.144   1.439  2.0221 -1.1100  0.3256
 5697TIP3   OH217047   3.046   1.187   3.488 -0.4120  0.1942 -0.0997
 5697TIP3    H117048   3.137   1.159   3.493 -0.9004 -1.6823 -0.6997
 5697TIP3    H217049   3.006   1.125   3.426 -1.7296  2.0003 -1.1422
 5698TIP3   OH217050   7.176   2.052   3.924 -1.0424  0.2874  0.2442
 5698TIP3    H117051   7.239   2.096   3.980  0.2672 -1.3326  0.1262
 5698TIP3    H217052   7.173   2.105   3.845 -0.4817  0.8549  0.5941
 5699TIP3   OH217053   1.353   0.420   3.179 -0.4894 -0.3417  0.0893
 5699TIP3    H117054   1.342   0.501   3.130  0.3834  0.5032  1.2651
 5699TIP3    H217055   1.447   0.402   3.175 -0.3421 -0.0562  1.7381
 5700TIP3   OH217056   3.532   5.253   2.939 -0.5515 -0.1918  0.5372
 5700TIP3    H117057   3.512   5.307   2.862 -1.0059 -1.2115 -0.0840
 5700TIP3    H217058   3.456   5.197   2.949  0.0299 -0.9064  1.0056
 5701TIP3   OH217059   5.220   5.546   2.741 -0.2528  0.2134  0.1726
 5701TIP3    H117060   5.261   5.589   2.816  0.4685 -1.2294  0.6392
 5701TIP3    H217061   5.214   5.454   2.767  1.2174 -0.5782 -2.0502
 5702TIP3   OH217062   4.625   2.686   2.227  0.4631 -0.2349  0.4672
 5702TIP3    H117063   4.608   2.739   2.149 -1.5854 -0.3409  0.7858
 5702TIP3    H217064   4.701   2.728   2.268  2.4396 -0.9157 -2.1664
 5703TIP3   OH217065   5.592   6.518   6.239 -0.4951  0.0495  0.3708
 5703TIP3    H117066   5.645   6.474   6.173 -1.4998 -1.9138  0.7829
 5703TIP3    H217067   5.614   6.610   6.230  0.8556 -0.3816 -1.3542
 5704TIP3   OH217068   7.210   1.735   6.780 -0.0948 -0.0003  0.6150
 5704TIP3    H117069   7.250   1.672   6.719  0.4117  1.6560 -0.8402
 5704TIP3    H217070   7.116   1.726   6.765  0.0156  0.2470 -0.2735
 5705TIP3   OH217071   2.313   1.807   2.704 -0.1750  0.7807 -0.1986
 5705TIP3    H117072   2.308   1.803   2.609  0.6163 -0.2535 -0.2128
 5705TIP3    H217073   2.247   1.746   2.734  0.4976  0.0878 -0.1132
 5706TIP3   OH217074   7.234   2.558   3.357 -0.4071  0.3675  0.5703
 5706TIP3    H117075   7.313   2.509   3.335  0.0661  0.5446  1.7950
 5706TIP3    H217076   7.174   2.539   3.285  0.3854 -0.5789  0.1226
 5707TIP3   OH217077   2.622   1.007   4.755 -0.0885 -0.1724 -0.1876
 5707TIP3    H117078   2.686   1.076   4.740 -0.0799 -0.4040 -1.2917
 5707TIP3    H217079   2.663   0.951   4.821  0.8735 -0.3351 -0.9005
 5708TIP3   OH217080   7.838   6.574   1.530  0.2410  0.2737 -0.3559
 5708TIP3    H117081   7.919   6.523   1.524  0.3112  0.4643 -1.2392
 5708TIP3    H217082   7.791   6.536   1.604  0.8856 -0.2055 -0.1785
 5709TIP3   OH217083   7.698   6.526   3.280 -0.5180  0.4668  0.5143
 5709TIP3    H117084   7.699   6.435   3.250  0.4612  0.2966  1.0240
 5709TIP3    H217085   7.706   6.578   3.200 -0.1383  0.0824  0.3031
 5710TIP3   OH217086   0.482   3.639   5.994 -0.1647 -0.4125  0.4579
 5710TIP3    H117087   0.468   3.725   5.954  1.0328 -0.4364 -0.0557
 5710TIP3    H217088   0.476   3.655   6.088 -0.0885  0.2097  0.3619
 5711TIP3   OH217089   3.521   4.974   6.109 -0.5340  0.1907  0.4715
 5711TIP3    H117090   3.553   5.009   6.026  0.2962  1.0348  1.1216
 5711TIP3    H217091   3.537   5.044   6.172 -1.0550 -0.4731  1.3654
 5712TIP3   OH217092   1.523   1.134   4.668 -0.1709 -0.1084 -0.4708
 5712TIP3    H117093   1.607   1.179   4.674 -0.1592 -0.2205  0.2282
 5712TIP3    H217094   1.539   1.061   4.608  0.4497 -0.6274  0.3210
 5713TIP3   OH217095   4.339   7.649   5.192  0.1767  0.5179  0.5326
 5713TIP3    H117096   4.332   7.589   5.266  1.8761  0.7478  0.9222
 5713TIP3    H217097   4.249   7.679   5.176 -0.3470 -0.2747  1.8727
 5714TIP3   OH217098   3.720   3.978   0.327  0.1649  0.1491  0.6923
 5714TIP3    H117099   3.669   3.898   0.318  0.8878 -0.1424 -1.5986
 5714TIP3    H217100   3.686   4.036   0.258  0.1884  1.5236  1.7907
 5715TIP3   OH217101   3.841   3.208   3.844 -0.1119  0.2425 -0.1093
 5715TIP3    H117102   3.893   3.226   3.765  0.3596 -0.9617 -0.1037
 5715TIP3    H217103   3.783   3.283   3.853  0.0438  0.5448 -1.4384
 5716TIP3   OH217104   4.152   2.773   5.956 -0.1912 -0.2687 -0.3444
 5716TIP3    H117105   4.105   2.714   6.015 -0.5807  0.3310 -0.0434
 5716TIP3    H217106   4.193   2.837   6.014  0.4812 -0.4205 -0.6506
 5717TIP3   OH217107   3.208   4.399   1.571  0.5632  0.1147  0.2382
 5717TIP3    H117108   3.118   4.427   1.586 -0.1175 -1.7055 -0.1769
 5717TIP3    H217109   3.237   4.366   1.656  0.5245 -0.0961  0.1708
 5718TIP3   OH217110   3.243   0.675   2.631 -0.1937  0.0316  0.1109
 5718TIP3    H117111   3.266   0.745   2.570  2.1352  0.2686  1.1723
 5718TIP3    H217112   3.165   0.707   2.677 -1.1359  0.4439 -1.6939
 5719TIP3   OH217113   1.506   0.170   4.712  0.2912  0.1086  0.3975
 5719TIP3    H117114   1.464   0.218   4.641  0.6175  0.8047  0.6630
 5719TIP3    H217115   1.571   0.231   4.747  1.9796 -1.1424 -0.4087
 5720TIP3   OH217116   7.628   0.561   0.383  0.4929  0.2172  0.6659
 5720TIP3    H117117   7.625   0.498   0.311 -0.1829  1.0093 -0.0123
 5720TIP3    H217118   7.722   0.577   0.397  0.6208  1.1204 -1.0086
 5721TIP3   OH217119   1.478   4.615   3.639  0.0299 -0.1392  0.1963
 5721TIP3    H117120   1.408   4.619   3.574  2.0177  2.5850 -2.0334
 5721TIP3    H217121   1.470   4.696   3.689  1.1735 -0.0941  0.3463
 5722TIP3   OH217122   0.304   5.560   5.742  1.0151  0.3442  0.3476
 5722TIP3    H117123   0.246   5.634   5.758  0.2393  0.1190 -1.1864
 5722TIP3    H217124   0.384   5.581   5.791  0.2628  1.4611  1.1478
 5723TIP3   OH217125   7.969   3.743   2.156  0.4953  0.0726 -0.4241
 5723TIP3    H117126   7.996   3.737   2.064  1.3530  0.0354 -0.1768
 5723TIP3    H217127   8.002   3.829   2.184 -1.1017  0.7680 -0.5665
 5724TIP3   OH217128   4.016   4.183   1.528  0.4247 -0.2957 -0.1563
 5724TIP3    H117129   4.078   4.147   1.465 -0.2785 -1.7229 -0.0795
 5724TIP3    H217130   3.988   4.107   1.580 -0.6159  0.4812  0.4564
 5725TIP3   OH217131   5.070   3.436   5.060  0.0621 -0.2072 -0.5147
 5725TIP3    H117132   5.133   3.366   5.041  0.3739  0.3966 -1.8130
 5725TIP3    H217133   5.039   3.416   5.148  1.2304 -1.1626 -0.2807
 5726TIP3   OH217134   3.089   3.253   1.115 -0.1043  0.4240 -0.0193
 5726TIP3    H117135   3.007   3.205   1.102 -0.7251  1.3826  0.2209
 5726TIP3    H217136   3.155   3.200   1.072 -0.5099 -1.3700  1.4560
 5727TIP3   OH217137   2.693   3.734   1.569  0.6660  0.1907 -0.3998
 5727TIP3    H117138   2.719   3.647   1.538  0.5594 -1.2514  3.0269
 5727TIP3    H217139   2.774   3.772   1.604  0.0428 -0.4324  1.9395
 5728TIP3   OH217140   7.812   1.960   5.090  0.5941  0.4307 -0.3432
 5728TIP3    H117141   7.786   2.030   5.151  0.5809  0.0050  0.1523
 5728TIP3    H217142   7.729   1.919   5.065  0.5688  0.8298 -0.9343
 5729TIP3   OH217143   7.905   0.929   2.848  0.2654  0.2371 -0.3173
 5729TIP3    H117144   7.929   0.984   2.773 -0.9902  0.9891 -0.1957
 5729TIP3    H217145   7.816   0.901   2.830  0.7578 -1.5370 -0.2094
 5730TIP3   OH217146   0.761   2.989   5.768 -0.2965  0.1866 -0.0647
 5730TIP3    H117147   0.722   3.031   5.844 -1.2295  0.9580 -0.9352
 5730TIP3    H217148   0.828   2.931   5.804 -0.6654  0.5852  1.3243
 5731TIP3   OH217149   5.166   2.989   2.490  0.1078  0.6400  0.1859
 5731TIP3    H117150   5.235   3.044   2.527  0.1991 -0.0221  1.0235
 5731TIP3    H217151   5.184   2.902   2.524 -0.4181  0.2081 -0.6008
 5732TIP3   OH217152   5.435   5.235   4.991  0.0637  0.2308 -0.1473
 5732TIP3    H117153   5.341   5.237   5.005 -0.2997 -1.2130 -1.9660
 5732TIP3    H217154   5.468   5.170   5.053  0.1664  1.9408  1.6793
 5733TIP3   OH217155   5.801   4.131   1.417 -0.3265  0.7981  0.0464
 5733TIP3    H117156   5.844   4.217   1.418 -0.9813  1.1396 -0.7823
 5733TIP3    H217157   5.783   4.114   1.325  2.7856 -1.7549 -0.2718
 5734TIP3   OH217158   7.443   2.016   3.280  0.2747  0.1358 -0.0717
 5734TIP3    H117159   7.408   2.045   3.364 -0.6939 -2.8346  0.6427
 5734TIP3    H217160   7.532   1.985   3.300  0.5885  0.7562 -0.4580
 5735TIP3   OH217161   2.041   5.923   3.075 -0.2079 -0.0313  0.3936
 5735TIP3    H117162   1.973   5.987   3.051  0.8453  1.6829  1.6998
 5735TIP3    H217163   2.013   5.890   3.160  1.2892  1.9104  1.7434
 5736TIP3   OH217164   4.530   6.560   4.083 -0.2733 -0.3394 -0.2839
 5736TIP3    H117165   4.444   6.519   4.076 -0.3757 -0.0012 -1.1170
 5736TIP3    H217166   4.528   6.604   4.168 -0.8817 -0.4340 -0.2416
 5737TIP3   OH217167   6.968   3.342   5.792  0.6702 -0.2134  0.1797
 5737TIP3    H117168   6.929   3.298   5.867  2.8340 -2.4886  0.0806
 5737TIP3    H217169   6.910   3.321   5.719 -2.0959  2.9442  1.1882
 5738TIP3   OH217170   2.093   5.457   4.416  0.2571 -0.4976 -0.0001
 5738TIP3    H117171   2.043   5.441   4.335  0.8124 -2.9288  0.0523
 5738TIP3    H217172   2.185   5.444   4.390  0.5465 -0.0267  0.7628
 5739TIP3   OH217173   6.826   1.631   2.314 -0.4266 -0.0571 -0.0899
 5739TIP3    H117174   6.907   1.590   2.283 -1.1771 -1.4286 -0.3275
 5739TIP3    H217175   6.760   1.606   2.250 -0.8912  1.8315 -0.4209
 5740TIP3   OH217176   5.446   2.314   2.802 -0.5867  0.0284  0.9040
 5740TIP3    H117177   5.369   2.264   2.828 -2.3054  1.2964 -1.3747
 5740TIP3    H217178   5.411   2.391   2.756  2.0215  1.1976  0.6816
 5741TIP3   OH217179   3.030   1.664   5.527  0.6807 -0.1703  0.2641
 5741TIP3    H117180   3.009   1.574   5.503  0.1410 -0.2068  0.8541
 5741TIP3    H217181   2.947   1.703   5.552  1.2002 -0.1788  2.1767
 5742TIP3   OH217182   3.147   4.212   5.873 -0.1167 -0.5364  0.0466
 5742TIP3    H117183   3.174   4.244   5.787 -1.0313 -2.0263 -0.8262
 5742TIP3    H217184   3.185   4.275   5.934  0.9537  0.2944 -1.4048
 5743TIP3   OH217185   4.799   5.355   3.837 -0.1472  0.0912 -0.8470
 5743TIP3    H117186   4.825   5.306   3.915 -1.3068  1.9570  0.8199
 5743TIP3    H217187   4.736   5.298   3.793  1.2220 -1.3814 -0.9663
 5744TIP3   OH217188   4.612   6.264   0.092  0.0865  0.2259 -0.0319
 5744TIP3    H117189   4.690   6.224   0.130  0.0340  0.9955  0.9202
 5744TIP3    H217190   4.644   6.306   0.012  0.3601 -0.6765 -0.4159
 5745TIP3   OH217191   3.551   3.090   4.918  0.0431  0.2613  0.3400
 5745TIP3    H117192   3.481   3.051   4.865  0.1619  0.3995  0.0761
 5745TIP3    H217193   3.562   3.179   4.882  0.4427  0.1961  0.2862
 5746TIP3   OH217194   0.578   7.577   4.598 -0.4444  0.1842 -0.4434
 5746TIP3    H117195   0.536   7.496   4.624  1.0431 -1.2129 -2.1728
 5746TIP3    H217196   0.666   7.551   4.570 -0.6423  2.0156 -3.1621
 5747TIP3   OH217197   0.257   1.285   5.357  0.0746  0.0459  0.4946
 5747TIP3    H117198   0.292   1.292   5.446 -0.5202 -1.9313  0.9492
 5747TIP3    H217199   0.321   1.232   5.310 -0.4077 -0.3365  0.2490
 5748TIP3   OH217200   5.051   3.439   2.926 -0.3565  0.2710 -0.0341
 5748TIP3    H117201   5.043   3.508   2.992 -2.6499 -0.4804  0.5900
 5748TIP3    H217202   5.143   3.439   2.901  0.4809  0.9632  2.7495
 5749TIP3   OH217203   6.195   6.973   0.855 -0.2532 -0.4801 -0.2165
 5749TIP3    H117204   6.215   6.882   0.877 -0.0162  0.0032  1.6788
 5749TIP3    H217205   6.277   7.020   0.871 -1.1167  0.5049  1.5727
 5750TIP3   OH217206   2.677   5.831   0.785  0.1484 -0.0447  0.2566
 5750TIP3    H117207   2.623   5.809   0.861  0.8002 -1.5779  0.3134
 5750TIP3    H217208   2.641   5.914   0.754 -1.0524 -0.1019  1.3775
 5751TIP3   OH217209   0.960   0.069   0.241 -0.2297  0.3364 -0.6460
 5751TIP3    H117210   0.953   0.158   0.275  0.4356  0.2061 -0.1530
 5751TIP3    H217211   0.961   0.013   0.318 -0.1415 -0.0688 -0.9366
 5752TIP3   OH217212   6.993   5.270   4.892  0.2232 -0.1072  0.3709
 5752TIP3    H117213   6.960   5.302   4.976 -0.1027  0.3233  0.0809
 5752TIP3    H217214   6.915   5.248   4.841  0.4200 -2.5582  0.9808
 5753TIP3   OH217215   0.940   4.277   5.246  0.4208  0.4510  0.1419
 5753TIP3    H117216   0.862   4.222   5.246  0.9764 -0.5363 -2.9131
 5753TIP3    H217217   1.005   4.227   5.197  3.1059  1.1630  2.6840
 5754TIP3   OH217218   5.863   1.182   1.709  0.4161 -0.0872 -0.4226
 5754TIP3    H117219   5.941   1.177   1.763 -0.2773  0.1494  0.6380
 5754TIP3    H217220   5.853   1.275   1.687 -1.7197  0.6196  2.8317
 5755TIP3   OH217221   3.635   5.531   3.390 -0.2070 -0.5915 -0.0249
 5755TIP3    H117222   3.618   5.438   3.404  2.3173 -1.0102  0.8427
 5755TIP3    H217223   3.639   5.568   3.478  0.0158  0.0691 -0.3068
 5756TIP3   OH217224   2.812   2.407   5.945 -0.0091  0.3772  0.1347
 5756TIP3    H117225   2.895   2.363   5.962  0.3416  1.0599  0.1918
 5756TIP3    H217226   2.755   2.337   5.913  1.2734  0.3300 -2.2329
 5757TIP3   OH217227   5.249   0.317   0.507 -0.0894 -0.1542 -0.0896
 5757TIP3    H117228   5.314   0.384   0.484  1.5573 -1.2569  1.1198
 5757TIP3    H217229   5.165   0.363   0.503  0.7038  1.2814 -1.8614
 5758TIP3   OH217230   6.949   6.033   2.933 -0.0752  0.2672 -0.6901
 5758TIP3    H117231   6.866   6.064   2.897 -0.5926  1.0789  1.1272
 5758TIP3    H217232   6.993   6.111   2.965 -0.3653 -0.5243  1.8634
 5759TIP3   OH217233   0.530   1.969   4.157  0.4878  0.2110 -0.2608
 5759TIP3    H117234   0.490   2.051   4.128  1.3611  0.5413 -0.5802
 5759TIP3    H217235   0.492   1.953   4.243  1.3158  1.6980  0.4320
 5760TIP3   OH217236   0.869   4.754   6.104 -0.4615  0.4031  0.0286
 5760TIP3    H117237   0.809   4.694   6.060 -1.4497  0.6368  0.9989
 5760TIP3    H217238   0.894   4.817   6.037 -3.6797  2.0777  0.2021
 5761TIP3   OH217239   0.906   7.205   0.304 -0.0309  0.7140 -0.3139
 5761TIP3    H117240   0.813   7.187   0.310 -0.1391  0.4534 -2.2260
 5761TIP3    H217241   0.945   7.158   0.378 -1.3328  0.4063  0.1962
 5762TIP3   OH217242   1.956   5.366   0.080 -0.4131  0.3253 -0.3198
 5762TIP3    H117243   2.047   5.384   0.060  0.1426 -0.6704  1.1400
 5762TIP3    H217244   1.943   5.400   0.169 -0.8913 -1.2303  0.2473
 5763TIP3   OH217245   0.082   6.175   2.831 -0.2339 -0.2074  0.5376
 5763TIP3    H117246   0.081   6.211   2.743  1.9254  0.3841  0.7069
 5763TIP3    H217247   0.005   6.213   2.873 -0.5593  0.5544 -0.6846
 5764TIP3   OH217248   1.759   2.385   5.143  0.6313  0.3128  0.1847
 5764TIP3    H117249   1.751   2.424   5.056 -0.3250 -1.5497 -0.6245
 5764TIP3    H217250   1.798   2.454   5.197  3.5470  0.7626 -2.2384
 5765TIP3   OH217251   1.181   5.137   0.868  0.4481 -0.0667  0.1088
 5765TIP3    H117252   1.126   5.115   0.942 -0.7761  0.3074 -0.6653
 5765TIP3    H217253   1.172   5.062   0.808  1.5429 -0.4376  0.3833
 5766TIP3   OH217254   0.222   2.253   2.009  0.0704  0.0156 -0.1370
 5766TIP3    H117255   0.247   2.341   2.037 -0.2374  0.2880 -0.7146
 5766TIP3    H217256   0.305   2.205   2.007  0.3172  0.4457 -0.3821
 5767TIP3   OH217257   4.057   2.174   4.493  0.0575 -0.1819 -0.7794
 5767TIP3    H117258   4.031   2.086   4.466  0.8494 -0.1323 -1.7722
 5767TIP3    H217259   3.977   2.227   4.482 -0.3617 -0.7263 -0.3887
 5768TIP3   OH217260   3.004   7.188   5.543  0.5335 -0.8913  0.5571
 5768TIP3    H117261   2.994   7.112   5.601 -1.1507 -0.8798  0.3433
 5768TIP3    H217262   2.972   7.261   5.596 -1.2342 -0.9161 -0.4154
 5769TIP3   OH217263   0.526   5.917   0.307  0.1631  0.5074  0.7279
 5769TIP3    H117264   0.614   5.915   0.269  0.5537  0.6557  1.6113
 5769TIP3    H217265   0.533   5.977   0.381 -0.6946  0.5392  0.7924
 5770TIP3   OH217266   1.478   0.664   3.735 -0.2470 -0.5367 -0.1035
 5770TIP3    H117267   1.394   0.709   3.744 -0.1864 -0.3341 -0.5695
 5770TIP3    H217268   1.454   0.571   3.726 -0.4761 -0.3825 -1.2124
 5771TIP3   OH217269   0.962   5.108   1.291  0.5924 -0.3055 -0.0052
 5771TIP3    H117270   0.941   5.042   1.357  1.4237 -2.7760 -2.0435
 5771TIP3    H217271   1.013   5.174   1.338  1.0935 -1.9097  1.8327
 5772TIP3   OH217272   7.756   4.764   4.397  0.7697  0.4755 -0.2324
 5772TIP3    H117273   7.811   4.781   4.474  0.4376  2.7297 -0.4129
 5772TIP3    H217274   7.814   4.780   4.323  0.8357 -0.7787 -0.4632
 5773TIP3   OH217275   1.966   2.374   4.344 -0.1797  0.1730  0.2519
 5773TIP3    H117276   2.003   2.374   4.255 -0.6474 -2.5272 -0.0332
 5773TIP3    H217277   2.042   2.364   4.401 -0.0597 -0.5159 -0.0187
 5774TIP3   OH217278   6.309   5.397   5.702  0.2583 -0.1837 -0.2258
 5774TIP3    H117279   6.334   5.332   5.767 -0.4943 -0.7483 -0.4824
 5774TIP3    H217280   6.292   5.477   5.753 -0.3805 -0.6338  0.2897
 5775TIP3   OH217281   6.262   1.600   5.656  0.5871  0.3259  0.4443
 5775TIP3    H117282   6.300   1.682   5.686  0.3813 -0.0331  1.7332
 5775TIP3    H217283   6.170   1.606   5.680  0.5346 -0.2099  0.3859
 5776TIP3   OH217284   1.808   5.811   3.970 -0.2630  0.0444 -0.1260
 5776TIP3    H117285   1.875   5.874   3.995 -0.3291  0.1201 -0.1420
 5776TIP3    H217286   1.725   5.857   3.983 -0.2585  0.6427 -1.9864
 5777TIP3   OH217287   7.649   3.350   6.004 -0.3951  0.2495  0.2701
 5777TIP3    H117288   7.651   3.254   5.996  0.1759  0.3666 -1.5239
 5777TIP3    H217289   7.737   3.373   6.031 -0.7096  0.2415  1.3293
 5778TIP3   OH217290   7.449   1.852   0.645  0.0886 -0.2268  0.1109
 5778TIP3    H117291   7.485   1.898   0.570  1.1503  0.9714  1.3123
 5778TIP3    H217292   7.463   1.911   0.719  0.6597 -2.0777  1.5597
 5779TIP3   OH217293   6.294   4.321   2.507 -0.0168 -0.3664  0.1759
 5779TIP3    H117294   6.238   4.280   2.573  0.6366 -1.1568  0.2611
 5779TIP3    H217295   6.232   4.356   2.442 -0.6402 -0.1702  0.8602
 5780TIP3   OH217296   4.557   5.851   3.341  0.5937  0.3423 -0.6728
 5780TIP3    H117297   4.533   5.776   3.287  0.4112  0.0094 -0.1391
 5780TIP3    H217298   4.502   5.844   3.418  0.4812  1.1069 -0.6747
 5781TIP3   OH217299   7.735   7.602   2.749  0.2814  0.3041  0.5218
 5781TIP3    H117300   7.797   7.674   2.740  1.8494 -0.9416  0.8354
 5781TIP3    H217301   7.661   7.639   2.797  0.5494  1.9577 -0.2793
 5782TIP3   OH217302   2.586   6.097   2.671 -0.4808 -0.1631  0.0057
 5782TIP3    H117303   2.495   6.111   2.696 -0.6164 -0.8092 -0.0929
 5782TIP3    H217304   2.630   6.073   2.753 -0.1927  1.0628  0.2234
 5783TIP3   OH217305   5.442   2.648   4.890  0.2220 -0.0328 -0.1855
 5783TIP3    H117306   5.433   2.602   4.807 -0.8232  1.7790 -1.1394
 5783TIP3    H217307   5.515   2.605   4.934 -0.5951 -2.4604 -1.0523
 5784TIP3   OH217308   1.674   7.011   3.007 -0.1372 -0.4950 -0.1634
 5784TIP3    H117309   1.639   7.084   2.955  0.0377 -0.7167 -0.6011
 5784TIP3    H217310   1.598   6.955   3.023 -0.3668  0.0181  0.5823
 5785TIP3   OH217311   5.521   5.124   5.644  0.3658 -0.4966 -0.0204
 5785TIP3    H117312   5.511   5.217   5.667  2.1139 -0.3766  0.3925
 5785TIP3    H217313   5.615   5.111   5.637  0.2734 -2.6640  1.7369
 5786TIP3   OH217314   0.960   2.863   2.041 -0.4291  0.0990  0.5359
 5786TIP3    H117315   0.957   2.921   2.118 -1.2742  1.6291 -0.5932
 5786TIP3    H217316   0.888   2.893   1.986  0.7328 -0.3138 -1.2883
 5787TIP3   OH217317   2.434   0.298   4.645  0.2184  0.3289 -0.3694
 5787TIP3    H117318   2.359   0.280   4.588  0.6451  0.0952 -0.8655
 5787TIP3    H217319   2.478   0.372   4.602  0.4321  0.2810 -0.2289
 5788TIP3   OH217320   1.580   0.294   5.409  0.4778  0.0823  0.0706
 5788TIP3    H117321   1.486   0.281   5.419  0.3784 -1.5019 -2.0235
 5788TIP3    H217322   1.619   0.249   5.485 -0.4211 -0.6096  0.1403
 5789TIP3   OH217323   6.294   0.996   2.170 -0.0859  0.3276 -0.2322
 5789TIP3    H117324   6.291   0.921   2.109 -0.2105  0.1336  0.0122
 5789TIP3    H217325   6.210   1.039   2.159 -0.5704 -0.3689  0.6317
 5790TIP3   OH217326   0.855   4.840   3.595 -0.1062  0.3853 -0.1290
 5790TIP3    H117327   0.794   4.776   3.560 -0.0412  0.6196 -0.6709
 5790TIP3    H217328   0.817   4.865   3.680  0.4680 -1.2173  0.6327
 5791TIP3   OH217329   7.346   6.169   0.647 -0.6704 -0.2088  0.6969
 5791TIP3    H117330   7.335   6.074   0.648 -1.3512 -0.1574 -0.4614
 5791TIP3    H217331   7.440   6.181   0.635 -0.6134 -0.7447  0.5377
 5792TIP3   OH217332   1.121   1.067   4.281 -0.2808  0.3337 -0.1794
 5792TIP3    H117333   1.157   1.150   4.312  1.4858 -0.3142 -0.3626
 5792TIP3    H217334   1.196   1.021   4.242 -1.3106 -1.1371 -0.5307
 5793TIP3   OH217335   1.348   3.801   5.176  0.1577  0.6299  0.5597
 5793TIP3    H117336   1.355   3.719   5.224 -0.3189 -0.3273 -0.9252
 5793TIP3    H217337   1.404   3.862   5.223 -1.1908  0.1125  2.9933
 5794TIP3   OH217338   1.978   4.558   3.007  0.5489  0.1780  0.6641
 5794TIP3    H117339   1.907   4.500   3.034 -0.1654  0.3196 -0.7819
 5794TIP3    H217340   1.933   4.636   2.974  1.4090  0.5730  0.3959
 5795TIP3   OH217341   7.764   2.660   3.639 -0.5951  0.3089  0.4280
 5795TIP3    H117342   7.803   2.598   3.701 -0.7565 -0.0423  0.1799
 5795TIP3    H217343   7.772   2.745   3.682  0.6176  0.2721  0.3013
 5796TIP3   OH217344   3.284   3.548   0.792  0.4550 -0.2710 -0.2568
 5796TIP3    H117345   3.338   3.471   0.778  0.3004 -0.8121  1.7800
 5796TIP3    H217346   3.230   3.555   0.713  1.9837 -0.9458 -1.4049
 5797TIP3   OH217347   5.224   3.740   2.751  0.2366 -0.3269  0.0454
 5797TIP3    H117348   5.186   3.724   2.837 -0.4487  0.7800 -0.0317
 5797TIP3    H217349   5.261   3.655   2.725 -0.6801 -1.0028  0.8658
 5798TIP3   OH217350   1.650   1.251   5.181  0.3271 -0.2748  0.0952
 5798TIP3    H117351   1.620   1.164   5.156  1.9639 -0.6380 -0.7229
 5798TIP3    H217352   1.602   1.310   5.123  0.5517 -0.7788 -0.6125
 5799TIP3   OH217353   5.726   7.525   2.211 -0.1831 -0.0130  0.0953
 5799TIP3    H117354   5.701   7.462   2.142  1.0075 -1.0789  0.5968
 5799TIP3    H217355   5.775   7.592   2.165 -0.7442  0.1210 -0.3235
 5800TIP3   OH217356   7.297   1.410   0.926  0.1593  0.3312 -0.0096
 5800TIP3    H117357   7.247   1.339   0.966 -2.2937  1.5456 -0.6714
 5800TIP3    H217358   7.288   1.396   0.832  1.1318  0.5621 -0.1435
 5801TIP3   OH217359   7.806   5.693   0.393  0.2008  0.5045 -0.1225
 5801TIP3    H117360   7.879   5.736   0.437  1.6995 -0.5960 -1.4011
 5801TIP3    H217361   7.833   5.688   0.301 -0.2184 -2.3659 -0.1899
 5802TIP3   OH217362   0.233   5.122   0.783  0.4765  0.0522 -0.1265
 5802TIP3    H117363   0.157   5.156   0.830 -0.7785  2.6366 -3.6130
 5802TIP3    H217364   0.206   5.036   0.752 -0.9934  0.8369 -1.1155
 5803TIP3   OH217365   1.986   6.159   3.541  0.2102 -0.7145 -0.1236
 5803TIP3    H117366   2.010   6.158   3.448 -0.0698  0.1722 -0.2197
 5803TIP3    H217367   1.992   6.251   3.566 -2.9647 -0.3801 -0.1491
 5804TIP3   OH217368   0.944   7.059   6.335  0.5229 -0.1249  0.4385
 5804TIP3    H117369   1.026   7.016   6.359  0.8381  0.8297  1.1220
 5804TIP3    H217370   0.929   7.123   6.404  1.0313  2.1526 -1.4409
 5805TIP3   OH217371   8.167   5.543   0.479 -0.2289 -0.1509 -0.1487
 5805TIP3    H117372   8.119   5.469   0.517 -0.7376  0.1261 -0.2520
 5805TIP3    H217373   8.121   5.621   0.510  0.0480  0.1139 -0.3941
 5806TIP3   OH217374   0.795   6.587   0.409 -0.3994 -0.2343  0.0749
 5806TIP3    H117375   0.749   6.504   0.398 -1.7684  0.5230 -0.1318
 5806TIP3    H217376   0.814   6.616   0.319 -0.5697  0.0127  0.1165
 5807TIP3   OH217377   5.179   0.169   0.244 -0.2827  1.0431 -0.0922
 5807TIP3    H117378   5.244   0.145   0.309 -0.8406  1.5107  0.6490
 5807TIP3    H217379   5.216   0.246   0.200  0.6070  0.0576 -1.1223
 5808TIP3   OH217380   2.396   5.862   0.660 -0.5398  0.5407 -0.0725
 5808TIP3    H117381   2.448   5.782   0.667 -0.4843  0.7093  1.8307
 5808TIP3    H217382   2.313   5.833   0.622 -0.4007 -0.3608  0.2791
 5809TIP3   OH217383   0.449   5.043   6.289  0.5586  0.5898 -0.6017
 5809TIP3    H117384   0.462   5.040   6.194  0.1164  0.1970 -0.6537
 5809TIP3    H217385   0.486   4.960   6.321  0.1497  0.4411 -0.5059
 5810TIP3   OH217386   4.954   2.533   1.718 -0.2036 -0.0587 -0.4537
 5810TIP3    H117387   4.964   2.571   1.630 -1.4778 -0.9011 -0.9940
 5810TIP3    H217388   4.902   2.455   1.704  3.2884 -2.7970  0.4437
 5811TIP3   OH217389   1.219   4.505   6.388  0.1762 -0.6420  0.3178
 5811TIP3    H117390   1.156   4.449   6.433  2.3236 -1.4505  2.5754
 5811TIP3    H217391   1.261   4.448   6.324  2.2730 -1.7916  2.5265
 5812TIP3   OH217392   0.101   0.497   4.785  0.7986  0.7268 -0.3395
 5812TIP3    H117393   0.018   0.449   4.794  0.7041  0.6262 -1.5684
 5812TIP3    H217394   0.118   0.531   4.873 -0.1642  0.1291  0.1053
 5813TIP3   OH217395   6.136   7.505   1.513  0.2029  0.6347  0.1760
 5813TIP3    H117396   6.043   7.520   1.525 -0.0994 -1.0776  0.1874
 5813TIP3    H217397   6.144   7.476   1.422  0.6251  0.0389  0.4017
 5814TIP3   OH217398   5.564   2.993   6.334  0.2947 -0.6475 -0.2213
 5814TIP3    H117399   5.565   3.017   6.427 -0.7793 -1.3211 -0.0208
 5814TIP3    H217400   5.619   2.915   6.329  1.8066  0.3946 -0.4712
 5815TIP3   OH217401   4.891   0.060   6.739  0.3886  0.0292  0.8034
 5815TIP3    H117402   4.952   0.123   6.700  0.4504 -0.7623 -0.4509
 5815TIP3    H217403   4.805   0.087   6.706  0.3644 -0.2812  0.6104
 5816TIP3   OH217404   1.470   1.359   0.229 -0.0189  0.1337 -0.1765
 5816TIP3    H117405   1.554   1.394   0.199 -0.2393  0.0583 -0.8872
 5816TIP3    H217406   1.405   1.405   0.176 -0.3609 -0.6913 -0.4861
 5817TIP3   OH217407   6.076   1.949   1.497 -0.6528 -0.3594 -0.0635
 5817TIP3    H117408   6.041   1.885   1.559  1.4981  0.9206  2.6949
 5817TIP3    H217409   6.035   2.032   1.522  1.8600  0.5870  1.2651
 5818TIP3   OH217410   6.376   6.208   2.744  0.1178 -0.4742 -0.3522
 5818TIP3    H117411   6.297   6.261   2.737  0.2110  0.1151  2.1150
 5818TIP3    H217412   6.442   6.269   2.777  0.7386 -1.6439  0.6462
 5819TIP3   OH217413   1.693   3.556   6.103 -0.0713 -0.0296  0.0684
 5819TIP3    H117414   1.761   3.505   6.059 -1.3307 -2.4585  0.7549
 5819TIP3    H217415   1.704   3.534   6.196  0.1067  1.9918  0.5786
 5820TIP3   OH217416   4.253   0.224   5.273  0.2085  0.6141  0.3398
 5820TIP3    H117417   4.248   0.301   5.330 -0.8793  0.6921  0.1576
 5820TIP3    H217418   4.296   0.257   5.194  0.2912  0.8940  0.4979
 5821TIP3   OH217419   3.783   7.422   0.687  0.2204 -0.3063 -0.5262
 5821TIP3    H117420   3.715   7.362   0.656  0.2660 -0.7122  0.1482
 5821TIP3    H217421   3.758   7.443   0.777  0.0565  0.9117 -0.8309
 5822TIP3   OH217422   7.457   2.282   0.279 -0.3696  0.2679 -0.1904
 5822TIP3    H117423   7.515   2.207   0.277 -0.2204  0.3665 -2.8920
 5822TIP3    H217424   7.379   2.251   0.325  0.0077 -1.2819 -0.5551
 5823TIP3   OH217425   2.898   6.819   5.251  0.0839  0.1533  0.0925
 5823TIP3    H117426   2.932   6.906   5.229  1.6288 -0.5255 -0.3552
 5823TIP3    H217427   2.889   6.820   5.346  1.1754  0.4510  0.2064
 5824TIP3   OH217428   2.243   3.370   2.078  0.5007 -0.5013  0.2073
 5824TIP3    H117429   2.196   3.296   2.039  1.5561 -0.5715 -0.9850
 5824TIP3    H217430   2.314   3.388   2.017  0.5878  1.1595  0.7577
 5825TIP3   OH217431   1.639   3.029   2.156  0.1629 -0.4331 -0.1343
 5825TIP3    H117432   1.653   3.060   2.246  0.1903  0.5249 -0.4639
 5825TIP3    H217433   1.549   3.055   2.136  1.1024  2.0932 -1.4399
 5826TIP3   OH217434   2.771   2.043   2.492  0.5323 -0.3288 -0.7015
 5826TIP3    H117435   2.857   2.083   2.492  1.0225 -1.2820 -2.1602
 5826TIP3    H217436   2.750   2.029   2.584  1.5399  0.7291 -0.3043
 5827TIP3   OH217437   5.761   5.012   6.322 -0.1745  0.2432 -0.2467
 5827TIP3    H117438   5.774   4.947   6.253 -0.4364 -0.1477  0.0695
 5827TIP3    H217439   5.803   5.092   6.288  1.8020 -0.5823  0.1554
 5828TIP3   OH217440   5.016   5.850   5.458  0.3481  0.4906  0.4086
 5828TIP3    H117441   5.057   5.924   5.503  1.5891 -0.4958  0.9874
 5828TIP3    H217442   5.025   5.777   5.520 -1.1837 -0.0663  0.0115
 5829TIP3   OH217443   5.111   1.103   5.886  0.2189 -0.0123 -0.4065
 5829TIP3    H117444   5.101   1.009   5.903  0.5706 -0.1354 -0.8483
 5829TIP3    H217445   5.158   1.107   5.803 -0.4179  0.5589 -0.7492
 5830TIP3   OH217446   7.236   1.979   0.404 -0.0306  0.1727  0.2560
 5830TIP3    H117447   7.170   1.914   0.377  0.3677  0.2657 -0.9939
 5830TIP3    H217448   7.200   2.016   0.485 -0.3987 -1.4010  0.8605
 5831TIP3   OH217449   3.330   2.376   0.257  0.2040 -0.4344  0.4003
 5831TIP3    H117450   3.259   2.379   0.193 -0.1458 -0.2365  0.7953
 5831TIP3    H217451   3.389   2.447   0.230  0.7468 -1.1807 -0.4784
 5832TIP3   OH217452   5.498   3.092   4.408 -0.7512 -0.6507  0.5875
 5832TIP3    H117453   5.513   3.180   4.444 -0.4886 -0.6263  0.4157
 5832TIP3    H217454   5.463   3.108   4.321 -1.4971 -0.7100  0.8706
 5833TIP3   OH217455   4.068   0.024   5.344  0.3845 -0.1140  0.4359
 5833TIP3    H117456   4.004   0.078   5.298 -0.0478 -0.3869  0.7088
 5833TIP3    H217457   4.141   0.082   5.361  0.6840 -0.0801 -0.8652
 5834TIP3   OH217458   6.774   5.960   2.647  0.3960 -0.3215 -0.3548
 5834TIP3    H117459   6.764   6.049   2.613 -1.1955 -0.8795 -1.4483
 5834TIP3    H217460   6.685   5.926   2.651  1.0659 -2.2581 -1.0247
 5835TIP3   OH217461   0.830   1.623   0.758 -0.0946 -0.5748 -0.2964
 5835TIP3    H117462   0.851   1.717   0.761  0.2431 -0.6696  0.8675
 5835TIP3    H217463   0.737   1.620   0.739 -0.0992  0.0062 -0.3950
 5836TIP3   OH217464   4.756   1.927   4.886 -0.1400  0.0226  0.3642
 5836TIP3    H117465   4.821   1.979   4.933 -0.6094  1.0598 -0.0874
 5836TIP3    H217466   4.706   1.883   4.955 -0.6880  1.3632  0.8706
 5837TIP3   OH217467   7.115   6.025   5.526 -0.4119 -0.3336 -0.0778
 5837TIP3    H117468   7.044   6.043   5.587  0.1566  0.4866  0.3712
 5837TIP3    H217469   7.173   5.965   5.573  0.9324  1.6348  0.9531
 5838TIP3   OH217470   5.619   3.878   2.167 -0.4800  0.4238 -0.2339
 5838TIP3    H117471   5.593   3.822   2.093 -0.3904 -0.6399  0.5252
 5838TIP3    H217472   5.625   3.818   2.241  1.4474  1.1236  0.2204
 5839TIP3   OH217473   2.123   3.363   2.924  0.6045 -0.4548  0.4971
 5839TIP3    H117474   2.062   3.306   2.971 -0.5061 -0.2926 -0.6860
 5839TIP3    H217475   2.190   3.385   2.989 -0.6660 -0.5249  1.9092
 5840TIP3   OH217476   7.983   0.964   1.495 -0.6238  0.1239 -0.1184
 5840TIP3    H117477   8.038   1.024   1.546  0.0585 -1.9596  1.7724
 5840TIP3    H217478   8.044   0.902   1.457 -1.4793 -1.0885  0.4200
 5841TIP3   OH217479   4.857   3.761   1.171 -0.0202 -0.2463  0.4484
 5841TIP3    H117480   4.805   3.689   1.134 -0.0138  0.7026 -1.5433
 5841TIP3    H217481   4.947   3.742   1.143  0.2051 -0.1898  1.1206
 5842TIP3   OH217482   4.955   0.880   1.751  0.1786 -0.1679 -0.4795
 5842TIP3    H117483   4.963   0.857   1.658  0.1881  0.7832 -0.7285
 5842TIP3    H217484   4.904   0.809   1.790 -0.5142 -0.1776 -1.3796
 5843TIP3   OH217485   6.985   3.224   6.612 -0.7187  0.4517 -0.6811
 5843TIP3    H117486   6.894   3.251   6.600 -1.2420 -0.7553  0.3415
 5843TIP3    H217487   7.012   3.192   6.526 -1.2724  0.7776 -0.9844
 5844TIP3   OH217488   6.034   7.793   3.679 -0.0645  0.6219 -0.6157
 5844TIP3    H117489   6.096   7.726   3.709 -0.9420  0.3797  0.7333
 5844TIP3    H217490   5.996   7.756   3.599 -0.1473 -0.2696 -0.1826
 5845TIP3   OH217491   0.989   1.828   2.907  0.1480 -0.1815 -0.3496
 5845TIP3    H117492   0.938   1.885   2.964 -4.0716 -1.9373 -1.9685
 5845TIP3    H217493   0.974   1.862   2.819  1.4533 -1.0667 -0.9426
 5846TIP3   OH217494   6.952   7.357   1.502 -0.9406  0.0143  0.3266
 5846TIP3    H117495   6.990   7.436   1.540 -1.9125  0.1082  1.1463
 5846TIP3    H217496   6.891   7.389   1.436  1.7802 -0.1575 -2.5389
 5847TIP3   OH217497   1.429   5.220   2.969 -0.9624 -0.8475 -0.3537
 5847TIP3    H117498   1.336   5.208   2.987 -0.9726  0.2204  0.4217
 5847TIP3    H217499   1.457   5.286   3.033 -0.3458  1.0231 -2.4378
 5848TIP3   OH217500   8.110   2.046   6.526  0.4065 -0.0748 -0.1251
 5848TIP3    H117501   8.090   2.080   6.614 -1.5336 -0.9381 -0.1967
 5848TIP3    H217502   8.187   1.991   6.539  0.4199  0.1685  0.9506
 5849TIP3   OH217503   6.614   2.255   1.960  0.0154  0.6665 -0.0369
 5849TIP3    H117504   6.540   2.245   1.900 -1.6079  0.4434  1.8971
 5849TIP3    H217505   6.576   2.295   2.038  2.3580  2.4051  0.3105
 5850TIP3   OH217506   2.948   2.287   4.424 -0.2260 -0.2281  0.6759
 5850TIP3    H117507   2.974   2.272   4.515  2.8005 -1.4233 -0.2621
 5850TIP3    H217508   2.986   2.372   4.402 -0.3535 -0.2604  0.3220
 5851TIP3   OH217509   7.343   1.152   5.221 -0.4550 -0.3426 -0.2105
 5851TIP3    H117510   7.438   1.154   5.228 -0.4572  1.9174 -0.0500
 5851TIP3    H217511   7.321   1.059   5.221  1.5808 -0.9278  1.9204
 5852TIP3   OH217512   3.459   7.648   0.841 -0.5444 -0.2010 -0.4948
 5852TIP3    H117513   3.513   7.723   0.814 -0.6392 -0.0346 -0.2274
 5852TIP3    H217514   3.369   7.677   0.825 -0.7123  0.5569  1.5607
 5853TIP3   OH217515   3.239   5.697   1.583 -0.1097 -0.2414 -0.6012
 5853TIP3    H117516   3.154   5.690   1.540 -0.5739  0.1317  0.2294
 5853TIP3    H217517   3.278   5.611   1.572  0.0466  0.0014 -2.2628
 5854TIP3   OH217518   7.803   0.877   3.388  0.0496  0.1513 -0.4530
 5854TIP3    H117519   7.872   0.927   3.344  0.1661  0.8059  0.4555
 5854TIP3    H217520   7.722   0.921   3.364  0.2134  1.2893  0.9783
 5855TIP3   OH217521   5.587   1.752   1.826  0.1070 -0.0336 -0.4921
 5855TIP3    H117522   5.562   1.843   1.810 -0.1432  0.4013  1.8894
 5855TIP3    H217523   5.683   1.754   1.826  0.1383  0.6704  1.3043
 5856TIP3   OH217524   0.715   3.922   5.734  0.2251 -0.5366 -0.1236
 5856TIP3    H117525   0.639   3.881   5.776 -2.8223  0.8102 -3.6718
 5856TIP3    H217526   0.709   4.014   5.759  1.2507 -0.5586  0.2424
 5857TIP3   OH217527   0.858   2.499   4.926 -0.0118  0.2073 -0.5306
 5857TIP3    H117528   0.804   2.454   4.992 -1.4863  1.1641 -1.0456
 5857TIP3    H217529   0.829   2.463   4.843  0.4536  0.4322 -0.7930
 5858TIP3   OH217530   1.981   5.323   1.269 -0.0561 -0.3550  0.3342
 5858TIP3    H117531   2.014   5.409   1.297 -1.7899  0.5630 -0.3048
 5858TIP3    H217532   1.992   5.323   1.174 -1.5252 -0.1583  0.1467
 5859TIP3   OH217533   3.580   6.841   1.100  0.4381  0.0122  0.0396
 5859TIP3    H117534   3.526   6.886   1.165  1.8712 -1.5991  2.5568
 5859TIP3    H217535   3.664   6.888   1.102  0.8826 -0.7682  0.3019
 5860TIP3   OH217536   5.287   6.667   2.515 -0.1606 -0.0424  0.3060
 5860TIP3    H117537   5.326   6.728   2.451 -2.2171  1.1918  0.1424
 5860TIP3    H217538   5.263   6.723   2.589 -1.1596 -0.8342  0.5920
 5861TIP3   OH217539   2.847   3.742   2.470  0.0115 -0.2478  0.3189
 5861TIP3    H117540   2.887   3.791   2.398 -0.2199  1.4324  1.2918
 5861TIP3    H217541   2.753   3.750   2.455 -0.0520  0.5715  1.0752
 5862TIP3   OH217542   3.500   6.333   4.920  0.2962  0.6184  0.0666
 5862TIP3    H117543   3.416   6.329   4.874 -0.0087  0.6420  0.6177
 5862TIP3    H217544   3.497   6.260   4.982  1.0009  0.1428 -0.4322
 5863TIP3   OH217545   7.300   2.021   0.015 -0.3386  0.2306 -0.0206
 5863TIP3    H117546   7.370   2.080   0.045 -1.4138  1.7217 -0.3402
 5863TIP3    H217547   7.346   1.948  -0.026  1.1307 -0.5414  2.7448
 5864TIP3   OH217548   3.621   4.788   4.663  0.7177  0.6872  0.1496
 5864TIP3    H117549   3.591   4.715   4.610  1.4088  0.5591 -0.0772
 5864TIP3    H217550   3.551   4.854   4.656  0.5255  0.4239 -0.4037
 5865TIP3   OH217551   6.813   3.866   0.412 -0.2868  0.4232 -0.1204
 5865TIP3    H117552   6.734   3.828   0.373 -0.3165  0.6733 -0.3014
 5865TIP3    H217553   6.847   3.924   0.345 -0.9917  1.7683  0.6525
 5866TIP3   OH217554   5.455   2.622   3.408  0.3656 -0.4605 -0.4026
 5866TIP3    H117555   5.408   2.632   3.491 -0.1876 -0.1191 -0.7455
 5866TIP3    H217556   5.514   2.698   3.405 -0.4895  0.2092 -0.8667
 5867TIP3   OH217557   3.685   1.516   2.866 -0.1076  0.2953 -0.0383
 5867TIP3    H117558   3.677   1.503   2.771 -0.4166 -0.5153  0.0919
 5867TIP3    H217559   3.595   1.513   2.899 -0.0010  0.5590  0.2785
 5868TIP3   OH217560   7.655   5.681   1.115  0.0779  0.0166  0.0286
 5868TIP3    H117561   7.629   5.589   1.101 -0.6100  0.1390  0.4465
 5868TIP3    H217562   7.697   5.681   1.201  0.4489  0.0306 -0.1470
 5869TIP3   OH217563   5.257   7.237   0.912  0.1398  0.5479 -0.4720
 5869TIP3    H117564   5.344   7.277   0.903  1.0280 -1.2778 -0.4851
 5869TIP3    H217565   5.246   7.225   1.007  1.5832 -2.5465 -0.5830
 5870TIP3   OH217566   1.308   7.562   3.616  0.1713  0.3145  0.1196
 5870TIP3    H117567   1.305   7.480   3.666  0.8613  0.8657  1.1003
 5870TIP3    H217568   1.355   7.539   3.536 -1.9271 -0.8512 -0.8708
 5871TIP3   OH217569   3.231   6.302   4.807 -0.6997 -0.5516 -0.3343
 5871TIP3    H117570   3.192   6.271   4.726 -0.4665  1.3102 -1.2043
 5871TIP3    H217571   3.219   6.397   4.805 -1.6285 -0.5243  2.3138
 5872TIP3   OH217572   8.044   2.198   6.258  0.2725  0.4372 -0.2118
 5872TIP3    H117573   8.014   2.288   6.244  2.4595  1.3055  0.3265
 5872TIP3    H217574   8.069   2.195   6.350  1.1645 -0.4166 -0.4610
 5873TIP3   OH217575   4.427   1.396   4.967 -0.0727 -0.5211  0.4447
 5873TIP3    H117576   4.337   1.362   4.959 -0.1407 -0.7428  1.9157
 5873TIP3    H217577   4.469   1.370   4.885 -1.3206 -0.5040 -0.2285
 5874TIP3   OH217578   7.371   4.417   3.399  0.1601 -0.1039 -0.5436
 5874TIP3    H117579   7.464   4.396   3.415  0.2804  1.7029  1.6213
 5874TIP3    H217580   7.326   4.333   3.412  1.3723 -0.7695 -0.3816
 5875TIP3   OH217581   0.090   4.862   0.757 -0.4549  0.2934  1.4985
 5875TIP3    H117582   0.055   4.784   0.716 -1.3614  1.0810  0.7488
 5875TIP3    H217583   0.083   4.845   0.851 -1.3106 -0.2272  1.3437
 5876TIP3   OH217584   2.266   5.218   0.203 -0.5206 -0.1972  0.1402
 5876TIP3    H117585   2.318   5.291   0.236 -1.0537  0.6702 -0.8720
 5876TIP3    H217586   2.331   5.152   0.178  0.0210  0.2546  0.3256
 5877TIP3   OH217587   4.215   2.581   2.846 -0.1168 -0.0571  0.6959
 5877TIP3    H117588   4.293   2.612   2.891 -1.5088  2.6267  1.4814
 5877TIP3    H217589   4.146   2.581   2.913 -1.1946 -0.5762 -0.3675
 5878TIP3   OH217590   1.202   1.837   3.990  0.0104 -0.5976  0.0349
 5878TIP3    H117591   1.172   1.919   3.950 -1.6434 -0.7017  0.9574
 5878TIP3    H217592   1.163   1.768   3.936 -0.5984 -0.7416  0.6358
 5879TIP3   OH217593   1.150   1.872   1.056  0.4032  0.7639 -0.4225
 5879TIP3    H117594   1.157   1.913   1.142 -0.9936  1.8626 -0.7927
 5879TIP3    H217595   1.121   1.782   1.074  0.9877  0.7117  0.2821
 5880TIP3   OH217596   3.876   0.536   0.925  0.0266  0.1665  0.3286
 5880TIP3    H117597   3.808   0.532   0.992  0.2620 -1.4036  0.5234
 5880TIP3    H217598   3.886   0.445   0.896  3.1062  0.0478  1.4284
 5881TIP3   OH217599   0.156   7.509   2.033  0.9892 -0.5206  0.2282
 5881TIP3    H117600   0.131   7.472   1.948 -0.8070  1.8215 -0.3660
 5881TIP3    H217601   0.243   7.546   2.018  0.3252  0.6875 -0.9631
 5882TIP3   OH217602   3.327   4.771   1.619  0.1659  0.6348 -0.5281
 5882TIP3    H117603   3.332   4.732   1.532  0.3034  1.3009 -0.8261
 5882TIP3    H217604   3.413   4.756   1.657  0.4281  1.1993 -0.8869
 5883TIP3   OH217605   6.307   6.380   1.323  0.2861 -0.0016 -0.0585
 5883TIP3    H117606   6.244   6.423   1.381 -0.0712  1.3302 -1.3961
 5883TIP3    H217607   6.381   6.440   1.320  1.0796 -0.9302  0.4354
 5884TIP3   OH217608   6.764   2.748   4.404 -0.3751 -0.3307 -0.0232
 5884TIP3    H117609   6.764   2.724   4.311  2.1198  0.1818 -0.2249
 5884TIP3    H217610   6.836   2.699   4.442  0.4474  1.5620  1.0247
 5885TIP3   OH217611   5.940   1.947   2.670  0.0162 -0.0592 -0.2521
 5885TIP3    H117612   5.860   1.907   2.635 -1.6416  1.8878  1.0857
 5885TIP3    H217613   5.978   1.994   2.595 -0.7334 -0.0541 -0.6370
 5886TIP3   OH217614   3.976   3.153   5.786 -0.2822  0.0465 -0.5422
 5886TIP3    H117615   3.889   3.175   5.751 -0.1136  0.3712 -0.7620
 5886TIP3    H217616   3.990   3.062   5.758  0.0951  0.4811 -1.8459
 5887TIP3   OH217617   5.748   2.826   1.664  0.3777  0.2537  0.6181
 5887TIP3    H117618   5.767   2.873   1.745 -1.6153  0.9631  0.7300
 5887TIP3    H217619   5.733   2.895   1.599 -0.0104 -0.2664  0.1392
 5888TIP3   OH217620   4.637   6.527   2.670  0.2666  0.6131  0.5336
 5888TIP3    H117621   4.722   6.571   2.674  1.1719 -1.0790  0.4555
 5888TIP3    H217622   4.606   6.528   2.761  0.9518  0.1551  0.7806
 5889TIP3   OH217623   2.552   0.374   6.361 -0.2271  0.0091 -0.1976
 5889TIP3    H117624   2.520   0.398   6.448 -0.2288  0.3392 -0.2880
 5889TIP3    H217625   2.597   0.453   6.330  2.8263 -1.1386  0.9015
 5890TIP3   OH217626   0.356   2.134   4.004  0.2620  0.0113 -0.3172
 5890TIP3    H117627   0.290   2.128   4.073 -1.7878  0.5552 -2.1083
 5890TIP3    H217628   0.353   2.225   3.975  2.2931  0.1997 -0.0404
 5891TIP3   OH217629   0.530   5.026   2.551  0.2498  0.2394  0.4481
 5891TIP3    H117630   0.501   4.968   2.480 -0.1785  0.1706  0.6744
 5891TIP3    H217631   0.463   5.094   2.554  0.2756  0.2484  0.7776
 5892TIP3   OH217632   6.810   4.891   2.185  0.3294 -0.1537 -0.1055
 5892TIP3    H117633   6.794   4.984   2.200  0.1260  0.0096 -1.2687
 5892TIP3    H217634   6.725   4.856   2.157  0.0968 -0.9541  1.5023
 5893TIP3   OH217635   4.624   3.503   2.756 -0.2251 -0.1555 -0.4488
 5893TIP3    H117636   4.626   3.572   2.824  0.7255 -0.0543 -0.5528
 5893TIP3    H217637   4.656   3.547   2.677  0.0430 -0.6230 -0.6057
 5894TIP3   OH217638   6.384   7.269   3.510 -0.2940 -0.2336  0.1322
 5894TIP3    H117639   6.467   7.306   3.478 -0.8785  0.9547 -0.0620
 5894TIP3    H217640   6.342   7.233   3.432 -0.3543 -0.0476  0.0781
 5895TIP3   OH217641   6.343   5.260   1.176  0.2095  0.1237 -0.6653
 5895TIP3    H117642   6.324   5.167   1.185 -2.8978  0.6149 -1.0273
 5895TIP3    H217643   6.411   5.265   1.109  0.3545 -1.8685 -0.7096
 5896TIP3   OH217644   0.537   2.460   5.321  0.0770 -0.2405 -0.0328
 5896TIP3    H117645   0.446   2.436   5.302  0.4810 -1.1263 -0.9702
 5896TIP3    H217646   0.571   2.492   5.237  1.3886 -2.4494 -0.4156
 5897TIP3   OH217647   2.134   4.626   1.351  0.3008  0.3432  0.1886
 5897TIP3    H117648   2.150   4.688   1.422  0.9115 -1.7651  2.0117
 5897TIP3    H217649   2.078   4.559   1.390 -1.2223  0.2257 -2.0168
 5898TIP3   OH217650   7.930   0.643   1.681  0.5651 -0.3845  0.7987
 5898TIP3    H117651   7.896   0.690   1.757 -1.6434 -0.9411  0.2108
 5898TIP3    H217652   7.929   0.708   1.610 -0.4042 -0.6974  0.5115
 5899TIP3   OH217653   4.761   4.556   6.186  0.0463  0.4688  0.4298
 5899TIP3    H117654   4.752   4.644   6.222  0.1136  1.2016 -1.2425
 5899TIP3    H217655   4.842   4.560   6.134  0.0123 -0.5553  0.2877
 5900TIP3   OH217656   0.772   7.604   3.642 -0.5176  0.6495  0.2011
 5900TIP3    H117657   0.779   7.551   3.563 -2.1264  1.0685 -0.2538
 5900TIP3    H217658   0.709   7.673   3.619 -0.4803  1.1832  1.6220
 5901TIP3   OH217659   8.219   4.881   4.246  0.3275 -1.0201 -0.1392
 5901TIP3    H117660   8.287   4.814   4.252  2.7283  1.3073  0.8681
 5901TIP3    H217661   8.268   4.964   4.244 -2.4933  0.7622 -0.4103
 5902TIP3   OH217662   3.404   7.271   6.246 -0.0852  0.3577  0.4253
 5902TIP3    H117663   3.313   7.255   6.219 -0.2345  0.9340  0.5635
 5902TIP3    H217664   3.430   7.191   6.291 -0.6083  0.2841  0.6090
 5903TIP3   OH217665   3.554   2.815   1.207  0.4296 -0.3192  0.0213
 5903TIP3    H117666   3.543   2.837   1.115  1.2588 -0.7914 -0.2049
 5903TIP3    H217667   3.535   2.896   1.255  0.9133  0.1845 -0.6239
 5904TIP3   OH217668   1.268   2.263   1.611  0.2845  0.2082 -0.1793
 5904TIP3    H117669   1.321   2.286   1.688  0.7587  0.2267 -0.5036
 5904TIP3    H217670   1.214   2.341   1.595  0.0122  0.1146  0.2755
 5905TIP3   OH217671   5.650   5.892   4.214 -0.5892 -0.8436  0.1151
 5905TIP3    H117672   5.673   5.958   4.279  0.5393 -0.4485 -0.6672
 5905TIP3    H217673   5.583   5.839   4.258  1.5012 -1.8214  2.3950
 5906TIP3   OH217674   2.721   7.010   3.998  0.2543 -0.2918 -0.3981
 5906TIP3    H117675   2.793   6.960   4.037 -1.3611 -2.1784  0.3581
 5906TIP3    H217676   2.702   7.078   4.063  2.4654  1.4200 -1.4253
 5907TIP3   OH217677   3.687   1.350   1.722 -0.1079 -0.1715  0.4957
 5907TIP3    H117678   3.743   1.290   1.771  1.6417  0.1804 -0.9912
 5907TIP3    H217679   3.685   1.315   1.633  0.7317  1.7890 -0.3479
 5908TIP3   OH217680   7.264   7.193   2.545  0.9880 -0.0893 -0.7283
 5908TIP3    H117681   7.254   7.280   2.585  3.6127  0.1237 -0.3327
 5908TIP3    H217682   7.264   7.211   2.451 -1.8190 -0.1731 -0.8431
 5909TIP3   OH217683   4.699   1.587   3.494  0.0118 -0.1875 -0.0360
 5909TIP3    H117684   4.752   1.616   3.568 -0.5063 -1.0040  0.6796
 5909TIP3    H217685   4.609   1.593   3.526 -0.3522  1.1047 -1.2003
 5910TIP3   OH217686   7.022   7.835   4.361  0.3260 -0.2275 -0.1035
 5910TIP3    H117687   7.116   7.852   4.355  0.9696 -2.8176  1.1591
 5910TIP3    H217688   7.004   7.773   4.289  0.5051 -2.7616  1.8772
 5911TIP3   OH217689   5.849   3.176   4.058  0.3106 -0.4352 -0.1118
 5911TIP3    H117690   5.802   3.254   4.028  0.0381  0.2825  2.0222
 5911TIP3    H217691   5.935   3.182   4.017  0.2492  0.9331 -0.0799
 5912TIP3   OH217692   3.981   6.933   0.299  0.2704  0.1782  0.1620
 5912TIP3    H117693   3.923   6.995   0.342 -0.1593  0.2023 -0.4426
 5912TIP3    H217694   4.059   6.984   0.275 -0.1285  0.5192 -0.4379
 5913TIP3   OH217695   3.105   6.544   1.322  0.9040  0.0126  0.4451
 5913TIP3    H117696   3.077   6.490   1.397 -1.7041  0.4692 -0.1071
 5913TIP3    H217697   3.200   6.551   1.332  0.8394 -1.3264  2.7665
 5914TIP3   OH217698   0.547   6.401   2.260  0.4929 -0.2863  0.0001
 5914TIP3    H117699   0.508   6.462   2.322  1.3476 -1.4106  1.7466
 5914TIP3    H217700   0.642   6.413   2.272  0.6902 -0.3024 -1.3634
 5915TIP3   OH217701   7.110   0.000   5.979  0.0156 -0.0658  0.2389
 5915TIP3    H117702   7.195   0.041   5.994  0.9195 -0.7462 -2.5083
 5915TIP3    H217703   7.060   0.066   5.930 -0.5041 -0.2326  0.5398
 5916TIP3   OH217704   1.073   1.678   2.481 -0.0193  0.2245  0.5181
 5916TIP3    H117705   1.088   1.608   2.544  0.0391  0.7658  1.1242
 5916TIP3    H217706   1.160   1.716   2.466  0.0222 -0.1249 -0.1658
 5917TIP3   OH217707   2.786   1.512   6.604 -0.4816  0.3120 -0.2644
 5917TIP3    H117708   2.846   1.530   6.677  0.3170  0.7765 -1.0070
 5917TIP3    H217709   2.713   1.465   6.643  0.1157  0.2178  0.7648
 5918TIP3   OH217710   2.803   2.675   6.546  0.2255  0.5419 -0.0408
 5918TIP3    H117711   2.757   2.620   6.609 -2.9147  3.0262  0.1412
 5918TIP3    H217712   2.845   2.742   6.600 -0.1149  1.0755 -0.4274
 5919TIP3   OH217713   1.674   2.117   4.340  0.2264 -0.1173  0.1592
 5919TIP3    H117714   1.699   2.133   4.249  0.4533 -2.2049 -0.1935
 5919TIP3    H217715   1.757   2.098   4.385  0.1800  1.3813  0.9554
 5920TIP3   OH217716   6.979   1.788   4.762  0.3527  0.1778  0.3653
 5920TIP3    H117717   7.028   1.787   4.680  0.4271 -2.1798  0.3762
 5920TIP3    H217718   6.904   1.730   4.746  0.1475  0.0134  1.8065
 5921TIP3   OH217719   0.463   3.151   5.251 -0.0592 -0.5286  0.1003
 5921TIP3    H117720   0.542   3.116   5.210 -0.3595  0.2325 -1.1823
 5921TIP3    H217721   0.490   3.233   5.291  0.0405 -0.8470  0.7072
 5922TIP3   OH217722   0.416   2.854   3.433 -0.5329  0.2912 -0.1258
 5922TIP3    H117723   0.329   2.849   3.474 -0.1204  2.0876  1.0323
 5922TIP3    H217724   0.401   2.821   3.344 -1.9337 -1.4796  0.6880
 5923TIP3   OH217725   1.266   3.260   0.848  0.4394 -0.0821 -0.7697
 5923TIP3    H117726   1.212   3.233   0.775  2.4108 -0.8411 -2.0287
 5923TIP3    H217727   1.258   3.189   0.912 -1.6302  0.7850  0.0112
 5924TIP3   OH217728   3.401   6.405   3.187  0.3088  0.5054  1.0672
 5924TIP3    H117729   3.366   6.319   3.165 -0.5785  0.5651  2.1739
 5924TIP3    H217730   3.492   6.388   3.214  0.0449 -0.1232  1.5754
 5925TIP3   OH217731   7.790   5.551   5.800  0.0453 -0.0297  0.0778
 5925TIP3    H117732   7.711   5.579   5.846  0.0238 -0.5631  0.3683
 5925TIP3    H217733   7.820   5.630   5.754 -0.1017  0.4250  0.7565
 5926TIP3   OH217734   5.993   0.814   1.039  0.3638 -0.1726  0.3244
 5926TIP3    H117735   5.905   0.811   1.001 -0.2395 -0.9697  1.7146
 5926TIP3    H217736   5.984   0.874   1.113  1.1134  0.0863  0.2077
 5927TIP3   OH217737   3.378   6.924   4.089 -0.1008 -0.5997  0.1415
 5927TIP3    H117738   3.343   6.887   4.008  1.3153 -1.2561 -0.1886
 5927TIP3    H217739   3.350   7.016   4.087 -1.3778 -0.9776 -0.3257
 5928TIP3   OH217740   2.735   4.029   1.075  0.0560 -0.7040 -0.2398
 5928TIP3    H117741   2.775   4.102   1.028 -2.2519  1.4567  0.8907
 5928TIP3    H217742   2.743   4.053   1.167  1.0799 -2.9834  0.3423
 5929TIP3   OH217743   5.493   3.065   4.733  0.1062  0.5233  0.4272
 5929TIP3    H117744   5.446   3.029   4.808  2.1658 -1.2916  0.9243
 5929TIP3    H217745   5.566   3.113   4.771  0.6976  0.2840 -0.3890
 5930TIP3   OH217746   3.921   1.654   0.231 -0.0874  0.2798 -0.3469
 5930TIP3    H117747   3.968   1.734   0.212 -0.4337  0.0985 -2.0641
 5930TIP3    H217748   3.965   1.586   0.180  0.3075 -0.6893  1.1956
 5931TIP3   OH217749   4.244   3.225   5.911  0.1565  0.1747  0.4424
 5931TIP3    H117750   4.202   3.264   5.987  1.4470  2.7954 -0.0839
 5931TIP3    H217751   4.178   3.166   5.874 -1.6888  1.3940  1.6605
 5932TIP3   OH217752   6.821   3.801   6.459 -0.9771  0.1085 -0.2457
 5932TIP3    H117753   6.805   3.869   6.393 -1.5285 -0.3463 -0.5858
 5932TIP3    H217754   6.788   3.838   6.540  3.3851  2.4510  0.7856
 5933TIP3   OH217755   4.506   4.952   3.321 -0.0579 -0.2545  0.5177
 5933TIP3    H117756   4.540   4.962   3.410 -0.2945  0.1435  0.5699
 5933TIP3    H217757   4.537   5.030   3.275  1.5765 -1.3099 -0.2633
 5934TIP3   OH217758   5.061   0.816   1.140  0.0842  0.5474  0.5015
 5934TIP3    H117759   5.021   0.832   1.226 -0.3301 -0.7564  0.5714
 5934TIP3    H217760   5.130   0.752   1.158 -0.1658  0.0837 -0.1693
 5935TIP3   OH217761   2.954   6.324   0.484 -0.0718 -0.5619  0.0215
 5935TIP3    H117762   3.046   6.347   0.471 -0.9458  3.5395 -0.1427
 5935TIP3    H217763   2.926   6.289   0.400  1.3283 -2.1457  0.1522
 5936TIP3   OH217764   0.928   7.482   5.029  0.1195 -0.2526 -0.2428
 5936TIP3    H117765   0.909   7.555   5.088 -1.8325 -0.2252 -0.8279
 5936TIP3    H217766   1.006   7.509   4.981  0.9944  0.2662  1.3751
 5937TIP3   OH217767   6.820   2.815   2.370 -0.2194  0.4751 -0.4938
 5937TIP3    H117768   6.891   2.751   2.359 -0.1078  0.0208  2.1351
 5937TIP3    H217769   6.752   2.767   2.417 -1.2784  1.5864 -0.8418
 5938TIP3   OH217770   8.029   1.322   2.468  0.3536 -0.6528  0.3485
 5938TIP3    H117771   7.936   1.315   2.444  0.3997 -0.4679  0.1100
 5938TIP3    H217772   8.036   1.407   2.512  0.7036  0.0593 -1.0312
 5939TIP3   OH217773   2.278   0.789   0.480  0.0154  0.1813  0.5822
 5939TIP3    H117774   2.305   0.698   0.488  0.1348  0.0242 -1.2296
 5939TIP3    H217775   2.349   0.831   0.431  0.4580  1.5159  2.2597
 5940TIP3   OH217776   2.547   7.258   3.249 -0.4697 -0.6228  0.2736
 5940TIP3    H117777   2.474   7.299   3.203 -1.0516 -1.1376  0.7092
 5940TIP3    H217778   2.536   7.284   3.341 -0.7686 -1.5976  0.5348
 5941TIP3   OH217779   3.530   7.234   2.276 -0.3829  0.4312  0.3178
 5941TIP3    H117780   3.442   7.210   2.244 -0.3443  1.9616 -1.0457
 5941TIP3    H217781   3.547   7.172   2.347 -1.7265 -1.2202 -0.7174
 5942TIP3   OH217782   4.198   0.469   0.451  0.1832  0.6591 -0.4922
 5942TIP3    H117783   4.278   0.520   0.437 -0.1652  1.1510 -0.7278
 5942TIP3    H217784   4.135   0.533   0.485  0.3870 -0.0599  1.3573
 5943TIP3   OH217785   2.979   5.964   2.941  0.0106 -0.3507 -0.2715
 5943TIP3    H117786   2.897   5.952   2.988 -0.2401  0.3543 -0.5238
 5943TIP3    H217787   2.953   5.994   2.854  0.5727  1.8212  0.2517
 5944TIP3   OH217788   2.814   4.298   5.997  0.3840  0.3104 -0.1651
 5944TIP3    H117789   2.767   4.378   5.976  0.7438  0.6550  0.3428
 5944TIP3    H217790   2.855   4.273   5.914 -3.4571 -1.9515 -1.6982
 5945TIP3   OH217791   5.549   5.149   1.793 -0.2125 -0.1675 -0.1628
 5945TIP3    H117792   5.510   5.218   1.740 -0.4504  0.3966  0.7324
 5945TIP3    H217793   5.478   5.120   1.850  0.5997  0.7622  1.3782
 5946TIP3   OH217794   6.676   7.433   5.443 -0.0006  0.5790  0.0867
 5946TIP3    H117795   6.649   7.432   5.534  0.3254 -0.1454  0.1789
 5946TIP3    H217796   6.594   7.438   5.393 -0.1378  3.5613  0.4239
 5947TIP3   OH217797   7.473   0.077   3.393 -0.0937 -0.4082  0.3422
 5947TIP3    H117798   7.400   0.130   3.425 -0.0633 -0.5584  0.6606
 5947TIP3    H217799   7.491   0.015   3.464 -1.5080 -2.2488 -0.8030
 5948TIP3   OH217800   6.855   6.411   4.033 -0.4598 -0.2396  0.2506
 5948TIP3    H117801   6.775   6.405   4.085 -0.1253  0.0728  0.8188
 5948TIP3    H217802   6.826   6.435   3.945 -1.0571 -1.0261  0.2298
 5949TIP3   OH217803   5.447   4.318   0.943  0.5372  1.0574 -0.1322
 5949TIP3    H117804   5.511   4.325   1.014 -1.4194  0.8750  1.7525
 5949TIP3    H217805   5.415   4.228   0.947 -1.8836  1.8766  0.9319
 5950TIP3   OH217806   2.414   6.981   3.331 -0.9277 -0.3979  0.1300
 5950TIP3    H117807   2.445   7.067   3.303 -0.8229 -1.4005 -3.3805
 5950TIP3    H217808   2.319   6.985   3.318 -1.2120 -0.2372  1.9714
 5951TIP3   OH217809   3.621   6.004   2.837 -0.0397  0.6944  0.3652
 5951TIP3    H117810   3.612   5.947   2.914  1.1169 -1.5443 -1.0554
 5951TIP3    H217811   3.531   6.017   2.807 -0.3167 -0.9957  0.3561
 5952TIP3   OH217812   3.198   4.519   1.289 -0.0629 -0.3241  0.6981
 5952TIP3    H117813   3.256   4.520   1.366  0.4054 -0.6782  0.3606
 5952TIP3    H217814   3.134   4.451   1.309  0.3277 -0.7326  0.5918
 5953TIP3   OH217815   5.566   2.452   1.713  0.0991  0.1337  0.4924
 5953TIP3    H117816   5.627   2.379   1.715  1.0443  0.9064  2.2745
 5953TIP3    H217817   5.547   2.470   1.805 -0.1869  2.0433  0.1047
 5954TIP3   OH217818   7.705   5.337   0.723  0.4633  0.2759  0.7769
 5954TIP3    H117819   7.633   5.395   0.699 -1.2398 -2.4889 -1.4844
 5954TIP3    H217820   7.775   5.357   0.661  0.3279  0.6903  0.7586
 5955TIP3   OH217821   5.739   3.735   4.670  0.0501 -0.2558 -0.6228
 5955TIP3    H117822   5.762   3.657   4.721 -0.6758 -0.0403  0.0633
 5955TIP3    H217823   5.647   3.752   4.692  0.0085  0.4166 -1.2632
 5956TIP3   OH217824   2.248   5.805   5.286 -0.3820 -0.1760 -0.4717
 5956TIP3    H117825   2.239   5.797   5.191 -1.6789 -1.3596 -0.2884
 5956TIP3    H217826   2.296   5.726   5.312 -1.4792 -0.7061  0.0067
 5957TIP3   OH217827   5.851   4.797   1.724  0.0984 -0.1042 -0.4908
 5957TIP3    H117828   5.822   4.753   1.644  0.8243  0.8349 -1.2953
 5957TIP3    H217829   5.943   4.772   1.733 -0.4249 -1.6968  1.1043
 5958TIP3   OH217830   5.981   5.040   4.690 -1.0841 -0.5154  0.2335
 5958TIP3    H117831   6.046   4.984   4.732  0.3770 -1.0504 -2.5218
 5958TIP3    H217832   5.927   4.980   4.639 -1.3581  0.2937 -0.4562
 5959TIP3   OH217833   3.797   2.158   5.023 -0.2657  0.2637 -0.0886
 5959TIP3    H117834   3.738   2.224   5.059  0.6903  0.5903  0.9519
 5959TIP3    H217835   3.783   2.080   5.076 -0.9240 -0.1801 -0.8968
 5960TIP3   OH217836   4.025   0.984   1.336 -0.1638  0.6089 -0.3579
 5960TIP3    H117837   4.053   0.902   1.295  1.1110  0.7571  0.1851
 5960TIP3    H217838   3.931   0.971   1.353 -0.1748 -0.3810 -1.0912
 5961TIP3   OH217839   3.254   4.493   6.322 -0.1475  0.0603  0.1430
 5961TIP3    H117840   3.259   4.397   6.329  0.8928  0.0146 -0.7918
 5961TIP3    H217841   3.330   4.524   6.372  0.8127  0.2528 -1.3620
 5962TIP3   OH217842   3.441   6.504   0.343 -0.8729 -0.2422 -0.4142
 5962TIP3    H117843   3.533   6.487   0.320 -0.0741  1.2268  1.4198
 5962TIP3    H217844   3.416   6.578   0.288 -0.5580  0.1333 -0.0557
 5963TIP3   OH217845   5.513   2.495   2.251 -0.2582 -0.0079 -0.6000
 5963TIP3    H117846   5.436   2.541   2.282 -0.7693 -1.1066 -0.1620
 5963TIP3    H217847   5.569   2.487   2.328 -0.6263 -0.9642 -0.4066
 5964TIP3   OH217848   6.315   6.738   1.294  0.2751 -0.0078 -0.0525
 5964TIP3    H117849   6.225   6.712   1.274 -0.7378  2.8147  0.4370
 5964TIP3    H217850   6.311   6.768   1.385  1.9001 -0.5126  0.2052
 5965TIP3   OH217851   0.453   5.762   1.183 -0.3324  0.4265  0.4347
 5965TIP3    H117852   0.363   5.784   1.157 -0.0325  1.9998  0.6086
 5965TIP3    H217853   0.486   5.843   1.223  1.8447  0.5465 -1.4514
 5966TIP3   OH217854   5.950   5.507   3.901  0.1456  0.0171  0.2826
 5966TIP3    H117855   5.876   5.524   3.844 -0.2048  2.4229  1.3439
 5966TIP3    H217856   5.930   5.554   3.982  2.0713 -0.6657  1.2395
 5967TIP3   OH217857   6.666   4.025   3.167 -0.2247 -0.2446 -0.2386
 5967TIP3    H117858   6.721   3.950   3.144  0.9706  0.1505  1.2084
 5967TIP3    H217859   6.686   4.090   3.099  0.5027 -0.3880 -0.1633
 5968TIP3   OH217860   1.185   6.287   5.101  0.3151  0.7881  0.2425
 5968TIP3    H117861   1.129   6.225   5.054  1.0346 -0.0411  0.4524
 5968TIP3    H217862   1.246   6.232   5.149  1.8403  1.6769 -0.6136
 5969TIP3   OH217863   6.743   4.312   1.299  0.1290 -0.1925  0.1102
 5969TIP3    H117864   6.755   4.395   1.346  1.9573 -0.2930 -0.1011
 5969TIP3    H217865   6.649   4.308   1.282 -0.1850  1.2069  1.2675
 5970TIP3   OH217866   2.993   7.733   0.723  0.0591  0.0237  0.2358
 5970TIP3    H117867   2.944   7.715   0.643 -0.2722 -0.1783  0.4847
 5970TIP3    H217868   2.989   7.651   0.772 -1.0912  0.6198  1.1871
 5971TIP3   OH217869   1.100   6.754   4.865  0.8670 -0.0642  0.2934
 5971TIP3    H117870   1.182   6.706   4.857  0.9678  0.0057  0.9352
 5971TIP3    H217871   1.123   6.836   4.907  0.7581  0.7393 -1.1317
 5972TIP3   OH217872   1.170   3.108   4.126  0.4333 -0.2149  0.1650
 5972TIP3    H117873   1.185   3.184   4.070  0.1432 -0.0563  0.3001
 5972TIP3    H217874   1.161   3.035   4.065 -3.0010  0.3943 -0.2800
 5973TIP3   OH217875   6.328   5.145   4.829  0.1527 -0.7341  0.2317
 5973TIP3    H117876   6.285   5.197   4.897  0.4214  1.1823 -0.9730
 5973TIP3    H217877   6.383   5.083   4.877 -0.5706 -0.2614  1.7453
 5974TIP3   OH217878   2.512   6.574   1.729  0.0339 -0.4856 -0.2290
 5974TIP3    H117879   2.508   6.669   1.742  1.7151 -0.4502  0.3622
 5974TIP3    H217880   2.481   6.560   1.640  1.6313  0.8692 -1.0629
 5975TIP3   OH217881   7.200   3.275   2.715  0.1170  0.3004 -0.1049
 5975TIP3    H117882   7.201   3.180   2.702 -0.1573  0.5946 -2.6507
 5975TIP3    H217883   7.261   3.289   2.788  0.0463 -1.8157  0.4406
 5976TIP3   OH217884   1.025   5.861   2.397  0.0912  0.2149 -0.7855
 5976TIP3    H117885   0.967   5.922   2.351  0.5695  0.3769 -1.1825
 5976TIP3    H217886   1.112   5.881   2.363  0.5953  0.9818  0.8979
 5977TIP3   OH217887   2.573   4.284   0.795 -0.2465  0.3075 -0.3642
 5977TIP3    H117888   2.552   4.376   0.781  2.0337  0.8984 -0.3696
 5977TIP3    H217889   2.660   4.285   0.835 -1.2818 -1.7712  2.2014
 5978TIP3   OH217890   2.863   3.990   6.326 -0.4031  0.4658 -0.3241
 5978TIP3    H117891   2.920   3.922   6.291 -2.3529 -1.0561 -0.7579
 5978TIP3    H217892   2.882   3.993   6.419 -0.4392 -0.8630 -0.2626
 5979TIP3   OH217893   6.348   6.818   3.367  0.2758  0.2548  0.2032
 5979TIP3    H117894   6.337   6.745   3.306  0.3815  0.4107 -0.0016
 5979TIP3    H217895   6.316   6.784   3.451  0.3365 -0.0317  0.1122
 5980TIP3   OH217896   6.979   1.507   6.394  0.0090 -0.3274 -0.5870
 5980TIP3    H117897   6.934   1.448   6.454 -0.8722  1.7609  0.9384
 5980TIP3    H217898   7.044   1.452   6.350  0.8019 -1.9765  2.3647
 5981TIP3   OH217899   1.568   2.597   1.176 -0.0891 -0.4103 -0.0306
 5981TIP3    H117900   1.656   2.559   1.177 -0.0838 -0.4384 -0.7791
 5981TIP3    H217901   1.513   2.527   1.141 -0.1597  0.0879 -0.9511
 5982TIP3   OH217902   8.291   1.132   5.924 -0.6090 -0.2454 -0.5269
 5982TIP3    H117903   8.284   1.159   6.015 -1.0708 -3.2985  0.4411
 5982TIP3    H217904   8.257   1.207   5.875 -2.2306  0.7481  1.9105
 5983TIP3   OH217905   3.346   1.667   6.521 -0.8581 -0.7483 -0.0249
 5983TIP3    H117906   3.424   1.659   6.466 -1.1699  0.0320 -0.6000
 5983TIP3    H217907   3.273   1.647   6.462 -1.2344  0.5622 -0.0462
 5984TIP3   OH217908   6.552   4.664   6.497  0.2496  0.1031  0.2140
 5984TIP3    H117909   6.488   4.679   6.567  0.2835 -0.8145  0.4493
 5984TIP3    H217910   6.635   4.654   6.543  0.0785 -1.7865  0.1671
 5985TIP3   OH217911   3.571   7.004   4.302 -0.1145 -0.0199  0.1099
 5985TIP3    H117912   3.504   7.065   4.333 -2.0292 -1.5281 -0.8725
 5985TIP3    H217913   3.522   6.929   4.270  2.1500 -2.2802  1.6104
 5986TIP3   OH217914   1.613   0.965   0.011  0.7057 -0.8522  0.5735
 5986TIP3    H117915   1.551   1.005   0.072  0.6792  1.6963 -0.9932
 5986TIP3    H217916   1.595   1.006  -0.073  2.9413 -1.7940 -0.4688
 5987TIP3   OH217917   2.489   4.550   0.796  0.6716 -0.0642 -0.5750
 5987TIP3    H117918   2.427   4.562   0.868  0.1471 -0.5194 -0.9502
 5987TIP3    H217919   2.555   4.619   0.810  0.1967  0.2935 -0.0630
 5988TIP3   OH217920   3.802   3.801   5.295  0.0032  0.2898 -0.4866
 5988TIP3    H117921   3.772   3.821   5.383  1.4806 -1.0903  0.3827
 5988TIP3    H217922   3.725   3.764   5.251 -0.7662  1.0676  0.1556
 5989TIP3   OH217923   2.792   0.404   5.702  0.8002  0.0618 -0.4429
 5989TIP3    H117924   2.843   0.363   5.631  0.9365 -0.7805  0.1277
 5989TIP3    H217925   2.716   0.346   5.713 -1.2644  2.2001 -2.4537
 5990TIP3   OH217926   7.196   3.459   4.354  0.2152  0.6683 -0.3200
 5990TIP3    H117927   7.191   3.418   4.268  2.0629 -0.2817 -0.0227
 5990TIP3    H217928   7.267   3.523   4.347  0.7221  0.2378  0.6082
 5991TIP3   OH217929   5.227   5.988   6.624 -0.3644  0.4851 -0.0905
 5991TIP3    H117930   5.244   6.082   6.615 -2.4978  0.8094 -1.4959
 5991TIP3    H217931   5.131   5.981   6.627 -0.2455 -1.6215  0.4115
 5992TIP3   OH217932   7.341   3.359   3.208 -0.0525  0.1640  0.4576
 5992TIP3    H117933   7.414   3.421   3.199 -0.1311  0.4566  1.6430
 5992TIP3    H217934   7.287   3.396   3.277 -0.0004 -1.3216  1.3357
 5993TIP3   OH217935   7.157   4.034   1.179 -0.4349 -0.6774  0.2067
 5993TIP3    H117936   7.163   4.040   1.275  0.8934 -0.8706  0.1512
 5993TIP3    H217937   7.110   4.113   1.153  1.1076  0.5173  0.8641
 5994TIP3   OH217938   3.192   0.433   5.722  0.2358  0.3457  0.1719
 5994TIP3    H117939   3.154   0.442   5.634  1.0452  1.2919 -0.1022
 5994TIP3    H217940   3.263   0.369   5.711 -0.7350 -0.8289  0.5188
 5995TIP3   OH217941   2.834   0.038   3.031 -0.2312  0.2026 -0.2748
 5995TIP3    H117942   2.890   0.115   3.025 -1.0766  1.1706  2.7185
 5995TIP3    H217943   2.890  -0.029   3.071 -0.3249  0.1943 -0.1567
 5996TIP3   OH217944   1.133   5.007   3.871 -0.6860 -0.6070 -0.4828
 5996TIP3    H117945   1.197   5.042   3.810  0.6646 -2.5217 -0.2539
 5996TIP3    H217946   1.174   5.017   3.957 -0.6261 -1.9472 -0.3430
 5997TIP3   OH217947   4.263   7.548   5.859 -0.0521  0.0859 -0.1431
 5997TIP3    H117948   4.332   7.613   5.852  1.4049 -1.5417 -2.3260
 5997TIP3    H217949   4.289   7.493   5.933  0.9824 -0.4833 -0.9197
 5998TIP3   OH217950   2.652   7.844   0.792  0.0738  0.5430 -0.6018
 5998TIP3    H117951   2.650   7.748   0.787  0.5665  0.5390 -0.7944
 5998TIP3    H217952   2.670   7.864   0.883  2.0412  0.4068 -0.9237
 5999TIP3   OH217953   1.786   6.676   5.959 -0.4943 -0.4578  0.1174
 5999TIP3    H117954   1.855   6.686   5.892 -1.9100 -1.4673 -1.5735
 5999TIP3    H217955   1.815   6.601   6.011  1.0068  0.8005  1.2017
 6000TIP3   OH217956   2.617   4.464   1.927  0.9712 -0.2215 -0.1560
 6000TIP3    H117957   2.699   4.436   1.967  0.9638  0.4571  0.3429
 6000TIP3    H217958   2.597   4.547   1.969  1.8507  1.3943 -2.7142
 6001TIP3   OH217959   5.549   3.337   2.228  0.2871 -0.1779 -0.8725
 6001TIP3    H117960   5.547   3.382   2.312  0.2779  1.8569 -1.9003
 6001TIP3    H217961   5.525   3.247   2.248 -1.6223  0.6692  1.0560
 6002TIP3   OH217962   6.728   6.431   2.185 -0.1045 -0.6001  0.5420
 6002TIP3    H117963   6.818   6.410   2.159 -0.3287 -1.6594  0.5699
 6002TIP3    H217964   6.681   6.441   2.102  0.0082 -0.1467  0.5286
 6003TIP3   OH217965   4.624   5.332   6.136  0.4947  0.2659 -0.7217
 6003TIP3    H117966   4.657   5.380   6.213 -2.3355  0.8475  0.2778
 6003TIP3    H217967   4.657   5.243   6.148  3.3766  1.1804 -1.0136
 6004TIP3   OH217968   7.715   5.827   1.636  0.5627  0.5721  0.0136
 6004TIP3    H117969   7.740   5.798   1.724  1.1614 -0.1704 -0.3889
 6004TIP3    H217970   7.675   5.913   1.650  1.1964  0.7316  0.9459
 6005TIP3   OH217971   3.499   6.445  -0.010  0.3860 -0.0817 -0.1512
 6005TIP3    H117972   3.542   6.430   0.074 -1.3913 -0.4306  0.7429
 6005TIP3    H217973   3.471   6.358  -0.039  1.2828 -0.0135 -1.2935
 6006TIP3   OH217974   2.312   3.456   6.462  0.0561  0.5398 -0.4731
 6006TIP3    H117975   2.308   3.469   6.556  0.5848  0.5921 -0.4515
 6006TIP3    H217976   2.226   3.421   6.438 -0.5675  1.8470 -0.1924
 6007TIP3   OH217977   7.682   5.487   1.400 -0.4312 -0.0110  0.0366
 6007TIP3    H117978   7.650   5.478   1.490  0.9620  0.1943  0.5925
 6007TIP3    H217979   7.727   5.404   1.383  2.2258  1.1418  0.8211
 6008TIP3   OH217980   1.405   2.345   2.818 -0.3308  0.1387  0.1501
 6008TIP3    H117981   1.419   2.314   2.908 -0.6720  0.3791  0.2863
 6008TIP3    H217982   1.481   2.312   2.769  0.3684  0.8324  0.7352
 6009TIP3   OH217983   7.141   1.168   1.001  0.3056  0.1453  0.0781
 6009TIP3    H117984   7.059   1.136   1.038 -1.2298  1.4274 -1.9672
 6009TIP3    H217985   7.179   1.093   0.956 -1.0122  0.0724 -0.9642
 6010TIP3   OH217986   3.293   0.678   0.313 -0.3144 -0.3529 -0.5800
 6010TIP3    H117987   3.273   0.589   0.344 -2.2863  0.4560  0.7192
 6010TIP3    H217988   3.220   0.700   0.256  0.7528  0.0419 -1.8192
 6011TIP3   OH217989   7.007   0.826   0.179 -0.8129 -0.4818 -0.1948
 6011TIP3    H117990   7.001   0.738   0.216  1.9926 -0.5166  0.4153
 6011TIP3    H217991   6.978   0.815   0.088  1.1507 -2.5115 -0.6875
 6012TIP3   OH217992   5.957   4.266   3.089  0.1408 -0.0052  0.0130
 6012TIP3    H117993   5.891   4.321   3.132 -0.0356 -0.2665  0.0805
 6012TIP3    H217994   5.908   4.219   3.022 -0.0678 -1.3762  1.0901
 6013TIP3   OH217995   2.460   1.393   4.849 -0.2230  0.1984  0.2964
 6013TIP3    H117996   2.401   1.430   4.915 -2.1592  0.6410 -1.6004
 6013TIP3    H217997   2.449   1.298   4.859 -1.4691  0.2795 -0.1961
 6014TIP3   OH217998   2.191   2.640   5.788 -0.0718  0.1552 -0.0223
 6014TIP3    H117999   2.172   2.720   5.836 -1.0673 -0.8542  1.3282
 6014TIP3    H218000   2.232   2.583   5.852  0.8466 -0.3500 -1.0326
 6015TIP3   OH218001   0.190   0.712   2.912 -0.0289 -0.4287 -0.0394
 6015TIP3    H118002   0.264   0.710   2.851  0.6074 -2.4203  0.7408
 6015TIP3    H218003   0.203   0.793   2.962  0.8495 -0.0681 -0.8188
 6016TIP3   OH218004   7.908   4.380   2.039  0.1559  0.0285 -0.3182
 6016TIP3    H118005   7.865   4.299   2.064  0.2151  0.7485  2.4897
 6016TIP3    H218006   7.842   4.448   2.053  1.1618  0.8000  0.9458
 6017TIP3   OH218007   1.390   1.630   5.559  0.4020  0.1943 -1.1110
 6017TIP3    H118008   1.473   1.584   5.573 -0.8533 -1.9473 -0.2973
 6017TIP3    H218009   1.380   1.634   5.464  0.9116 -0.5144 -1.1974
 6018TIP3   OH218010   3.077   6.005   5.064  0.4139 -0.0677 -0.0668
 6018TIP3    H118011   3.033   6.079   5.024  0.6945 -0.1967 -0.6180
 6018TIP3    H218012   3.006   5.947   5.092  0.2244 -0.0335 -0.4846
 6019TIP3   OH218013   4.001   0.434   3.880  0.0523 -0.3171 -0.8841
 6019TIP3    H118014   4.063   0.494   3.838 -1.2294  2.0667  0.3584
 6019TIP3    H218015   3.940   0.492   3.926 -0.5747 -2.6548  1.4690
 6020TIP3   OH218016   5.014   2.754   3.749  0.3015 -0.6210 -0.4955
 6020TIP3    H118017   5.079   2.724   3.684  0.9712 -0.2247 -0.0234
 6020TIP3    H218018   4.933   2.711   3.723  0.5160 -0.3330 -1.7007
 6021TIP3   OH218019   2.542   3.516   6.192  0.2504 -0.6447 -0.2294
 6021TIP3    H118020   2.448   3.527   6.176 -0.1241 -0.2801  1.8950
 6021TIP3    H218021   2.578   3.604   6.186  0.0532 -0.4572  1.0480
 6022TIP3   OH218022   4.175   0.498   0.768 -0.0432 -0.6318 -0.0267
 6022TIP3    H118023   4.145   0.521   0.680 -1.1276 -2.6263 -0.2368
 6022TIP3    H218024   4.103   0.526   0.825 -0.5299 -1.7007 -0.0887
 6023TIP3   OH218025   7.810   4.930   5.719  0.2836 -0.2220 -0.1855
 6023TIP3    H118026   7.775   4.962   5.802 -0.2256 -2.1084  0.3845
 6023TIP3    H218027   7.905   4.927   5.732  0.2954  0.5189 -0.0759
 6024TIP3   OH218028   1.412   3.933   2.237  0.0845 -0.6487 -0.2625
 6024TIP3    H118029   1.339   3.884   2.199 -0.3706  0.5916 -1.0731
 6024TIP3    H218030   1.486   3.873   2.234 -0.2542 -1.0285 -1.9894
 6025TIP3   OH218031   4.919   2.338   3.341  0.2289  0.2663  0.3658
 6025TIP3    H118032   4.896   2.294   3.260  2.1443  2.2381 -1.3587
 6025TIP3    H218033   4.840   2.331   3.395 -0.9284 -1.5365 -1.4201
 6026TIP3   OH218034   3.760   2.264   4.166  0.1340 -0.0301 -0.3133
 6026TIP3    H118035   3.727   2.309   4.244  0.1818  1.1075 -0.9348
 6026TIP3    H218036   3.850   2.242   4.189 -0.0281 -0.2155  0.1672
 6027TIP3   OH218037   6.428   1.639   3.846  0.1358 -0.1546  0.0347
 6027TIP3    H118038   6.353   1.696   3.833 -1.1318 -1.6273  0.6360
 6027TIP3    H218039   6.502   1.699   3.856 -0.8724  1.3172 -0.9692
 6028TIP3   OH218040   3.516   1.496   4.940 -0.4420  0.3192 -0.3226
 6028TIP3    H118041   3.429   1.532   4.927 -0.6513  0.2515  0.7782
 6028TIP3    H218042   3.503   1.402   4.950 -0.3095  0.3653  0.3452
 6029TIP3   OH218043   5.477   5.482   4.552 -0.2530  0.5360  0.2644
 6029TIP3    H118044   5.436   5.457   4.470  0.8628  0.5090 -0.3072
 6029TIP3    H218045   5.508   5.399   4.589 -0.4108  0.5910  0.5234
 6030TIP3   OH218046   3.690   3.208   4.635 -0.3048  0.1884  0.3006
 6030TIP3    H118047   3.635   3.247   4.568 -0.8400  0.7678  1.0549
 6030TIP3    H218048   3.666   3.254   4.716 -0.0817 -0.8698  0.9945
 6031TIP3   OH218049   6.662   4.746   2.987 -0.2978  0.0714  0.2241
 6031TIP3    H118050   6.615   4.665   2.968 -1.8763  0.7198  1.2173
 6031TIP3    H218051   6.595   4.813   2.991  0.6583  0.9944  1.9698
 6032TIP3   OH218052   2.842   1.171   4.824  0.2591 -0.3293 -0.2718
 6032TIP3    H118053   2.883   1.221   4.754  1.9931 -1.4110 -0.0939
 6032TIP3    H218054   2.915   1.140   4.878 -0.8270 -1.9649  0.3409
 6033TIP3   OH218055   0.766   7.533   1.251  0.4932 -0.3748  0.1394
 6033TIP3    H118056   0.801   7.447   1.272  0.7273 -0.4133 -0.3893
 6033TIP3    H218057   0.803   7.554   1.165 -0.2649 -0.1324 -0.1381
 6034TIP3   OH218058   7.774   3.119   0.139  0.2454 -0.3642  0.9123
 6034TIP3    H118059   7.769   3.047   0.201  2.6539 -0.1427  1.4820
 6034TIP3    H218060   7.854   3.166   0.164 -0.6564  1.8627 -0.1268
 6035TIP3   OH218061   2.388   6.290   0.856 -0.5024 -0.2786 -0.3050
 6035TIP3    H118062   2.389   6.301   0.761 -0.4539  0.7326 -0.1998
 6035TIP3    H218063   2.452   6.221   0.873  2.6634  2.2829 -0.7301
 6036TIP3   OH218064   0.589   2.822   3.059  0.5392  0.6499  0.3973
 6036TIP3    H118065   0.529   2.758   3.098  0.5709  0.9444  0.9325
 6036TIP3    H218066   0.539   2.903   3.056  0.2452  0.4387 -0.9601
 6037TIP3   OH218067   5.925   0.119   1.198  0.6907 -0.0828 -0.2416
 6037TIP3    H118068   5.880   0.107   1.115 -2.4932 -1.2473  1.4694
 6037TIP3    H218069   5.988   0.047   1.203  1.1052  0.1544 -1.6994
 6038TIP3   OH218070   4.918   0.631   5.356 -0.0982 -0.0677 -0.3090
 6038TIP3    H118071   4.985   0.699   5.362 -1.7128  1.8111 -2.1104
 6038TIP3    H218072   4.897   0.611   5.448  1.3731  0.8500  0.2717
 6039TIP3   OH218073   1.433   0.201   2.887 -0.1676 -0.1693 -0.1044
 6039TIP3    H118074   1.527   0.198   2.873 -0.1786  0.0637 -0.2294
 6039TIP3    H218075   1.420   0.158   2.971  0.0898  0.1596  0.1056
 6040TIP3   OH218076   2.233   6.663   5.216  0.2886  0.1941 -0.3447
 6040TIP3    H118077   2.277   6.624   5.291  0.4500 -0.0743 -0.5776
 6040TIP3    H218078   2.266   6.614   5.141 -0.6129 -0.1914 -0.4999
 6041TIP3   OH218079   6.399   6.557   4.119  0.1987 -0.2736  0.7624
 6041TIP3    H118080   6.440   6.642   4.100  1.6227 -1.0470  0.2388
 6041TIP3    H218081   6.333   6.577   4.186 -0.3663  1.4490 -0.2177
 6042TIP3   OH218082   4.314   7.368   6.062 -0.0379 -0.3162 -0.2792
 6042TIP3    H118083   4.336   7.278   6.038  1.7973  0.4427 -1.6881
 6042TIP3    H218084   4.220   7.366   6.079 -0.0785 -2.4410 -0.4894
 6043TIP3   OH218085   6.285   6.431   6.080  0.0054  0.0533 -1.0130
 6043TIP3    H118086   6.246   6.361   6.133 -0.8790  0.8381 -0.6006
 6043TIP3    H218087   6.212   6.462   6.026 -0.1786  2.0993  0.3356
 6044TIP3   OH218088   3.390   1.159   0.192  0.7970  0.3121  0.3982
 6044TIP3    H118089   3.429   1.247   0.188  0.6308  0.3655 -2.2415
 6044TIP3    H218090   3.297   1.174   0.210  0.7117  0.7243 -0.3496
 6045TIP3   OH218091   2.387   3.818   5.078 -0.3815  0.5394 -0.1834
 6045TIP3    H118092   2.305   3.772   5.058 -2.1214  3.4193 -0.3306
 6045TIP3    H218093   2.405   3.869   4.999 -0.2537  2.3383  0.9424
 6046TIP3   OH218094   3.138   7.076   1.393  0.5010 -0.1395  0.1985
 6046TIP3    H118095   3.201   7.065   1.465 -0.0313 -0.3352  0.6457
 6046TIP3    H218096   3.151   6.999   1.338 -0.5985 -1.1437  1.2815
 6047TIP3   OH218097   7.837   3.798   1.641  0.1343  0.5164  0.0657
 6047TIP3    H118098   7.849   3.804   1.546 -1.4225 -2.5298 -0.4617
 6047TIP3    H218099   7.756   3.846   1.658 -0.1635  0.1696 -0.3432
 6048TIP3   OH218100   7.109   7.497   5.636 -0.4830  0.2867  0.4189
 6048TIP3    H118101   7.130   7.404   5.639  0.7300  0.5798  1.8123
 6048TIP3    H218102   7.067   7.509   5.550 -1.5961 -1.7122  0.6224
 6049TIP3   OH218103   3.877   3.588   0.989 -0.4226 -0.4356  0.1104
 6049TIP3    H118104   3.812   3.521   0.966 -0.1839 -0.5227 -0.3165
 6049TIP3    H218105   3.906   3.623   0.905  0.9207 -1.1939  0.2382
 6050TIP3   OH218106   5.440   4.750   3.069 -0.2402 -0.1148 -0.5317
 6050TIP3    H118107   5.357   4.732   3.113 -0.4097  0.3665 -0.6370
 6050TIP3    H218108   5.444   4.687   2.998  0.2062 -1.1338  0.3780
 6051TIP3   OH218109   5.802   0.414   1.935  0.2371  0.1529  0.4081
 6051TIP3    H118110   5.853   0.343   1.972 -0.3473  0.4254  1.8379
 6051TIP3    H218111   5.743   0.372   1.872 -0.9869 -0.8729  2.1405
 6052TIP3   OH218112   6.857   1.065   4.835 -0.7094  0.5222  0.6541
 6052TIP3    H118113   6.771   1.107   4.838 -0.4504  1.0876  0.2784
 6052TIP3    H218114   6.891   1.073   4.924 -1.3918 -0.4489  1.0141
 6053TIP3   OH218115   1.302   6.947   5.493  0.4143 -0.0721  0.1148
 6053TIP3    H118116   1.301   7.037   5.458  1.9015  0.1132  0.4898
 6053TIP3    H218117   1.277   6.893   5.418  0.6483  0.5567 -0.4350
 6054TIP3   OH218118   3.522   2.964   0.945 -0.4320 -0.2554 -0.0936
 6054TIP3    H118119   3.589   3.006   0.890 -1.4201  0.3531 -0.8547
 6054TIP3    H218120   3.498   2.885   0.897 -1.7448  0.5935 -0.8860
 6055TIP3   OH218121   7.856   7.806   5.607  0.1025  0.1187  0.3392
 6055TIP3    H118122   7.931   7.796   5.548 -0.0940 -1.8794  0.3817
 6055TIP3    H218123   7.895   7.824   5.692  0.5614 -1.0454  0.3888
 6056TIP3   OH218124   7.009   3.507   0.975  0.8727  0.0378 -0.4374
 6056TIP3    H118125   7.093   3.547   0.999  0.9253 -1.4318  2.1829
 6056TIP3    H218126   6.954   3.581   0.951  1.7526  1.4730  1.6457
 6057TIP3   OH218127   1.615   7.421   3.784  0.4854  0.0825  1.0065
 6057TIP3    H118128   1.624   7.488   3.716  1.3215 -0.9071  0.1047
 6057TIP3    H218129   1.533   7.377   3.764  1.0141 -0.5926  0.2496
 6058TIP3   OH218130   0.844   7.035   2.051  0.5009 -0.4011  0.0596
 6058TIP3    H118131   0.908   7.104   2.033  2.4460 -1.8994  0.8556
 6058TIP3    H218132   0.808   7.057   2.136  0.1021  0.3352 -0.2925
 6059TIP3   OH218133   7.816   7.128   4.564  0.1283  0.4517 -0.3011
 6059TIP3    H118134   7.735   7.179   4.564  0.3129  0.8046 -1.7309
 6059TIP3    H218135   7.805   7.068   4.490  1.0195  0.2431 -0.2671
 6060TIP3   OH218136   3.836   4.404   2.619 -0.0404  0.3107 -0.3284
 6060TIP3    H118137   3.906   4.374   2.562 -0.1338 -0.9377  0.1751
 6060TIP3    H218138   3.874   4.404   2.707 -0.6896 -0.5764 -0.0191
 6061TIP3   OH218139   0.973   2.270   4.157 -0.3742 -0.0862  0.2378
 6061TIP3    H118140   0.890   2.318   4.156 -0.7012 -0.6101 -1.6973
 6061TIP3    H218141   0.957   2.193   4.102  1.4813 -0.0202 -0.4761
 6062TIP3   OH218142   7.501   2.284   3.149 -0.0568 -0.4554 -0.0218
 6062TIP3    H118143   7.474   2.336   3.225 -1.1350  0.3434 -0.9384
 6062TIP3    H218144   7.497   2.193   3.180  0.4889 -0.0958  1.1711
 6063TIP3   OH218145   2.045   7.158   4.840 -0.5950  0.0047  0.4430
 6063TIP3    H118146   1.996   7.110   4.907 -1.6025 -0.2065 -0.4220
 6063TIP3    H218147   2.012   7.248   4.846 -1.5179 -0.2527 -0.5024
 6064TIP3   OH218148   2.379   1.718   1.501 -0.2953 -0.1254  0.0390
 6064TIP3    H118149   2.303   1.690   1.552 -0.6267  0.9907  0.1838
 6064TIP3    H218150   2.450   1.659   1.528 -0.2083  1.0267  2.5183
 6065TIP3   OH218151   3.143   0.527   3.116 -0.8379 -0.0629 -0.0477
 6065TIP3    H118152   3.117   0.619   3.111  0.5346  0.4579  1.5054
 6065TIP3    H218153   3.145   0.498   3.025 -1.3034  1.4330 -0.5738
 6066TIP3   OH218154   5.766   5.678   5.828 -0.2573 -0.1131 -0.1557
 6066TIP3    H118155   5.688   5.624   5.838 -0.9126  0.8542  0.1632
 6066TIP3    H218156   5.830   5.640   5.887 -1.3473  0.5805  1.5402
 6067TIP3   OH218157   1.845   4.394   4.575 -0.3917 -0.1392  0.1943
 6067TIP3    H118158   1.779   4.452   4.538  0.2287  0.1338 -0.5086
 6067TIP3    H218159   1.861   4.328   4.507  0.0243 -0.2285  0.3731
 6068TIP3   OH218160   2.876   1.865   2.058 -0.6664  0.2609 -0.4552
 6068TIP3    H118161   2.849   1.851   1.968 -0.7159 -2.1474 -0.1467
 6068TIP3    H218162   2.941   1.935   2.054  1.4471 -1.6448 -2.7985
 6069TIP3   OH218163   2.221   2.234   6.023 -0.0407 -0.3492 -0.2658
 6069TIP3    H118164   2.266   2.192   5.950 -2.1713 -3.4961  0.0217
 6069TIP3    H218165   2.150   2.284   5.981  2.8532  4.0241 -0.6618
 6070TIP3   OH218166   7.870   7.452   2.971  0.1625 -0.2211 -0.3255
 6070TIP3    H118167   7.784   7.429   2.936 -0.0836  1.0533 -0.5824
 6070TIP3    H218168   7.923   7.469   2.894  0.2583  0.3512 -0.1338
 6071TIP3   OH218169   3.546   2.181   1.952  0.7291 -0.1948 -0.3440
 6071TIP3    H118170   3.574   2.272   1.940  0.4293  0.2709  2.0868
 6071TIP3    H218171   3.601   2.147   2.022 -0.2900 -1.3611 -0.0610
 6072TIP3   OH218172   4.423   6.095   4.567  0.0260 -0.1338  0.1816
 6072TIP3    H118173   4.467   6.010   4.576 -0.4834 -0.4305 -0.1059
 6072TIP3    H218174   4.333   6.078   4.592 -0.3638  0.0470 -1.0609
 6073TIP3   OH218175   4.739   0.946   3.764  0.2527 -0.1462  0.0650
 6073TIP3    H118176   4.658   0.981   3.728 -0.5738  0.9146  2.7106
 6073TIP3    H218177   4.725   0.852   3.767 -0.6729 -0.0199  0.0069
 6074TIP3   OH218178   2.653   2.808   4.776  0.0236  0.4133  0.1932
 6074TIP3    H118179   2.591   2.797   4.847  1.3608  0.3331  1.3928
 6074TIP3    H218180   2.694   2.893   4.793  2.5386 -0.9126  1.3557
 6075TIP3   OH218181   6.646   5.555   3.366 -0.2829 -0.0777  0.5476
 6075TIP3    H118182   6.658   5.480   3.307  3.4166  0.1128  0.8724
 6075TIP3    H218183   6.601   5.518   3.442  0.8004 -1.8198  0.4013
 6076TIP3   OH218184   4.537   7.544   6.048 -0.8601 -0.3876  0.4407
 6076TIP3    H118185   4.619   7.495   6.048 -0.0808  0.8715  0.1103
 6076TIP3    H218186   4.469   7.478   6.035 -0.0016 -1.5905  1.8604
 6077TIP3   OH218187   1.982   5.009   5.655 -0.3363  0.5660 -0.7105
 6077TIP3    H118188   1.905   4.968   5.694 -0.5683 -1.6629 -3.2365
 6077TIP3    H218189   2.056   4.958   5.688 -0.3249  0.2123 -1.2635
 6078TIP3   OH218190   2.664   3.433   5.111  0.0561 -0.3301 -0.5051
 6078TIP3    H118191   2.754   3.447   5.084  0.1708 -0.7220 -0.3214
 6078TIP3    H218192   2.644   3.507   5.168  0.1218 -0.0150 -0.8822
 6079TIP3   OH218193   5.039   2.837   0.463 -0.2559  0.4448 -0.0890
 6079TIP3    H118194   5.131   2.864   0.453 -0.1100  0.2923  0.8170
 6079TIP3    H218195   4.990   2.899   0.410  0.2452  1.3727  0.5153
 6080TIP3   OH218196   6.479   4.257   1.163  0.0990  0.1900 -0.1808
 6080TIP3    H118197   6.422   4.181   1.177 -0.0151  0.1836 -0.6513
 6080TIP3    H218198   6.442   4.300   1.086  0.2112  0.6791  0.0386
 6081TIP3   OH218199   7.374   7.694   2.696 -0.2724  0.4558 -0.2918
 6081TIP3    H118200   7.446   7.714   2.757  0.1483  0.4462 -0.7742
 6081TIP3    H218201   7.309   7.763   2.712 -0.1204  0.5112  0.0979
 6082TIP3   OH218202   8.269   4.200   2.439  0.2402 -0.1692 -0.3066
 6082TIP3    H118203   8.217   4.271   2.399 -0.0488 -0.5178 -0.5546
 6082TIP3    H218204   8.222   4.179   2.520  0.6734  0.3465  0.0903
 6083TIP3   OH218205   5.864   3.794   4.142  0.2260 -0.3793 -0.2268
 6083TIP3    H118206   5.830   3.763   4.058  1.1034  2.5673 -1.8293
 6083TIP3    H218207   5.832   3.884   4.149  0.4794 -0.4291  2.4690
 6084TIP3   OH218208   2.477   1.695   0.340  0.1809  0.6512  0.2658
 6084TIP3    H118209   2.429   1.613   0.349  1.5051 -0.3021 -0.7882
 6084TIP3    H218210   2.504   1.717   0.429  1.4984 -1.1740  0.3739
 6085TIP3   OH218211   3.328   3.894   1.698  0.1112 -0.2594 -0.4731
 6085TIP3    H118212   3.329   3.958   1.770 -0.5519  0.4394 -1.0564
 6085TIP3    H218213   3.311   3.810   1.741  2.7723 -0.3725  0.5121
 6086TIP3   OH218214   3.199   4.113   4.232  0.6098 -0.0831  0.1047
 6086TIP3    H118215   3.125   4.075   4.184  1.7029 -0.4657 -1.3786
 6086TIP3    H218216   3.211   4.200   4.193  0.6514  0.1699  0.6711
 6087TIP3   OH218217   5.996   3.890   6.444 -0.5796  0.6317  0.4041
 6087TIP3    H118218   5.958   3.894   6.356 -1.8158  1.2321  0.9448
 6087TIP3    H218219   5.922   3.870   6.501  0.6909 -2.8793  1.0364
 6088TIP3   OH218220   7.737   4.577   1.412  0.0444  0.0287 -0.3720
 6088TIP3    H118221   7.713   4.666   1.389 -0.9906 -0.5300 -1.5821
 6088TIP3    H218222   7.668   4.523   1.374  0.6727 -1.2947  0.2943
 6089TIP3   OH218223   2.998   3.939   1.336  0.2338 -0.4238 -0.0545
 6089TIP3    H118224   2.988   3.912   1.244  0.9414  2.8433 -1.2041
 6089TIP3    H218225   3.083   3.904   1.361  1.7721  1.6660 -1.9468
 6090TIP3   OH218226   4.186   2.223   2.334 -0.0544  1.0040  0.2728
 6090TIP3    H118227   4.144   2.294   2.382  0.1566  1.3425 -0.0395
 6090TIP3    H218228   4.280   2.234   2.352 -0.1574 -0.6141  2.1740
 6091TIP3   OH218229   0.358   4.200   1.690 -0.3073  0.0501 -0.1739
 6091TIP3    H118230   0.338   4.248   1.770 -1.3176  0.1268 -0.4609
 6091TIP3    H218231   0.392   4.116   1.720  2.7904  1.3680  0.3647
 6092TIP3   OH218232   6.178   2.776   6.330 -0.4501  0.5287 -0.3156
 6092TIP3    H118233   6.146   2.845   6.389 -0.2925  1.3732 -1.1917
 6092TIP3    H218234   6.111   2.771   6.261 -0.2952  0.0253 -0.4321
 6093TIP3   OH218235   7.757   2.464   0.993 -0.1280  0.7493  0.2157
 6093TIP3    H118236   7.677   2.472   1.046 -1.2220  0.9317 -1.3983
 6093TIP3    H218237   7.772   2.553   0.961 -2.1512 -0.0502 -3.4442
 6094TIP3   OH218238   3.398   6.079   0.204 -0.1193 -0.2625 -0.4370
 6094TIP3    H118239   3.329   6.124   0.154  0.9718  0.1999 -1.5704
 6094TIP3    H218240   3.422   6.140   0.273 -0.5024 -0.2234 -0.3369
 6095TIP3   OH218241   0.706   6.309   3.004 -0.1881  0.1633  0.2140
 6095TIP3    H118242   0.685   6.315   2.910  2.8541  1.2684 -0.5242
 6095TIP3    H218243   0.693   6.217   3.026 -2.5118  0.1812 -0.8240
 6096TIP3   OH218244   3.927   4.998   5.009 -0.8488 -0.3624 -0.1311
 6096TIP3    H118245   3.967   5.038   5.086 -1.0206  0.4075 -0.4354
 6096TIP3    H218246   3.989   4.932   4.981 -0.9690 -0.9482  0.9146
 6097TIP3   OH218247   3.700   5.932   5.224 -0.3110  0.1223  0.7196
 6097TIP3    H118248   3.645   5.870   5.176 -1.4162  1.2595  0.4835
 6097TIP3    H218249   3.789   5.914   5.192 -0.8257 -0.1832 -0.6265
 6098TIP3   OH218250   3.790   3.377   6.202 -0.0969 -0.5076  0.6603
 6098TIP3    H118251   3.743   3.332   6.132  1.7339 -0.7494 -0.4994
 6098TIP3    H218252   3.806   3.465   6.167 -3.3501  1.1234  2.7692
 6099TIP3   OH218253   1.721   4.489   0.072  0.0675  0.2322 -0.0681
 6099TIP3    H118254   1.707   4.452   0.159 -0.3629  0.1571 -0.1624
 6099TIP3    H218255   1.715   4.414   0.013  3.0527 -0.1700  0.0305
 6100TIP3   OH218256   5.736   6.840   5.738 -0.0079 -0.1147 -0.1332
 6100TIP3    H118257   5.660   6.798   5.698  0.7829 -1.6318 -0.1059
 6100TIP3    H218258   5.753   6.916   5.682 -1.7635  0.5133  0.0958
 6101TIP3   OH218259   7.550   1.073   1.001  0.3312 -0.1057  0.1563
 6101TIP3    H118260   7.573   1.146   0.945 -1.1733 -0.2162 -0.6517
 6101TIP3    H218261   7.586   0.996   0.957  0.6177 -0.0225  0.2395
 6102TIP3   OH218262   1.178   0.037   4.686 -0.1358 -0.5446 -0.6427
 6102TIP3    H118263   1.166   0.048   4.591  0.8291 -0.8371 -0.8063
 6102TIP3    H218264   1.108  -0.022   4.712 -1.4311  0.8154 -0.8766
 6103TIP3   OH218265   6.578   2.413   2.728 -0.0930 -0.1164  0.1939
 6103TIP3    H118266   6.585   2.472   2.803 -0.1095  1.4125 -0.9525
 6103TIP3    H218267   6.652   2.352   2.738  0.5866  0.7961  0.8360
 6104TIP3   OH218268   3.639   6.689   4.449 -0.0534  0.6667 -0.3878
 6104TIP3    H118269   3.595   6.727   4.373  1.1475  0.7375 -1.0748
 6104TIP3    H218270   3.708   6.634   4.412 -1.5890 -2.0794  0.5799
 6105TIP3   OH218271   7.799   4.892   4.878  0.2664 -0.5922  0.0642
 6105TIP3    H118272   7.713   4.927   4.902  0.5081 -1.3943  2.2938
 6105TIP3    H218273   7.822   4.832   4.949  2.1950 -1.2466 -1.0292
 6106TIP3   OH218274   0.494   6.373   5.298  0.1425  0.4026  0.5158
 6106TIP3    H118275   0.489   6.280   5.275  2.0223  0.0605  1.2981
 6106TIP3    H218276   0.472   6.419   5.217 -0.9848 -0.6980  0.1611
 6107TIP3   OH218277   6.400   7.348   0.063  0.1908  0.0348  0.2438
 6107TIP3    H118278   6.472   7.293   0.032  0.9533 -0.5442  2.8313
 6107TIP3    H218279   6.346   7.290   0.116 -0.2693  1.2336  1.1368
 6108TIP3   OH218280   3.601   7.251   1.048  0.2556 -0.2098 -0.1784
 6108TIP3    H118281   3.577   7.231   1.139  2.2143 -0.7635  0.2628
 6108TIP3    H218282   3.581   7.170   1.000  1.8289 -0.9499  0.3321
 6109TIP3   OH218283   8.142   0.047   5.696  0.4829 -0.2183 -0.3834
 6109TIP3    H118284   8.218   0.049   5.639  0.5450 -1.2933 -0.3674
 6109TIP3    H218285   8.167   0.099   5.772  0.9122  0.0815 -0.7289
 6110TIP3   OH218286   0.615   5.659   3.579  0.1127  0.0050  0.1878
 6110TIP3    H118287   0.535   5.609   3.592 -0.1715  1.1327  3.9621
 6110TIP3    H218288   0.664   5.609   3.514 -2.9217 -1.5413 -1.1139
 6111TIP3   OH218289   3.827   0.291   5.704  0.4500 -0.4214 -0.0590
 6111TIP3    H118290   3.753   0.351   5.704 -0.4008 -1.4507  0.2511
 6111TIP3    H218291   3.889   0.329   5.766  0.2225  0.4808 -0.3741
 6112TIP3   OH218292   4.397   0.050   3.047 -0.3490 -0.0309 -0.2565
 6112TIP3    H118293   4.343  -0.029   3.055 -1.7144  0.8309 -0.6317
 6112TIP3    H218294   4.388   0.076   2.955  1.8883 -0.6445 -0.6999
 6113TIP3   OH218295   2.251   6.437   1.819 -0.3735 -0.5299  0.4867
 6113TIP3    H118296   2.241   6.360   1.875  0.5907 -1.3264 -0.3826
 6113TIP3    H218297   2.344   6.457   1.823 -0.7178  1.0621  1.2621
 6114TIP3   OH218298   0.954   4.535   5.340 -0.3912  0.3076 -0.7552
 6114TIP3    H118299   0.899   4.595   5.289 -0.0059 -0.7218 -2.4530
 6114TIP3    H218300   0.924   4.448   5.316  1.1416 -0.2574 -0.7608
 6115TIP3   OH218301   2.384   2.376   4.744  0.3480  0.6145 -0.1214
 6115TIP3    H118302   2.352   2.351   4.831 -0.1542 -0.4760 -0.6136
 6115TIP3    H218303   2.474   2.404   4.759  0.9458 -1.4687  0.4751
 6116TIP3   OH218304   7.539   3.413   4.774  0.0989 -0.1895 -0.2920
 6116TIP3    H118305   7.576   3.499   4.794  0.2423 -0.4147  0.4425
 6116TIP3    H218306   7.615   3.358   4.755  0.0520 -0.3050 -0.1509
 6117TIP3   OH218307   0.272   6.430   1.306  0.0800 -0.3069 -0.1984
 6117TIP3    H118308   0.259   6.346   1.262  0.0865  0.1174 -1.0339
 6117TIP3    H218309   0.360   6.425   1.343 -0.1281 -0.8728  0.2383
 6118TIP3   OH218310   5.233   7.142   1.175  0.0678 -0.1931 -0.3498
 6118TIP3    H118311   5.145   7.180   1.184 -0.0217 -0.6324  0.7387
 6118TIP3    H218312   5.288   7.194   1.234  0.4290 -0.2743 -0.6095
 6119TIP3   OH218313   7.090   0.487   1.530  0.3649  0.0455 -0.5550
 6119TIP3    H118314   7.134   0.413   1.574  2.6540  0.7495 -1.5206
 6119TIP3    H218315   7.086   0.555   1.597  0.8206 -0.0269 -0.4446
 6120TIP3   OH218316   0.831   3.697   1.985  0.0578  0.0213  0.4051
 6120TIP3    H118317   0.781   3.689   2.066 -1.0784 -0.3046 -0.3089
 6120TIP3    H218318   0.884   3.617   1.980 -0.1761 -0.1451  0.6207
 6121TIP3   OH218319   5.759   0.070   4.854 -0.2794  0.2580 -0.0880
 6121TIP3    H118320   5.746  -0.015   4.810  3.0869  0.2734 -1.3983
 6121TIP3    H218321   5.703   0.065   4.932 -0.3991 -3.0871 -0.2320
 6122TIP3   OH218322   5.720   4.539   2.031 -0.1322  0.1422  0.0780
 6122TIP3    H118323   5.664   4.479   2.080 -2.3200  1.8390 -0.1891
 6122TIP3    H218324   5.706   4.516   1.939 -0.1103  0.3417  0.0239
 6123TIP3   OH218325   1.325   1.032   0.008  0.6460  0.0857  0.7516
 6123TIP3    H118326   1.266   1.090  -0.040 -1.2614 -0.3507  2.4109
 6123TIP3    H218327   1.364   1.088   0.075  1.0357  0.0576  0.5520
 6124TIP3   OH218328   3.422   3.702   3.967 -0.6087  0.2468  0.4547
 6124TIP3    H118329   3.398   3.609   3.971  2.2959 -0.6267 -0.0923
 6124TIP3    H218330   3.508   3.706   4.010  0.3526  2.2754 -1.4820
 6125TIP3   OH218331   1.042   2.891   3.009 -0.9109  0.0176 -0.2343
 6125TIP3    H118332   1.094   2.877   3.087 -2.5669  1.3984  1.2230
 6125TIP3    H218333   1.102   2.932   2.946  0.5418 -1.4789  0.1181
 6126TIP3   OH218334   6.178   7.710   0.594  0.3727  0.2982 -0.4356
 6126TIP3    H118335   6.260   7.717   0.644 -1.6413 -2.1816  3.8591
 6126TIP3    H218336   6.121   7.776   0.634 -0.8441 -0.6690 -0.5201
 6127TIP3   OH218337   1.275   4.864   5.740 -0.2878 -0.0514 -0.6407
 6127TIP3    H118338   1.322   4.871   5.823 -0.0934 -0.1770 -0.7410
 6127TIP3    H218339   1.184   4.847   5.766  0.0376 -1.6797 -0.4679
 6128TIP3   OH218340   3.917   4.742   5.114 -0.2538  0.3340  0.3742
 6128TIP3    H118341   3.996   4.758   5.062 -1.3118 -0.7808 -1.7266
 6128TIP3    H218342   3.916   4.648   5.128 -1.3491  0.2829  0.0820
 6129TIP3   OH218343   4.243   6.991   4.791  0.1220 -0.2434 -0.3509
 6129TIP3    H118344   4.229   7.032   4.705  1.5871  1.2880  0.0926
 6129TIP3    H218345   4.202   7.050   4.853  0.8922 -0.2460  0.1750
 6130TIP3   OH218346   2.028   3.045   1.007  0.8524  0.3054  0.2889
 6130TIP3    H118347   2.076   3.121   1.041  0.9372 -0.2058  1.3383
 6130TIP3    H218348   2.090   2.973   1.012  0.5760  0.0338 -0.1469
 6131TIP3   OH218349   0.360   0.534   2.378 -0.4470  0.3337  0.5984
 6131TIP3    H118350   0.360   0.470   2.306 -2.3569  0.7427  0.1709
 6131TIP3    H218351   0.372   0.481   2.457 -0.1032 -0.3293  0.1144
 6132TIP3   OH218352   2.382   0.668   2.596  0.0691 -0.2335 -0.2906
 6132TIP3    H118353   2.374   0.649   2.690  0.6388  0.4116 -0.0965
 6132TIP3    H218354   2.476   0.682   2.583 -0.0224 -0.2187 -0.9344
 6133TIP3   OH218355   3.198   5.947   4.738  0.0361 -0.0135 -0.7029
 6133TIP3    H118356   3.146   6.010   4.689  0.7480  0.7381 -0.5163
 6133TIP3    H218357   3.269   5.922   4.678  0.6753  0.6016 -0.2312
 6134TIP3   OH218358   4.935   2.316   3.713  0.2851 -0.0913  0.1719
 6134TIP3    H118359   4.873   2.311   3.640 -0.2269  0.8832  0.5199
 6134TIP3    H218360   4.970   2.228   3.721 -1.3996 -0.7885  0.2357
 6135TIP3   OH218361   5.758   3.167   2.604  0.8932  0.2940  0.2971
 6135TIP3    H118362   5.821   3.231   2.572 -0.6740  1.5993 -0.3604
 6135TIP3    H218363   5.777   3.159   2.698  3.0017 -0.5685 -0.1571
 6136TIP3   OH218364   7.009   0.585   0.829 -0.3663 -0.4844  0.1562
 6136TIP3    H118365   6.960   0.531   0.768 -0.4552  0.1234 -0.3210
 6136TIP3    H218366   6.946   0.650   0.861  0.1660  0.4639 -0.6631
 6137TIP3   OH218367   3.766   1.100   1.163 -0.4031  0.7237  0.2108
 6137TIP3    H118368   3.750   1.007   1.146 -0.2595  0.8099 -0.4082
 6137TIP3    H218369   3.861   1.107   1.166 -0.3622  1.0951 -1.2142
 6138TIP3   OH218370   2.911   4.995   5.754  0.1527  0.0847  0.1098
 6138TIP3    H118371   2.885   5.064   5.692  1.6717 -0.1406 -0.8324
 6138TIP3    H218372   2.988   5.031   5.797  1.1356 -1.0979 -0.5912
 6139TIP3   OH218373   2.285   3.230   3.605  0.1266  0.5403 -0.0593
 6139TIP3    H118374   2.268   3.204   3.514 -0.5486 -0.0583  0.2270
 6139TIP3    H218375   2.377   3.256   3.605 -0.2725  2.0690 -1.2501
 6140TIP3   OH218376   6.910   0.224   1.370 -0.0011  0.4716  0.5418
 6140TIP3    H118377   6.970   0.292   1.401  2.7261 -0.7151 -1.6344
 6140TIP3    H218378   6.936   0.145   1.418 -0.7308  0.2065  0.5147
 6141TIP3   OH218379   7.917   3.395   0.827  0.3091  0.0682  0.1541
 6141TIP3    H118380   8.004   3.371   0.858 -0.7758 -3.2751  0.9576
 6141TIP3    H218381   7.859   3.377   0.901 -1.2550  0.8469 -0.8302
 6142TIP3   OH218382   2.264   0.431   0.047 -0.0666 -0.3623 -0.2057
 6142TIP3    H118383   2.210   0.463   0.119  1.2683 -0.3009  0.8045
 6142TIP3    H218384   2.203   0.423  -0.027 -1.5321 -0.7302  0.9971
 6143TIP3   OH218385   6.428   6.818   5.528 -0.8322 -0.4502 -0.6579
 6143TIP3    H118386   6.373   6.841   5.453  1.3989  0.6115 -2.0724
 6143TIP3    H218387   6.479   6.897   5.545 -0.4745 -1.0501  1.2692
 6144TIP3   OH218388   1.746   6.766   4.057  0.5144  0.9359 -0.6847
 6144TIP3    H118389   1.664   6.729   4.024  0.4163 -0.3461  0.8842
 6144TIP3    H218390   1.772   6.829   3.990 -1.7466  1.3940 -1.2343
 6145TIP3   OH218391   5.320   6.454   0.773 -0.2380 -0.0102 -0.0950
 6145TIP3    H118392   5.367   6.383   0.731 -1.3421 -0.2902 -0.8831
 6145TIP3    H218393   5.301   6.421   0.861  0.6515 -0.0455  0.0985
 6146TIP3   OH218394   6.139   6.082   5.005 -0.0589 -0.0160 -0.5904
 6146TIP3    H118395   6.068   6.129   4.960 -1.1945  0.7783  1.8685
 6146TIP3    H218396   6.120   5.989   4.988 -0.3320  0.2512 -1.8629
 6147TIP3   OH218397   4.721   2.428   0.832  0.2026  0.1983  0.0716
 6147TIP3    H118398   4.800   2.480   0.848  0.6793 -0.5146  0.0779
 6147TIP3    H218399   4.652   2.493   0.819  0.7083  0.8281  0.4671
 6148TIP3   OH218400   6.059   6.322   5.744  0.0030  0.1514 -0.6411
 6148TIP3    H118401   6.028   6.272   5.670 -1.8289 -2.0142  1.4384
 6148TIP3    H218402   6.099   6.257   5.802  0.5972  1.6249  0.6765
 6149TIP3   OH218403   0.686   1.416   1.446  0.3872  0.3065 -0.4559
 6149TIP3    H118404   0.735   1.334   1.452  0.5660  0.4717  0.5996
 6149TIP3    H218405   0.693   1.455   1.534 -0.8832  0.7666 -0.5279
 6150TIP3   OH218406   0.580   7.429   6.050  0.2600  0.0824 -0.4943
 6150TIP3    H118407   0.579   7.426   5.954  0.8579  1.1507 -0.5482
 6150TIP3    H218408   0.530   7.508   6.072 -0.2219 -0.3716  0.1052
 6151TIP3   OH218409   7.082   1.639   1.566 -0.0339  0.1711 -0.2744
 6151TIP3    H118410   7.003   1.585   1.555 -0.9023  1.4513 -0.5671
 6151TIP3    H218411   7.129   1.629   1.483  0.7851 -1.5655  0.3396
 6152TIP3   OH218412   6.522   4.563   4.205  0.5477 -0.1317 -0.0537
 6152TIP3    H118413   6.561   4.542   4.290  1.4602  0.5025 -0.2985
 6152TIP3    H218414   6.495   4.654   4.214  1.9588  0.4048 -0.8852
 6153TIP3   OH218415   3.630   5.613   3.641 -0.0965 -0.8576  0.3332
 6153TIP3    H118416   3.713   5.596   3.686 -0.3355 -1.2773  0.6251
 6153TIP3    H218417   3.589   5.681   3.695 -0.9472 -2.2452  1.5054
 6154TIP3   OH218418   4.748   4.891   1.221 -0.7493  0.7589  0.2519
 6154TIP3    H118419   4.842   4.885   1.204 -0.6518  0.1876  0.9760
 6154TIP3    H218420   4.712   4.931   1.142 -0.1287 -0.5708 -0.7240
 6155TIP3   OH218421   0.653   2.024   4.976 -0.3974  0.0735 -0.1173
 6155TIP3    H118422   0.717   1.996   5.042  0.5987  0.1249 -1.0242
 6155TIP3    H218423   0.571   2.032   5.023 -0.4117 -2.8076  0.5596
 6156TIP3   OH218424   2.071   5.309   3.866  0.1300  0.0062  0.0697
 6156TIP3    H118425   2.139   5.282   3.805 -1.7436  0.5072 -2.4409
 6156TIP3    H218426   2.000   5.246   3.852 -0.9295  1.0411  0.5831
 6157TIP3   OH218427   5.067   1.744   0.633  0.6040 -0.6667  0.2534
 6157TIP3    H118428   5.030   1.697   0.558  0.7704  1.8305 -1.5208
 6157TIP3    H218429   5.007   1.818   0.647  2.6090  1.0912  0.0324
 6158TIP3   OH218430   3.750   0.146   3.534 -0.0221 -0.4467 -0.2225
 6158TIP3    H118431   3.844   0.157   3.522  0.0092  0.0307  0.3780
 6158TIP3    H218432   3.736   0.163   3.627 -0.7749  0.0234 -0.4137
 6159TIP3   OH218433   4.165   6.112   3.348 -0.1731  0.1310  0.4157
 6159TIP3    H118434   4.193   6.170   3.277 -2.2469  0.1922 -0.4196
 6159TIP3    H218435   4.198   6.026   3.324  0.5237  0.4393  0.2319
 6160TIP3   OH218436   6.996   7.509   4.338 -0.2390  0.0466 -0.3183
 6160TIP3    H118437   7.055   7.433   4.339  0.1793  0.3654  0.1182
 6160TIP3    H218438   6.928   7.487   4.401  0.8432  0.7473  1.1643
 6161TIP3   OH218439   6.621   3.729   0.279  0.1401  0.1645  0.3568
 6161TIP3    H118440   6.640   3.637   0.297  1.4282 -0.0094 -1.5991
 6161TIP3    H218441   6.545   3.728   0.221  0.9111  0.2234 -0.6860
 6162TIP3   OH218442   0.485   1.230   0.703  0.7213 -0.2214  0.0004
 6162TIP3    H118443   0.451   1.291   0.768  1.0651 -0.1414  0.1052
 6162TIP3    H218444   0.580   1.234   0.713  0.9344  1.6234 -2.1527
 6163TIP3   OH218445   1.795   2.949   1.164  0.2628 -0.1237 -0.4338
 6163TIP3    H118446   1.742   2.923   1.088 -1.2544  0.6745  0.3060
 6163TIP3    H218447   1.846   3.024   1.133  0.9505 -0.8617 -1.1372
 6164TIP3   OH218448   0.581   5.777   0.019  0.4315  0.4164 -0.1451
 6164TIP3    H118449   0.652   5.744  -0.035  1.4447  0.3777  1.1522
 6164TIP3    H218450   0.611   5.862   0.050 -0.6350  0.9690 -0.5909
 6165TIP3   OH218451   4.751   7.248   2.328 -0.3663 -0.3491 -0.1560
 6165TIP3    H118452   4.846   7.255   2.328 -0.4613  1.2382  0.1802
 6165TIP3    H218453   4.720   7.337   2.345 -1.9147 -0.8084 -0.4124
 6166TIP3   OH218454   0.679   0.954   0.442 -0.0257 -0.3593  0.4703
 6166TIP3    H118455   0.767   0.963   0.404 -0.5261 -0.2706 -0.7322
 6166TIP3    H218456   0.643   1.043   0.441 -0.6990 -0.6237 -0.5378
 6167TIP3   OH218457   7.149   2.157   4.727  0.2026 -0.1263 -0.5650
 6167TIP3    H118458   7.242   2.168   4.749 -0.1209  1.5442  0.1124
 6167TIP3    H218459   7.104   2.161   4.812 -0.4200 -2.1978 -0.7478
 6168TIP3   OH218460   4.119   4.655   3.635  0.0772 -0.6713 -0.0323
 6168TIP3    H118461   4.038   4.637   3.683  0.8100 -0.6998  1.2593
 6168TIP3    H218462   4.119   4.749   3.620 -0.2573 -0.6911 -0.1590
 6169TIP3   OH218463   6.692   0.708   1.256 -0.3436 -0.8436  0.1411
 6169TIP3    H118464   6.653   0.621   1.250 -1.9621 -0.2866  1.5029
 6169TIP3    H218465   6.768   0.696   1.313 -1.9832 -1.0193  2.4289
 6170TIP3   OH218466   4.124   1.691   2.017 -0.3086  0.2775  0.0783
 6170TIP3    H118467   4.037   1.652   2.017 -1.5860  2.8866 -1.6256
 6170TIP3    H218468   4.183   1.618   1.995 -2.0249 -1.4799  1.0156
 6171TIP3   OH218469   5.792   5.583   5.406 -0.5171 -0.2163  0.6421
 6171TIP3    H118470   5.815   5.673   5.384 -1.3121  0.3200  1.8647
 6171TIP3    H218471   5.808   5.576   5.500  1.8396 -2.1202  0.2018
 6172TIP3   OH218472   4.906   4.458   2.927  0.4234  0.4881  0.6643
 6172TIP3    H118473   4.934   4.393   2.863 -0.0451  1.4936 -0.6130
 6172TIP3    H218474   4.820   4.426   2.956 -0.6309  1.3667 -1.2736
 6173TIP3   OH218475   1.782   3.888   0.811  0.3040 -0.2451 -0.0594
 6173TIP3    H118476   1.848   3.859   0.874  1.0662 -0.7626 -1.0780
 6173TIP3    H218477   1.831   3.914   0.733 -0.6513 -0.1283 -0.6466
 6174TIP3   OH218478   6.078   3.391   3.228  0.4896 -0.1790  0.2039
 6174TIP3    H118479   6.070   3.378   3.133  1.9053 -3.9605  0.4276
 6174TIP3    H218480   6.167   3.424   3.240  0.9718 -1.4469  0.2632
 6175TIP3   OH218481   1.934   2.319   0.444 -0.1732 -0.4594 -0.0727
 6175TIP3    H118482   1.853   2.273   0.420  0.1427 -1.1472  0.1646
 6175TIP3    H218483   1.989   2.252   0.484  1.1556 -0.3603 -1.6670
 6176TIP3   OH218484   4.330   3.208   2.264  0.1448  0.5408  0.3347
 6176TIP3    H118485   4.298   3.222   2.353  0.4019  1.2067  0.3261
 6176TIP3    H218486   4.366   3.292   2.238 -2.5113  1.2351 -1.4792
 6177TIP3   OH218487   2.420   2.128   4.604  0.7305 -0.5318 -0.3147
 6177TIP3    H118488   2.400   2.181   4.681  0.5681 -0.0053 -0.7187
 6177TIP3    H218489   2.341   2.078   4.587  1.3523 -2.0486  0.9552
 6178TIP3   OH218490   1.319   0.565   5.949  0.4641  0.2569 -0.4548
 6178TIP3    H118491   1.373   0.549   6.027  0.3547 -1.9915 -0.7661
 6178TIP3    H218492   1.286   0.654   5.961  1.4971  0.4531  1.4152
 6179TIP3   OH218493   6.455   6.688   3.841  0.0447  0.3062 -0.3056
 6179TIP3    H118494   6.527   6.705   3.780 -0.7568 -0.7132 -1.5739
 6179TIP3    H218495   6.490   6.713   3.927  1.3603  1.3298 -1.1015
 6180TIP3   OH218496   3.777   5.286   3.320  0.5771  0.1766  0.0332
 6180TIP3    H118497   3.844   5.218   3.331  1.6980  1.1049 -0.8809
 6180TIP3    H218498   3.725   5.282   3.401  0.4359 -1.9356 -0.1015
 6181TIP3   OH218499   0.954   3.265   6.105 -0.8808 -0.2282  0.4223
 6181TIP3    H118500   0.972   3.347   6.152 -0.3313 -0.1318  0.0541
 6181TIP3    H218501   1.039   3.236   6.074 -1.3525  0.4572 -1.7211
 6182TIP3   OH218502   6.619   0.633   4.617 -0.4255  0.0344  0.3031
 6182TIP3    H118503   6.615   0.717   4.664 -0.3385 -0.2997  0.9234
 6182TIP3    H218504   6.616   0.657   4.524  0.5011  0.7864  0.4451
 6183TIP3   OH218505   3.100   6.259   6.188 -0.0636 -0.2452 -0.3596
 6183TIP3    H118506   3.072   6.283   6.276  0.2451  0.0760 -0.3488
 6183TIP3    H218507   3.127   6.342   6.148  0.4899 -0.4897 -0.5032
 6184TIP3   OH218508   1.748   4.176   2.221  0.0916  0.0587  0.0017
 6184TIP3    H118509   1.670   4.140   2.178  1.3880  0.5893 -3.0374
 6184TIP3    H218510   1.736   4.270   2.219  1.2478  0.2097 -1.5396
 6185TIP3   OH218511   1.669   7.433   5.968 -0.0565  0.1074  0.1626
 6185TIP3    H118512   1.708   7.495   6.030  1.9269 -0.3374 -0.5622
 6185TIP3    H218513   1.659   7.352   6.017  1.6479 -0.2868 -0.0727
 6186TIP3   OH218514   0.960   4.123   5.581  0.4274 -0.2749 -0.2134
 6186TIP3    H118515   0.875   4.160   5.603 -0.0363 -0.0563 -2.1809
 6186TIP3    H218516   1.020   4.198   5.578  0.4191 -0.2625 -0.0828
 6187TIP3   OH218517   0.946   4.965   5.002  0.3366  0.0245  0.5361
 6187TIP3    H118518   0.947   4.995   5.093  0.3002  1.7338  0.0167
 6187TIP3    H218519   0.870   5.009   4.963  1.5222  0.9788 -0.8138
 6188TIP3   OH218520   8.237   0.952   0.611  0.0055  0.0960  0.1991
 6188TIP3    H118521   8.152   0.909   0.620 -0.8843  1.0752 -2.4529
 6188TIP3    H218522   8.278   0.908   0.537  2.1197 -0.7164  1.7630
 6189TIP3   OH218523   1.143   1.111   5.102  0.1640  0.7594  0.2813
 6189TIP3    H118524   1.193   1.043   5.056 -2.1237 -0.1072 -1.1115
 6189TIP3    H218525   1.101   1.160   5.032  1.1423  3.1898  1.3119
 6190TIP3   OH218526   6.892   6.665   2.745 -0.6950 -0.3171 -0.1722
 6190TIP3    H118527   6.885   6.651   2.651 -0.0401  0.0397 -0.2852
 6190TIP3    H218528   6.983   6.694   2.758 -1.2796  1.3825  0.3395
 6191TIP3   OH218529   4.941   3.221   6.147  0.1623 -0.0673  0.5761
 6191TIP3    H118530   4.892   3.155   6.098  1.6384 -0.0151 -1.0677
 6191TIP3    H218531   4.909   3.305   6.115  1.7125 -0.0291 -1.0180
 6192TIP3   OH218532   2.329   7.198   6.458  0.4243  0.6057 -0.9396
 6192TIP3    H118533   2.383   7.173   6.382  0.2942 -0.8254 -0.6008
 6192TIP3    H218534   2.364   7.145   6.530 -0.1616  1.1351 -0.2560
 6193TIP3   OH218535   4.471   1.356   6.103  0.5747  0.2318  0.3273
 6193TIP3    H118536   4.421   1.276   6.124  0.0587 -0.0738 -1.8458
 6193TIP3    H218537   4.562   1.332   6.118  0.4511 -0.9127 -0.6038
 6194TIP3   OH218538   2.576   6.114   5.569  0.0660 -0.6005  0.0745
 6194TIP3    H118539   2.544   6.140   5.483  1.4157  0.5153 -0.1324
 6194TIP3    H218540   2.498   6.110   5.624 -0.8654 -1.7155 -1.2778
 6195TIP3   OH218541   4.528   3.198   1.915  0.0339  0.6109  0.6435
 6195TIP3    H118542   4.480   3.202   1.832  0.5171  2.1084  0.4184
 6195TIP3    H218543   4.477   3.253   1.975  0.0638  0.0908  1.1513
 6196TIP3   OH218544   7.202   5.563   0.236 -0.1638  0.3320 -0.1302
 6196TIP3    H118545   7.188   5.590   0.145  0.5002  0.5154 -0.1856
 6196TIP3    H218546   7.146   5.623   0.287 -0.7638  0.0341 -0.4311
 6197TIP3   OH218547   4.961   0.325   5.460  0.0523  0.0467 -0.0654
 6197TIP3    H118548   4.943   0.356   5.371 -1.5891  0.5749  0.4282
 6197TIP3    H218549   4.886   0.353   5.512  0.8545 -0.4754  1.4568
 6198TIP3   OH218550   5.617   6.442   6.505  0.5637  0.0374  0.7048
 6198TIP3    H118551   5.628   6.468   6.413 -1.3554  1.0548  0.6937
 6198TIP3    H218552   5.544   6.496   6.536 -0.5649 -2.1322  2.0940
 6199TIP3   OH218553   2.751   2.899   5.865  0.6738 -0.1717 -0.2883
 6199TIP3    H118554   2.763   2.804   5.857  0.6009 -0.3367  1.2699
 6199TIP3    H218555   2.762   2.932   5.776  1.4787 -1.5562 -0.7307
 6200TIP3   OH218556   1.951   6.124   0.051 -0.2266 -0.6220 -0.1163
 6200TIP3    H118557   1.979   6.145  -0.038  0.5542  0.4097  0.3527
 6200TIP3    H218558   1.867   6.170   0.061  1.1132  1.8854  0.6481
 6201TIP3   OH218559   6.755   1.896   5.590 -0.1400 -0.1754 -0.1660
 6201TIP3    H118560   6.671   1.937   5.609  1.0588  2.6682 -0.5461
 6201TIP3    H218561   6.807   1.908   5.670  0.3091 -0.8373 -0.3455
 6202TIP3   OH218562   2.330   5.632   1.135 -0.3005 -0.3219  0.1253
 6202TIP3    H118563   2.390   5.581   1.080  0.9168 -0.6691  1.7082
 6202TIP3    H218564   2.257   5.572   1.151 -0.7022 -0.2026 -1.0841
 6203TIP3   OH218565   4.584   7.366   5.190  0.1389 -0.6341 -0.5215
 6203TIP3    H118566   4.499   7.340   5.155  0.2535  0.4848 -1.6945
 6203TIP3    H218567   4.610   7.441   5.137  1.8460 -0.9295 -0.1616
 6204TIP3   OH218568   6.185   6.006   6.167 -0.3440 -0.3859  0.3286
 6204TIP3    H118569   6.268   6.020   6.213  0.7809  1.7559 -2.0578
 6204TIP3    H218570   6.119   6.043   6.225  0.8010  0.7875  0.9473
 6205TIP3   OH218571   5.151   3.874   3.327  0.5819 -0.2113  0.5870
 6205TIP3    H118572   5.239   3.881   3.288  0.8569  1.3243  1.3894
 6205TIP3    H218573   5.109   3.957   3.304 -0.0471 -0.2286  1.6263
 6206TIP3   OH218574   3.639   6.646   0.613 -0.2967 -0.1693  0.0045
 6206TIP3    H118575   3.552   6.609   0.599 -0.4602  0.6809 -1.3878
 6206TIP3    H218576   3.693   6.609   0.543  0.6023 -0.9828  1.0628
 6207TIP3   OH218577   4.929   4.026   1.275  0.5255  0.1618 -0.5555
 6207TIP3    H118578   4.927   3.939   1.234 -0.3368 -0.5227  0.8538
 6207TIP3    H218579   5.021   4.040   1.297  0.4110 -1.4355  1.2345
 6208TIP3   OH218580   5.150   3.385   3.862  0.0458  0.4926 -0.5463
 6208TIP3    H118581   5.063   3.384   3.823  0.5439  1.9945 -1.7924
 6208TIP3    H218582   5.210   3.395   3.788  1.4438 -2.2234  0.1088
 6209TIP3   OH218583   2.308   4.824   2.527  0.2999 -0.1090 -0.7988
 6209TIP3    H118584   2.342   4.747   2.573  2.0204  1.9986  1.7443
 6209TIP3    H218585   2.341   4.899   2.577 -1.8697  2.3261 -2.7070
 6210TIP3   OH218586   3.274   2.865   0.007  0.4070 -0.1432 -0.8920
 6210TIP3    H118587   3.199   2.866   0.067  2.3623  1.0660  1.7274
 6210TIP3    H218588   3.267   2.948  -0.041  0.2856  0.1635 -0.3521
 6211TIP3   OH218589   7.529   4.268   4.019  0.1552 -0.1286  0.7404
 6211TIP3    H118590   7.593   4.323   4.064  0.9111  0.1011 -0.5503
 6211TIP3    H218591   7.448   4.319   4.021  0.7370  0.8674 -0.0478
 6212TIP3   OH218592   5.453   5.337   0.817 -0.7875  0.4203  0.0018
 6212TIP3    H118593   5.471   5.303   0.905  1.3461 -0.4892 -0.7177
 6212TIP3    H218594   5.499   5.421   0.814 -0.0180 -0.0058 -0.5299
 6213TIP3   OH218595   3.593   1.616   1.710 -0.6040 -0.0496  0.3051
 6213TIP3    H118596   3.600   1.521   1.721  0.9548  0.2875  2.9720
 6213TIP3    H218597   3.513   1.628   1.660 -0.6896 -2.7641 -0.3792
 6214TIP3   OH218598   2.055   0.473   3.945  0.3449 -0.3104  0.2733
 6214TIP3    H118599   2.145   0.493   3.923  0.3419  0.1481  0.6712
 6214TIP3    H218600   2.023   0.420   3.871 -0.3335  2.9391 -1.9559
 6215TIP3   OH218601   1.731   2.540   1.446 -0.4019  0.1052 -0.1592
 6215TIP3    H118602   1.765   2.541   1.357 -2.2001 -1.8938 -0.9469
 6215TIP3    H218603   1.786   2.476   1.492 -2.1184 -2.1728 -1.0917
 6216TIP3   OH218604   0.058   4.822   1.011 -0.0498 -0.3345  0.4042
 6216TIP3    H118605  -0.007   4.776   1.063  0.0226 -0.7338  0.1495
 6216TIP3    H218606   0.142   4.794   1.047 -0.0180  0.1163  0.6807
 6217TIP3   OH218607   6.434   3.153   5.216  0.1516  0.5608 -0.5159
 6217TIP3    H118608   6.393   3.077   5.257  2.1710  0.0331  0.6607
 6217TIP3    H218609   6.377   3.173   5.141 -0.5944 -1.9595 -0.7305
 6218TIP3   OH218610   5.810   0.615   0.883 -0.1166 -0.7439 -0.3207
 6218TIP3    H118611   5.803   0.705   0.914  1.2590 -1.0881  1.1624
 6218TIP3    H218612   5.841   0.623   0.793 -0.8774  0.2648 -0.5093
 6219TIP3   OH218613   6.495   5.199   0.918  0.4707 -0.7040  0.2819
 6219TIP3    H118614   6.505   5.280   0.868  0.5341 -0.5828  0.4860
 6219TIP3    H218615   6.477   5.132   0.853 -1.1652 -0.2643  0.2382
 6220TIP3   OH218616   4.308   3.285   4.523  0.0809  0.0183  0.1351
 6220TIP3    H118617   4.375   3.352   4.515 -0.7256  0.7681 -0.6077
 6220TIP3    H218618   4.354   3.208   4.558  0.7867  1.3169  2.2784
 6221TIP3   OH218619   0.466   0.869   5.439  0.1874  0.8558  0.0350
 6221TIP3    H118620   0.406   0.924   5.490 -0.4974  1.8049 -1.6960
 6221TIP3    H218621   0.411   0.829   5.372  1.2864  0.8635 -0.9077
 6222TIP3   OH218622   2.443   6.217   4.248 -0.4897 -0.0307 -0.3840
 6222TIP3    H118623   2.464   6.311   4.242 -1.3920  0.1077 -1.8345
 6222TIP3    H218624   2.414   6.193   4.160  3.2522 -2.5772 -1.1813
 6223TIP3   OH218625   6.813   5.156   0.335  0.6336  0.3812 -0.2280
 6223TIP3    H118626   6.763   5.203   0.402 -0.1939  0.2806 -0.7646
 6223TIP3    H218627   6.815   5.216   0.261 -1.1807 -0.7239 -1.2398
 6224TIP3   OH218628   4.164   6.236   6.241  0.6070  0.1581  0.5808
 6224TIP3    H118629   4.174   6.196   6.155  1.4078 -1.0269  1.2052
 6224TIP3    H218630   4.134   6.165   6.298 -0.2747  1.0101  1.2265
 6225TIP3   OH218631   7.740   7.490   2.011 -0.9629  0.6717 -0.3700
 6225TIP3    H118632   7.767   7.582   2.015 -3.0631  1.4377 -1.8334
 6225TIP3    H218633   7.729   7.472   1.917  1.3106 -1.7403 -0.2864
 6226TIP3   OH218634   2.104   6.203   4.430  0.5314  0.5262 -0.5212
 6226TIP3    H118635   2.110   6.277   4.370 -2.9864  0.8052 -0.7902
 6226TIP3    H218636   2.113   6.126   4.374 -0.4127  0.7971 -1.0693
 6227TIP3   OH218637   3.268   0.582   2.282 -0.1725 -0.3892 -0.2795
 6227TIP3    H118638   3.195   0.631   2.321  0.6364  0.5138  0.1231
 6227TIP3    H218639   3.319   0.551   2.357 -0.4959 -1.6177 -0.5332
 6228TIP3   OH218640   2.690   6.377   6.170 -0.0867 -0.3324  0.0620
 6228TIP3    H118641   2.718   6.421   6.250 -2.4144  0.2001  0.6596
 6228TIP3    H218642   2.764   6.387   6.110  1.0538  0.7581  1.5724
 6229TIP3   OH218643   5.468   0.422   3.883 -0.3615  0.0982 -0.0946
 6229TIP3    H118644   5.432   0.448   3.798  0.3047  0.7800 -0.1725
 6229TIP3    H218645   5.476   0.327   3.877 -0.5034  0.1210 -0.7173
 6230TIP3   OH218646   7.508   2.759   4.363 -0.1709 -0.0878  0.5958
 6230TIP3    H118647   7.495   2.694   4.433  0.7644  0.9477  1.7889
 6230TIP3    H218648   7.478   2.841   4.402 -0.2090  0.4050 -0.4564
 6231TIP3   OH218649   2.288   0.120   5.161 -0.0974  0.2189  0.0744
 6231TIP3    H118650   2.339   0.153   5.235 -3.1140  1.6454  1.7122
 6231TIP3    H218651   2.254   0.199   5.118  0.1731 -0.6402 -1.7979
 6232TIP3   OH218652   7.222   1.881   5.743 -0.5839  0.8847 -0.0035
 6232TIP3    H118653   7.270   1.814   5.695 -0.1728  0.7464  0.5992
 6232TIP3    H218654   7.194   1.838   5.823  0.5876  1.7228  0.8831
 6233TIP3   OH218655   7.574   2.424   5.818  0.3276  0.3274 -0.4312
 6233TIP3    H118656   7.489   2.466   5.805  1.5774  3.1378 -0.0296
 6233TIP3    H218657   7.570   2.388   5.907 -0.3104  0.7494 -0.2842
 6234TIP3   OH218658   2.717   0.765   3.986  0.2890 -0.7418 -0.2246
 6234TIP3    H118659   2.803   0.795   3.956  0.6798 -0.4717  1.0899
 6234TIP3    H218660   2.682   0.716   3.912  1.5653 -0.8488 -0.7988
 6235TIP3   OH218661   6.459   5.570   1.018  0.0299 -0.2538 -0.9913
 6235TIP3    H118662   6.526   5.501   1.021  1.9809  1.5563 -0.7197
 6235TIP3    H218663   6.470   5.618   1.100 -0.2367  1.3100 -1.8330
 6236TIP3   OH218664   6.630   2.636   5.053  0.2293 -0.0460 -0.0031
 6236TIP3    H118665   6.600   2.609   5.140 -1.4175 -2.4533 -1.2205
 6236TIP3    H218666   6.664   2.725   5.066  0.4750 -0.4972  3.1557
 6237TIP3   OH218667   6.085   7.726   1.310  0.2027 -0.4998 -0.2294
 6237TIP3    H118668   6.095   7.665   1.383 -1.4770  0.1446  0.6075
 6237TIP3    H218669   6.170   7.771   1.303  0.6749 -1.2246  0.7140
 6238TIP3   OH218670   3.448   5.173   0.035 -0.1906  0.6030 -0.1169
 6238TIP3    H118671   3.421   5.260   0.065  0.8445  0.5761  0.9489
 6238TIP3    H218672   3.478   5.128   0.114 -1.7498 -1.1597 -0.4473
 6239TIP3   OH218673   8.064   7.597   4.335  0.2665 -0.6170  0.6248
 6239TIP3    H118674   8.031   7.530   4.396  2.6212 -0.5843  2.0666
 6239TIP3    H218675   8.129   7.550   4.282  0.3182  0.0286  0.1115
 6240TIP3   OH218676   5.785   5.104   0.225 -0.1546 -0.6743 -0.0218
 6240TIP3    H118677   5.831   5.039   0.278  0.6373  0.4156  0.6813
 6240TIP3    H218678   5.820   5.092   0.136  1.8006  0.3267  0.5490
 6241TIP3   OH218679   5.121   5.533   1.419  0.8187 -0.1668 -0.1390
 6241TIP3    H118680   5.180   5.490   1.358  1.2321  0.1848  0.0118
 6241TIP3    H218681   5.158   5.620   1.432 -0.1186  0.3115 -0.5880
 6242TIP3   OH218682   2.863  -0.007   5.836 -0.0535 -0.6738  0.0823
 6242TIP3    H118683   2.918   0.052   5.887  0.3973 -0.5421 -0.5470
 6242TIP3    H218684   2.776   0.003   5.875  0.2683 -0.5385  0.7854
 6243TIP3   OH218685   4.004   5.759   0.671  0.8672  0.3391  0.3926
 6243TIP3    H118686   3.941   5.795   0.609 -0.9243 -1.0902  1.2961
 6243TIP3    H218687   3.959   5.759   0.755  2.6243  0.6257  1.4015
 6244TIP3   OH218688   5.884   6.849   4.616 -0.4501  0.0588  0.6705
 6244TIP3    H118689   5.961   6.883   4.661 -0.2035 -0.9440  1.0302
 6244TIP3    H218690   5.914   6.827   4.528 -0.4774  0.2690  0.6099
 6245TIP3   OH218691   8.037   1.349   3.225 -0.8245 -0.1822 -0.2310
 6245TIP3    H118692   8.030   1.295   3.146 -0.2803  0.0963 -0.4733
 6245TIP3    H218693   8.014   1.290   3.297  0.8875 -1.0842 -0.3652
 6246TIP3   OH218694   6.682   0.438   1.257 -0.0715 -0.2886 -0.2746
 6246TIP3    H118695   6.672   0.344   1.244  0.2643 -0.6445  1.7160
 6246TIP3    H218696   6.764   0.461   1.215 -0.6909 -0.6445 -1.7329
 6247TIP3   OH218697   3.362   2.306   5.586 -0.0121 -0.1028 -0.0251
 6247TIP3    H118698   3.324   2.221   5.564  1.7763 -1.2493  1.1307
 6247TIP3    H218699   3.435   2.317   5.525  1.7077 -0.8979  1.7863
 6248TIP3   OH218700   6.122   7.388   6.444  0.3307 -0.2039 -0.0485
 6248TIP3    H118701   6.203   7.379   6.394  0.7591 -3.2872  0.9847
 6248TIP3    H218702   6.143   7.354   6.531 -0.9965  2.9353  1.6672
 6249TIP3   OH218703   0.265   3.617   6.437  0.2333  0.2925 -0.3825
 6249TIP3    H118704   0.180   3.636   6.474 -0.8647 -0.6709 -2.2500
 6249TIP3    H218705   0.254   3.629   6.343  2.2197  0.3443 -0.6625
 6250TIP3   OH218706   6.160   5.333   2.728  0.0794  0.0895 -0.5504
 6250TIP3    H118707   6.097   5.343   2.658 -0.5872 -0.0003  0.0267
 6250TIP3    H218708   6.245   5.348   2.686 -0.2971 -0.0445 -1.3828
 6251TIP3   OH218709   6.037   0.562   2.785 -0.2749 -0.3421  0.1106
 6251TIP3    H118710   6.113   0.574   2.843  0.8908 -0.3832 -1.3477
 6251TIP3    H218711   5.962   0.558   2.845  0.9862 -1.6795  1.7037
 6252TIP3   OH218712   4.746   1.475   0.615  0.1920  0.0804 -0.0068
 6252TIP3    H118713   4.667   1.421   0.611 -0.1268  0.4874  0.7765
 6252TIP3    H218714   4.817   1.412   0.624 -0.0701 -0.2675 -0.3095
 6253TIP3   OH218715   3.835   4.116   3.006 -0.2727 -0.7066  0.0919
 6253TIP3    H118716   3.872   4.168   3.078 -1.6543  0.4258  0.0389
 6253TIP3    H218717   3.895   4.043   2.995  1.2182  0.3551  0.8505
 6254TIP3   OH218718   5.071   3.385   4.344  0.2082  0.3454 -0.1685
 6254TIP3    H118719   5.094   3.330   4.269  0.7093  0.7509 -0.3226
 6254TIP3    H218720   4.976   3.377   4.351  0.1076  0.5964 -1.0829
 6255TIP3   OH218721   6.976   3.638   1.294  0.5653 -0.8495 -0.0229
 6255TIP3    H118722   7.042   3.646   1.226 -0.8420 -0.1495 -1.3457
 6255TIP3    H218723   7.027   3.624   1.375  2.3168 -0.0168 -0.9288
 6256TIP3   OH218724   1.472   3.090   3.989  0.1560 -0.0733  0.4378
 6256TIP3    H118725   1.550   3.042   4.015  0.5946  0.7305  0.6566
 6256TIP3    H218726   1.440   3.130   4.070 -0.3870 -0.2626  0.3192
 6257TIP3   OH218727   6.135   6.374   0.241 -0.3480  0.4313  0.1115
 6257TIP3    H118728   6.143   6.454   0.292 -0.6171  1.0294 -0.7742
 6257TIP3    H218729   6.220   6.364   0.198 -0.3867  0.3551  0.0515
 6258TIP3   OH218730   2.158   5.669   4.717  0.3330 -0.6259 -0.3942
 6258TIP3    H118731   2.128   5.586   4.755 -0.6582 -0.0460  0.1339
 6258TIP3    H218732   2.083   5.728   4.725  0.5499 -0.0634 -2.0019
 6259TIP3   OH218733   5.445   2.508   0.530  0.2183 -0.2632 -0.2591
 6259TIP3    H118734   5.352   2.530   0.541  0.9189  2.5941  0.7714
 6259TIP3    H218735   5.445   2.415   0.508 -2.8736 -0.3715 -0.2351
 6260TIP3   OH218736   0.193   5.421   5.245 -0.2500  0.0484 -0.1026
 6260TIP3    H118737   0.285   5.445   5.234 -0.2054  0.5177  1.0903
 6260TIP3    H218738   0.194   5.352   5.312 -0.7130 -0.4751 -0.6210
 6261TIP3   OH218739   1.248   6.500   6.294  0.2989  0.2890 -0.3092
 6261TIP3    H118740   1.243   6.547   6.377  1.6349 -2.5026  1.5223
 6261TIP3    H218741   1.331   6.527   6.256  0.2558  0.6651 -0.1379
 6262TIP3   OH218742   0.561   4.818   0.832 -0.0922 -0.2815 -0.1742
 6262TIP3    H118743   0.637   4.840   0.778 -0.0073 -1.1161 -0.4011
 6262TIP3    H218744   0.501   4.775   0.772 -0.2207 -0.7385  0.2803
 6263TIP3   OH218745   6.869   4.797   1.588 -0.6143 -0.0055 -0.1628
 6263TIP3    H118746   6.784   4.780   1.546 -0.9717 -0.2885  0.6488
 6263TIP3    H218747   6.855   4.877   1.637 -0.5813 -0.3543  0.4201
 6264TIP3   OH218748   5.933   6.202   4.269 -0.2721 -0.2078  0.2045
 6264TIP3    H118749   5.877   6.193   4.192 -1.0478  2.1416  0.4124
 6264TIP3    H218750   5.872   6.217   4.341  0.5440  0.5781  0.7511
 6265TIP3   OH218751   4.654   6.840   2.047  0.1872  0.3005 -0.0034
 6265TIP3    H118752   4.652   6.908   1.980  2.4991  0.1200 -0.3302
 6265TIP3    H218753   4.654   6.887   2.130  0.2210  0.6382 -0.1927
 6266TIP3   OH218754   4.865   4.401   2.010  1.0264 -0.9129 -0.2774
 6266TIP3    H118755   4.821   4.357   2.082 -0.3050 -0.5398 -0.8468
 6266TIP3    H218756   4.886   4.331   1.948  2.0103 -1.2068  0.3680
 6267TIP3   OH218757   3.334   1.107   6.312 -0.2140 -0.3201  0.1026
 6267TIP3    H118758   3.299   1.186   6.272  0.0153 -1.0572 -1.6363
 6267TIP3    H218759   3.282   1.036   6.274  0.6504 -1.1302  0.3919
 6268TIP3   OH218760   1.466   7.492   6.502  0.4541  0.1619 -0.4019
 6268TIP3    H118761   1.398   7.557   6.521  0.6550 -0.1438  1.5681
 6268TIP3    H218762   1.424   7.408   6.519  0.8688 -0.1051 -0.6836
 6269TIP3   OH218763   0.218   0.029   3.243 -0.2505 -0.0074  0.0473
 6269TIP3    H118764   0.249   0.007   3.155  1.2264 -1.1769  0.8138
 6269TIP3    H218765   0.186   0.119   3.236  1.0768  0.3790 -1.3884
 6270TIP3   OH218766   2.099   6.987   4.099 -0.5196 -0.3463 -0.1023
 6270TIP3    H118767   2.059   6.901   4.110 -1.1128 -0.0336  0.2685
 6270TIP3    H218768   2.026   7.049   4.107 -0.4450  0.1125 -2.3803
 6271TIP3   OH218769   0.432   4.170   5.223  0.2358  0.1847 -0.4708
 6271TIP3    H118770   0.363   4.103   5.229  0.2780  0.0011 -1.7121
 6271TIP3    H218771   0.387   4.249   5.195  0.6781 -0.2951 -2.7338
 6272TIP3   OH218772   4.751   0.068   4.048  0.7693 -0.2270 -0.4130
 6272TIP3    H118773   4.672   0.014   4.047 -0.7467  1.8351  0.6882
 6272TIP3    H218774   4.775   0.074   4.140  0.3600  1.6608 -0.4016
 6273TIP3   OH218775   4.114   3.463   2.125  0.1056 -0.4913  0.6007
 6273TIP3    H118776   4.101   3.451   2.031  0.6090  1.0430  0.3174
 6273TIP3    H218777   4.077   3.384   2.164  0.8743 -1.6747 -0.9480
 6274TIP3   OH218778   2.056   3.588   4.755 -0.7199 -0.7935 -0.0163
 6274TIP3    H118779   2.022   3.663   4.707  1.1629  0.6444  0.7528
 6274TIP3    H218780   2.132   3.559   4.704 -0.0481 -0.6820  0.9029
 6275TIP3   OH218781   7.290   6.002   1.045 -0.2905 -0.0907  0.7251
 6275TIP3    H118782   7.197   6.000   1.068 -0.7548  0.1555 -0.9977
 6275TIP3    H218783   7.327   5.924   1.086 -0.7140  1.0612  3.4617
 6276TIP3   OH218784   7.401   3.126   3.012  0.3325 -0.2311  0.3849
 6276TIP3    H118785   7.433   3.107   3.101  0.2967 -0.5775  0.3257
 6276TIP3    H218786   7.450   3.066   2.956 -0.6401 -0.9923  0.3246
 6277TIP3   OH218787   2.599   5.527   5.148 -0.3358  0.0608 -0.0874
 6277TIP3    H118788   2.628   5.476   5.223 -3.0030 -1.1258  0.2375
 6277TIP3    H218789   2.674   5.526   5.088  1.9910  1.2772  2.5475
 6278TIP3   OH218790   6.394   1.685   0.802  0.1299 -0.3184  0.3492
 6278TIP3    H118791   6.427   1.748   0.739  0.7802  0.9440  1.8798
 6278TIP3    H218792   6.300   1.702   0.806 -0.3421 -1.9798 -1.9077
 6279TIP3   OH218793   5.737   0.404   6.307 -0.0472 -0.2241 -0.5348
 6279TIP3    H118794   5.693   0.358   6.235  0.6656  1.1809 -1.9341
 6279TIP3    H218795   5.690   0.487   6.314 -0.6513 -0.6763  1.2471
 6280TIP3   OH218796   5.700   6.506   4.113  0.2350 -0.1485  0.2240
 6280TIP3    H118797   5.781   6.503   4.163 -0.9865 -0.7925  2.3040
 6280TIP3    H218798   5.722   6.468   4.028  2.0981 -0.2066  0.6997
 6281TIP3   OH218799   7.882   5.020   5.438  0.7375  0.2409  0.5617
 6281TIP3    H118800   7.822   5.095   5.432  0.1667 -0.2337  0.0771
 6281TIP3    H218801   7.902   5.012   5.531  1.0054  1.1496  0.5863
 6282TIP3   OH218802   2.311   4.763   1.552 -0.4647  0.2140 -0.2303
 6282TIP3    H118803   2.331   4.857   1.542 -1.5203  0.2036 -3.7322
 6282TIP3    H218804   2.380   4.719   1.501  0.9032 -1.1593  2.5546
 6283TIP3   OH218805   0.410   2.601   3.519  0.0398  0.6562  0.2446
 6283TIP3    H118806   0.428   2.691   3.494  2.5295  0.3161  0.6080
 6283TIP3    H218807   0.341   2.608   3.586 -0.2528  2.2128 -0.1931
 6284TIP3   OH218808   5.204   3.578   2.392 -0.4233 -0.6125 -0.0558
 6284TIP3    H118809   5.170   3.668   2.391 -1.0457 -0.8310  0.5047
 6284TIP3    H218810   5.249   3.571   2.476  1.0106 -0.3420 -0.7691
 6285TIP3   OH218811   3.505   1.572   6.100  0.4845  0.5405 -0.2430
 6285TIP3    H118812   3.512   1.516   6.023 -0.6869  1.0984 -0.7839
 6285TIP3    H218813   3.425   1.623   6.085  1.5076  2.3629  0.2205
 6286TIP3   OH218814   7.864   1.888   1.867 -0.3067  0.0092  0.0888
 6286TIP3    H118815   7.952   1.872   1.834 -0.8336  0.5912 -1.7134
 6286TIP3    H218816   7.820   1.803   1.857 -0.4336  0.1541 -0.6835
 6287TIP3   OH218817   5.199   3.531   1.799 -0.1343 -0.0173  0.2382
 6287TIP3    H118818   5.113   3.517   1.760  0.1528  0.0659 -0.4471
 6287TIP3    H218819   5.181   3.573   1.883 -0.7164  1.3999 -0.5630
 6288TIP3   OH218820   4.007   1.963   5.695  0.1545  0.1029 -0.0381
 6288TIP3    H118821   3.923   1.940   5.736  2.2420 -1.0628  4.1327
 6288TIP3    H218822   4.013   2.058   5.705 -0.2869  0.0860  0.4476
 6289TIP3   OH218823   0.792   5.231   6.407  0.1516  0.1783  0.5027
 6289TIP3    H118824   0.848   5.199   6.478  0.9751 -0.4379 -0.3940
 6289TIP3    H218825   0.705   5.239   6.446  0.7197  0.4549  1.7356
 6290TIP3   OH218826   6.457   5.371   0.191  0.4036 -0.0340  0.3948
 6290TIP3    H118827   6.458   5.396   0.283  0.5376  1.1288  0.0862
 6290TIP3    H218828   6.477   5.277   0.192  3.5196  0.5180  1.3743
 6291TIP3   OH218829   5.518   6.011   1.998  0.1378  0.5367 -0.7037
 6291TIP3    H118830   5.560   6.074   2.057  0.2620  0.8652 -1.1377
 6291TIP3    H218831   5.509   5.932   2.050  1.7258  0.2988 -0.7319
 6292TIP3   OH218832   6.435   6.115   1.506 -0.2532 -0.1133  1.0948
 6292TIP3    H118833   6.413   6.190   1.562 -0.4061 -0.2811  1.2609
 6292TIP3    H218834   6.366   6.114   1.440  1.2739  1.6262 -0.6637
 6293TIP3   OH218835   3.791   2.624   2.289 -0.1765 -0.1254 -0.1113
 6293TIP3    H118836   3.716   2.673   2.320  2.1749  2.6876  1.6264
 6293TIP3    H218837   3.839   2.685   2.234  2.1977 -0.8528  1.0135
 6294TIP3   OH218838   2.465   2.097   2.743 -0.0241 -0.2225  0.0208
 6294TIP3    H118839   2.425   2.141   2.668  2.0276 -0.5832 -1.3842
 6294TIP3    H218840   2.399   2.035   2.773 -1.9139  1.7935  0.2725
 6295TIP3   OH218841   0.709   6.972   2.317  0.5113 -0.3596 -0.3300
 6295TIP3    H118842   0.615   6.964   2.304  0.4265 -0.5766  0.3695
 6295TIP3    H218843   0.741   6.882   2.312  0.9161 -0.1645 -2.1266
 6296TIP3   OH218844   3.006   0.428   6.257  0.2345 -0.2601 -0.6434
 6296TIP3    H118845   3.096   0.408   6.233  0.3294  0.3114 -0.7835
 6296TIP3    H218846   2.986   0.509   6.209 -0.9589 -1.3381 -2.0731
 6297TIP3   OH218847   8.101   6.358   4.488  0.4182  0.3971  0.2219
 6297TIP3    H118848   8.009   6.378   4.469  0.5370  0.9750  0.2318
 6297TIP3    H218849   8.104   6.343   4.582  0.4122  0.8168  0.2889
 6298TIP3   OH218850   0.147   2.779   1.657  0.6494  0.2849 -0.0757
 6298TIP3    H118851   0.222   2.811   1.708  1.4361 -1.8254  0.1810
 6298TIP3    H218852   0.071   2.817   1.701  1.3843 -0.3799  1.8946
 6299TIP3   OH218853   0.082   2.950   1.358 -0.1158  0.1358 -0.2244
 6299TIP3    H118854   0.007   2.928   1.413  0.6702 -0.4668  0.6331
 6299TIP3    H218855   0.110   3.037   1.390  0.6876 -0.4563  0.7590
 6300TIP3   OH218856   4.992   7.334   1.141  0.0803  0.1407 -0.0581
 6300TIP3    H118857   4.983   7.366   1.230 -1.7320 -3.0256  1.0702
 6300TIP3    H218858   4.903   7.327   1.108  0.5752 -0.7371 -1.3108
 6301TIP3   OH218859   2.138   2.518   1.489 -0.2379  0.1183  0.5573
 6301TIP3    H118860   2.199   2.561   1.548  1.6234 -4.2246  2.2134
 6301TIP3    H218861   2.053   2.525   1.533  1.0803 -2.9671  4.0906
 6302TIP3   OH218862   1.186   6.705   6.479  0.1253 -0.1280  0.6309
 6302TIP3    H118863   1.142   6.654   6.547  0.3050 -0.3001  0.6180
 6302TIP3    H218864   1.114   6.742   6.427  0.0002 -1.4289 -0.1575
 6303TIP3   OH218865   2.699   5.480   2.419  0.5778  0.0971 -0.0483
 6303TIP3    H118866   2.710   5.500   2.512  0.6266 -0.1751  0.0047
 6303TIP3    H218867   2.766   5.532   2.375  0.9817 -0.2705  0.1265
 6304TIP3   OH218868   3.131   5.578   0.689 -0.9434 -0.1101  0.2560
 6304TIP3    H118869   3.108   5.486   0.704 -0.7351 -0.5902 -1.9807
 6304TIP3    H218870   3.051   5.616   0.652 -0.3522  0.0290 -0.9048
 6305TIP3   OH218871   5.206   5.270   4.661  0.5873 -0.4716 -0.1720
 6305TIP3    H118872   5.169   5.206   4.721  0.9729 -0.0221  0.5571
 6305TIP3    H218873   5.131   5.301   4.610  0.4930 -1.9681 -1.0067
 6306TIP3   OH218874   0.404   5.798   3.317 -0.7048 -0.2541 -0.1609
 6306TIP3    H118875   0.377   5.730   3.255  0.6244 -1.2667  0.3203
 6306TIP3    H218876   0.322   5.831   3.354 -1.3904 -1.4496 -0.5645
 6307TIP3   OH218877   8.275   5.742   3.504 -0.7972  0.2622  0.3623
 6307TIP3    H118878   8.223   5.808   3.458 -1.3162 -0.1722  0.3162
 6307TIP3    H218879   8.327   5.700   3.435 -1.0645  0.0774  0.2730
 6308TIP3   OH218880   2.595   7.258   5.313  0.4453  0.0936  0.3416
 6308TIP3    H118881   2.580   7.214   5.396 -0.5530 -0.2351 -0.0067
 6308TIP3    H218882   2.609   7.187   5.250 -0.8917  0.2475 -0.1672
 6309TIP3   OH218883   4.399   2.696   3.730  0.3359  0.6573  0.1793
 6309TIP3    H118884   4.454   2.773   3.715  1.4101 -0.2134 -0.6056
 6309TIP3    H218885   4.320   2.730   3.771  0.8757  2.1426  0.0557
 6310TIP3   OH218886   6.647   1.732   2.953  0.3251  0.1611  0.3240
 6310TIP3    H118887   6.623   1.818   2.919 -0.4437  0.6985  2.0926
 6310TIP3    H218888   6.572   1.676   2.933  0.9521 -0.2107 -1.0984
 6311TIP3   OH218889   5.494   6.860   3.132 -0.0760 -0.0602 -0.3401
 6311TIP3    H118890   5.581   6.830   3.106  0.2750 -0.9429  1.6534
 6311TIP3    H218891   5.433   6.811   3.076  0.5967 -2.5069  0.9495
 6312TIP3   OH218892   0.746   0.547   1.825 -0.2783 -0.1788  0.4663
 6312TIP3    H118893   0.741   0.468   1.878 -1.6027 -0.9665 -0.7576
 6312TIP3    H218894   0.821   0.533   1.767  0.8758  0.4813  1.7107
 6313TIP3   OH218895   4.956   5.413   2.871 -0.6850 -0.7278  0.3990
 6313TIP3    H118896   4.904   5.427   2.792 -0.4946  0.4386  0.4689
 6313TIP3    H218897   5.025   5.352   2.843  0.1636  0.6747 -0.7184
 6314TIP3   OH218898   2.046   7.603   5.709  0.7390  0.3002  0.0238
 6314TIP3    H118899   1.966   7.586   5.660  0.7412  1.5471 -0.4340
 6314TIP3    H218900   2.058   7.525   5.764 -0.9844  0.2747  0.3985
 6315TIP3   OH218901   8.040   6.411   1.516 -0.7027  0.1609  0.6793
 6315TIP3    H118902   8.036   6.367   1.601 -1.8168  1.1417  1.1609
 6315TIP3    H218903   8.134   6.420   1.498 -0.4496 -0.1436  1.7607
 6316TIP3   OH218904   6.027   2.487   3.913 -0.6534  0.3941 -0.4882
 6316TIP3    H118905   6.072   2.405   3.936 -2.4487 -0.0775  1.7609
 6316TIP3    H218906   6.071   2.554   3.966 -1.0222  0.3741 -0.1585
 6317TIP3   OH218907   3.845   7.797   6.003  0.0662  0.2690 -0.4072
 6317TIP3    H118908   3.758   7.757   6.000 -0.3684  1.0450  1.2461
 6317TIP3    H218909   3.903   7.729   5.966 -0.9285 -1.0875  0.4326
 6318TIP3   OH218910   6.765   4.769   3.536 -0.3410  0.2283 -0.1381
 6318TIP3    H118911   6.712   4.758   3.457  0.1592  0.1918 -0.4716
 6318TIP3    H218912   6.755   4.687   3.583  1.7063 -0.9538 -1.6013
 6319TIP3   OH218913   1.416   4.019   1.593 -0.5466 -0.1375  0.2059
 6319TIP3    H118914   1.472   4.097   1.592  0.3409 -0.7406  0.6850
 6319TIP3    H218915   1.451   3.964   1.523 -0.5863 -0.4782  0.4488
 6320TIP3   OH218916   2.014   6.849   2.942 -0.4738  0.3145  0.3995
 6320TIP3    H118917   2.097   6.816   2.975 -0.5125 -0.2331 -0.0286
 6320TIP3    H218918   1.953   6.838   3.016 -0.0025  1.4787  0.9925
 6321TIP3   OH218919   1.524   2.965   2.849 -0.7794  0.1519 -0.7528
 6321TIP3    H118920   1.471   2.885   2.854 -2.3876  1.2508  0.3513
 6321TIP3    H218921   1.510   2.997   2.760 -0.2323 -0.6932 -1.1603
 6322TIP3   OH218922   3.622   6.645   2.413  0.3915  0.2425 -0.5460
 6322TIP3    H118923   3.553   6.582   2.434  1.2236 -0.4909  0.0664
 6322TIP3    H218924   3.577   6.730   2.409 -0.4651 -0.1497  0.3240
 6323TIP3   OH218925   5.586   0.711   0.414  0.1253 -0.4544  0.5360
 6323TIP3    H118926   5.664   0.660   0.392 -0.8743 -2.1935  0.8075
 6323TIP3    H218927   5.543   0.728   0.330  0.7992  0.5824  0.3768
 6324TIP3   OH218928   4.922   4.461   0.137 -0.4028 -0.0077 -0.2775
 6324TIP3    H118929   5.006   4.505   0.149  0.3409 -1.1715 -0.9594
 6324TIP3    H218930   4.857   4.521   0.174  0.6747  1.1365 -0.1845
 6325TIP3   OH218931   1.583   7.476   4.430  0.7497 -0.1427  0.2294
 6325TIP3    H118932   1.572   7.481   4.525  0.0844 -0.1117  0.1504
 6325TIP3    H218933   1.672   7.509   4.415  0.4332  1.0045  0.7322
 6326TIP3   OH218934   6.759   6.005   4.895  0.2927 -0.1509  0.5622
 6326TIP3    H118935   6.689   6.070   4.883  1.3079  1.3331  2.1458
 6326TIP3    H218936   6.727   5.927   4.849 -1.4559  1.1141 -0.5356
 6327TIP3   OH218937   5.313   4.485   4.156  0.0063  0.3454  0.6238
 6327TIP3    H118938   5.243   4.428   4.124 -0.4399  1.2952 -0.1388
 6327TIP3    H218939   5.303   4.485   4.251 -0.3186 -0.4054  0.5979
 6328TIP3   OH218940   3.755   5.474   2.020  0.0744  0.0834  0.2419
 6328TIP3    H118941   3.750   5.480   1.924  0.1496  1.5623  0.3064
 6328TIP3    H218942   3.848   5.470   2.039  0.0522 -0.4168  0.2433
 6329TIP3   OH218943   7.988   4.771   5.080 -0.5481 -0.5790 -0.5128
 6329TIP3    H118944   8.064   4.774   5.022  0.3765 -0.2002  0.6961
 6329TIP3    H218945   7.970   4.677   5.091  0.1295 -0.6871 -0.3110
 6330TIP3   OH218946   3.153   0.412   2.599 -0.0305  0.7193  0.1079
 6330TIP3    H118947   3.134   0.506   2.593  0.6318  0.7999 -1.3521
 6330TIP3    H218948   3.242   0.404   2.567  1.6065  0.0492  4.2399
 6331TIP3   OH218949   2.684   1.784   4.537  0.3931 -0.3515 -0.3061
 6331TIP3    H118950   2.653   1.815   4.452  3.0542 -0.1085 -1.2794
 6331TIP3    H218951   2.608   1.793   4.595 -1.4445 -0.3430 -2.5756
 6332TIP3   OH218952   8.080   0.300   4.545 -0.8953 -0.1153  0.2964
 6332TIP3    H118953   8.102   0.281   4.454  0.5670 -0.8064  0.7523
 6332TIP3    H218954   8.026   0.226   4.573 -0.2305 -0.5998  0.3432
 6333TIP3   OH218955   4.315   4.123   2.178 -0.9386  0.2789 -0.5326
 6333TIP3    H118956   4.244   4.184   2.198 -1.2592 -0.6587  1.4709
 6333TIP3    H218957   4.271   4.038   2.172 -0.0036 -0.3737  1.1088
 6334TIP3   OH218958   6.665   6.040   5.389  0.0443  0.2808  0.0789
 6334TIP3    H118959   6.620   6.123   5.402  0.1525  0.2107  0.9546
 6334TIP3    H218960   6.719   6.053   5.311 -0.2653  0.8833 -0.0368
 6335TIP3   OH218961   4.387   6.921   6.329 -0.1129  0.5600  0.2413
 6335TIP3    H118962   4.455   6.947   6.391  1.2071 -1.5911 -0.1661
 6335TIP3    H218963   4.431   6.921   6.244 -0.2321 -1.8412  0.0924
 6336TIP3   OH218964   1.906   0.432   1.354  0.1852 -0.4999 -0.5247
 6336TIP3    H118965   1.954   0.480   1.288  2.6536 -1.0175  0.7758
 6336TIP3    H218966   1.848   0.497   1.394  1.4287  0.7385 -0.6627
 6337TIP3   OH218967   8.109   4.738   1.165  0.9136  0.2036  0.6304
 6337TIP3    H118968   8.040   4.803   1.180  0.3792 -0.5983  1.8252
 6337TIP3    H218969   8.094   4.707   1.076 -0.6300 -0.3549  1.0596
 6338TIP3   OH218970   3.359   1.244   6.747 -0.2562  0.4422 -0.5439
 6338TIP3    H118971   3.308   1.310   6.793  0.9828  0.4270  0.9044
 6338TIP3    H218972   3.441   1.287   6.725  0.5239 -0.5479  0.3084
 6339TIP3   OH218973   1.101   5.573   4.378 -0.4587  0.3263  0.2778
 6339TIP3    H118974   1.089   5.510   4.307 -0.3700 -0.4947  0.9689
 6339TIP3    H218975   1.195   5.575   4.394 -0.6297 -1.2209  1.8412
 6340TIP3   OH218976   8.240   4.106   3.877  0.0026 -0.6560  0.1894
 6340TIP3    H118977   8.173   4.174   3.878 -1.0665 -1.6528  1.7057
 6340TIP3    H218978   8.265   4.098   3.785 -0.0311  1.5640 -0.0584
 6341TIP3   OH218979   4.108   4.643   4.642  0.0801 -0.1085 -0.2452
 6341TIP3    H118980   4.027   4.603   4.673  0.9524 -0.8946  1.1498
 6341TIP3    H218981   4.083   4.693   4.565 -2.1709  1.7494  1.5684
 6342TIP3   OH218982   5.540   6.543   3.236  0.5772  0.3311  0.5026
 6342TIP3    H118983   5.460   6.558   3.186 -0.2219  1.1133  1.9218
 6342TIP3    H218984   5.609   6.587   3.187  0.3658 -1.1859 -1.2609
 6343TIP3   OH218985   7.005   3.369   0.428  0.5333 -0.3327 -0.3787
 6343TIP3    H118986   6.937   3.303   0.420 -0.9481  1.3079 -2.5789
 6343TIP3    H218987   7.010   3.387   0.522 -1.5303 -1.0912 -0.0786
 6344TIP3   OH218988   7.168   0.493   4.609 -0.3901  0.3624 -0.3523
 6344TIP3    H118989   7.139   0.414   4.653 -0.7177  0.9733  0.5584
 6344TIP3    H218990   7.216   0.542   4.676 -1.5678  1.6694 -0.4033
 6345TIP3   OH218991   1.369   4.692   4.573  0.0888  0.4925 -0.1429
 6345TIP3    H118992   1.330   4.747   4.642 -1.7642 -1.4053  0.4216
 6345TIP3    H218993   1.308   4.700   4.499 -0.9786 -1.7675  0.4173
 6346TIP3   OH218994   0.280   2.369   1.454 -0.2904 -0.4651  0.7803
 6346TIP3    H118995   0.345   2.299   1.459  0.7181  0.4272  0.3499
 6346TIP3    H218996   0.328   2.445   1.421 -2.0937 -0.4990 -2.3595
 6347TIP3   OH218997   5.181   6.037   5.150 -0.1306  0.1519  0.2727
 6347TIP3    H118998   5.187   6.010   5.059 -0.2780  2.6799 -0.5489
 6347TIP3    H218999   5.263   6.083   5.168 -0.8519  1.2795  0.8199
 6348TIP3   OH219000   0.289   5.728   3.583 -0.0865  0.6241 -0.2234
 6348TIP3    H119001   0.320   5.742   3.493 -0.5911 -0.3538 -0.5601
 6348TIP3    H219002   0.307   5.635   3.600  0.9839  1.0355  1.0791
 6349TIP3   OH219003   6.551   7.697   4.942  0.5047 -0.6262  0.1488
 6349TIP3    H119004   6.514   7.613   4.916 -0.4192 -1.2875  3.2851
 6349TIP3    H219005   6.475   7.753   4.960  0.9324 -0.8090  2.9866
 6350TIP3   OH219006   6.117   1.680   2.187 -0.4044  1.0915  0.0680
 6350TIP3    H119007   6.181   1.660   2.255  0.4761  2.7694 -0.2203
 6350TIP3    H219008   6.167   1.727   2.120 -1.4133  0.1923 -1.3862
 6351TIP3   OH219009   4.895   1.761   3.096  0.2280 -0.1185 -0.1177
 6351TIP3    H119010   4.870   1.696   3.163 -1.3977  0.7039  0.1259
 6351TIP3    H219011   4.988   1.745   3.081 -0.2073 -2.9266 -0.5188
 6352TIP3   OH219012   2.798   6.480   1.646  0.2729  0.0591 -0.1514
 6352TIP3    H119013   2.706   6.507   1.646 -0.5152 -2.1970 -2.4188
 6352TIP3    H219014   2.798   6.394   1.688  1.3790  0.0601 -0.1213
 6353TIP3   OH219015   5.092   0.298   1.638  0.0787  0.0747  0.1996
 6353TIP3    H119016   5.186   0.295   1.656 -0.3568  0.1042  2.8949
 6353TIP3    H219017   5.067   0.206   1.629  0.4802  0.0980 -1.6313
 6354TIP3   OH219018   1.475   4.064   3.467 -0.6846  0.1188  0.1557
 6354TIP3    H119019   1.463   4.152   3.504  0.9476  0.3386  0.2390
 6354TIP3    H219020   1.434   4.069   3.381  0.3194  1.3309 -0.2945
 6355TIP3   OH219021   4.271   0.065   5.798 -0.6108  0.2757  0.3980
 6355TIP3    H119022   4.239   0.120   5.726  0.6124  1.4685  0.7113
 6355TIP3    H219023   4.365   0.055   5.780 -0.4926 -0.2750  1.2842
 6356TIP3   OH219024   4.491   2.754   4.086 -0.0516  0.1376  0.0602
 6356TIP3    H119025   4.436   2.744   4.008  0.5440  1.6298 -0.5987
 6356TIP3    H219026   4.445   2.817   4.141  0.3413  0.3809  0.1186
 6357TIP3   OH219027   6.358   3.758   0.119 -0.1005  0.5016 -0.0856
 6357TIP3    H119028   6.310   3.837   0.094 -0.8780  0.3612  0.8954
 6357TIP3    H219029   6.314   3.687   0.072  0.7586  0.6630 -1.1685
 6358TIP3   OH219030   1.344   4.664   6.717 -0.0173 -0.0653  0.1022
 6358TIP3    H119031   1.274   4.711   6.763  0.1512  0.4547 -0.1677
 6358TIP3    H219032   1.297   4.603   6.659 -0.2330 -0.3844  0.6044
 6359TIP3   OH219033   6.774   1.723   2.568  0.3266 -0.2751  0.0489
 6359TIP3    H119034   6.856   1.745   2.613  0.7656 -2.6408  0.5410
 6359TIP3    H219035   6.801   1.682   2.486 -0.3885 -0.2876 -0.1892
 6360TIP3   OH219036   5.711   3.969   5.251  0.7275 -0.2848  0.0235
 6360TIP3    H119037   5.695   4.013   5.334 -0.1103  0.3310 -0.4492
 6360TIP3    H219038   5.799   3.997   5.225  0.5551  0.3999  0.1625
 6361TIP3   OH219039   5.055   4.746   1.256 -1.1298  0.3036  0.0633
 6361TIP3    H119040   5.061   4.808   1.329  0.5284  0.6289 -0.3027
 6361TIP3    H219041   5.082   4.662   1.294 -1.1577  0.2784  0.0278
 6362TIP3   OH219042   4.937   4.748   3.166  0.1272 -1.1229  0.0137
 6362TIP3    H119043   4.962   4.664   3.127  0.5633 -0.0134 -2.2706
 6362TIP3    H219044   4.860   4.776   3.117 -1.5904 -1.2851  2.4297
 6363TIP3   OH219045   5.219   2.920   3.587  0.3853 -0.1635  0.1924
 6363TIP3    H119046   5.169   2.905   3.507  2.0326 -0.2767 -0.8782
 6363TIP3    H219047   5.277   2.843   3.594 -0.1624 -0.4760  1.8701
 6364TIP3   OH219048   2.399   4.277   5.872 -0.1758  0.5099 -0.1989
 6364TIP3    H119049   2.456   4.326   5.931 -1.0135  1.2254  0.0443
 6364TIP3    H219050   2.359   4.344   5.816 -0.2469 -0.0469 -0.8320
 6365TIP3   OH219051   6.666   7.305   4.786 -0.0721  0.1275 -0.4882
 6365TIP3    H119052   6.577   7.272   4.769 -0.5848  1.7031 -1.0262
 6365TIP3    H219053   6.721   7.227   4.784 -1.7045 -1.2128  2.0187
 6366TIP3   OH219054   3.805   3.105   5.518 -0.1743  0.0299  0.3406
 6366TIP3    H119055   3.710   3.101   5.529 -0.2999 -1.5676 -0.9580
 6366TIP3    H219056   3.831   3.016   5.494  1.4861  0.6878 -0.5088
 6367TIP3   OH219057   2.325   1.404   6.104  0.3025 -0.1390  0.4280
 6367TIP3    H119058   2.359   1.477   6.156 -1.0282  2.5973 -2.2418
 6367TIP3    H219059   2.240   1.384   6.144 -0.5377  1.6722 -0.3322
 6368TIP3   OH219060   7.832   2.242   1.412 -0.2125 -0.3148 -0.1000
 6368TIP3    H119061   7.882   2.285   1.482 -0.3365 -1.9695  1.0717
 6368TIP3    H219062   7.891   2.244   1.336  0.0123  1.3181  0.0775
 6369TIP3   OH219063   0.968   4.091   2.583 -0.0582 -0.4127 -0.4293
 6369TIP3    H119064   0.951   4.003   2.549  0.6495 -0.1059 -1.6178
 6369TIP3    H219065   1.049   4.082   2.633  0.9603 -0.1059 -1.9793
 6370TIP3   OH219066   3.230   0.870   0.492 -0.1261 -0.4198  0.4413
 6370TIP3    H119067   3.271   0.833   0.413 -1.5785  0.6251 -0.8463
 6370TIP3    H219068   3.290   0.939   0.520  0.2055 -0.5329  0.0179
 6371TIP3   OH219069   4.726   3.252   0.723 -0.3349 -0.1689  0.3223
 6371TIP3    H119070   4.669   3.329   0.718  0.7350  0.5893 -1.0759
 6371TIP3    H219071   4.739   3.226   0.632  1.5546 -0.2772  0.5842
 6372TIP3   OH219072   0.268   0.245   1.318  0.3148  0.2422 -0.0566
 6372TIP3    H119073   0.348   0.297   1.311 -0.8238  2.1265  0.1132
 6372TIP3    H219074   0.201   0.298   1.274 -0.5005 -2.1492 -1.9337
 6373TIP3   OH219075   2.715   5.032   1.149  0.3335 -0.5693  0.2372
 6373TIP3    H119076   2.645   5.002   1.207  0.8171  1.2108  1.8435
 6373TIP3    H219077   2.796   5.004   1.192  0.7094  0.9896  0.6362
 6374TIP3   OH219078   0.963   5.424   3.957  0.1891 -0.7660 -0.5515
 6374TIP3    H119079   0.941   5.513   3.932 -1.2390 -0.4610  1.4832
 6374TIP3    H219080   0.942   5.371   3.880 -2.9720  0.1879 -0.5048
 6375TIP3   OH219081   6.076   5.697   0.841  0.6269  0.3648 -0.3955
 6375TIP3    H119082   5.989   5.660   0.828  1.4102 -1.7700 -0.0731
 6375TIP3    H219083   6.131   5.621   0.862  2.3407  1.7921  0.5462
 6376TIP3   OH219084   6.518   3.963   1.857 -0.0074 -0.4020 -0.3214
 6376TIP3    H119085   6.445   3.900   1.855 -0.4416  0.0915 -0.2881
 6376TIP3    H219086   6.595   3.910   1.835 -0.3339 -0.9826 -0.1116
 6377TIP3   OH219087   4.457   4.496   2.655 -0.3697  0.5211 -0.5958
 6377TIP3    H119088   4.439   4.481   2.562 -0.0074 -1.0021 -0.4312
 6377TIP3    H219089   4.468   4.409   2.692  3.1487  1.1484  0.1747
 6378TIP3   OH219090   1.877   2.826   5.773  0.4568 -0.0283  0.3301
 6378TIP3    H119091   1.810   2.855   5.711 -0.8046  1.6591  2.3494
 6378TIP3    H219092   1.941   2.780   5.719  0.6662  3.2848 -2.6447
 6379TIP3   OH219093   3.875   6.443   5.082  0.2872  0.0005  0.1176
 6379TIP3    H119094   3.890   6.537   5.073  1.3139  0.2234  3.0135
 6379TIP3    H219095   3.784   6.435   5.109 -0.2191  0.0061 -1.5116
 6380TIP3   OH219096   6.222   7.415   2.837 -0.3442  0.8227  0.2455
 6380TIP3    H119097   6.222   7.331   2.882 -1.6404  1.1730  0.9777
 6380TIP3    H219098   6.229   7.394   2.744  1.4448  0.0330  0.5287
 6381TIP3   OH219099   5.086   5.667   4.903  0.1292 -0.3995 -0.0978
 6381TIP3    H119100   5.160   5.615   4.873  0.9395  1.0234 -0.6238
 6381TIP3    H219101   5.071   5.637   4.993  0.8308 -1.2499 -0.2552
 6382TIP3   OH219102   4.864   5.354   6.773  0.5659  0.0274  0.0953
 6382TIP3    H119103   4.811   5.394   6.704 -0.6022  0.8067  1.3908
 6382TIP3    H219104   4.916   5.426   6.808  2.4333 -0.7007 -1.0564
 6383TIP3   OH219105   5.432   7.086   3.981  0.1428  0.2460 -0.2429
 6383TIP3    H119106   5.386   7.004   3.962 -0.1471  0.7722 -1.9948
 6383TIP3    H219107   5.520   7.074   3.945  0.4996  0.2769  0.5880
 6384TIP3   OH219108   1.729   0.621   1.152  0.0040  0.4549  0.6153
 6384TIP3    H119109   1.645   0.648   1.115 -0.8789 -3.6536 -0.8379
 6384TIP3    H219110   1.708   0.587   1.238  0.1686 -0.4452  0.3097
 6385TIP3   OH219111   3.540   0.026   5.454  0.4030 -0.8828  0.0352
 6385TIP3    H119112   3.628   0.046   5.484 -0.5344 -0.8488  3.1372
 6385TIP3    H219113   3.540  -0.069   5.440  1.1829 -0.7333 -1.0521
 6386TIP3   OH219114   3.851   1.490   2.464  0.1365 -0.6120 -0.3437
 6386TIP3    H119115   3.863   1.581   2.436 -1.3194 -0.5598 -0.8428
 6386TIP3    H219116   3.775   1.492   2.522  2.2862 -0.9298  2.7478
 6387TIP3   OH219117   5.012   2.857   5.815 -0.4380 -0.5376 -0.0252
 6387TIP3    H119118   5.042   2.798   5.885  0.1386 -0.0770  0.1201
 6387TIP3    H219119   5.039   2.944   5.844  0.6859 -0.4443 -1.2689
 6388TIP3   OH219120   2.739   3.320   6.611  0.2105 -0.6859  0.3022
 6388TIP3    H119121   2.693   3.379   6.551  1.4814 -0.9079 -0.9607
 6388TIP3    H219122   2.736   3.365   6.695 -2.7159 -0.9435  0.4488
 6389TIP3   OH219123   7.208   6.258   1.881  0.2331  0.4934 -0.2178
 6389TIP3    H119124   7.223   6.168   1.849 -0.6536 -1.0009  3.1470
 6389TIP3    H219125   7.208   6.311   1.801  1.1629 -2.4017 -2.3575
 6390TIP3   OH219126   5.675   5.932   1.781  0.1701 -0.5014 -0.0248
 6390TIP3    H119127   5.639   5.975   1.703 -1.4308 -1.4471  0.1465
 6390TIP3    H219128   5.657   5.993   1.852 -0.4230 -0.6266 -0.0622
 6391TIP3   OH219129   1.037   2.128   2.463 -0.3036 -0.0893 -0.6087
 6391TIP3    H119130   0.992   2.089   2.538  0.4138  0.8738  0.3543
 6391TIP3    H219131   1.089   2.199   2.500  0.7384 -0.1204 -1.9073
 6392TIP3   OH219132   5.436   2.681   4.356 -0.5369 -0.3172  0.0138
 6392TIP3    H119133   5.453   2.760   4.407 -0.1860 -0.1614 -0.3337
 6392TIP3    H219134   5.374   2.709   4.288 -1.2209 -0.5890  0.5141
 6393TIP3   OH219135   6.498   5.867   0.953  0.1288 -0.0820  0.0065
 6393TIP3    H119136   6.423   5.921   0.976  1.4836  0.7195  2.9906
 6393TIP3    H219137   6.463   5.778   0.944 -1.2683  0.3727  0.7735
 6394TIP3   OH219138   0.449   5.448   1.940 -0.2264  0.4111 -0.1221
 6394TIP3    H119139   0.513   5.510   1.976  1.6632 -0.7211 -1.3048
 6394TIP3    H219140   0.498   5.401   1.873 -2.3927 -0.4584 -1.1830
 6395TIP3   OH219141   7.896   3.191   3.367 -0.0582 -0.2271  0.6210
 6395TIP3    H119142   7.910   3.282   3.340  1.0906 -0.7558 -0.6644
 6395TIP3    H219143   7.865   3.147   3.288  0.8309 -1.2624  0.8231
 6396TIP3   OH219144   1.294   3.756   4.709 -0.0046 -0.0032  0.3486
 6396TIP3    H119145   1.386   3.736   4.692 -0.0461  0.7614 -0.9016
 6396TIP3    H219146   1.249   3.740   4.626 -0.4431  2.5920 -0.0202
 6397TIP3   OH219147   3.384   7.077   2.852 -0.4878  0.2802 -0.5763
 6397TIP3    H119148   3.377   7.060   2.946 -1.3032  0.8679 -0.5157
 6397TIP3    H219149   3.471   7.115   2.840 -0.2659 -0.0763 -0.1083
 6398TIP3   OH219150   0.672   6.920   0.271  0.9707 -0.3549 -0.6981
 6398TIP3    H119151   0.616   6.844   0.257  0.7889 -0.2150 -0.7312
 6398TIP3    H219152   0.631   6.990   0.220 -0.4093  0.5130  1.4114
 6399TIP3   OH219153   7.485   0.074   4.437 -0.9606  0.1765  0.4534
 6399TIP3    H119154   7.491   0.168   4.422 -2.1207  0.1057 -0.6102
 6399TIP3    H219155   7.410   0.064   4.497 -0.8438 -0.0681  0.5601
 6400TIP3   OH219156   7.378   4.455   2.929 -0.6545 -0.0415 -0.1942
 6400TIP3    H119157   7.294   4.474   2.887 -0.5586  0.7012 -0.0743
 6400TIP3    H219158   7.369   4.494   3.016  0.0170  0.5401 -0.3823
 6401TIP3   OH219159   0.156   3.848   5.829 -0.3089  0.1744  0.1947
 6401TIP3    H119160   0.240   3.893   5.832 -0.5589  0.6503  0.0812
 6401TIP3    H219161   0.091   3.915   5.850 -0.6354 -0.2645  0.6128
 6402TIP3   OH219162   2.131   6.386   5.945  0.0431 -0.2184 -0.0918
 6402TIP3    H119163   2.103   6.299   5.972 -0.4714 -0.4645 -1.3474
 6402TIP3    H219164   2.057   6.420   5.894  0.7893  0.3912 -0.7979
 6403TIP3   OH219165   1.047   6.570   3.865  0.1639  0.2179  0.3615
 6403TIP3    H119166   1.023   6.619   3.944 -0.7554  1.0638 -0.4098
 6403TIP3    H219167   1.021   6.628   3.793  3.2872  0.5825 -0.5912
 6404TIP3   OH219168   3.853   0.180   5.211  0.0771  0.0562 -0.1257
 6404TIP3    H119169   3.799   0.243   5.163  0.9996 -0.1908 -1.5494
 6404TIP3    H219170   3.870   0.222   5.296 -0.2293  1.2340 -0.6254
 6405TIP3   OH219171   4.339   3.629   4.899 -0.3527 -0.2263 -0.2854
 6405TIP3    H119172   4.285   3.577   4.958 -0.2035  1.0817  1.0713
 6405TIP3    H219173   4.423   3.582   4.895  0.2237  0.5296  1.9504
 6406TIP3   OH219174   7.802   7.385   4.201 -0.2890  0.1531  0.1515
 6406TIP3    H119175   7.861   7.358   4.271 -0.4341  1.0335  0.6412
 6406TIP3    H219176   7.854   7.444   4.147  0.1877 -1.4764 -1.2099
 6407TIP3   OH219177   0.810   5.147   0.054  0.1548  0.1989 -0.2320
 6407TIP3    H119178   0.865   5.087   0.003  1.9167  0.1412  1.6208
 6407TIP3    H219179   0.727   5.100   0.065  0.8866 -1.1578 -0.2714
 6408TIP3   OH219180   6.899   0.817   4.454 -0.1143  0.0139 -0.4318
 6408TIP3    H119181   6.858   0.738   4.488 -2.5787  1.8388  1.1975
 6408TIP3    H219182   6.939   0.858   4.530 -1.3946  1.7136 -0.6023
 6409TIP3   OH219183   2.836   5.531   1.301 -0.1100 -0.6037  0.0344
 6409TIP3    H119184   2.815   5.494   1.215  1.9989 -0.2853 -0.6903
 6409TIP3    H219185   2.758   5.580   1.326 -0.9415 -1.0734 -1.5032
 6410TIP3   OH219186   4.682   3.120   5.399  0.5162 -0.0310 -0.1978
 6410TIP3    H119187   4.772   3.098   5.375  0.1278 -0.0084 -1.8216
 6410TIP3    H219188   4.640   3.035   5.413  1.2992 -0.0182  2.8455
 6411TIP3   OH219189   6.843   6.471   3.060 -0.0134 -0.1634 -0.3064
 6411TIP3    H119190   6.821   6.468   2.967  0.6893  0.6821 -0.5000
 6411TIP3    H219191   6.905   6.399   3.072  0.1547 -0.0579 -0.5533
 6412TIP3   OH219192   6.255   6.215   0.703  0.2838  0.2786  0.5261
 6412TIP3    H119193   6.316   6.141   0.702 -0.9157 -0.7437  0.8104
 6412TIP3    H219194   6.233   6.229   0.611  1.9204  1.5157  0.2834
 6413TIP3   OH219195   1.732   2.160   0.343  0.5101 -0.0860 -0.0239
 6413TIP3    H119196   1.676   2.088   0.370 -0.4139 -0.1327 -1.9178
 6413TIP3    H219197   1.676   2.215   0.287  1.7362  1.0371 -0.2077
 6414TIP3   OH219198   2.872   4.249   6.541  0.0683  0.3858  0.1579
 6414TIP3    H119199   2.898   4.330   6.584  0.2149  1.4746 -1.8730
 6414TIP3    H219200   2.923   4.248   6.459 -0.5398 -1.3436 -0.2398
 6415TIP3   OH219201   8.090   5.374   1.599 -0.1743 -0.1711  0.2439
 6415TIP3    H119202   8.082   5.354   1.506  2.9987  1.4461 -0.5180
 6415TIP3    H219203   8.056   5.463   1.607 -2.1506 -0.9298  1.0975
 6416TIP3   OH219204   5.952   0.238   0.765  0.3910  0.0025  0.1620
 6416TIP3    H119205   5.886   0.257   0.832  0.1760  0.9789 -0.3109
 6416TIP3    H219206   5.907   0.255   0.682  0.5652 -1.4643 -0.2633
 6417TIP3   OH219207   7.531   6.387   4.291  0.1215  0.4611  0.2374
 6417TIP3    H119208   7.609   6.339   4.263  0.1860  0.2931  0.6887
 6417TIP3    H219209   7.566   6.462   4.339  0.0053  0.1338  0.8483
 6418TIP3   OH219210   4.576   5.174   3.772  0.4006  0.0454  0.2331
 6418TIP3    H119211   4.522   5.179   3.693 -0.7045  0.2538  0.9799
 6418TIP3    H219212   4.608   5.084   3.774  0.1786 -0.0480 -0.2789
 6419TIP3   OH219213   7.111   4.878   2.059  0.4756 -0.1518 -0.0072
 6419TIP3    H119214   7.036   4.843   2.107  0.2020  0.3110 -0.0932
 6419TIP3    H219215   7.132   4.811   1.995 -0.9662  0.4278 -1.1568
 6420TIP3   OH219216   0.766   5.471   6.240  0.7814 -0.6271  0.9735
 6420TIP3    H119217   0.757   5.438   6.150  0.0686 -0.0274  0.8189
 6420TIP3    H219218   0.748   5.395   6.295 -0.7552 -0.5485  0.6190
 6421TIP3   OH219219   3.891   0.083   6.373  0.0921 -0.2685 -0.3711
 6421TIP3    H119220   3.908  -0.005   6.340  0.2358 -0.3171 -0.1629
 6421TIP3    H219221   3.797   0.083   6.394 -0.0607 -0.1616 -1.0106
 6422TIP3   OH219222   5.642   0.319   4.988  0.1077 -0.4474  0.3307
 6422TIP3    H119223   5.735   0.330   5.010  0.9251 -1.5601 -2.2155
 6422TIP3    H219224   5.618   0.234   5.027  0.0216 -0.0102  1.2693
 6423TIP3   OH219225   0.117   5.551   0.047 -0.3245  0.3135  0.0441
 6423TIP3    H119226   0.171   5.627   0.024  1.3797 -1.0740 -0.7692
 6423TIP3    H219227   0.097   5.563   0.140 -0.5923  2.0345 -0.2107
 6424TIP3   OH219228   1.968   1.435   3.127  0.0751  0.5925  0.0679
 6424TIP3    H119229   2.020   1.514   3.146  1.4911  0.5102 -2.9392
 6424TIP3    H219230   1.942   1.445   3.036 -2.1056 -1.1908  0.4092
 6425TIP3   OH219231   8.024   0.696   3.480  0.0768 -0.0460  0.3023
 6425TIP3    H119232   8.044   0.676   3.389 -0.5818  2.2786 -0.4326
 6425TIP3    H219233   7.964   0.771   3.476 -1.1402 -0.7936  2.6282
 6426TIP3   OH219234   3.460   5.894   0.640  0.3859 -0.1346 -0.0553
 6426TIP3    H119235   3.367   5.914   0.650  0.3586 -0.3323  0.0994
 6426TIP3    H219236   3.464   5.837   0.563  0.0911 -2.0376  1.2672
 6427TIP3   OH219237   6.545   6.564   4.550  0.6088  0.0239  0.0962
 6427TIP3    H119238   6.514   6.476   4.526 -0.4972  0.1224  1.0917
 6427TIP3    H219239   6.535   6.615   4.469 -1.2327 -0.1346  0.1743
 6428TIP3   OH219240   6.556   2.687   1.612  0.0319  0.4201  0.0925
 6428TIP3    H119241   6.548   2.697   1.707  0.4501  0.5270  0.1157
 6428TIP3    H219242   6.466   2.697   1.580 -0.0984  0.4814  0.4667
 6429TIP3   OH219243   4.294   7.060   2.692 -0.0032  0.1341  0.5185
 6429TIP3    H119244   4.205   7.048   2.658  0.1237 -0.8316  0.4909
 6429TIP3    H219245   4.282   7.101   2.778 -0.3801  1.5285 -0.1683
 6430TIP3   OH219246   0.656   3.055   5.992 -0.2694 -0.2103  0.0887
 6430TIP3    H119247   0.695   3.018   6.071 -1.7475  0.8934  1.4186
 6430TIP3    H219248   0.652   3.149   6.010  0.5509  0.2436 -1.8801
 6431TIP3   OH219249   5.800   0.550   5.947  0.2800 -0.1868  0.7640
 6431TIP3    H119250   5.883   0.596   5.941 -0.2700  0.7758  0.3387
 6431TIP3    H219251   5.780   0.521   5.858  0.2518 -0.5923  0.8971
 6432TIP3   OH219252   6.806   6.704   2.438 -0.4257 -0.5165 -0.2600
 6432TIP3    H119253   6.719   6.699   2.397 -0.5344  0.7150 -0.2241
 6432TIP3    H219254   6.867   6.689   2.366 -0.6210  1.4471 -0.9182
 6433TIP3   OH219255   6.833   2.384   1.844  0.6477  0.4615 -0.2150
 6433TIP3    H119256   6.885   2.312   1.808  1.0457  1.7777 -2.3794
 6433TIP3    H219257   6.753   2.342   1.874 -0.3584 -0.6492 -3.9458
 6434TIP3   OH219258   0.707   1.213   5.667 -0.5159  0.0584 -0.0152
 6434TIP3    H119259   0.689   1.149   5.598 -1.0347 -0.0956  0.2621
 6434TIP3    H219260   0.690   1.167   5.749 -1.4519  0.7050  0.1776
 6435TIP3   OH219261   7.990   6.736   2.446  0.5260  0.2167  0.3119
 6435TIP3    H119262   8.085   6.728   2.433  0.5826  1.1687  0.0267
 6435TIP3    H219263   7.959   6.780   2.367 -0.0224  0.6796  0.7766
 6436TIP3   OH219264   3.765   5.907   0.612  0.4395  0.3158 -0.4022
 6436TIP3    H119265   3.678   5.925   0.649  0.5323 -0.2811  0.1194
 6436TIP3    H219266   3.770   5.964   0.535 -0.7751 -0.2791 -0.9634
 6437TIP3   OH219267   0.607   4.001   3.433  0.2506 -0.0128  0.1386
 6437TIP3    H119268   0.575   3.966   3.516  0.6992  2.9824  1.7067
 6437TIP3    H219269   0.660   3.931   3.396 -1.6362 -2.1987  1.3099
 6438TIP3   OH219270   4.678   2.474  -0.024 -0.3963 -0.1645  0.4348
 6438TIP3    H119271   4.707   2.528   0.050  2.1171 -0.9453  0.1095
 6438TIP3    H219272   4.704   2.385   0.000 -1.5840 -0.7824 -0.4462
 6439TIP3   OH219273   8.105   7.781   4.064  0.4160 -0.0995 -0.3428
 6439TIP3    H119274   8.105   7.785   4.160  0.3798 -0.7358 -0.3137
 6439TIP3    H219275   8.195   7.757   4.041  0.3357 -0.2964 -0.4532
 6440TIP3   OH219276   7.776   5.259   5.346 -0.0767 -0.0647 -0.3290
 6440TIP3    H119277   7.681   5.262   5.334 -0.2506 -0.4762  0.8072
 6440TIP3    H219278   7.809   5.214   5.268 -0.8821 -0.5157 -0.4207
 6441TIP3   OH219279   2.428   6.071   6.125 -0.0838  0.1583  0.0874
 6441TIP3    H119280   2.431   6.056   6.219 -1.0973  1.4941  0.3518
 6441TIP3    H219281   2.380   5.996   6.091  0.9678 -0.7410  0.5067
 6442TIP3   OH219282   2.744   2.484   3.510  0.1365 -0.6109 -0.0295
 6442TIP3    H119283   2.662   2.509   3.468 -0.6717 -1.5634  0.9429
 6442TIP3    H219284   2.763   2.396   3.477  0.4695 -0.6257  0.1946
 6443TIP3   OH219285   3.352   1.019   3.109 -0.3429 -0.0243  0.4709
 6443TIP3    H119286   3.293   1.013   3.185 -1.4009 -1.6764 -0.4133
 6443TIP3    H219287   3.437   0.991   3.143 -1.1364 -2.3049  0.7655
 6444TIP3   OH219288   0.516   0.095   0.704 -0.3292 -0.1714 -0.2339
 6444TIP3    H119289   0.462   0.082   0.782 -1.6295 -1.1267 -1.2552
 6444TIP3    H219290   0.549   0.184   0.712 -0.3622 -0.2824  1.4433
 6445TIP3   OH219291   6.392   2.878   5.749 -0.7066 -0.2151  0.4690
 6445TIP3    H119292   6.475   2.922   5.770 -0.2185 -0.4839 -0.8066
 6445TIP3    H219293   6.419   2.795   5.711 -1.6174 -1.5601  2.5943
 6446TIP3   OH219294   6.706   7.766   1.025 -0.2677  0.5775  0.2570
 6446TIP3    H119295   6.693   7.821   1.102 -0.5580  0.3675  0.3595
 6446TIP3    H219296   6.743   7.825   0.960 -1.9599  1.2624 -0.1360
 6447TIP3   OH219297   7.145   1.751   6.421  0.2262  0.4698  0.3451
 6447TIP3    H119298   7.202   1.676   6.438 -0.0845  0.4202  1.2326
 6447TIP3    H219299   7.059   1.712   6.403  0.4851  0.5334 -1.1615
 6448TIP3   OH219300   0.122   3.955   2.469 -0.0094  0.3688 -0.2187
 6448TIP3    H119301   0.073   4.037   2.466 -1.0929 -0.2731 -0.9209
 6448TIP3    H219302   0.055   3.887   2.472  0.8651 -0.5057  0.0428
 6449TIP3   OH219303   3.068   6.647   5.457 -0.1302  0.3400 -0.5726
 6449TIP3    H119304   3.022   6.634   5.540 -0.9976  1.3930 -0.8664
 6449TIP3    H219305   3.008   6.611   5.391  0.0138  0.6019 -0.8464
 6450TIP3   OH219306   2.447   0.024   3.834  0.3367  0.1801  0.2408
 6450TIP3    H119307   2.495   0.008   3.915  2.0056  0.9018 -0.5584
 6450TIP3    H219308   2.510   0.004   3.765 -0.9347 -0.0659 -0.8899
 6451TIP3   OH219309   0.710   4.767   6.321  0.7835  0.4636  0.1489
 6451TIP3    H119310   0.790   4.747   6.273  1.4458 -0.0094  1.3889
 6451TIP3    H219311   0.644   4.785   6.254  1.8415  0.5203 -0.8971
 6452TIP3   OH219312   2.538   2.410   5.783 -0.0473 -0.0312  0.0979
 6452TIP3    H119313   2.496   2.470   5.845 -0.8154  0.9194 -1.3016
 6452TIP3    H219314   2.555   2.331   5.835 -0.2545  0.8818  1.6293
 6453TIP3   OH219315   6.105   0.568   1.085 -0.4022 -0.4095 -0.3765
 6453TIP3    H119316   6.061   0.645   1.049  0.5735  0.9106  1.0992
 6453TIP3    H219317   6.191   0.600   1.113  0.3401 -2.2245 -0.4245
 6454TIP3   OH219318   6.791   1.832   5.935  0.4157  0.7225 -0.3266
 6454TIP3    H119319   6.810   1.769   5.865 -0.9312  0.4711 -0.4951
 6454TIP3    H219320   6.732   1.785   5.994  3.0247  0.2304  2.0981
 6455TIP3   OH219321   0.290   3.569   5.799 -0.1308 -0.0744 -0.2640
 6455TIP3    H119322   0.364   3.571   5.859 -1.1950 -2.1317  1.2465
 6455TIP3    H219323   0.235   3.644   5.825 -0.9913 -1.4001  2.0076
 6456TIP3   OH219324   8.286   2.152   5.689 -0.0816 -0.1596 -0.2696
 6456TIP3    H119325   8.208   2.203   5.714  1.5590  2.2368  0.3184
 6456TIP3    H219326   8.339   2.150   5.768  1.3204 -0.0210 -1.1845
 6457TIP3   OH219327   4.701   2.387   6.251 -0.3585  0.3093  0.1270
 6457TIP3    H119328   4.644   2.322   6.208 -0.0599  0.6313 -0.7890
 6457TIP3    H219329   4.640   2.447   6.294 -0.7129  0.4165 -0.5027
 6458TIP3   OH219330   1.330   6.920   6.580 -0.0180 -0.2908 -0.3041
 6458TIP3    H119331   1.425   6.931   6.586  0.1847 -0.1969 -2.7653
 6458TIP3    H219332   1.318   6.825   6.569 -0.0814 -0.1798 -1.2923
 6459TIP3   OH219333   8.097   2.829   1.777 -0.0446  0.1187 -0.3344
 6459TIP3    H119334   8.062   2.743   1.799 -1.2562  0.7064  0.1029
 6459TIP3    H219335   8.149   2.854   1.853  1.5831 -0.8462 -1.0710
 6460TIP3   OH219336   0.879   2.913   0.781 -0.0914  0.1943 -0.2359
 6460TIP3    H119337   0.887   2.880   0.692  0.4665 -0.0795 -0.0941
 6460TIP3    H219338   0.854   2.837   0.833 -0.8392  0.4460 -0.2218
 6461TIP3   OH219339   7.832   1.337   0.345  0.0953 -0.3352  0.0322
 6461TIP3    H119340   7.877   1.416   0.317  0.6383 -0.6712 -0.0524
 6461TIP3    H219341   7.895   1.290   0.399 -0.6960 -0.0436  1.2553
 6462TIP3   OH219342   1.626   4.476   4.788  0.2282  0.5506 -0.1223
 6462TIP3    H119343   1.664   4.528   4.716 -1.1204  0.5864 -0.8433
 6462TIP3    H219344   1.672   4.392   4.783 -0.4501  0.2388 -1.6097
 6463TIP3   OH219345   2.132   5.773   6.282 -0.0049 -0.1012 -0.1362
 6463TIP3    H119346   2.134   5.743   6.191 -0.8241  0.8709 -0.4938
 6463TIP3    H219347   2.043   5.805   6.295  0.1936  0.0529  0.9196
 6464TIP3   OH219348   6.399   3.966   2.114 -0.1536 -0.0020  0.4920
 6464TIP3    H119349   6.465   3.968   2.044 -0.1594  1.4584  0.5062
 6464TIP3    H219350   6.449   3.979   2.195 -0.5011  1.8166  0.4467
 6465TIP3   OH219351   7.278   7.097   0.936  0.2495 -0.4920  1.0268
 6465TIP3    H119352   7.294   7.120   1.027 -1.1677 -1.4737  1.5630
 6465TIP3    H219353   7.235   7.174   0.898 -0.6719 -0.6807  1.6592
 6466TIP3   OH219354   3.216   4.017   1.068  0.1344 -0.1835  0.2730
 6466TIP3    H119355   3.286   4.006   1.134 -0.5010 -0.5512  0.9015
 6466TIP3    H219356   3.192   3.927   1.044 -0.8714 -0.0914  0.8796
 6467TIP3   OH219357   4.649   5.653   0.872 -0.7625  0.1712  0.5961
 6467TIP3    H119358   4.591   5.665   0.946 -2.7589  2.1909 -1.1372
 6467TIP3    H219359   4.604   5.592   0.814 -0.5217  0.6599 -0.1320
 6468TIP3   OH219360   7.887   6.395   1.231 -0.6737  0.1572  0.1358
 6468TIP3    H119361   7.919   6.367   1.318  0.2788 -0.5865 -0.4291
 6468TIP3    H219362   7.853   6.315   1.192  1.7294 -0.2410 -1.3566
 6469TIP3   OH219363   2.070   5.175   6.409  0.4544 -0.1089  0.0052
 6469TIP3    H119364   2.024   5.162   6.492 -0.7822  0.7249 -0.5291
 6469TIP3    H219365   2.134   5.243   6.429  1.1453 -0.9080  0.6182
 6470TIP3   OH219366   6.723   2.481   2.234  0.1793  0.7337  0.9610
 6470TIP3    H119367   6.687   2.393   2.241  0.2661  0.5918 -0.2672
 6470TIP3    H219368   6.718   2.516   2.324  2.3868 -1.3752  2.0062
 6471TIP3   OH219369   3.608   3.066   4.278  0.2134  0.5122  0.2384
 6471TIP3    H119370   3.617   3.160   4.294 -1.7697  0.9076 -0.5882
 6471TIP3    H219371   3.630   3.055   4.185  0.4815  0.1413  0.3416
 6472TIP3   OH219372   1.449   5.680   1.150  0.6120 -0.1890 -0.3278
 6472TIP3    H119373   1.462   5.586   1.161 -0.1627 -0.2818 -0.0823
 6472TIP3    H219374   1.387   5.687   1.076 -0.6465  0.0291  0.7113
 6473TIP3   OH219375   5.105   5.726   6.398 -0.2434  0.3131  0.1478
 6473TIP3    H119376   5.192   5.756   6.424 -0.7137  1.2357  0.7170
 6473TIP3    H219377   5.096   5.754   6.307  0.6778 -1.2427 -0.4457
 6474TIP3   OH219378   2.363   4.080   4.541  0.2465 -0.3205 -0.8920
 6474TIP3    H119379   2.376   4.058   4.449  1.4599  1.0929 -1.0909
 6474TIP3    H219380   2.289   4.140   4.542  1.0714  0.7118 -1.1123
 6475TIP3   OH219381   1.245   4.631   3.473 -0.2231  0.0986  0.4672
 6475TIP3    H119382   1.192   4.617   3.394  0.6884  1.6968 -0.4839
 6475TIP3    H219383   1.194   4.691   3.527 -0.2234  0.1281  0.4343
 6476TIP3   OH219384   1.706   0.819   2.503 -0.1329 -0.0461 -0.5033
 6476TIP3    H119385   1.728   0.912   2.498  0.3253 -0.2012 -1.5303
 6476TIP3    H219386   1.638   0.806   2.437  0.0173 -0.4933 -0.5778
 6477TIP3   OH219387   3.064   5.022   1.800  0.3167  0.1379  0.4000
 6477TIP3    H119388   3.069   4.929   1.777 -0.5243  0.1510  0.1452
 6477TIP3    H219389   3.156   5.050   1.803  0.5587 -0.0711 -2.1890
 6478TIP3   OH219390   8.095   0.791   2.989  1.0056 -0.2254  0.5230
 6478TIP3    H119391   8.035   0.845   2.938  0.8950 -0.2123  0.6648
 6478TIP3    H219392   8.126   0.724   2.928 -0.9973 -1.7166  1.0400
 6479TIP3   OH219393   3.095   6.923   3.356  0.1204  0.5214 -0.2185
 6479TIP3    H119394   3.098   7.015   3.380 -0.6156  0.2248  1.1605
 6479TIP3    H219395   3.005   6.908   3.328  0.0523  0.1055  0.1880
 6480TIP3   OH219396   3.659   2.836   6.387 -0.6680  1.0355 -0.5029
 6480TIP3    H119397   3.683   2.864   6.475 -0.7528  0.5623 -0.3258
 6480TIP3    H219398   3.688   2.907   6.330  1.1473  0.5130 -0.3027
 6481TIP3   OH219399   2.453   6.778   1.281  0.6422 -0.9881 -0.9413
 6481TIP3    H119400   2.538   6.769   1.238  1.4813  1.0062  0.1556
 6481TIP3    H219401   2.449   6.871   1.305 -1.0056 -1.4523  0.7650
 6482TIP3   OH219402   1.760   4.837   3.810  0.2720 -0.4995  0.1813
 6482TIP3    H119403   1.820   4.911   3.800  2.0330 -1.8457  0.3037
 6482TIP3    H219404   1.697   4.847   3.739  1.6828  0.0329 -1.0269
 6483TIP3   OH219405   4.426   1.678   6.738  0.4160  0.5089  0.1946
 6483TIP3    H119406   4.339   1.702   6.707  0.4439  1.5420  0.8658
 6483TIP3    H219407   4.470   1.642   6.661 -1.2058 -1.8099  0.2707
 6484TIP3   OH219408   1.135   7.540   2.873 -0.0242 -0.1039 -0.5157
 6484TIP3    H119409   1.153   7.629   2.844  1.0808  0.2717  1.1718
 6484TIP3    H219410   1.088   7.550   2.956  0.1289 -1.0774 -0.2909
 6485TIP3   OH219411   4.818   3.436   5.444  0.3973 -0.4049 -0.4000
 6485TIP3    H119412   4.787   3.506   5.386  0.0512  0.7747  1.1596
 6485TIP3    H219413   4.760   3.362   5.424 -2.1254  1.0655  0.8944
 6486TIP3   OH219414   0.472   0.333   2.532 -0.0166  0.0992  0.4856
 6486TIP3    H119415   0.466   0.269   2.604 -0.5996  0.0243  0.3771
 6486TIP3    H219416   0.512   0.285   2.460 -1.9130 -0.6380 -0.1274
 6487TIP3   OH219417   0.081   5.225   5.081  0.0333 -0.3472 -0.7540
 6487TIP3    H119418   0.163   5.177   5.087 -0.2546 -0.8559 -0.8802
 6487TIP3    H219419   0.100   5.309   5.124  0.8504 -0.1398 -1.4775
 6488TIP3   OH219420   1.260   2.217   5.318 -0.1863 -0.4697 -0.3891
 6488TIP3    H119421   1.175   2.193   5.356 -1.6194  1.7993 -1.8858
 6488TIP3    H219422   1.286   2.296   5.365 -0.0264  0.1049 -1.4111
 6489TIP3   OH219423   3.541   3.312   2.198 -0.0305  0.4793  0.1037
 6489TIP3    H119424   3.553   3.249   2.269  0.2923 -0.8421 -1.0972
 6489TIP3    H219425   3.471   3.276   2.144 -1.0309  2.0163  0.3067
 6490TIP3   OH219426   5.255   6.873   2.730 -0.2443 -0.5082  0.0051
 6490TIP3    H119427   5.193   6.899   2.798  0.1142  0.9200 -0.1825
 6490TIP3    H219428   5.225   6.917   2.651  0.2853 -0.8287 -0.3853
 6491TIP3   OH219429   4.739   5.744   5.923 -0.6004 -0.2227 -0.0668
 6491TIP3    H119430   4.807   5.703   5.869  0.4511  0.3446  0.7741
 6491TIP3    H219431   4.686   5.794   5.861 -0.9303 -1.5489 -0.8820
 6492TIP3   OH219432   5.393   3.659   0.510 -0.0134 -0.4834 -0.6204
 6492TIP3    H119433   5.418   3.664   0.602  2.6158 -0.2972 -1.2754
 6492TIP3    H219434   5.333   3.584   0.505 -1.7502  0.6506  1.4963
 6493TIP3   OH219435   0.941   1.784   0.480  0.0020 -0.1078  0.1266
 6493TIP3    H119436   0.907   1.815   0.564  0.0106  0.8929 -0.2278
 6493TIP3    H219437   1.032   1.813   0.478 -0.2778  0.7747 -0.6502
 6494TIP3   OH219438   3.251   6.437   2.227 -0.0388 -0.0075  0.1935
 6494TIP3    H119439   3.336   6.392   2.225  0.4763  0.8514  1.5942
 6494TIP3    H219440   3.239   6.469   2.138  0.5034 -1.2169 -0.3446
 6495TIP3   OH219441   7.597   7.619   0.896  0.3669  0.6359  0.7891
 6495TIP3    H119442   7.681   7.617   0.851 -1.1538  0.7933 -2.3116
 6495TIP3    H219443   7.552   7.539   0.868 -1.5120  1.8359  0.1766
 6496TIP3   OH219444   1.304   1.889   6.366 -0.4074 -0.7507 -0.0319
 6496TIP3    H119445   1.332   1.914   6.454 -0.4994 -0.9053  0.0416
 6496TIP3    H219446   1.335   1.799   6.355 -2.6070 -1.6711  0.8172
 6497TIP3   OH219447   0.331   2.823   6.687  0.0726  0.3976  0.5986
 6497TIP3    H119448   0.254   2.822   6.744  0.6041 -0.2704  1.3524
 6497TIP3    H219449   0.398   2.776   6.738  0.4595 -0.5609 -0.7390
 6498TIP3   OH219450   0.934   6.744   3.141 -0.0733  0.2701  0.4816
 6498TIP3    H119451   0.906   6.697   3.219 -0.4539 -1.7875 -0.8061
 6498TIP3    H219452   0.925   6.680   3.070 -1.5982  2.5839 -1.5953
 6499TIP3   OH219453   6.932   6.888   1.176  0.0368 -0.1010  0.6540
 6499TIP3    H119454   6.944   6.971   1.223  2.1797  0.0349 -0.0149
 6499TIP3    H219455   6.927   6.822   1.246  0.1296  0.4058  1.1516
 6500TIP3   OH219456   6.846   2.566   2.827  0.3056  0.0546 -0.1443
 6500TIP3    H119457   6.824   2.535   2.914  0.2260  2.0451  0.6083
 6500TIP3    H219458   6.875   2.488   2.780  0.8205 -0.9900  1.8014
 6501TIP3   OH219459   0.927   2.271   3.158 -0.0629 -0.1450  0.0923
 6501TIP3    H119460   0.939   2.298   3.249 -0.8455  0.1776  0.1089
 6501TIP3    H219461   0.997   2.315   3.110 -0.0197  0.1780  0.4474
 6502TIP3   OH219462   0.605   1.946   5.816 -0.3334 -0.3678 -0.6870
 6502TIP3    H119463   0.573   1.868   5.861  1.5928 -0.7598  0.1030
 6502TIP3    H219464   0.552   2.017   5.853 -0.3861 -0.9875  0.4766
 6503TIP3   OH219465   5.422   1.631   4.531  0.2084 -0.0885 -0.6644
 6503TIP3    H119466   5.413   1.716   4.573  0.2531 -0.1522 -0.5261
 6503TIP3    H219467   5.333   1.610   4.501 -0.0089 -0.4508  0.1910
 6504TIP3   OH219468   0.868   7.208   2.362  0.0297  0.2920 -0.5640
 6504TIP3    H119469   0.815   7.128   2.358  1.1750 -0.5005 -0.4024
 6504TIP3    H219470   0.806   7.276   2.385 -0.9581 -0.5725 -0.5671
 6505TIP3   OH219471   7.341   3.817   3.183 -0.0794 -0.0134  0.6502
 6505TIP3    H119472   7.305   3.813   3.271 -0.8194  2.6684  0.5760
 6505TIP3    H219473   7.434   3.836   3.197 -0.0442 -0.3400  0.8611
 6506TIP3   OH219474   3.778   6.595   5.342 -0.4367 -0.6582  0.5293
 6506TIP3    H119475   3.711   6.528   5.328 -0.4053 -0.3227 -1.7240
 6506TIP3    H219476   3.854   6.548   5.375 -0.9766 -1.4578  0.6375
 6507TIP3   OH219477   0.356   7.420   3.982  0.4207 -0.5527 -0.0033
 6507TIP3    H119478   0.441   7.463   3.987  0.1017  0.0759  0.0473
 6507TIP3    H219479   0.341   7.404   3.889 -0.7446  2.0768 -0.3543
 6508TIP3   OH219480   0.459   2.352   2.304 -0.8775 -0.0896 -0.2587
 6508TIP3    H119481   0.509   2.433   2.312  0.7743 -1.0360 -0.3894
 6508TIP3    H219482   0.381   2.376   2.254  0.5857  1.0218 -2.1328
 6509TIP3   OH219483   0.987   3.393   6.503  0.3631 -0.1994 -0.1530
 6509TIP3    H119484   0.943   3.310   6.483  1.2359 -0.3328 -1.7768
 6509TIP3    H219485   1.079   3.369   6.515  0.6083  0.5066 -0.5310
 6510TIP3   OH219486   7.230   4.466   5.508 -0.2691 -0.2974  1.1389
 6510TIP3    H119487   7.250   4.473   5.414  1.8209 -0.3271  1.5292
 6510TIP3    H219488   7.259   4.549   5.544  0.1780 -0.7948  1.9455
 6511TIP3   OH219489   5.248   6.636   2.005 -0.0118 -0.3189  0.0435
 6511TIP3    H119490   5.307   6.629   2.080 -1.1384 -0.6219  0.9369
 6511TIP3    H219491   5.227   6.545   1.983 -1.2699 -0.2208  0.6985
 6512TIP3   OH219492   1.740   6.738   3.558 -0.8760  0.1657  0.5349
 6512TIP3    H119493   1.800   6.798   3.513 -0.4806 -0.0674  0.7465
 6512TIP3    H219494   1.685   6.703   3.488  0.0846 -0.6032  0.1441
 6513TIP3   OH219495   4.478   2.052   5.957 -0.1806  0.1826  0.2551
 6513TIP3    H119496   4.466   2.031   5.864 -2.9457  2.3255 -0.0070
 6513TIP3    H219497   4.458   1.970   6.002  1.4660 -0.9745 -0.9976
 6514TIP3   OH219498   2.533   7.055   4.750  0.6273 -0.0045 -0.4055
 6514TIP3    H119499   2.469   7.101   4.804  0.5675  0.6005 -0.9812
 6514TIP3    H219500   2.572   6.990   4.809 -1.4015 -1.2519 -0.3625
 6515TIP3   OH219501   2.507   0.316   1.252 -0.2157 -0.2548  0.7848
 6515TIP3    H119502   2.556   0.391   1.284  1.9368 -1.0970 -0.3194
 6515TIP3    H219503   2.552   0.240   1.288  0.3185 -1.1072 -1.4599
 6516TIP3   OH219504   7.760   6.482   5.381 -0.5570 -0.1477  0.1399
 6516TIP3    H119505   7.826   6.512   5.319  0.6384  1.3921  2.0388
 6516TIP3    H219506   7.806   6.419   5.437 -1.0275  0.0459  0.7555
 6517TIP3   OH219507   4.499   4.814   4.313 -0.1977  0.4163  0.0281
 6517TIP3    H119508   4.413   4.856   4.317 -1.1275 -1.4624  1.3210
 6517TIP3    H219509   4.490   4.748   4.245 -0.4282 -1.0173  1.3931
 6518TIP3   OH219510   7.825   0.403   2.491  1.1121  0.1084 -0.2830
 6518TIP3    H119511   7.811   0.482   2.439  0.7733  0.9119  0.9987
 6518TIP3    H219512   7.904   0.422   2.542  1.2826 -0.5638 -0.2890
 6519TIP3   OH219513   3.665   4.050   5.006  0.0367 -0.1532 -0.1260
 6519TIP3    H119514   3.678   4.019   4.916 -0.6100  0.0779 -0.3055
 6519TIP3    H219515   3.750   4.085   5.032  0.8196 -2.0795  0.1015
 6520TIP3   OH219516   1.725   3.067   2.452  0.0294 -0.8232  0.3545
 6520TIP3    H119517   1.745   3.160   2.467 -1.2339 -0.7170  1.5510
 6520TIP3    H219518   1.762   3.022   2.528 -1.7640 -0.9297  1.2220
 6521TIP3   OH219519   4.473   5.002   0.359  0.0829 -0.5915  0.3505
 6521TIP3    H119520   4.469   4.948   0.280 -2.8317  1.1856 -0.8626
 6521TIP3    H219521   4.449   4.943   0.430 -2.5860 -1.1430 -0.8850
 6522TIP3   OH219522   2.613   1.370   6.324  0.7771 -0.4271  0.3063
 6522TIP3    H119523   2.541   1.428   6.299 -0.1286 -1.1050  1.2698
 6522TIP3    H219524   2.571   1.288   6.351  1.8179 -0.4622  1.9941
 6523TIP3   OH219525   7.143   3.189   4.468  0.2197  0.4711 -0.1975
 6523TIP3    H119526   7.172   3.273   4.432  1.2258  1.2078  2.1190
 6523TIP3    H219527   7.167   3.194   4.561  0.0649 -2.2838  0.0566
 6524TIP3   OH219528   6.936   2.957   5.334 -0.3126  0.1781  0.1573
 6524TIP3    H119529   6.882   3.014   5.279  0.0713  0.0333 -0.3781
 6524TIP3    H219530   7.012   2.936   5.280  0.4963  0.7247  1.0474
 6525TIP3   OH219531   0.119   3.217   0.866 -0.5938 -0.3656 -0.3313
 6525TIP3    H119532   0.140   3.221   0.773  0.0727 -2.7176 -0.3360
 6525TIP3    H219533   0.127   3.125   0.889 -1.0474  0.1066  2.0054
 6526TIP3   OH219534   2.923   2.722   4.894  0.1928 -0.0658  0.1872
 6526TIP3    H119535   2.943   2.636   4.930 -0.2615  0.1990  1.1022
 6526TIP3    H219536   2.832   2.716   4.865  0.5624 -0.2880 -0.9916
 6527TIP3   OH219537   1.353   4.126   1.981 -0.4356  0.2053  0.5747
 6527TIP3    H119538   1.261   4.142   2.004 -0.9357 -0.2577 -0.9894
 6527TIP3    H219539   1.359   4.031   1.972 -0.6425  0.3886 -2.4040
 6528TIP3   OH219540   3.058   0.090   4.112  0.1155 -0.4113  0.1452
 6528TIP3    H119541   3.085   0.159   4.051  0.8091 -0.3244  0.5434
 6528TIP3    H219542   3.129   0.027   4.110 -0.5265 -1.1348 -0.2269
 6529TIP3   OH219543   5.341   0.278   1.336  0.5179  0.1422  0.2358
 6529TIP3    H119544   5.352   0.370   1.360  1.6353 -0.1031  0.7164
 6529TIP3    H219545   5.391   0.229   1.402  1.5439 -0.6923 -1.0929
 6530TIP3   OH219546   3.374   5.321   2.196  0.1613 -0.5913  0.0429
 6530TIP3    H119547   3.392   5.265   2.121  0.3490  0.4931 -0.7474
 6530TIP3    H219548   3.383   5.410   2.162  0.2179 -0.0783  1.3438
 6531TIP3   OH219549   3.538   3.990   1.537 -0.2285 -0.0511 -0.0020
 6531TIP3    H119550   3.503   3.993   1.448 -2.3517  2.8264  0.7815
 6531TIP3    H219551   3.465   3.959   1.591  0.4458 -0.0257  0.9639
 6532TIP3   OH219552   0.653   6.690   1.242 -0.2889 -0.3738 -0.6188
 6532TIP3    H119553   0.573   6.723   1.201  0.8074  1.5341 -1.3500
 6532TIP3    H219554   0.624   6.658   1.328 -1.8388  0.2334 -0.8720
 6533TIP3   OH219555   1.583   0.828   5.813 -0.0668 -0.1799  0.4399
 6533TIP3    H119556   1.559   0.868   5.896  0.2889 -1.8374  1.3824
 6533TIP3    H219557   1.670   0.863   5.793 -0.2044  0.3148  0.6987
 6534TIP3   OH219558   3.298   7.132   0.930  0.0331 -0.1881  0.4738
 6534TIP3    H119559   3.329   7.222   0.935  0.4826 -0.0756 -2.3367
 6534TIP3    H219560   3.215   7.139   0.882  0.8107 -1.3398 -1.1212
 6535TIP3   OH219561   1.267   6.358   1.894 -0.9613  0.1721  0.0338
 6535TIP3    H119562   1.272   6.378   1.987 -3.0456  1.1365  0.0098
 6535TIP3    H219563   1.351   6.385   1.859  0.0776 -0.7462  1.7036
 6536TIP3   OH219564   5.845   7.076   5.599  0.3816  0.0756 -0.3608
 6536TIP3    H119565   5.821   7.133   5.526  0.6772  1.0311  0.2697
 6536TIP3    H219566   5.933   7.045   5.577  0.9697  1.3175  0.1328
 6537TIP3   OH219567   5.424   5.158   4.188  0.7774  0.6268  0.4730
 6537TIP3    H119568   5.333   5.179   4.209  0.5040 -0.6220  0.6356
 6537TIP3    H219569   5.420   5.070   4.149  2.1533 -0.6289  2.9014
 6538TIP3   OH219570   0.221   5.434   3.138 -0.2004  0.0788  0.4496
 6538TIP3    H119571   0.175   5.383   3.071 -0.7783  0.3448  0.6383
 6538TIP3    H219572   0.310   5.400   3.137 -0.5377 -0.8342  0.4619
 6539TIP3   OH219573   6.739   2.023   3.512 -0.2182 -0.1070  0.1312
 6539TIP3    H119574   6.678   2.060   3.575 -1.1828 -1.3464 -0.0457
 6539TIP3    H219575   6.686   1.965   3.457  0.7197  0.3814 -1.3783
 6540TIP3   OH219576   4.888   6.715   3.881 -0.1078  0.4357 -0.6268
 6540TIP3    H119577   4.947   6.734   3.809  0.2176 -1.3305 -0.8777
 6540TIP3    H219578   4.945   6.708   3.958 -0.1008 -0.2785 -0.6887
 6541TIP3   OH219579   1.484   0.684   4.806 -0.2194 -0.3358 -0.2684
 6541TIP3    H119580   1.459   0.593   4.789  0.8589 -0.2989 -2.2982
 6541TIP3    H219581   1.428   0.711   4.879 -0.5623 -2.6132  0.3694
 6542TIP3   OH219582   6.459   5.708   1.532  0.2698  0.4676  0.2695
 6542TIP3    H119583   6.464   5.781   1.593  2.2607 -0.5440  1.4328
 6542TIP3    H219584   6.469   5.630   1.588 -2.0125 -0.7500 -0.8877
 6543TIP3   OH219585   3.353   0.448   2.059 -0.3817  0.2116 -0.2631
 6543TIP3    H119586   3.305   0.492   2.129 -1.6617 -1.8536  0.2513
 6543TIP3    H219587   3.289   0.389   2.019  1.2064 -1.2050 -0.8556
 6544TIP3   OH219588   0.070   7.296   0.191 -0.0892  0.0494  0.0534
 6544TIP3    H119589   0.036   7.291   0.280 -0.0063  0.5635  0.1140
 6544TIP3    H219590   0.033   7.377   0.155  1.7398  1.0948  0.3971
 6545TIP3   OH219591   0.351   1.307   1.418 -0.5317 -0.1809 -0.0354
 6545TIP3    H119592   0.419   1.278   1.478 -0.1723 -0.0480 -0.3733
 6545TIP3    H219593   0.271   1.267   1.451 -0.6120  1.0810  1.4011
 6546TIP3   OH219594   3.044   1.517   4.353  0.5658  0.2182 -0.2950
 6546TIP3    H119595   3.054   1.509   4.258  0.0891  0.3042 -0.3526
 6546TIP3    H219596   3.090   1.440   4.387  1.9788  0.9241 -0.5129
 6547TIP3   OH219597   2.840   1.507   1.568 -0.9960  0.7616 -0.3537
 6547TIP3    H119598   2.912   1.496   1.630  0.5602  0.2699 -2.1498
 6547TIP3    H219599   2.770   1.452   1.602 -0.8380  1.7676  1.8070
 6548TIP3   OH219600   6.282   7.820   2.063  0.9372  0.0974  0.4852
 6548TIP3    H119601   6.276   7.794   2.155  2.1060 -1.7930  0.0805
 6548TIP3    H219602   6.366   7.785   2.033  1.0659  1.5926 -1.0411
 6549TIP3   OH219603   7.365   6.404   5.112 -0.1403  0.3092 -0.2173
 6549TIP3    H119604   7.456   6.380   5.130 -0.1557  0.1848 -0.3056
 6549TIP3    H219605   7.372   6.473   5.046 -0.0541  1.2358  0.7232
 6550TIP3   OH219606   8.149   4.149   4.879 -0.0686  0.5038 -0.1552
 6550TIP3    H119607   8.151   4.228   4.934 -0.9179  0.3776  0.0746
 6550TIP3    H219608   8.064   4.109   4.898 -0.4587  0.5515 -1.6824
 6551TIP3   OH219609   5.224   1.059   0.182 -0.1387 -0.3167 -0.1547
 6551TIP3    H119610   5.171   1.127   0.140 -1.8167 -0.2249  1.9290
 6551TIP3    H219611   5.172   0.979   0.174 -0.2470 -0.4117  1.1335
 6552TIP3   OH219612   3.184   6.821   4.787 -0.0122 -0.3349 -0.0180
 6552TIP3    H119613   3.247   6.885   4.753 -0.7161 -0.1051 -0.9194
 6552TIP3    H219614   3.139   6.867   4.858  3.3946 -1.6968  3.3839
 6553TIP3   OH219615   7.299   6.419   4.427  0.4200  0.3501 -1.0353
 6553TIP3    H119616   7.388   6.429   4.392  0.9152 -0.0450  0.0947
 6553TIP3    H219617   7.277   6.328   4.411  1.4210 -0.3892  1.3724
 6554TIP3   OH219618   0.759   6.699   2.345 -0.1580  0.1516  0.0804
 6554TIP3    H119619   0.776   6.678   2.437  3.9675  0.8178 -0.3372
 6554TIP3    H219620   0.806   6.632   2.296 -0.0169  1.3441 -1.4789
 6555TIP3   OH219621   5.573   7.590   0.296 -0.3718  0.0055  0.2106
 6555TIP3    H119622   5.482   7.600   0.325 -0.7177 -1.3890 -0.3009
 6555TIP3    H219623   5.609   7.679   0.298 -1.8203  0.6209  0.1778
 6556TIP3   OH219624   3.582   6.254   1.515 -0.5072  0.3368 -0.3560
 6556TIP3    H119625   3.652   6.319   1.504  0.0753 -0.1593  0.3341
 6556TIP3    H219626   3.622   6.184   1.567 -1.8538  0.5802  1.0608
 6557TIP3   OH219627   2.974   3.983   5.901 -0.3097  0.1075  0.0261
 6557TIP3    H119628   3.024   4.064   5.888 -0.9005  0.5959  0.7285
 6557TIP3    H219629   2.883   4.009   5.886 -0.8011  0.1969  2.7438
 6558TIP3   OH219630   2.952   1.401   0.188 -0.2564 -0.0072  0.3962
 6558TIP3    H119631   2.922   1.480   0.144  0.2920 -0.5887 -1.0731
 6558TIP3    H219632   3.030   1.428   0.237 -0.6795  0.5723  0.7570
 6559TIP3   OH219633   7.485   0.929   3.707  0.3954  0.2100  0.0258
 6559TIP3    H119634   7.511   0.869   3.777 -0.5765  1.4667  1.5330
 6559TIP3    H219635   7.392   0.944   3.722  0.4743  1.5753 -0.7228
 6560TIP3   OH219636   4.898   5.903   1.963  0.2199 -0.0950 -0.3131
 6560TIP3    H119637   4.840   5.960   2.015 -0.6873  0.4080 -1.8247
 6560TIP3    H219638   4.920   5.832   2.023  2.0396  2.1675  1.9298
 6561TIP3   OH219639   1.145   5.162   3.020  0.0650 -0.2801  0.0738
 6561TIP3    H119640   1.111   5.073   3.035  0.4070 -0.5358 -0.6007
 6561TIP3    H219641   1.128   5.208   3.102  0.9571 -1.3128  0.8843
 6562TIP3   OH219642   3.578   7.691   3.982 -0.5969  0.5475 -0.5625
 6562TIP3    H119643   3.549   7.600   3.975  1.4912 -0.1522 -0.7940
 6562TIP3    H219644   3.535   7.724   4.062 -0.8244 -0.8565 -0.0857
 6563TIP3   OH219645   6.718   0.330   5.355 -0.1408  0.5266  0.3627
 6563TIP3    H119646   6.743   0.371   5.437  0.5670  1.8494 -0.4709
 6563TIP3    H219647   6.625   0.350   5.345 -0.0190  1.1273  0.4170
 6564TIP3   OH219648   2.566   7.503   4.092  0.3859  0.0364 -0.6643
 6564TIP3    H119649   2.514   7.472   4.166 -1.3905  0.9305 -1.4797
 6564TIP3    H219650   2.587   7.594   4.114  2.2943 -0.5179 -0.0172
 6565TIP3   OH219651   3.714   6.746   5.625 -0.2634 -0.3824  0.1714
 6565TIP3    H119652   3.738   6.731   5.533  1.4099  0.4807  0.4226
 6565TIP3    H219653   3.620   6.764   5.622 -0.1903 -0.0481 -1.4264
 6566TIP3   OH219654   7.447   1.309   1.388 -0.2347  0.4552  0.1766
 6566TIP3    H119655   7.517   1.280   1.330 -1.5420 -0.4592 -1.0301
 6566TIP3    H219656   7.465   1.401   1.405  0.8294  0.4346 -0.7479
 6567TIP3   OH219657   3.925   1.378   6.303 -0.2326 -0.4028 -0.4484
 6567TIP3    H119658   3.858   1.419   6.357  0.4968 -1.9382  1.7587
 6567TIP3    H219659   4.003   1.431   6.316 -0.6070  0.5777 -1.9249
 6568TIP3   OH219660   5.808   4.586   5.356 -0.2306  0.1807 -0.2672
 6568TIP3    H119661   5.890   4.635   5.357 -1.3435  2.1398 -0.1654
 6568TIP3    H219662   5.743   4.649   5.325 -1.7204 -1.2765 -0.2103
 6569TIP3   OH219663   2.402   7.399   1.402 -0.3102 -0.2958  0.5542
 6569TIP3    H119664   2.339   7.347   1.451 -1.5170  1.5378  1.0489
 6569TIP3    H219665   2.487   7.374   1.438 -0.5429 -3.6320 -0.8852
 6570TIP3   OH219666   4.275   7.341   0.940 -0.0704  0.0579 -0.3769
 6570TIP3    H119667   4.315   7.350   1.026  0.3783  0.1819 -0.5906
 6570TIP3    H219668   4.258   7.247   0.931 -2.5601  0.3070  0.8957
 6571TIP3   OH219669   2.325   0.577   4.571 -0.3809 -0.3523  0.4968
 6571TIP3    H119670   2.378   0.578   4.491 -0.5828  2.6955  0.2628
 6571TIP3    H219671   2.236   0.594   4.541 -0.7734 -1.0712  1.2316
 6572TIP3   OH219672   3.237   4.907   6.396 -0.1564 -0.3142 -0.0717
 6572TIP3    H119673   3.317   4.938   6.438 -1.1307  0.2520  1.4439
 6572TIP3    H219674   3.166   4.954   6.440 -1.2890 -0.0090 -2.0899
 6573TIP3   OH219675   2.191   7.381   3.475  0.1355 -1.1784  0.3968
 6573TIP3    H119676   2.237   7.398   3.393 -1.7748 -0.2542 -0.5360
 6573TIP3    H219677   2.212   7.457   3.530 -1.7303  0.2443 -0.7394
 6574TIP3   OH219678   5.380   2.940   1.039 -0.0237  0.4151  0.2293
 6574TIP3    H119679   5.411   2.857   1.076  2.3401  0.6572 -1.0030
 6574TIP3    H219680   5.367   2.997   1.114  0.9203 -0.2612  0.9259
 6575TIP3   OH219681   6.367   4.405   3.834  0.2653 -0.0689 -0.1860
 6575TIP3    H119682   6.348   4.350   3.910  1.1998 -1.4341 -0.8847
 6575TIP3    H219683   6.334   4.355   3.759 -0.6770  1.2697 -0.7069
 6576TIP3   OH219684   8.084   5.511   5.554 -0.4024 -0.0761 -0.3349
 6576TIP3    H119685   8.165   5.475   5.590 -0.8678 -0.3950  0.4131
 6576TIP3    H219686   8.038   5.547   5.630 -0.7316  0.5782 -0.8300
 6577TIP3   OH219687   1.638   6.670   5.523  1.1522 -0.0645 -0.3780
 6577TIP3    H119688   1.605   6.733   5.459  0.7627  1.1687  0.9943
 6577TIP3    H219689   1.567   6.660   5.586  1.9036 -0.4571  0.4300
 6578TIP3   OH219690   7.733   4.396   6.414  0.2327  0.6882  0.4603
 6578TIP3    H119691   7.795   4.385   6.486 -0.2655 -1.7679  0.6005
 6578TIP3    H219692   7.655   4.433   6.455  0.5495  0.9321  0.8498
 6579TIP3   OH219693   3.120   2.177   3.894 -0.3474  0.2419 -0.0103
 6579TIP3    H119694   3.124   2.261   3.848  0.5356 -0.4860 -1.3315
 6579TIP3    H219695   3.188   2.124   3.852 -0.0496 -0.7334  1.6352
 6580TIP3   OH219696   6.134   0.279   2.285  0.1038 -0.0835  0.2841
 6580TIP3    H119697   6.200   0.340   2.318  0.1557  0.8933 -1.5103
 6580TIP3    H219698   6.091   0.327   2.214 -1.2819 -1.3886  0.2007
 6581TIP3   OH219699   1.905   5.252   4.860  0.0370  0.0313  0.1712
 6581TIP3    H119700   1.973   5.186   4.875  1.4803  1.5472  0.5575
 6581TIP3    H219701   1.945   5.316   4.801 -1.0104  1.0296  0.4887
 6582TIP3   OH219702   7.724   1.595   0.485  0.2723 -0.0650 -0.0344
 6582TIP3    H119703   7.681   1.510   0.495 -1.9523  0.9409 -0.4776
 6582TIP3    H219704   7.747   1.620   0.574  0.8571 -1.0768  0.1127
 6583TIP3   OH219705   5.201   6.283   3.009  0.2977  0.2425  0.1030
 6583TIP3    H119706   5.238   6.196   3.019 -1.4381 -0.7250 -1.2828
 6583TIP3    H219707   5.107   6.268   2.996 -0.1678  2.3730  0.5514
 6584TIP3   OH219708   0.860   2.386   0.830 -0.3888 -0.0724 -0.0572
 6584TIP3    H119709   0.783   2.332   0.811 -1.8913  2.3453 -1.4428
 6584TIP3    H219710   0.825   2.475   0.836  2.0895  0.9011  1.1251
 6585TIP3   OH219711   4.031   0.417   1.791 -0.2793  0.5345 -0.4090
 6585TIP3    H119712   3.937   0.415   1.777 -0.3142 -1.9191 -0.3675
 6585TIP3    H219713   4.043   0.472   1.869 -1.8449 -0.2939  0.4619
 6586TIP3   OH219714   3.158   1.058   1.157 -0.4015 -0.6085  0.1926
 6586TIP3    H119715   3.218   1.096   1.222  0.2573  1.5604 -1.5468
 6586TIP3    H219716   3.079   1.112   1.163 -0.5663 -0.7820 -0.3694
 6587TIP3   OH219717   5.336   1.276   5.296 -0.1746  0.0959 -0.4174
 6587TIP3    H119718   5.268   1.270   5.229 -0.6695  0.9060 -0.0063
 6587TIP3    H219719   5.390   1.199   5.282  0.0359  0.5131 -2.0791
 6588TIP3   OH219720   3.556   7.258   0.648 -0.1355  0.8175 -0.0248
 6588TIP3    H119721   3.519   7.188   0.594  2.5065 -0.7553 -0.0088
 6588TIP3    H219722   3.553   7.225   0.737  1.6976  0.3608 -0.0862
 6589TIP3   OH219723   0.246   1.186   4.494  0.2022  1.3378 -0.5261
 6589TIP3    H119724   0.314   1.158   4.432  0.2229  1.5732 -0.6117
 6589TIP3    H219725   0.266   1.138   4.574 -0.6443 -0.0203 -1.1066
 6590TIP3   OH219726   5.789   0.317   4.689 -0.3837  0.1056  0.2053
 6590TIP3    H119727   5.777   0.236   4.740  0.9957  0.4517  1.1378
 6590TIP3    H219728   5.878   0.311   4.656 -0.9049  0.4045 -1.3046
 6591TIP3   OH219729   5.243   5.380   6.144  0.4151 -0.1395  0.5850
 6591TIP3    H119730   5.176   5.426   6.094 -0.8467 -1.4728  0.9674
 6591TIP3    H219731   5.227   5.407   6.235  0.2472 -0.6256  0.7025
 6592TIP3   OH219732   2.907   5.305   5.817  0.3474 -0.0664 -0.1100
 6592TIP3    H119733   2.890   5.392   5.782  0.9137 -0.1554 -0.6153
 6592TIP3    H219734   2.987   5.316   5.870 -0.0675 -0.0978  0.5395
 6593TIP3   OH219735   3.329   6.902   6.749 -0.1336  0.2871 -0.1944
 6593TIP3    H119736   3.375   6.829   6.708 -0.0033  1.4439 -2.2191
 6593TIP3    H219737   3.259   6.924   6.687 -0.1272  1.9270  0.3501
 6594TIP3   OH219738   6.041   4.636   3.374  0.1181 -0.1953  0.0073
 6594TIP3    H119739   6.117   4.591   3.338  0.5925 -0.0846  0.8505
 6594TIP3    H219740   6.074   4.682   3.452 -0.5282  0.9165 -0.3437
 6595TIP3   OH219741   7.145   5.058   6.528 -0.2007  0.3102 -0.5146
 6595TIP3    H119742   7.218   5.080   6.470 -0.7098  0.4028 -1.1382
 6595TIP3    H219743   7.101   4.986   6.482  1.4368 -2.1373  1.4592
 6596TIP3   OH219744   1.171   3.769   2.161 -0.2403  0.3376  0.2155
 6596TIP3    H119745   1.109   3.794   2.229 -1.6770 -0.1536 -0.8558
 6596TIP3    H219746   1.202   3.682   2.187  0.9749  1.0900  1.3863
 6597TIP3   OH219747   1.931   3.228   3.089 -0.3725 -0.0840 -0.4460
 6597TIP3    H119748   1.858   3.200   3.033  1.3493 -1.2663 -2.2252
 6597TIP3    H219749   1.890   3.248   3.173 -2.8840  0.3723 -1.6799
 6598TIP3   OH219750   0.134   1.445   3.181  0.0319  0.0083  0.2402
 6598TIP3    H119751   0.206   1.507   3.189 -0.1910  0.4864 -1.1103
 6598TIP3    H219752   0.089   1.472   3.100 -1.9011 -0.0153  1.2578
 6599TIP3   OH219753   4.740   6.548   5.576  0.0585  0.3507  0.5331
 6599TIP3    H119754   4.809   6.551   5.642  0.1400  1.6880  0.4207
 6599TIP3    H219755   4.717   6.456   5.569  1.0045  0.0290  1.4344
 6600TIP3   OH219756   3.492   4.210   5.164  0.0423  0.0833 -0.1523
 6600TIP3    H119757   3.562   4.217   5.229 -0.6121  0.3417  0.5433
 6600TIP3    H219758   3.523   4.144   5.103  0.0493 -1.2172  1.2119
 6601TIP3   OH219759   6.071   0.607   6.009 -0.1723 -0.0738  0.4274
 6601TIP3    H119760   6.027   0.545   6.066 -0.9493  1.8388  2.0314
 6601TIP3    H219761   6.164   0.593   6.025 -0.3498 -0.5885  1.0407
 6602TIP3   OH219762   3.750   7.059   3.703  0.4595  0.1310 -0.2223
 6602TIP3    H119763   3.744   6.991   3.636  0.7961 -0.4748  0.3562
 6602TIP3    H219764   3.662   7.065   3.739  0.1602  0.7880 -1.0224
 6603TIP3   OH219765   6.321   1.568   4.118 -0.4173  0.7092 -0.5577
 6603TIP3    H119766   6.332   1.640   4.181 -2.8993  0.9164 -0.2827
 6603TIP3    H219767   6.409   1.555   4.083  0.3315  3.1657  0.1452
 6604TIP3   OH219768   3.404   3.608   1.158  0.1834 -0.1014 -0.7088
 6604TIP3    H119769   3.321   3.571   1.130 -0.4557  0.6267  0.1924
 6604TIP3    H219770   3.393   3.627   1.251  1.1333  0.6050 -0.7151
 6605TIP3   OH219771   4.260   3.211   1.440  0.0655 -0.2517  0.7858
 6605TIP3    H119772   4.190   3.229   1.502  0.0577  0.4034  0.5943
 6605TIP3    H219773   4.253   3.281   1.375 -0.0252 -1.0030 -0.0443
 6606TIP3   OH219774   5.466   1.286   1.598  0.1337  0.2453  0.0323
 6606TIP3    H119775   5.469   1.330   1.513 -0.0114  0.9245  0.3695
 6606TIP3    H219776   5.537   1.222   1.594 -1.3104 -1.3515 -1.4526
 6607TIP3   OH219777   6.284   4.980   1.224 -0.6655  0.1166 -0.3531
 6607TIP3    H119778   6.199   4.951   1.190 -0.3270  0.4697 -1.5641
 6607TIP3    H219779   6.348   4.940   1.164 -0.0574  0.9496 -0.2760
 6608TIP3   OH219780   1.412   0.277   4.466 -0.1913 -0.4750  0.8133
 6608TIP3    H119781   1.332   0.322   4.437 -0.0555 -1.1380 -0.7223
 6608TIP3    H219782   1.435   0.221   4.392  2.2650  0.4513  0.7970
 6609TIP3   OH219783   0.693   6.426   4.940 -0.2444 -0.9123  0.4136
 6609TIP3    H119784   0.644   6.472   5.009  0.5217 -0.0952  0.4213
 6609TIP3    H219785   0.740   6.356   4.987 -0.6325 -1.0953  0.5408
 6610TIP3   OH219786   4.553   5.835   0.342  0.7504 -0.5687  0.2222
 6610TIP3    H119787   4.588   5.747   0.352 -0.1429 -0.8733  0.8597
 6610TIP3    H219788   4.551   5.850   0.247 -0.9189 -2.0341 -0.0467
 6611TIP3   OH219789   0.186   3.211   3.119 -0.2382  0.1557 -0.2906
 6611TIP3    H119790   0.131   3.198   3.042 -3.6372 -0.2656  1.9989
 6611TIP3    H219791   0.201   3.123   3.154  1.5278  0.3082 -0.5400
 6612TIP3   OH219792   0.586   7.447   3.811 -0.2481 -0.4856  0.4409
 6612TIP3    H119793   0.503   7.463   3.765 -0.9538  0.1884  1.8734
 6612TIP3    H219794   0.651   7.494   3.759 -1.0871  0.6022  0.3194
 6613TIP3   OH219795   1.559   2.443   5.973 -0.4229 -0.2980 -0.2240
 6613TIP3    H119796   1.519   2.525   6.002  1.7947  0.5923  0.4938
 6613TIP3    H219797   1.554   2.385   6.049  0.6075  0.2074  0.2499
 6614TIP3   OH219798   4.128   7.333   2.846 -0.5634  0.3508  0.5892
 6614TIP3    H119799   4.168   7.417   2.824  0.0337 -0.2411 -0.7270
 6614TIP3    H219800   4.130   7.330   2.941 -0.1856  1.6361  0.6414
 6615TIP3   OH219801   4.693   7.675   4.811 -0.1144  0.5831 -0.3129
 6615TIP3    H119802   4.755   7.603   4.808  0.0218  0.6528  0.4638
 6615TIP3    H219803   4.609   7.636   4.785  0.3024  0.5628 -1.6811
 6616TIP3   OH219804   7.255   3.048   1.682 -0.3641 -0.6702  0.1155
 6616TIP3    H119805   7.310   2.993   1.625  1.1717  0.2158  0.6643
 6616TIP3    H219806   7.265   3.137   1.646 -0.7164 -0.3589  0.7670
 6617TIP3   OH219807   7.789   5.946   6.485 -0.4692 -0.2380  0.0451
 6617TIP3    H119808   7.827   5.878   6.430  2.1342  1.5589 -0.5097
 6617TIP3    H219809   7.810   6.028   6.441  3.3139  1.4834  4.3004
 6618TIP3   OH219810   0.420   7.055   3.414 -0.1098  0.1029 -0.0572
 6618TIP3    H119811   0.363   6.980   3.431 -1.1688  0.4549 -1.8446
 6618TIP3    H219812   0.438   7.091   3.501 -3.2476  0.4331  0.5699
 6619TIP3   OH219813   6.852   2.504   4.939  0.0987 -0.4794  0.0999
 6619TIP3    H119814   6.775   2.546   4.979  0.1050  0.1439 -0.5308
 6619TIP3    H219815   6.827   2.491   4.848  0.7458 -0.2746 -0.1066
 6620TIP3   OH219816   6.779   2.467   6.242 -0.4322 -0.5928 -0.0679
 6620TIP3    H119817   6.848   2.502   6.299 -1.0367  0.9427 -0.2445
 6620TIP3    H219818   6.805   2.493   6.154 -1.4415  0.3943 -0.0932
 6621TIP3   OH219819   4.457   6.384   5.367 -0.5923 -0.4219 -0.3239
 6621TIP3    H119820   4.367   6.394   5.337 -0.0972  0.3856 -1.6482
 6621TIP3    H219821   4.476   6.464   5.416 -1.2820 -1.5819  1.9818
 6622TIP3   OH219822   7.191   2.168   3.348  0.3182  0.1266 -0.5784
 6622TIP3    H119823   7.193   2.073   3.362 -0.2412  0.2335  0.2745
 6622TIP3    H219824   7.283   2.195   3.356  0.1729  0.0520  2.2508
 6623TIP3   OH219825   0.189   2.242   1.715  0.5830  0.3556  0.5212
 6623TIP3    H119826   0.139   2.303   1.661 -0.2261 -0.8885 -0.1764
 6623TIP3    H219827   0.213   2.293   1.792  1.0239  1.9233 -0.6038
 6624TIP3   OH219828   5.736   2.945   3.028 -0.1742  0.2133  1.2098
 6624TIP3    H119829   5.674   2.876   3.005 -0.4822  0.4835  1.2155
 6624TIP3    H219830   5.822   2.904   3.020 -0.3187  0.0268  0.5430
 6625TIP3   OH219831   5.515   5.561   1.389 -0.2135 -0.2455 -0.2111
 6625TIP3    H119832   5.572   5.486   1.406  1.0777  0.7488  0.0202
 6625TIP3    H219833   5.524   5.616   1.467 -2.9388 -0.8947  0.6455
 6626TIP3   OH219834   3.663   4.613   1.472  0.4583  0.1118  0.4557
 6626TIP3    H119835   3.643   4.524   1.502 -0.5695  0.4118  0.6729
 6626TIP3    H219836   3.759   4.617   1.475  0.5344 -1.0617  0.2202
 6627TIP3   OH219837   7.585   0.075   0.211  0.4298  0.4254  0.0332
 6627TIP3    H119838   7.503   0.037   0.244  0.2438 -0.3427 -1.2456
 6627TIP3    H219839   7.559   0.158   0.172  0.4935  0.8413  0.8456
 6628TIP3   OH219840   0.480   3.370   0.891 -0.7350 -0.1755 -0.2666
 6628TIP3    H119841   0.503   3.325   0.810 -1.4395  0.4626 -0.8229
 6628TIP3    H219842   0.408   3.428   0.868  0.8900  2.1532  0.1389
 6629TIP3   OH219843   1.291   0.472   0.511 -0.1825 -0.2932  0.5014
 6629TIP3    H119844   1.318   0.546   0.565  0.6351 -0.1568 -0.0683
 6629TIP3    H219845   1.303   0.395   0.567 -0.6680 -0.0356  0.9660
 6630TIP3   OH219846   6.970   0.176   5.796  0.3549  0.3677 -0.1641
 6630TIP3    H119847   7.002   0.110   5.734 -0.0533  1.3931 -1.5251
 6630TIP3    H219848   7.015   0.257   5.769  1.2754  0.5793  1.8140
 6631TIP3   OH219849   3.738   7.703   5.696  0.4055 -0.0109  0.0028
 6631TIP3    H119850   3.724   7.715   5.790 -3.2669 -0.9333 -0.2620
 6631TIP3    H219851   3.682   7.770   5.655  1.2326 -0.2211 -1.5294
 6632TIP3   OH219852   7.809   5.343   2.442 -0.6033 -0.5091 -0.2191
 6632TIP3    H119853   7.716   5.366   2.443 -0.5009 -0.0894  0.4120
 6632TIP3    H219854   7.839   5.361   2.531 -0.0453 -1.1878 -0.2622
 6633TIP3   OH219855   5.731   6.683   6.716 -0.1459 -0.5344  0.2434
 6633TIP3    H119856   5.670   6.627   6.668 -0.4444 -0.5190  0.6057
 6633TIP3    H219857   5.725   6.768   6.672 -0.5994 -0.4535  0.4550
 6634TIP3   OH219858   7.216   7.106   0.081  0.4277  0.1061  0.0721
 6634TIP3    H119859   7.134   7.064   0.104 -0.0948  1.0986  0.0522
 6634TIP3    H219860   7.200   7.148  -0.004  1.1865 -0.3214 -0.3012
 6635TIP3   OH219861   3.860   7.086   3.974 -0.2656  0.2839 -0.0578
 6635TIP3    H119862   3.815   7.002   3.987  0.7128  0.0290  2.2000
 6635TIP3    H219863   3.856   7.101   3.880 -0.9445 -2.0405 -0.4700
 6636TIP3   OH219864   3.687   2.967   6.670 -0.3990 -0.0576 -0.0576
 6636TIP3    H119865   3.703   2.986   6.763 -0.9899 -2.2621  0.5451
 6636TIP3    H219866   3.770   2.987   6.627  0.5773 -1.0392  1.2953
 6637TIP3   OH219867   3.989   7.398   5.362 -0.1998 -0.3551 -0.1379
 6637TIP3    H119868   3.918   7.384   5.299  0.8507 -0.1872 -1.4257
 6637TIP3    H219869   4.069   7.378   5.312  0.7108  0.3657  0.9750
 6638TIP3   OH219870   4.654   6.927   3.321  0.4397 -0.3905  0.3967
 6638TIP3    H119871   4.639   6.873   3.243  0.4772  0.9172 -0.5556
 6638TIP3    H219872   4.728   6.982   3.298  1.2093 -0.7841  1.8218
 6639TIP3   OH219873   2.430   4.250   1.229  0.3381  0.4033  0.1061
 6639TIP3    H119874   2.456   4.241   1.321  1.5059  0.2820 -0.2144
 6639TIP3    H219875   2.411   4.161   1.201  0.0977  0.4249  0.2030
 6640TIP3   OH219876   5.142   2.828   2.248  0.6199 -0.0033 -0.7520
 6640TIP3    H119877   5.076   2.766   2.218  1.0870 -0.1090 -1.5982
 6640TIP3    H219878   5.095   2.887   2.307 -0.0908 -0.4347 -0.8780
 6641TIP3   OH219879   4.331   4.142   6.315  0.0400 -0.2428  0.1458
 6641TIP3    H119880   4.287   4.169   6.395  2.0219 -0.6143  1.4275
 6641TIP3    H219881   4.263   4.100   6.263 -1.6650  1.5254  0.8537
 6642TIP3   OH219882   4.525   1.317   4.709 -0.3372 -0.5516 -0.1778
 6642TIP3    H119883   4.541   1.308   4.615 -0.7790  1.7226 -0.5387
 6642TIP3    H219884   4.613   1.326   4.747 -0.1624 -1.3417 -0.3782
 6643TIP3   OH219885   1.668   1.558   0.213  0.0081  0.6131 -0.1878
 6643TIP3    H119886   1.660   1.599   0.127  0.3340  2.3349  0.5639
 6643TIP3    H219887   1.761   1.569   0.236  0.8461 -3.0801 -1.1123
 6644TIP3   OH219888   4.234   0.473   6.795 -0.4295 -0.0353  0.1739
 6644TIP3    H119889   4.235   0.487   6.700 -1.1511 -1.6763 -0.1136
 6644TIP3    H219890   4.324   0.447   6.816 -0.1606  0.7486  0.0297
 6645TIP3   OH219891   0.447   3.551   5.078 -0.8637  0.0873 -0.0967
 6645TIP3    H119892   0.459   3.524   5.169 -1.8196 -2.3361 -0.5909
 6645TIP3    H219893   0.353   3.537   5.062 -0.7440  0.6523 -1.3832
 6646TIP3   OH219894   7.864   1.407   5.867 -0.1319 -0.1941 -0.1120
 6646TIP3    H119895   7.844   1.453   5.948 -0.0226  2.1430 -1.3041
 6646TIP3    H219896   7.788   1.352   5.850 -0.6239  0.1167  1.0299
 6647TIP3   OH219897   1.560   4.490   1.620  0.0401 -0.2938  0.5516
 6647TIP3    H119898   1.596   4.424   1.562  1.4815  1.4233 -0.6168
 6647TIP3    H219899   1.477   4.515   1.580 -0.1241 -0.7983  0.5656
 6648TIP3   OH219900   3.903   7.542   4.583  0.1247  0.2070 -0.2891
 6648TIP3    H119901   3.846   7.546   4.506 -1.4372  0.8920  0.8387
 6648TIP3    H219902   3.981   7.591   4.557 -1.3925  2.5955 -0.6815
 6649TIP3   OH219903   2.129   0.053   4.279 -0.0389  0.5162  0.0044
 6649TIP3    H119904   2.104  -0.002   4.353 -1.4421  0.0931 -0.7369
 6649TIP3    H219905   2.225   0.054   4.281  0.0773 -2.1927 -0.1005
 6650TIP3   OH219906   0.427   0.987   4.592 -0.1740  0.2068  0.2150
 6650TIP3    H119907   0.483   0.991   4.514  1.2613 -0.8802  1.1584
 6650TIP3    H219908   0.382   0.903   4.585 -0.2546  0.2312  0.4414
 6651TIP3   OH219909   4.675   0.438   4.996  0.5146  0.1317  0.2455
 6651TIP3    H119910   4.698   0.514   4.943  0.1859 -0.8526 -1.3828
 6651TIP3    H219911   4.585   0.455   5.025 -0.1427 -0.3112 -1.4404
 6652TIP3   OH219912   5.258   4.859   4.659 -0.2992 -0.2157  0.2702
 6652TIP3    H119913   5.326   4.880   4.723 -0.8981 -1.4942  1.3637
 6652TIP3    H219914   5.203   4.937   4.656  1.7381  1.2751 -1.4191
 6653TIP3   OH219915   6.938   2.946   2.865  0.2514  0.5316  0.4547
 6653TIP3    H119916   6.883   3.021   2.888  0.3935  0.5397  0.7772
 6653TIP3    H219917   7.025   2.970   2.897  0.3368  0.3076  0.3929
 6654TIP3   OH219918   4.859   2.977   3.429  0.8688  0.2506 -0.2428
 6654TIP3    H119919   4.891   3.024   3.506  1.0808  1.9770 -1.3084
 6654TIP3    H219920   4.930   2.985   3.365  1.1140 -2.0391 -0.3091
 6655TIP3   OH219921   4.420   4.071   4.210  0.2848  0.2495 -0.0056
 6655TIP3    H119922   4.470   4.064   4.129 -0.5594 -2.0543 -0.3868
 6655TIP3    H219923   4.334   4.103   4.182 -0.5636 -2.1077 -0.3572
 6656TIP3   OH219924   7.963   6.707   0.533 -0.3489 -0.1066  0.4508
 6656TIP3    H119925   7.995   6.712   0.623  0.5075  0.0846  0.1406
 6656TIP3    H219926   7.895   6.773   0.528  0.0579  0.3459  0.7771
 6657TIP3   OH219927   5.880   1.876   4.318 -0.4107  0.5151 -0.6087
 6657TIP3    H119928   5.876   1.894   4.225  1.4985 -0.4450 -0.9454
 6657TIP3    H219929   5.923   1.953   4.356 -0.4143  0.5366 -0.6483
 6658TIP3   OH219930   0.130   2.326   0.605  0.4309 -0.4027  0.0139
 6658TIP3    H119931   0.193   2.288   0.544  0.3952 -0.4638  0.0148
 6658TIP3    H219932   0.080   2.387   0.552  0.7541 -0.0574  0.1017
 6659TIP3   OH219933   4.346   6.815   3.808 -0.1817 -0.4976  0.4128
 6659TIP3    H119934   4.440   6.836   3.811  0.5608 -2.9715 -1.6644
 6659TIP3    H219935   4.343   6.720   3.798 -2.8608 -0.3736 -0.8103
 6660TIP3   OH219936   7.017   5.012   2.371  0.0079 -0.0193  0.8418
 6660TIP3    H119937   6.992   5.090   2.421 -1.0783 -0.5713  1.1928
 6660TIP3    H219938   6.933   4.971   2.348  0.5246 -0.3975 -0.4523
 6661TIP3   OH219939   3.629   5.974   2.098 -0.0111 -0.0523 -0.6819
 6661TIP3    H119940   3.627   5.878   2.095  0.4934 -0.0554 -1.0626
 6661TIP3    H219941   3.559   6.001   2.038 -0.2321 -0.1791 -0.4848
 6662TIP3   OH219942   0.433   1.692   5.798 -0.3464  0.3538  0.0311
 6662TIP3    H119943   0.483   1.667   5.876 -2.6183 -0.4643  1.3377
 6662TIP3    H219944   0.421   1.611   5.750 -1.9004  0.1468  0.6983
 6663TIP3   OH219945   2.999   3.056   4.046  0.5610  0.3487  0.0408
 6663TIP3    H119946   3.065   3.022   3.985 -1.4850 -1.8103 -1.0970
 6663TIP3    H219947   3.022   3.016   4.130  0.2226 -1.1321 -0.5413
 6664TIP3   OH219948   7.155   0.795   1.421  0.3718 -0.1570  0.2844
 6664TIP3    H119949   7.211   0.717   1.420  1.0706  0.3252 -1.1773
 6664TIP3    H219950   7.216   0.868   1.413 -0.4424  0.3763 -1.6483
 6665TIP3   OH219951   5.872   3.418   0.946 -0.0300  0.3176 -0.1683
 6665TIP3    H119952   5.953   3.430   0.898  1.2877 -2.9045  0.9724
 6665TIP3    H219953   5.875   3.327   0.976 -3.9232  0.1572  0.2296
 6666TIP3   OH219954   3.986   7.282   1.267  0.1335 -0.0416  0.2586
 6666TIP3    H119955   3.940   7.204   1.236  1.0626  0.0935 -1.6229
 6666TIP3    H219956   3.970   7.348   1.200  2.3746  0.2403 -0.0796
 6667TIP3   OH219957   1.227   5.835   5.320  0.3994 -0.4549 -0.2370
 6667TIP3    H119958   1.249   5.894   5.248 -3.9808  2.6133  0.5269
 6667TIP3    H219959   1.286   5.862   5.391  2.1780 -0.9003 -1.4872
 6668TIP3   OH219960   2.173   3.672   5.007  0.6204 -0.0160 -0.4104
 6668TIP3    H119961   2.116   3.733   5.053 -0.0010  0.2233 -1.4691
 6668TIP3    H219962   2.130   3.657   4.923 -0.5561 -3.7768  0.6534
 6669TIP3   OH219963   0.616   5.533   1.445 -0.3240 -0.4426 -0.3730
 6669TIP3    H119964   0.631   5.537   1.540 -1.8231  0.1602 -0.1242
 6669TIP3    H219965   0.669   5.603   1.409 -1.3740  0.7397  0.2929
 6670TIP3   OH219966   1.781   0.967   0.720 -0.1359  0.5006  0.1049
 6670TIP3    H119967   1.797   1.059   0.699  1.1673  0.2838  0.0539
 6670TIP3    H219968   1.797   0.961   0.814 -1.9371  0.6445  0.4689
 6671TIP3   OH219969   7.220   3.053   0.749 -0.1580 -0.0709 -0.0055
 6671TIP3    H119970   7.203   3.148   0.755 -0.9018 -0.2460  0.9779
 6671TIP3    H219971   7.145   3.019   0.699  1.1384  0.0904 -2.2037
 6672TIP3   OH219972   0.579   4.583   6.752  0.5088 -0.0146  0.0203
 6672TIP3    H119973   0.487   4.592   6.778 -0.3604 -2.5623 -1.8399
 6672TIP3    H219974   0.590   4.646   6.681 -0.4813 -1.2326 -1.2498
 6673TIP3   OH219975   6.740   4.955   0.174 -0.0680 -0.1739  0.3775
 6673TIP3    H119976   6.653   4.933   0.207 -0.4187  0.2190 -0.2491
 6673TIP3    H219977   6.779   5.010   0.241  0.0828 -1.1384  1.1001
 6674TIP3   OH219978   6.812   2.938   1.432 -0.3351  0.1631  0.2675
 6674TIP3    H119979   6.756   2.860   1.435 -0.3772  0.2144  0.9919
 6674TIP3    H219980   6.757   3.005   1.392 -1.4518  0.7064  2.5545
 6675TIP3   OH219981   7.674   0.708   6.107 -0.0534 -0.1014 -0.2926
 6675TIP3    H119982   7.702   0.746   6.190  0.1564  0.9432 -0.8335
 6675TIP3    H219983   7.748   0.721   6.048 -0.2662 -0.6885 -0.6974
 6676TIP3   OH219984   6.363   2.772   5.143 -0.3680 -0.0189 -0.1263
 6676TIP3    H119985   6.430   2.840   5.151 -0.3925 -0.0640  0.5575
 6676TIP3    H219986   6.400   2.696   5.187 -1.3294  0.3264  1.3789
 6677TIP3   OH219987   4.608   0.893   1.691 -0.4713 -0.1652 -0.1027
 6677TIP3    H119988   4.636   0.978   1.657 -1.4055  0.4694  0.6797
 6677TIP3    H219989   4.616   0.901   1.786 -1.8496 -0.4680  0.0569
 6678TIP3   OH219990   1.304   6.646   4.498 -0.4572 -0.2111 -0.4991
 6678TIP3    H119991   1.383   6.608   4.459 -1.5820 -1.0635 -2.0222
 6678TIP3    H219992   1.268   6.575   4.553 -0.4463 -0.0009 -0.2198
 6679TIP3   OH219993   5.436   3.491   1.696  0.1676  0.2612  0.1598
 6679TIP3    H119994   5.397   3.474   1.611 -2.3598 -0.4186  1.3653
 6679TIP3    H219995   5.361   3.503   1.755  1.7953 -0.7215  2.5767
 6680TIP3   OH219996   2.120   0.699   5.688 -0.0330  0.5428  0.6188
 6680TIP3    H119997   2.033   0.731   5.662 -0.4740  0.2276  1.6371
 6680TIP3    H219998   2.114   0.604   5.677 -0.3924  0.3417  2.2006
 6681TIP3   OH219999   4.091   4.086   6.106  0.1450 -0.0593  0.5209
 6681TIP3    H120000   4.122   4.128   6.026  0.6059  0.7576  1.1107
 6681TIP3    H220001   4.141   4.005   6.112  0.1342 -0.1063  0.0010
 6682TIP3   OH220002   7.007   1.093   3.139  0.0295 -0.1643 -0.2143
 6682TIP3    H120003   7.037   1.079   3.229 -1.6621 -0.4625  0.3433
 6682TIP3    H220004   7.003   1.188   3.130  0.9405 -0.1226 -0.2437
 6683TIP3   OH220005   0.305   3.091   4.594  0.3397  0.0120 -0.5539
 6683TIP3    H120006   0.342   3.082   4.681 -0.0681  1.1177 -0.2495
 6683TIP3    H220007   0.377   3.069   4.535  0.4713 -1.2402  0.0498
 6684TIP3   OH220008   7.330   3.399   3.673  0.1663 -0.1141 -0.2567
 6684TIP3    H120009   7.421   3.405   3.645  0.4044  0.6683  0.6427
 6684TIP3    H220010   7.301   3.490   3.679 -0.5271 -0.3453 -0.0680
 6685TIP3   OH220011   4.911   5.434   5.139 -0.1876  0.3337  0.6311
 6685TIP3    H120012   4.945   5.353   5.176  0.7041  0.5635  0.3299
 6685TIP3    H220013   4.966   5.503   5.175 -1.4288  0.9136  1.4995
 6686TIP3   OH220014   2.404   4.095   1.737 -0.2361  0.0354  0.4099
 6686TIP3    H120015   2.484   4.070   1.692 -0.1590 -1.0830  1.1112
 6686TIP3    H220016   2.406   4.190   1.741  0.1777  0.1020 -1.1346
 6687TIP3   OH220017   7.528   3.412   0.391 -0.0970 -0.0738  0.0451
 6687TIP3    H120018   7.526   3.391   0.484  1.3737 -2.1573 -0.3118
 6687TIP3    H220019   7.508   3.329   0.347  2.8465 -0.1469 -1.4727
 6688TIP3   OH220020   1.376   2.868   6.416 -0.1042  0.0435 -0.4116
 6688TIP3    H120021   1.432   2.910   6.351 -1.0451  3.5827  0.8272
 6688TIP3    H220022   1.290   2.908   6.402 -0.6328 -0.0499  2.1340
 6689TIP3   OH220023   1.165   1.865   6.115 -0.3595 -0.0305  0.0018
 6689TIP3    H120024   1.139   1.927   6.047  1.9758 -0.5436 -1.4502
 6689TIP3    H220025   1.190   1.920   6.189  0.6755  0.7546 -0.9030
 6690TIP3   OH220026   3.760   0.834   1.526  0.2228 -0.2729 -0.4732
 6690TIP3    H120027   3.819   0.798   1.592 -0.3247 -2.5807 -1.1724
 6690TIP3    H220028   3.689   0.873   1.577  1.6776  1.4857  0.3426
 6691TIP3   OH220029   8.109   5.701   4.814  0.2025 -0.0685  0.7868
 6691TIP3    H120030   8.085   5.790   4.842 -0.4253  0.1313 -0.3359
 6691TIP3    H220031   8.100   5.648   4.893  0.4186  0.8304  1.4333
 6692TIP3   OH220032   2.508   3.034   1.559 -0.1440 -0.3029  0.0727
 6692TIP3    H120033   2.461   3.017   1.641 -0.4663  2.0936  0.4778
 6692TIP3    H220034   2.569   3.104   1.581  0.8499 -0.6635 -1.3960
 6693TIP3   OH220035   2.582   7.813   2.542 -0.3059  0.2254  0.1494
 6693TIP3    H120036   2.634   7.750   2.591 -1.1812 -1.8297 -1.4173
 6693TIP3    H220037   2.625   7.818   2.457 -1.0242  0.7098 -0.1891
 6694TIP3   OH220038   3.601   0.755   3.643  0.2235 -0.0725  0.0468
 6694TIP3    H120039   3.566   0.701   3.573  1.4562  0.0836 -0.7262
 6694TIP3    H220040   3.589   0.845   3.613  0.6657 -0.0010  0.0758
 6695TIP3   OH220041   3.404   2.091   6.461  0.2721 -0.5064 -0.4539
 6695TIP3    H120042   3.475   2.078   6.399 -1.0483  1.3026 -2.4894
 6695TIP3    H220043   3.382   2.184   6.454 -0.3391 -0.3322  2.3622
 6696TIP3   OH220044   1.482   5.000   3.976  0.3404 -0.1960  0.2846
 6696TIP3    H120045   1.553   5.060   4.001  0.4707  0.1154 -0.7692
 6696TIP3    H220046   1.405   5.034   4.021  0.3393  0.9957 -0.5589
 6697TIP3   OH220047   0.460   0.985   1.397 -0.5939 -0.2335  0.3566
 6697TIP3    H120048   0.493   1.050   1.459  0.2854 -0.2401 -0.0765
 6697TIP3    H220049   0.365   0.990   1.404 -0.5508 -1.3658  2.8847
 6698TIP3   OH220050   7.926   1.309   4.101  0.0693  0.2161  0.0315
 6698TIP3    H120051   7.905   1.287   4.011 -0.3832 -1.1415  0.4419
 6698TIP3    H220052   7.916   1.404   4.106 -1.7859  0.1097 -0.8789
 6699TIP3   OH220053   5.769   5.477   6.562 -0.2778 -0.4049  0.0872
 6699TIP3    H120054   5.678   5.498   6.584 -0.4841  0.2178 -1.2433
 6699TIP3    H220055   5.769   5.382   6.550 -0.8505 -0.3657 -0.2854
 6700TIP3   OH220056   3.307   5.682   1.223  1.0090 -0.5037  0.3051
 6700TIP3    H120057   3.275   5.625   1.294 -0.4144 -1.1892 -0.8413
 6700TIP3    H220058   3.337   5.761   1.268 -0.4066 -0.6801  1.6555
 6701TIP3   OH220059   0.849   6.454   1.965  0.5113  0.2717 -0.0367
 6701TIP3    H120060   0.905   6.446   1.887  0.1741 -0.6600 -0.1930
 6701TIP3    H220061   0.771   6.500   1.933  1.8585  3.1976  0.5560
 6702TIP3   OH220062   0.375   5.220   3.302  0.4144  0.1422 -0.6875
 6702TIP3    H120063   0.303   5.273   3.338  0.0068 -1.4058  0.9188
 6702TIP3    H220064   0.331   5.147   3.258  0.9960  0.3403 -1.6316
 6703TIP3   OH220065   4.596   4.046   2.095  0.0973  0.1630  0.0221
 6703TIP3    H120066   4.596   4.096   2.013  0.6359 -1.1264 -0.8023
 6703TIP3    H220067   4.516   4.072   2.139 -0.0615  1.1049 -0.7914
 6704TIP3   OH220068   2.302   2.993   3.987 -0.2033  0.5724  0.0194
 6704TIP3    H120069   2.374   2.998   4.049 -0.3534  1.8170  0.1200
 6704TIP3    H220070   2.271   2.903   3.993 -0.0171  0.5940  1.5063
 6705TIP3   OH220071   8.207   1.475   0.452 -0.0967  0.5093 -0.0926
 6705TIP3    H120072   8.210   1.501   0.544 -0.8715  0.4828 -0.0482
 6705TIP3    H220073   8.245   1.388   0.450 -1.0829  0.0545  0.3877
 6706TIP3   OH220074   6.502   4.914   0.979 -0.3503  0.3417  0.8388
 6706TIP3    H120075   6.577   4.974   0.976 -0.0909  0.1562  2.6202
 6706TIP3    H220076   6.438   4.953   0.919  0.9920  0.7142 -0.4227
 6707TIP3   OH220077   1.288   3.255   5.202  0.0925 -0.1903  0.3307
 6707TIP3    H120078   1.252   3.169   5.224 -0.3934  0.0030  0.3088
 6707TIP3    H220079   1.351   3.238   5.133  0.4364 -0.6028  0.7406
 6708TIP3   OH220080   0.411   6.468   0.405 -0.4795  0.3698 -0.1521
 6708TIP3    H120081   0.491   6.462   0.457 -0.6354  0.2720  0.0814
 6708TIP3    H220082   0.340   6.468   0.470 -0.7573 -1.3083 -0.4053
 6709TIP3   OH220083   5.781   7.065   0.480 -0.1266  1.0646  0.1555
 6709TIP3    H120084   5.773   7.151   0.521  1.7724  1.2321  0.2262
 6709TIP3    H220085   5.826   7.011   0.545 -1.6833 -0.1453  0.2929
 6710TIP3   OH220086   6.839   6.614   1.039  0.1869  0.1324  0.1893
 6710TIP3    H120087   6.784   6.566   0.976 -0.2352  0.4373  0.3204
 6710TIP3    H220088   6.776   6.651   1.101  0.4691  1.2489 -0.1831
 6711TIP3   OH220089   4.568   5.020   5.118 -0.3386  0.0907 -0.0046
 6711TIP3    H120090   4.505   4.997   5.049 -0.8832 -1.3534  0.9092
 6711TIP3    H220091   4.589   5.112   5.102  0.3668 -0.4375 -2.7139
 6712TIP3   OH220092   3.049   3.729   5.785  0.2730 -0.4720  0.2806
 6712TIP3    H120093   3.031   3.822   5.803  1.0438 -0.3825  0.6533
 6712TIP3    H220094   3.054   3.724   5.690  0.9840  0.0302  0.2833
 6713TIP3   OH220095   1.662   5.324   4.991 -0.2581  0.3950 -0.0201
 6713TIP3    H120096   1.719   5.314   4.915  2.0548  0.6463  1.5912
 6713TIP3    H220097   1.603   5.248   4.987  0.8688 -0.4596 -1.1847
 6714TIP3   OH220098   4.989   2.302   6.193  0.3824  0.5127 -0.2465
 6714TIP3    H120099   5.009   2.293   6.286 -0.7655 -0.1094 -0.0479
 6714TIP3    H220100   4.897   2.330   6.190  0.1420 -0.3016 -1.2051
 6715TIP3   OH220101   6.028   6.491   2.052 -0.4700 -0.0764  0.2843
 6715TIP3    H120102   6.007   6.583   2.072  1.0511  0.2258  0.5578
 6715TIP3    H220103   5.942   6.450   2.041 -1.1929  1.3001  0.4921
 6716TIP3   OH220104   2.803   6.382   2.055  0.2195 -0.2073 -0.0518
 6716TIP3    H120105   2.851   6.465   2.066 -1.0369  0.6683 -0.8578
 6716TIP3    H220106   2.794   6.372   1.960 -2.1982  0.3062  0.0546
 6717TIP3   OH220107   7.298   6.469   4.811  0.2291  0.4978 -0.6109
 6717TIP3    H120108   7.317   6.548   4.862  0.9045  0.3041 -0.5655
 6717TIP3    H220109   7.363   6.469   4.741  0.1350  0.0588 -0.7010
 6718TIP3   OH220110   0.530   5.026   0.062  0.4005 -0.1011 -0.2842
 6718TIP3    H120111   0.442   5.032   0.098 -0.5294 -0.1775 -2.3800
 6718TIP3    H220112   0.516   5.017  -0.033  2.6559 -0.3671 -0.6390
 6719TIP3   OH220113   6.172   3.039   3.924  0.7859  0.1559  0.3513
 6719TIP3    H120114   6.122   3.013   3.847 -0.6967  1.0808  0.9653
 6719TIP3    H220115   6.159   3.134   3.931  0.5736  0.0421  1.9484
 6720TIP3   OH220116   7.853   5.754   2.701  0.9871 -0.1782 -0.1019
 6720TIP3    H120117   7.766   5.724   2.676  0.8491 -0.9474  1.2071
 6720TIP3    H220118   7.907   5.736   2.625  0.1854 -0.5495 -0.5948
 6721TIP3   OH220119   0.969   5.782   5.229  0.1462 -0.2568 -0.6791
 6721TIP3    H120120   0.921   5.726   5.291 -1.3654  2.5766  0.9463
 6721TIP3    H220121   1.060   5.774   5.256 -0.3565  0.0621  1.3015
 6722TIP3   OH220122   3.362   0.892   2.472 -0.3130  0.2794  0.1865
 6722TIP3    H120123   3.337   0.935   2.553 -2.2926 -0.6348  0.1244
 6722TIP3    H220124   3.307   0.934   2.405  0.6532  0.4102 -0.5385
 6723TIP3   OH220125   3.214   7.064   6.569 -0.2598  0.5204  0.0821
 6723TIP3    H120126   3.177   7.046   6.483 -0.4134  0.0008  0.2509
 6723TIP3    H220127   3.302   7.096   6.552  0.1647 -0.7820 -0.2256
 6724TIP3   OH220128   0.923   7.702   4.354 -0.7674 -0.0487  0.4424
 6724TIP3    H120129   0.937   7.645   4.278 -0.6931 -0.7452  0.9664
 6724TIP3    H220130   0.992   7.678   4.415  0.2552  1.7281  0.0572
 6725TIP3   OH220131   1.844   3.823   3.223 -0.0088  0.0241 -0.3208
 6725TIP3    H120132   1.874   3.740   3.187 -0.6966 -0.5221  0.3481
 6725TIP3    H220133   1.842   3.810   3.318  0.7833  1.1105 -0.1314
 6726TIP3   OH220134   1.561   2.272   5.553 -0.0443 -0.0763 -0.0108
 6726TIP3    H120135   1.593   2.198   5.605 -1.9488 -0.1877  1.0833
 6726TIP3    H220136   1.583   2.248   5.463  0.0050 -1.6511  0.3820
 6727TIP3   OH220137   2.565   6.273   2.085  0.0216  0.0169  0.1228
 6727TIP3    H120138   2.646   6.322   2.093 -0.4603  1.0437 -0.8987
 6727TIP3    H220139   2.507   6.310   2.152 -0.4943  1.2196 -0.9441
 6728TIP3   OH220140   3.355   1.781   2.941 -0.3343  0.2932  0.1629
 6728TIP3    H120141   3.387   1.691   2.953 -2.7331 -0.4336  1.7720
 6728TIP3    H220142   3.287   1.773   2.874  0.2536  1.1853 -0.5757
 6729TIP3   OH220143   2.566   4.992   2.001 -0.6485 -0.3277  0.0055
 6729TIP3    H120144   2.646   5.038   1.978 -0.4111 -1.2922 -1.2590
 6729TIP3    H220145   2.539   5.029   2.085 -0.3368  1.8888 -0.8080
 6730TIP3   OH220146   5.863   5.627   4.965 -0.3593  0.0036 -0.3378
 6730TIP3    H120147   5.805   5.550   4.968  0.2771 -0.5308 -1.1675
 6730TIP3    H220148   5.950   5.590   4.948  0.4089  0.7101  1.7021
 6731TIP3   OH220149   5.979   2.650   2.707  0.4584  0.3224  0.0018
 6731TIP3    H120150   5.985   2.559   2.679 -0.2616  0.1146  0.4981
 6731TIP3    H220151   5.895   2.681   2.671  0.8086  0.8665 -0.3703
 6732TIP3   OH220152   0.221   1.654   4.264 -0.3290 -0.0497 -0.2213
 6732TIP3    H120153   0.127   1.661   4.246 -0.6677  2.2104  1.9432
 6732TIP3    H220154   0.227   1.598   4.341  0.3243 -1.7131 -1.4130
 6733TIP3   OH220155   3.966   2.911   2.374 -0.2659 -0.3969 -0.4425
 6733TIP3    H120156   3.981   3.004   2.392  0.3190 -0.6592  0.4912
 6733TIP3    H220157   3.913   2.880   2.447  2.3344 -1.5324  1.0899
 6734TIP3   OH220158   4.456   1.924   5.307  0.6012  0.7487  0.4461
 6734TIP3    H120159   4.384   1.930   5.244 -0.0879  0.0657  1.1389
 6734TIP3    H220160   4.413   1.927   5.393  1.4075  0.4214  0.8748
 6735TIP3   OH220161   7.332   1.801   3.164  0.0743 -0.1224 -0.2578
 6735TIP3    H120162   7.362   1.890   3.144 -2.5898  0.9977  0.3705
 6735TIP3    H220163   7.269   1.812   3.235  1.1560 -2.7804  1.2741
 6736TIP3   OH220164   4.712   1.416   2.428 -0.4884 -0.0696  0.2279
 6736TIP3    H120165   4.802   1.440   2.449  0.0645 -1.8084  0.0125
 6736TIP3    H220166   4.720   1.347   2.363 -2.0096  0.0772 -0.1625
 6737TIP3   OH220167   1.870   5.748   1.435  0.1832 -0.1251 -0.3912
 6737TIP3    H120168   1.928   5.819   1.409 -0.1121  0.7102  1.1051
 6737TIP3    H220169   1.809   5.739   1.362  1.8764 -0.7247 -1.8001
 6738TIP3   OH220170   4.814   5.920   2.911 -1.0228 -0.3539 -0.6278
 6738TIP3    H120171   4.776   5.845   2.866  0.1595 -1.8162  0.7070
 6738TIP3    H220172   4.831   5.889   3.000 -0.3151  1.4362 -0.0952
 6739TIP3   OH220173   4.445   0.148   4.922  0.7108  0.7272 -0.3686
 6739TIP3    H120174   4.425   0.216   4.986  0.1132  0.4147 -0.2110
 6739TIP3    H220175   4.532   0.118   4.944  0.5697  0.7334  0.1974
 6740TIP3   OH220176   2.342   7.673   5.790 -0.3851 -0.1042  0.2027
 6740TIP3    H120177   2.435   7.669   5.810 -0.0879 -1.9827 -1.2567
 6740TIP3    H220178   2.298   7.657   5.873  0.4766  2.5847  1.2922
 6741TIP3   OH220179   1.600   0.318   3.236 -0.0985 -1.0526 -0.1295
 6741TIP3    H120180   1.654   0.349   3.308 -0.0724 -2.2453  0.3891
 6741TIP3    H220181   1.661   0.301   3.164  0.1739 -1.9458  0.2996
 6742TIP3   OH220182   1.037   4.044   6.450  0.0148  0.2745 -0.6851
 6742TIP3    H120183   1.130   4.053   6.430 -0.1117  1.5914 -0.7319
 6742TIP3    H220184   1.035   3.981   6.522  0.9638  0.4068 -0.5204
 6743TIP3   OH220185   0.113   2.551   1.196  0.3880 -0.3000  0.3396
 6743TIP3    H120186   0.036   2.506   1.162 -0.2281  0.7632  0.2797
 6743TIP3    H220187   0.079   2.607   1.267  0.9654  0.7222 -0.1625
 6744TIP3   OH220188   0.613   2.983   0.256 -0.3088 -0.0577  0.3005
 6744TIP3    H120189   0.619   2.980   0.161 -2.3491 -0.2008  0.1400
 6744TIP3    H220190   0.684   2.927   0.286  1.0463  0.8227 -1.0756
 6745TIP3   OH220191   5.007   1.665   6.647 -0.3456  0.1041  0.0255
 6745TIP3    H120192   5.043   1.669   6.559  0.8657  0.2807  0.5059
 6745TIP3    H220193   5.008   1.572   6.669 -0.7359  0.0503 -0.1726
 6746TIP3   OH220194   4.278   5.981   2.730 -0.8350 -0.0379  0.6374
 6746TIP3    H120195   4.208   5.995   2.793 -1.2623 -0.2590  0.2217
 6746TIP3    H220196   4.355   5.961   2.784 -1.3368 -0.8532  1.0787
 6747TIP3   OH220197   0.068   7.634   6.239  0.0891 -0.4897  0.1421
 6747TIP3    H120198   0.062   7.723   6.206  1.8300 -0.6497 -0.7574
 6747TIP3    H220199   0.104   7.643   6.328  1.3815 -0.3001 -0.3708
 6748TIP3   OH220200   6.193   6.382   4.304  0.0169  0.4759 -0.0892
 6748TIP3    H120201   6.153   6.312   4.357 -1.1144  0.4786 -0.8984
 6748TIP3    H220202   6.237   6.336   4.233  0.8795  0.5096  0.4130
 6749TIP3   OH220203   4.357   4.749   0.772  0.3701 -0.0952  0.3841
 6749TIP3    H120204   4.277   4.733   0.822 -0.2209  0.8654 -0.2006
 6749TIP3    H220205   4.388   4.834   0.805  0.3563  0.2086 -0.3650
 6750TIP3   OH220206   0.888   7.070   5.081  0.1044 -0.1161 -0.0857
 6750TIP3    H120207   0.984   7.063   5.083  0.0454 -0.8610  0.5055
 6750TIP3    H220208   0.863   7.027   4.999  0.3317  1.0088 -0.7704
 6751TIP3   OH220209   4.487   5.710   1.685 -0.4186 -0.1367 -0.0338
 6751TIP3    H120210   4.557   5.752   1.735 -0.2308 -1.1314  0.5748
 6751TIP3    H220211   4.408   5.726   1.737 -0.5962  0.7291 -0.5662
 6752TIP3   OH220212   0.091   1.720   2.142 -0.1387  0.5341 -0.3116
 6752TIP3    H120213   0.152   1.651   2.169  0.6898  0.8804 -1.2341
 6752TIP3    H220214   0.042   1.682   2.070 -0.6002  0.4700  0.0305
 6753TIP3   OH220215   8.105   7.706   1.414 -0.0634 -0.2165 -0.4364
 6753TIP3    H120216   8.079   7.668   1.497 -1.7669 -0.1115 -0.8883
 6753TIP3    H220217   8.157   7.783   1.438 -0.7598 -0.0316  0.5417
 6754TIP3   OH220218   6.189   7.060   1.903  0.1430  0.6580  0.5260
 6754TIP3    H120219   6.182   7.133   1.965 -0.0984  0.1064  1.1572
 6754TIP3    H220220   6.146   7.092   1.823  0.9463  1.5762  0.4458
 6755TIP3   OH220221   6.015   6.156   4.731 -0.2767 -0.1314  0.1651
 6755TIP3    H120222   5.920   6.154   4.717 -0.1510  0.8581 -0.9370
 6755TIP3    H220223   6.045   6.068   4.706 -0.4059  0.7489 -3.5782
 6756TIP3   OH220224   5.954   0.670   2.376 -0.3684  0.5673  0.2034
 6756TIP3    H120225   5.925   0.645   2.288  0.2885 -0.7982  0.3523
 6756TIP3    H220226   5.884   0.642   2.434  0.0629 -0.3464  0.2994
 6757TIP3   OH220227   0.278   3.240   2.084 -0.0791  0.1404 -0.5318
 6757TIP3    H120228   0.243   3.170   2.139  0.7003  0.6897  0.6835
 6757TIP3    H220229   0.251   3.215   1.995 -1.2978 -0.7949  0.0611
 6758TIP3   OH220230   8.269   3.726   1.354  0.2456 -0.1510 -0.4286
 6758TIP3    H120231   8.270   3.669   1.277  0.0689 -1.2561  0.3800
 6758TIP3    H220232   8.337   3.791   1.336  1.3548 -1.3826 -0.7922
 6759TIP3   OH220233   1.541   2.908   5.870  0.1325 -0.0666  0.4711
 6759TIP3    H120234   1.568   2.960   5.794  1.5612 -0.4955  0.6571
 6759TIP3    H220235   1.497   2.832   5.832 -1.4887  0.9716  0.1804
 6760TIP3   OH220236   2.121   0.827   1.010 -0.5749  0.6565 -0.1001
 6760TIP3    H120237   2.207   0.824   0.968 -0.5689  1.2886 -0.1443
 6760TIP3    H220238   2.061   0.792   0.944 -0.2226 -0.8408  0.3206
 6761TIP3   OH220239   0.548   2.039   5.407 -0.0019 -0.2802 -0.6434
 6761TIP3    H120240   0.510   2.068   5.490  0.9717 -2.4499  0.6648
 6761TIP3    H220241   0.611   1.971   5.432  0.6331 -0.7328 -3.1518
 6762TIP3   OH220242   1.906   1.018   5.330 -0.1775 -0.2251  0.3921
 6762TIP3    H120243   1.899   1.050   5.240 -1.2436  1.2447  0.9467
 6762TIP3    H220244   1.826   0.967   5.344 -1.2715  1.5807  1.1979
 6763TIP3   OH220245   5.778   4.870   3.727 -0.1631  0.3074 -0.4605
 6763TIP3    H120246   5.685   4.886   3.737 -0.3868  0.1901 -2.0587
 6763TIP3    H220247   5.787   4.835   3.638  1.3792  0.1648 -0.2802
 6764TIP3   OH220248   1.428   0.707   1.202 -0.2325 -0.1476 -0.1192
 6764TIP3    H120249   1.405   0.636   1.142  0.9857  0.4958 -1.4320
 6764TIP3    H220250   1.390   0.785   1.162  0.7933  0.3252 -0.1979
 6765TIP3   OH220251   5.739   6.905   1.377  0.4562 -0.0082  0.6703
 6765TIP3    H120252   5.674   6.902   1.307 -0.3827 -0.0585  1.4312
 6765TIP3    H220253   5.823   6.917   1.332 -0.2592  2.0949 -0.2425
 6766TIP3   OH220254   7.058   6.882   5.382  0.6249 -0.1623 -0.2233
 6766TIP3    H120255   7.035   6.940   5.308  2.6372  0.1856 -0.6372
 6766TIP3    H220256   7.046   6.937   5.459  0.4966  0.1298 -0.4448
 6767TIP3   OH220257   4.540   1.672   4.138  0.2692 -0.0387  0.4987
 6767TIP3    H120258   4.526   1.638   4.050 -1.2064 -0.0749  0.7216
 6767TIP3    H220259   4.614   1.733   4.129  1.3708 -1.4440 -0.3659
 6768TIP3   OH220260   2.527   0.566   3.090  0.4574  0.1092  0.3316
 6768TIP3    H120261   2.538   0.611   3.173  1.7300 -0.3171  0.4159
 6768TIP3    H220262   2.606   0.513   3.080  0.0374 -0.3473 -0.8437
 6769TIP3   OH220263   1.060   7.520   2.606 -0.6024 -0.1162 -0.3021
 6769TIP3    H120264   1.126   7.564   2.553 -1.0138  0.0548 -0.6787
 6769TIP3    H220265   1.098   7.516   2.694 -0.2074  0.2197 -0.4559
 6770TIP3   OH220266   3.551   6.981   1.847 -0.1891 -0.0685 -0.2241
 6770TIP3    H120267   3.526   7.061   1.801 -1.3201  0.5211  1.3519
 6770TIP3    H220268   3.574   6.920   1.777 -2.3169  0.6317 -1.6371
 6771TIP3   OH220269   4.959   2.575   0.800  0.8408 -0.1831 -0.1339
 6771TIP3    H120270   5.003   2.504   0.847  3.4651  0.3839 -1.5369
 6771TIP3    H220271   5.026   2.643   0.793 -0.8478  1.4565 -0.9493
 6772TIP3   OH220272   7.931   4.353   3.048 -0.6224  0.2856 -0.0704
 6772TIP3    H120273   7.874   4.419   3.088  1.7932  2.1485  0.5567
 6772TIP3    H220274   7.906   4.271   3.091 -0.1251  1.7068  3.2284
 6773TIP3   OH220275   4.138   3.062   4.412  0.2711  0.2980  0.2489
 6773TIP3    H120276   4.152   3.144   4.460  1.2080  1.8077 -2.4176
 6773TIP3    H220277   4.045   3.042   4.426  0.4278  0.8289  2.3603
 6774TIP3   OH220278   4.172   1.627   1.614  0.5509  0.4200  0.2694
 6774TIP3    H120279   4.264   1.651   1.608  0.9837 -1.4630 -2.0486
 6774TIP3    H220280   4.124   1.707   1.592  1.6975  0.9618 -0.3246
 6775TIP3   OH220281   6.235   5.865   3.111  0.2422  0.0830 -0.5477
 6775TIP3    H120282   6.232   5.938   3.172  0.0778  0.0018 -0.4590
 6775TIP3    H220283   6.271   5.902   3.030  0.5862  0.1589 -0.3596
 6776TIP3   OH220284   4.474   6.037   5.523  0.2710  0.0744 -0.4201
 6776TIP3    H120285   4.439   6.056   5.436  1.2502  0.3653 -0.7673
 6776TIP3    H220286   4.406   5.986   5.566 -0.2476 -0.0336 -1.3466
 6777TIP3   OH220287   3.538   3.129   2.448  0.2082 -0.0532 -0.4226
 6777TIP3    H120288   3.499   3.055   2.496 -1.5242  0.3937 -1.0452
 6777TIP3    H220289   3.629   3.131   2.476  0.1716 -2.1159 -0.0208
 6778TIP3   OH220290   5.087   7.509   3.475 -0.4991 -0.1743 -0.1016
 6778TIP3    H120291   4.997   7.516   3.508 -0.0752  0.3349  0.9735
 6778TIP3    H220292   5.135   7.578   3.520  0.0706  0.7348 -1.9750
 6779TIP3   OH220293   7.951   4.067   2.441  0.0856 -0.3175  0.2045
 6779TIP3    H120294   7.917   3.989   2.486 -0.4169  0.6984  1.6443
 6779TIP3    H220295   8.024   4.096   2.495  1.0926 -0.4807 -1.0134
 6780TIP3   OH220296   3.377   5.482   5.744  0.2938  0.4668 -0.0332
 6780TIP3    H120297   3.388   5.554   5.681  0.8462 -1.4624 -2.2988
 6780TIP3    H220298   3.415   5.515   5.825  1.0288  2.5226 -1.1420
 6781TIP3   OH220299   0.998   3.461   0.439  0.0562 -0.5587 -0.1921
 6781TIP3    H120300   0.919   3.488   0.393 -0.6226 -1.1778  0.5902
 6781TIP3    H220301   0.974   3.381   0.485  1.4273 -1.3349 -0.7562
 6782TIP3   OH220302   7.809   0.818   0.356  0.1017 -0.3072 -0.2416
 6782TIP3    H120303   7.762   0.901   0.352  3.0305  1.5302 -0.1821
 6782TIP3    H220304   7.811   0.786   0.266  0.4781  0.6706 -0.5929
 6783TIP3   OH220305   3.065   3.334   3.164 -0.0100 -0.4728  0.0134
 6783TIP3    H120306   3.024   3.303   3.245 -0.2065  0.6971  0.3680
 6783TIP3    H220307   3.007   3.403   3.131  0.2966 -0.6258 -0.8985
 6784TIP3   OH220308   1.858   2.527   5.943 -0.0336 -0.0266  0.1997
 6784TIP3    H120309   1.929   2.469   5.916 -0.5909 -1.0752  0.9000
 6784TIP3    H220310   1.779   2.474   5.931 -0.7730  1.3605 -1.2378
 6785TIP3   OH220311   8.148   2.513   3.265 -1.2405  0.2512 -0.4656
 6785TIP3    H120312   8.121   2.423   3.284 -2.3687  0.4922 -0.8415
 6785TIP3    H220313   8.112   2.565   3.337 -0.8656  0.4513 -0.4190
 6786TIP3   OH220314   7.343   2.745   3.539  0.0878 -0.6496 -0.0156
 6786TIP3    H120315   7.323   2.732   3.632  0.8603 -1.2838  0.0796
 6786TIP3    H220316   7.325   2.660   3.499  3.4199 -1.6391  0.2703
 6787TIP3   OH220317   6.060   3.592   0.496  0.1820  0.1267  0.1432
 6787TIP3    H120318   6.076   3.668   0.551  0.6459  0.0154  0.1698
 6787TIP3    H220319   6.099   3.519   0.544 -1.1140 -0.3050  0.5856
 6788TIP3   OH220320   4.492   5.428   5.908  0.1870 -0.3307  0.5714
 6788TIP3    H120321   4.558   5.393   5.968  0.3695 -1.7590 -0.4265
 6788TIP3    H220322   4.446   5.495   5.959  2.6076  0.9677  1.2003
 6789TIP3   OH220323   5.391   3.067   5.884  0.3593  0.0188  0.3075
 6789TIP3    H120324   5.380   3.047   5.791  1.8251 -0.9421  0.2964
 6789TIP3    H220325   5.390   2.982   5.927 -0.2675  0.4543  1.1821
 6790TIP3   OH220326   3.095   0.472   5.288  0.1767 -0.5105  0.3457
 6790TIP3    H120327   3.187   0.449   5.277  0.5258 -0.3234  2.4167
 6790TIP3    H220328   3.092   0.567   5.273  0.2801 -0.5528  0.0553
 6791TIP3   OH220329   7.450   7.326   6.487  0.3425  0.2285  0.0381
 6791TIP3    H120330   7.468   7.400   6.430  0.1880 -0.3494 -0.7818
 6791TIP3    H220331   7.372   7.352   6.537  1.8167  1.6671  1.6932
 6792TIP3   OH220332   0.859   1.605   6.228  0.1762 -0.4338 -0.2203
 6792TIP3    H120333   0.793   1.664   6.191  1.0835  0.3005 -0.7081
 6792TIP3    H220334   0.852   1.525   6.175 -0.1705 -0.2900 -0.3980
 6793TIP3   OH220335   6.378   0.755   5.375 -0.5987 -0.0199  0.0827
 6793TIP3    H120336   6.356   0.826   5.315 -2.4451 -0.5532  0.0574
 6793TIP3    H220337   6.419   0.797   5.450  0.6002  0.7850 -0.9761
 6794TIP3   OH220338   2.202   3.037   0.730 -0.0316 -0.2695  0.1826
 6794TIP3    H120339   2.123   3.005   0.686  1.0686 -1.5726 -0.9513
 6794TIP3    H220340   2.171   3.068   0.815 -1.7385 -0.8951 -0.1662
 6795TIP3   OH220341   7.657   6.908   1.242  0.5425 -0.3871  0.2867
 6795TIP3    H120342   7.643   6.823   1.284  2.1472  0.1846  2.1281
 6795TIP3    H220343   7.751   6.925   1.253  0.3051  1.5314 -0.2576
 6796TIP3   OH220344   6.770   5.885   4.349  0.0818  0.0298 -0.5405
 6796TIP3    H120345   6.785   5.976   4.321  0.8172 -0.4445 -1.7476
 6796TIP3    H220346   6.806   5.882   4.438 -2.7676  1.7005  0.8207
 6797TIP3   OH220347   1.513   2.661   5.447  0.2714  0.2126 -0.6189
 6797TIP3    H120348   1.546   2.722   5.381 -2.5867  1.1434 -1.3556
 6797TIP3    H220349   1.502   2.579   5.399  0.8220  0.0914 -0.5456
 6798TIP3   OH220350   5.056   1.930   2.368  0.4155 -0.1066  0.0085
 6798TIP3    H120351   5.091   1.899   2.284  1.7758  0.6102  0.2745
 6798TIP3    H220352   5.035   2.022   2.351 -1.6134 -0.5690 -0.1990
 6799TIP3   OH220353   7.804   3.256   3.607 -0.2658  0.0774  0.2009
 6799TIP3    H120354   7.842   3.192   3.547  0.9583  0.4126  0.5863
 6799TIP3    H220355   7.753   3.203   3.668  1.2444 -0.6514  0.9020
 6800TIP3   OH220356   8.163   1.122   1.651 -0.2602 -0.0743 -0.3486
 6800TIP3    H120357   8.189   1.082   1.734 -1.0224  0.9076  0.3871
 6800TIP3    H220358   8.245   1.151   1.611  0.1477 -0.8867 -0.1306
 6801TIP3   OH220359   2.987   2.392   3.364  0.4738 -0.2799 -0.3539
 6801TIP3    H120360   2.929   2.461   3.396  0.8255 -0.7099  1.3283
 6801TIP3    H220361   2.994   2.408   3.270 -0.2629  1.3416 -0.1704
 6802TIP3   OH220362   6.305   0.657   3.246 -0.3368 -0.9844 -0.1006
 6802TIP3    H120363   6.328   0.578   3.197 -3.9820 -2.2753 -0.0511
 6802TIP3    H220364   6.258   0.712   3.183  0.2747  0.1883  0.4245
 6803TIP3   OH220365   3.588   3.960   6.303 -0.3757  0.1565 -0.1616
 6803TIP3    H120366   3.588   3.879   6.252 -0.4187 -0.7594  1.2277
 6803TIP3    H220367   3.501   3.962   6.344 -0.1412  0.5565  0.3245
 6804TIP3   OH220368   7.804   5.082   1.813  0.1074  0.6894  0.3328
 6804TIP3    H120369   7.881   5.051   1.764  0.5330  1.8470  0.2511
 6804TIP3    H220370   7.770   5.003   1.855  1.6832  0.2316  0.8315
 6805TIP3   OH220371   2.946   3.056   1.717  0.4742  0.2957 -0.1725
 6805TIP3    H120372   2.970   3.098   1.634  1.5335 -0.5598 -0.3256
 6805TIP3    H220373   2.876   2.995   1.693  1.1151 -0.3131 -0.5576
 6806TIP3   OH220374   6.386   4.596   3.477  0.1859  0.1113  0.1017
 6806TIP3    H120375   6.393   4.689   3.457  0.3685 -0.0412 -0.5594
 6806TIP3    H220376   6.340   4.559   3.401 -0.0523 -0.3079  0.4460
 6807TIP3   OH220377   6.426   2.366   6.157 -0.6220  0.1544  0.7657
 6807TIP3    H120378   6.438   2.441   6.216  1.1319  0.6279 -0.1309
 6807TIP3    H220379   6.361   2.396   6.094  0.8044  1.3659 -0.1984
 6808TIP3   OH220380   3.580   6.809   5.929 -0.0204 -0.6763  0.0357
 6808TIP3    H120381   3.635   6.748   5.978 -0.8920 -1.7640 -0.3028
 6808TIP3    H220382   3.516   6.753   5.885 -0.5109  0.4465 -0.7136
 6809TIP3   OH220383   0.173   4.445   3.679  0.7187 -0.5909  0.4062
 6809TIP3    H120384   0.120   4.408   3.750  1.5050 -1.3885  0.6073
 6809TIP3    H220385   0.264   4.426   3.705  1.0062 -1.3124 -1.0202
 6810TIP3   OH220386   1.274   3.515   2.313 -0.0408  0.0226 -0.1093
 6810TIP3    H120387   1.207   3.513   2.381 -0.2609  1.6455 -0.2449
 6810TIP3    H220388   1.357   3.522   2.360 -0.2222  1.6990  0.0373
 6811TIP3   OH220389   3.268   4.207   6.266 -0.2560  0.3562 -0.8920
 6811TIP3    H120390   3.321   4.178   6.340 -1.3804 -0.5397 -0.4035
 6811TIP3    H220391   3.312   4.171   6.189  0.5356  0.7024 -0.6056
 6812TIP3   OH220392   4.662   7.355   0.715  0.0367 -0.7933 -0.3235
 6812TIP3    H120393   4.670   7.358   0.620 -3.0623 -1.0476 -0.6726
 6812TIP3    H220394   4.706   7.273   0.740 -0.7131 -1.6722 -1.7710
 6813TIP3   OH220395   0.043   1.096   5.347  0.3751 -0.0635 -0.2187
 6813TIP3    H120396   0.009   1.086   5.258  0.3185  0.3869 -0.2549
 6813TIP3    H220397   0.105   1.169   5.340  1.9806 -1.3990 -0.3225
 6814TIP3   OH220398   4.617   5.830   5.142 -0.4458 -0.0420  0.0273
 6814TIP3    H120399   4.632   5.738   5.123 -1.6542 -0.0215 -1.2425
 6814TIP3    H220400   4.531   5.832   5.183 -0.8244  0.5768 -0.7618
 6815TIP3   OH220401   6.701   5.230   4.818  0.0464 -0.1741 -0.2157
 6815TIP3    H120402   6.652   5.181   4.752 -1.1087 -1.1535  1.3037
 6815TIP3    H220403   6.689   5.180   4.899  0.8401  1.3418  0.8872
 6816TIP3   OH220404   7.187   5.429   1.698 -0.2571  0.8691 -0.6317
 6816TIP3    H120405   7.222   5.355   1.649 -0.8284  1.0484 -1.3214
 6816TIP3    H220406   7.177   5.396   1.788 -2.9012 -0.7488 -1.4038
 6817TIP3   OH220407   4.995   6.667   1.543 -0.4958 -0.0480  0.5342
 6817TIP3    H120408   5.054   6.742   1.553 -1.6953  1.4070 -2.1684
 6817TIP3    H220409   4.940   6.669   1.622  1.3330  0.1215  1.8639
 6818TIP3   OH220410   0.289   6.304   1.909  0.2596 -0.7582 -0.0732
 6818TIP3    H120411   0.355   6.372   1.916 -0.3578 -0.2541  1.2214
 6818TIP3    H220412   0.319   6.234   1.967 -0.6013 -0.2741  0.9965
 6819TIP3   OH220413   5.336   7.123   5.158  0.3991 -0.3484 -0.5693
 6819TIP3    H120414   5.272   7.061   5.125 -1.2677  1.4081 -0.8164
 6819TIP3    H220415   5.409   7.118   5.095 -0.2354 -1.1588 -1.2568
 6820TIP3   OH220416   5.517   3.725   3.130 -0.2839  0.0179 -0.2603
 6820TIP3    H120417   5.518   3.769   3.044 -2.0063 -0.6472 -0.6519
 6820TIP3    H220418   5.553   3.638   3.113  0.0839  0.1438 -0.1413
 6821TIP3   OH220419   6.142   0.454   2.545  0.5974 -0.5650 -0.2394
 6821TIP3    H120420   6.108   0.522   2.603  0.4489 -0.2249 -0.7153
 6821TIP3    H220421   6.068   0.395   2.530  0.8818 -1.1531  0.6261
 6822TIP3   OH220422   6.546   2.014   1.065  0.0546  0.0710 -0.3244
 6822TIP3    H120423   6.605   2.067   1.012  0.0826  0.3657 -0.0036
 6822TIP3    H220424   6.479   2.075   1.095  0.6644  0.1656  0.9046
 6823TIP3   OH220425   0.973   4.984   2.841  0.1608  0.1668 -0.1065
 6823TIP3    H120426   0.972   4.982   2.936  0.6391 -1.7928 -0.1003
 6823TIP3    H220427   0.881   4.995   2.816 -0.3180 -1.7716  0.6134
 6824TIP3   OH220428   4.359   6.869   0.905 -0.3468 -0.3918  0.4179
 6824TIP3    H120429   4.393   6.815   0.834 -0.4560  1.7990 -1.4134
 6824TIP3    H220430   4.396   6.956   0.888  0.1122  0.1020  3.4213
 6825TIP3   OH220431   1.912   2.724   0.099  0.3796 -0.0388 -0.1274
 6825TIP3    H120432   1.973   2.678   0.156 -0.2794 -0.9075 -0.0974
 6825TIP3    H220433   1.854   2.655   0.066 -1.2145  0.9000  0.6231
 6826TIP3   OH220434   2.817   2.633   5.815 -0.4822  0.4962 -0.4742
 6826TIP3    H120435   2.806   2.550   5.861 -0.2661  0.2952 -0.7788
 6826TIP3    H220436   2.904   2.663   5.839 -1.1436  1.4367  0.8956
 6827TIP3   OH220437   0.612   0.025   6.373 -0.3751 -0.4136 -0.0257
 6827TIP3    H120438   0.644   0.116   6.376 -2.0357  0.1863  1.8933
 6827TIP3    H220439   0.604   0.006   6.280 -2.0893  2.2556 -0.5389
 6828TIP3   OH220440   0.686   4.638   3.205 -0.3534  0.5139 -0.9979
 6828TIP3    H120441   0.610   4.596   3.165 -0.2925 -1.3060  0.6369
 6828TIP3    H220442   0.760   4.613   3.150 -0.6354  0.4362 -1.3403
 6829TIP3   OH220443   3.413   7.779   4.192  0.3736 -0.0980 -0.0911
 6829TIP3    H120444   3.478   7.769   4.261  0.0439 -0.2278  0.2054
 6829TIP3    H220445   3.389   7.871   4.194 -0.7172 -0.3737  0.9742
 6830TIP3   OH220446   6.706   3.723   1.142 -0.2327  0.0068 -0.0845
 6830TIP3    H120447   6.787   3.767   1.167  1.6034 -3.0923 -0.0913
 6830TIP3    H220448   6.676   3.770   1.065  2.5654  0.1923 -1.1552
 6831TIP3   OH220449   8.197   1.405   2.732  0.2399 -0.8666 -0.1809
 6831TIP3    H120450   8.247   1.371   2.659 -0.1934  0.6049 -1.2112
 6831TIP3    H220451   8.129   1.460   2.692 -0.3609 -0.4647  1.2928
 6832TIP3   OH220452   3.972   6.671   6.480 -0.2468 -0.3411  0.4848
 6832TIP3    H120453   4.004   6.581   6.490  2.3222  0.2925 -1.1446
 6832TIP3    H220454   4.049   6.726   6.495 -1.1342  1.4569 -1.1520
 6833TIP3   OH220455   5.516   7.326   0.842 -0.2135  0.0636  0.3060
 6833TIP3    H120456   5.590   7.298   0.895  0.1285  1.8751  0.8386
 6833TIP3    H220457   5.551   7.395   0.786 -1.6091  1.3220  0.9311
 6834TIP3   OH220458   8.147   4.553   3.709 -0.1168  0.1051  0.2581
 6834TIP3    H120459   8.107   4.578   3.793  1.2098 -1.1082  1.2983
 6834TIP3    H220460   8.073   4.539   3.650 -1.4482 -3.4295  2.4638
 6835TIP3   OH220461   0.199   6.119   3.571  0.6510 -0.0471 -0.0361
 6835TIP3    H120462   0.171   6.209   3.590 -2.7581 -0.8935 -0.3702
 6835TIP3    H220463   0.234   6.087   3.654  0.6294  1.1663  0.4585
 6836TIP3   OH220464   5.303   3.189   2.574 -0.2168  0.5232  0.2543
 6836TIP3    H120465   5.223   3.241   2.585  0.0623  1.6850 -2.3517
 6836TIP3    H220466   5.351   3.201   2.656 -1.3189  2.4017  0.6903
 6837TIP3   OH220467   2.387   0.258   6.115 -0.3692 -0.0402 -0.6367
 6837TIP3    H120468   2.351   0.176   6.149  0.4344 -0.2550 -0.2642
 6837TIP3    H220469   2.430   0.298   6.190  2.1980 -0.9364 -1.5043
 6838TIP3   OH220470   5.356   4.897   4.097  0.0721  0.4699 -0.4318
 6838TIP3    H120471   5.357   4.861   4.186  0.3541  2.4059  0.4047
 6838TIP3    H220472   5.387   4.825   4.042 -1.9166 -1.4225  0.7394
 6839TIP3   OH220473   0.469   3.444   3.025 -0.3786  0.5196  0.0810
 6839TIP3    H120474   0.434   3.395   3.099  1.8329  0.7377  1.3855
 6839TIP3    H220475   0.486   3.532   3.060  1.3254  0.4393 -0.4287
 6840TIP3   OH220476   2.176   3.003   3.692 -0.1069  0.1762 -0.3252
 6840TIP3    H120477   2.234   3.079   3.690  0.1000  0.0552  0.5475
 6840TIP3    H220478   2.185   2.969   3.781 -1.4320  0.0828 -0.2166
 6841TIP3   OH220479   5.490   2.460   1.987  0.1849 -0.2024 -0.1588
 6841TIP3    H120480   5.505   2.484   2.078 -0.8470 -0.7548  0.1789
 6841TIP3    H220481   5.403   2.494   1.967 -1.1786 -3.1119  0.2196
 6842TIP3   OH220482   0.840   0.604   2.418  0.2020 -0.1490 -0.9957
 6842TIP3    H120483   0.905   0.568   2.358  0.2894 -1.4424 -0.1763
 6842TIP3    H220484   0.892   0.644   2.488  0.1273 -0.7364 -0.5979
 6843TIP3   OH220485   2.737   5.841   4.838  0.2137 -0.3658 -0.3154
 6843TIP3    H120486   2.648   5.812   4.853 -0.1019  0.0857 -1.2306
 6843TIP3    H220487   2.733   5.937   4.845  1.3617 -0.4065  3.3580
 6844TIP3   OH220488   0.577   3.388   3.474  0.2963  0.0468  0.0596
 6844TIP3    H120489   0.595   3.474   3.436  0.4350  0.5173  1.1330
 6844TIP3    H220490   0.573   3.405   3.569 -0.4044 -1.0061  0.2293
 6845TIP3   OH220491   7.765   5.368   3.252  0.3323 -0.2559  0.0812
 6845TIP3    H120492   7.752   5.276   3.277 -0.6898  0.0221  0.6633
 6845TIP3    H220493   7.825   5.402   3.318  2.5088 -1.0297 -1.4039
 6846TIP3   OH220494   7.752   0.787   4.526  0.2611 -0.3780  0.0265
 6846TIP3    H120495   7.666   0.822   4.499  0.3948  0.3478  0.5153
 6846TIP3    H220496   7.813   0.857   4.504  0.2968  0.5653  2.8279
 6847TIP3   OH220497   0.591   2.256   4.388 -0.1296  0.5460  0.2878
 6847TIP3    H120498   0.533   2.189   4.422 -2.1018  1.4422 -1.0782
 6847TIP3    H220499   0.535   2.333   4.375  1.6124  1.8482 -0.0204
 6848TIP3   OH220500   5.530   3.658   0.085 -0.2904 -0.0968  0.4888
 6848TIP3    H120501   5.505   3.749   0.069 -0.1571  0.2815  2.3211
 6848TIP3    H220502   5.610   3.664   0.136 -2.1246 -1.1132  3.7666
 6849TIP3   OH220503   2.021   3.538   0.251  0.1416 -0.1604 -0.1714
 6849TIP3    H120504   2.022   3.573   0.162 -0.4660 -0.8412 -0.4613
 6849TIP3    H220505   2.113   3.516   0.269  0.1610 -0.7620 -0.9443
 6850TIP3   OH220506   0.651   2.944   4.593 -0.0351  0.0809  0.6603
 6850TIP3    H120507   0.721   2.900   4.545 -0.2120 -0.1777  0.6343
 6850TIP3    H220508   0.643   2.894   4.675  1.6112  1.7103  1.8728
 6851TIP3   OH220509   5.124   0.630   0.219 -0.3066 -0.7952  0.1742
 6851TIP3    H120510   5.081   0.594   0.296 -1.5162 -2.1552 -1.0634
 6851TIP3    H220511   5.144   0.553   0.164  3.4616 -0.2396  0.4632
 6852TIP3   OH220512   4.295   5.017   1.427  0.2163 -0.3188 -0.3736
 6852TIP3    H120513   4.204   5.046   1.430 -0.0417 -1.0555 -0.8300
 6852TIP3    H220514   4.343   5.085   1.474 -0.5061  0.3003 -0.5095
 6853TIP3   OH220515   3.832   0.179   2.486 -0.6252 -0.1149  0.0378
 6853TIP3    H120516   3.802   0.244   2.423  1.0154  1.7943  1.1294
 6853TIP3    H220517   3.927   0.180   2.478 -0.4464 -0.6233  1.8054
 6854TIP3   OH220518   7.018   1.351   3.006  0.3134 -0.5572 -0.1503
 6854TIP3    H120519   7.098   1.403   3.007 -0.0775  0.0507 -0.3291
 6854TIP3    H220520   6.947   1.415   3.001 -0.3151 -0.9579  2.2216
 6855TIP3   OH220521   4.451   4.957   0.910 -0.8346 -0.3916 -1.3721
 6855TIP3    H120522   4.449   5.018   0.983 -1.1500 -0.8695 -0.9744
 6855TIP3    H220523   4.507   4.885   0.940  0.2852  0.1168 -2.1789
 6856TIP3   OH220524   6.599   6.477   2.444 -0.1049  0.2142 -0.4487
 6856TIP3    H120525   6.549   6.558   2.434 -2.4145 -1.2714 -1.8844
 6856TIP3    H220526   6.653   6.472   2.365  0.5045  0.6312 -0.0649
 6857TIP3   OH220527   6.741   0.061   4.640  0.0691 -0.0535  0.5504
 6857TIP3    H120528   6.784   0.133   4.686 -0.5071  0.1228  0.8170
 6857TIP3    H220529   6.793  -0.016   4.664 -0.1073  0.0636  1.3523
 6858TIP3   OH220530   4.844   6.203   6.730  0.0339 -0.3174 -0.3373
 6858TIP3    H120531   4.756   6.169   6.745 -0.3338  0.7090 -0.0503
 6858TIP3    H220532   4.878   6.220   6.818  1.2457 -2.3758 -0.3255
 6859TIP3   OH220533   7.134   0.501   0.187 -0.0428 -0.2181  0.1023
 6859TIP3    H120534   7.147   0.408   0.172 -1.4188 -0.1248 -2.1232
 6859TIP3    H220535   7.044   0.507   0.220  0.2839  0.2934  0.9486
 6860TIP3   OH220536   5.628   0.398   0.127 -0.8062 -0.1445  0.6256
 6860TIP3    H120537   5.583   0.329   0.177  1.2229 -0.6241  1.9027
 6860TIP3    H220538   5.695   0.351   0.078 -2.2682  0.4202 -2.0956
 6861TIP3   OH220539   2.897   0.377   1.995  0.0472  0.2694 -0.1886
 6861TIP3    H120540   2.912   0.362   2.088 -0.3885  1.1175  0.0218
 6861TIP3    H220541   2.836   0.450   1.991 -0.1447  0.0762 -1.1401
 6862TIP3   OH220542   7.798   2.393   3.515 -0.4103 -0.4637 -0.1584
 6862TIP3    H120543   7.818   2.410   3.607 -0.2942 -2.1599  0.1606
 6862TIP3    H220544   7.756   2.473   3.484 -0.3602  0.1631  1.3453
 6863TIP3   OH220545   2.740   4.147   1.909 -0.1556  0.0077 -0.3545
 6863TIP3    H120546   2.689   4.130   1.988  0.2515 -1.7354 -0.4324
 6863TIP3    H220547   2.743   4.242   1.902 -1.5183  0.1626  0.8619
 6864TIP3   OH220548   6.225   3.221   3.415 -0.4306  0.4605  0.2533
 6864TIP3    H120549   6.201   3.300   3.464 -1.2501  0.8397 -0.7444
 6864TIP3    H220550   6.309   3.243   3.375  0.4661 -0.0015  1.7711
 6865TIP3   OH220551   5.610   7.719   4.920 -0.2110 -0.3641 -0.4314
 6865TIP3    H120552   5.534   7.740   4.975 -0.3368 -0.8036 -0.4269
 6865TIP3    H220553   5.612   7.789   4.855 -0.0544  0.1660  0.1359
 6866TIP3   OH220554   8.058   1.835   3.893  0.3051 -0.0035  0.3825
 6866TIP3    H120555   8.118   1.846   3.819 -0.6662  0.1692 -0.4033
 6866TIP3    H220556   8.080   1.906   3.953  0.4756  0.4380 -0.1917
 6867TIP3   OH220557   7.506   4.105   2.387 -0.1431 -0.2160 -0.2877
 6867TIP3    H120558   7.583   4.053   2.410  0.0160  0.2179  0.1832
 6867TIP3    H220559   7.541   4.193   2.372 -0.5145 -0.0739 -0.3209
 6868TIP3   OH220560   0.631   6.656   5.262 -0.7132 -0.0975  0.5090
 6868TIP3    H120561   0.635   6.747   5.290 -0.5239 -0.2605  1.0029
 6868TIP3    H220562   0.544   6.626   5.289 -1.2193  0.2571 -0.6446
 6869TIP3   OH220563   5.980   2.606   5.672  0.0885  0.1751  0.4701
 6869TIP3    H120564   5.897   2.610   5.720 -1.5198 -2.3346 -1.7979
 6869TIP3    H220565   6.002   2.513   5.670  2.4826  0.6832  0.1404
 6870TIP3   OH220566   0.033   5.701   2.077  0.3627 -0.4036  0.4972
 6870TIP3    H120567   0.110   5.663   2.035 -0.0129 -0.0136 -0.5674
 6870TIP3    H220568   0.014   5.642   2.150  1.9394 -0.2427  1.0734
 6871TIP3   OH220569   6.786   0.346   4.489 -0.1870 -0.1716  0.5951
 6871TIP3    H120570   6.822   0.329   4.576 -0.5479 -0.8584  0.6206
 6871TIP3    H220571   6.695   0.314   4.495 -0.5513  0.7844  0.2986
 6872TIP3   OH220572   3.729   4.859   0.660 -0.0412 -0.7917  0.2565
 6872TIP3    H120573   3.682   4.844   0.578  2.2979 -0.4756 -1.2342
 6872TIP3    H220574   3.699   4.944   0.690  0.1726 -0.2141 -1.1111
 6873TIP3   OH220575   1.114   6.954   3.160  0.4870 -0.4440 -0.1885
 6873TIP3    H120576   1.059   6.878   3.180  1.5452 -1.2649 -0.3084
 6873TIP3    H220577   1.094   6.976   3.069  0.9614 -1.2658 -0.4994
 6874TIP3   OH220578   3.751   1.253   2.278 -0.3628  0.7202  0.0427
 6874TIP3    H120579   3.681   1.281   2.337 -1.0696  0.2840 -0.5698
 6874TIP3    H220580   3.801   1.333   2.261  0.0151  0.8005  1.4242
 6875TIP3   OH220581   0.758   5.553   4.539 -0.1094  0.6393 -0.2922
 6875TIP3    H120582   0.728   5.468   4.504  0.4388 -0.3271  1.4674
 6875TIP3    H220583   0.830   5.577   4.482 -1.6350  1.0641 -2.1737
 6876TIP3   OH220584   7.351   0.156   4.667  0.1167  0.9034 -0.1157
 6876TIP3    H120585   7.431   0.209   4.656  0.6339  1.2677  3.8212
 6876TIP3    H220586   7.303   0.200   4.737 -1.4496 -1.6755  0.5577
 6877TIP3   OH220587   2.661   2.853   3.146  0.3452 -0.0201 -0.5645
 6877TIP3    H120588   2.634   2.774   3.100 -2.5897 -1.1898  2.7155
 6877TIP3    H220589   2.719   2.823   3.216 -0.3771  0.7255  0.4011
 6878TIP3   OH220590   3.317   3.649   4.699  0.0139 -0.0829  0.6434
 6878TIP3    H120591   3.323   3.612   4.787  0.2828 -0.9738  0.2562
 6878TIP3    H220592   3.403   3.632   4.660  0.2136  1.1288  0.5211
 6879TIP3   OH220593   6.383   1.705   4.473 -0.6339 -0.4080  0.7352
 6879TIP3    H120594   6.343   1.726   4.557  1.6348  1.4276  1.4402
 6879TIP3    H220595   6.321   1.740   4.408 -1.1237  0.6188  1.7188
 6880TIP3   OH220596   1.544   4.775   0.092  0.2065 -0.1770  0.8523
 6880TIP3    H120597   1.534   4.792   0.186  1.4839  0.5629  0.8725
 6880TIP3    H220598   1.537   4.679   0.085 -2.1690 -0.0955  1.3805
 6881TIP3   OH220599   1.788   5.792   5.793 -0.0130 -0.7653  0.2637
 6881TIP3    H120600   1.862   5.852   5.792 -0.5383 -0.0993  0.7927
 6881TIP3    H220601   1.823   5.711   5.755  1.1177 -0.6238  0.9438
 6882TIP3   OH220602   7.040   0.802   5.621 -0.0183 -0.8033  0.3597
 6882TIP3    H120603   7.065   0.711   5.607  0.1198 -0.5336 -1.4133
 6882TIP3    H220604   7.116   0.842   5.662 -0.5728 -1.7472  2.4431
 6883TIP3   OH220605   6.994   0.193   1.050  0.3168  0.6588  0.2353
 6883TIP3    H120606   6.949   0.139   1.115 -1.2184  0.3138 -1.0439
 6883TIP3    H220607   6.961   0.282   1.065 -0.9665  0.3872 -0.7766
 6884TIP3   OH220608   2.542   2.580   3.331  0.1196 -0.7171 -0.4448
 6884TIP3    H120609   2.487   2.657   3.345  2.2615  0.6061  1.2263
 6884TIP3    H220610   2.567   2.585   3.238  0.9828  1.1682 -0.1416
 6885TIP3   OH220611   4.086   7.615   3.667  0.5677 -0.1953 -0.2626
 6885TIP3    H120612   4.136   7.690   3.698 -0.2833  0.6689 -0.9200
 6885TIP3    H220613   4.068   7.635   3.575 -0.1046 -0.9622 -0.3076
 6886TIP3   OH220614   1.307   1.029   1.687 -0.2629 -0.1844  0.0938
 6886TIP3    H120615   1.215   1.050   1.672 -0.4179 -0.8579  0.0978
 6886TIP3    H220616   1.331   0.973   1.613  0.0687 -0.2346  0.2370
 6887TIP3   OH220617   4.946   0.298   3.952  0.4300  0.1363 -1.0368
 6887TIP3    H120618   4.983   0.311   4.040 -0.1746  0.1419 -0.7769
 6887TIP3    H220619   4.899   0.215   3.958  1.4532 -0.5229 -1.7334
 6888TIP3   OH220620   2.997   6.986   4.931 -0.2349  0.1354  0.4431
 6888TIP3    H120621   3.022   6.997   5.022 -1.1828 -0.1853  0.7616
 6888TIP3    H220622   2.972   7.073   4.902  1.5806  0.5433 -0.0116
 6889TIP3   OH220623   6.567   5.397   3.616 -0.3939 -0.5427  0.2641
 6889TIP3    H120624   6.608   5.471   3.660  0.2962 -0.0481 -1.1523
 6889TIP3    H220625   6.522   5.349   3.686 -1.0951  1.3541  1.1650
 6890TIP3   OH220626   7.881   0.183   1.345  0.3234  0.0942  0.1010
 6890TIP3    H120627   7.972   0.190   1.318  0.6353  0.2610  1.1612
 6890TIP3    H220628   7.874   0.239   1.422 -0.6375 -0.0291  0.1155
 6891TIP3   OH220629   2.450   0.594   4.305  0.3799 -0.3668  0.0009
 6891TIP3    H120630   2.450   0.688   4.284 -2.2786 -0.3866 -0.5107
 6891TIP3    H220631   2.542   0.571   4.314  1.1961  1.9616 -1.4232
 6892TIP3   OH220632   5.337   7.031   0.344 -0.1636  0.4062 -0.2943
 6892TIP3    H120633   5.349   6.945   0.386  0.3516 -0.6972 -2.5234
 6892TIP3    H220634   5.425   7.054   0.313 -0.6307  0.7774 -1.3955
 6893TIP3   OH220635   1.531   2.143   1.617  0.2943  0.0566  0.0067
 6893TIP3    H120636   1.580   2.104   1.546 -0.9979  1.4644 -1.7681
 6893TIP3    H220637   1.511   2.232   1.586 -1.6388  0.1897  1.4470
 6894TIP3   OH220638   4.491   5.173   5.595  0.2171  0.7295 -0.0350
 6894TIP3    H120639   4.410   5.210   5.629  0.4286 -0.2118  1.5672
 6894TIP3    H220640   4.559   5.232   5.625  0.3503  0.2087  0.6963
 6895TIP3   OH220641   8.275   2.238   2.486  0.0778  0.2298  0.7406
 6895TIP3    H120642   8.206   2.261   2.424 -1.0484 -0.8552  1.5463
 6895TIP3    H220643   8.352   2.222   2.432 -0.5824  0.3944 -0.2686
 6896TIP3   OH220644   1.478   2.292   2.270  0.0414  0.2062 -0.5202
 6896TIP3    H120645   1.515   2.208   2.244 -1.2907 -0.3184 -0.7958
 6896TIP3    H220646   1.510   2.353   2.204 -0.0860 -0.3555 -1.1151
 6897TIP3   OH220647   0.665   1.062   5.423  0.0969 -0.6582 -0.0879
 6897TIP3    H120648   0.729   1.042   5.355 -2.3456 -0.9695 -2.4568
 6897TIP3    H220649   0.588   1.010   5.400 -1.4066  0.4746  2.0226
 6898TIP3   OH220650   2.404   2.918   2.405  0.0048  0.1247  0.1672
 6898TIP3    H120651   2.359   2.982   2.461  0.2861  0.1500  0.3672
 6898TIP3    H220652   2.496   2.929   2.426 -0.0362 -1.3480  1.2589
 6899TIP3   OH220653   8.049   7.031   2.167 -0.2874 -0.1687  0.0957
 6899TIP3    H120654   7.968   7.016   2.215 -0.3696 -1.3689 -0.4037
 6899TIP3    H220655   8.031   7.108   2.114 -2.0169 -1.8759 -1.9508
 6900TIP3   OH220656   1.953   6.897   6.096  0.4671  0.1663  0.1848
 6900TIP3    H120657   1.892   6.925   6.027  0.3268 -1.1610 -0.2571
 6900TIP3    H220658   1.968   6.804   6.078 -0.4085 -0.4986  2.5794
 6901TIP3   OH220659   4.458   5.753   2.124 -0.6145  0.1098  0.1428
 6901TIP3    H120660   4.364   5.769   2.126 -0.4189  1.4352 -0.3280
 6901TIP3    H220661   4.495   5.833   2.086  0.7597 -0.1297  0.9335
 6902TIP3   OH220662   7.404   3.608   5.727 -0.0421 -0.5229  0.0062
 6902TIP3    H120663   7.467   3.559   5.675  1.0210  1.9271 -1.1862
 6902TIP3    H220664   7.458   3.670   5.776 -1.4108  0.5640  0.1884
 6903TIP3   OH220665   2.306   1.838   0.822  0.6943  0.6678  0.1461
 6903TIP3    H120666   2.315   1.910   0.885 -1.6976 -1.0497  2.6392
 6903TIP3    H220667   2.345   1.763   0.865 -0.7167 -0.4956 -0.5369
 6904TIP3   OH220668   4.482   1.453   6.520  0.5428 -0.0155  0.1016
 6904TIP3    H120669   4.480   1.373   6.467  2.4762  0.4336 -0.7605
 6904TIP3    H220670   4.560   1.443   6.575  0.5487  1.0693  0.3082
 6905TIP3   OH220671   6.832   0.038   5.565  0.0900 -0.1657 -0.2739
 6905TIP3    H120672   6.777   0.094   5.621 -0.7960 -1.5233  0.2517
 6905TIP3    H220673   6.804  -0.051   5.585  2.1704 -0.8896 -0.3553
 6906TIP3   OH220674   8.252   7.119   0.640  0.0878 -0.1218  0.2991
 6906TIP3    H120675   8.168   7.078   0.663 -0.3481  0.2989 -0.5118
 6906TIP3    H220676   8.315   7.047   0.647 -0.4482 -0.6117  0.2295
 6907TIP3   OH220677   2.204   7.693   4.515 -0.1502 -0.9650  0.4978
 6907TIP3    H120678   2.299   7.694   4.526 -0.1025 -2.5283  0.4639
 6907TIP3    H220679   2.182   7.600   4.504 -1.3449 -0.4175 -2.6482
 6908TIP3   OH220680   1.751   3.878   6.014  0.4929  0.1957  0.0390
 6908TIP3    H120681   1.747   3.799   6.069 -0.8970 -0.1249 -0.4816
 6908TIP3    H220682   1.773   3.844   5.927 -1.4941  0.1638 -0.5045
 6909TIP3   OH220683   4.347   2.967   6.052 -0.2993 -0.8165 -0.2992
 6909TIP3    H120684   4.360   3.037   5.988  0.7936 -1.0542 -0.3474
 6909TIP3    H220685   4.404   2.989   6.125 -2.0080 -0.2101  0.9194
 6910TIP3   OH220686   2.636   5.164  -0.013  0.3566 -0.4523 -0.1059
 6910TIP3    H120687   2.700   5.093  -0.014  0.8557 -0.0849  1.9213
 6910TIP3    H220688   2.568   5.135   0.047 -1.0671 -0.5165 -1.6586
 6911TIP3   OH220689   7.207   2.979   5.685  0.0931 -0.2894  0.5560
 6911TIP3    H120690   7.197   3.049   5.749 -0.0822  0.2685 -0.0748
 6911TIP3    H220691   7.284   3.003   5.634  0.2789 -0.7685  0.6067
 6912TIP3   OH220692   5.235   4.738   5.136  0.5435 -0.6548  0.2184
 6912TIP3    H120693   5.162   4.721   5.076  0.1174 -1.0557  0.8264
 6912TIP3    H220694   5.198   4.720   5.223  0.7508  1.2136  0.7270
 6913TIP3   OH220695   1.739   2.095   3.082 -0.0460 -0.0503 -0.1435
 6913TIP3    H120696   1.800   2.119   3.151 -0.3774  1.7741 -0.4529
 6913TIP3    H220697   1.700   2.177   3.053 -3.4766 -1.1796  0.7622
 6914TIP3   OH220698   2.880   6.356   5.939  0.6362 -0.1001 -0.4460
 6914TIP3    H120699   2.826   6.347   5.860 -0.8843  1.1025  0.3956
 6914TIP3    H220700   2.963   6.313   5.917  0.2060  0.0876 -2.6409
 6915TIP3   OH220701   6.701   7.233   6.499 -0.3653 -0.2719  0.6169
 6915TIP3    H120702   6.660   7.320   6.497  0.6085  0.1882 -0.3708
 6915TIP3    H220703   6.775   7.240   6.438 -2.1245 -2.7209 -2.1083
 6916TIP3   OH220704   5.176   5.120   3.921  0.0413 -0.4294  0.3517
 6916TIP3    H120705   5.263   5.103   3.957 -0.0129 -2.2749 -0.2677
 6916TIP3    H220706   5.179   5.084   3.832 -1.0763  0.3155 -0.0135
 6917TIP3   OH220707   0.908   1.492   5.417  0.0735  0.1471  0.2572
 6917TIP3    H120708   0.971   1.545   5.369 -1.2037  1.3268 -0.1861
 6917TIP3    H220709   0.937   1.402   5.404  1.9324  0.6739  0.4970
 6918TIP3   OH220710   0.824   1.929   1.940  0.1280 -0.1290 -0.1813
 6918TIP3    H120711   0.799   2.021   1.937 -0.8981 -0.4120 -1.1773
 6918TIP3    H220712   0.845   1.906   1.849  0.1061 -0.9431  0.0057
 6919TIP3   OH220713   3.956   5.189   0.053  0.1058  0.2101 -0.1679
 6919TIP3    H120714   4.006   5.139  -0.012 -0.2122 -1.5496  0.8829
 6919TIP3    H220715   3.973   5.145   0.136  0.8596  2.6721  1.0897
 6920TIP3   OH220716   8.007   7.040   0.758  0.7390 -0.0151 -0.5578
 6920TIP3    H120717   7.926   7.002   0.724  1.1818 -0.5831 -0.9984
 6920TIP3    H220718   8.068   6.967   0.762  0.9848  0.2410  0.5783
 6921TIP3   OH220719   4.678   4.041   6.588  0.1750 -0.0610  0.0522
 6921TIP3    H120720   4.594   3.999   6.606  1.4252 -2.1441  1.3482
 6921TIP3    H220721   4.731   3.973   6.547  2.0587  0.3749  1.6119
 6922TIP3   OH220722   8.237   4.890   1.526 -0.0873  0.5033 -0.0146
 6922TIP3    H120723   8.311   4.898   1.587 -0.3802  2.2221  0.1668
 6922TIP3    H220724   8.258   4.951   1.455 -0.8360  0.2283 -0.4851
 6923TIP3   OH220725   5.245   1.276   4.653  0.0041  0.0184  0.0916
 6923TIP3    H120726   5.194   1.225   4.716  2.7998 -3.0929  0.0432
 6923TIP3    H220727   5.306   1.326   4.707  1.1108 -1.1777 -0.0138
 6924TIP3   OH220728   1.893   3.366   4.165 -0.1542  0.0017 -0.0322
 6924TIP3    H120729   1.936   3.295   4.117 -1.0752 -0.4988 -0.1607
 6924TIP3    H220730   1.844   3.321   4.234 -0.1867  0.5777  0.3228
 6925TIP3   OH220731   5.790   0.934   2.832  0.2531 -0.1211 -0.0687
 6925TIP3    H120732   5.804   0.991   2.907  2.0544  0.5344 -0.8354
 6925TIP3    H220733   5.782   0.846   2.869  0.8456  0.2245  0.9184
 6926TIP3   OH220734   7.240   0.257   4.408  0.2865  0.1383  0.1321
 6926TIP3    H120735   7.159   0.224   4.371  0.4767 -0.6289  0.3895
 6926TIP3    H220736   7.249   0.211   4.492  1.4097 -0.4117 -0.2756
 6927TIP3   OH220737   8.185   6.087   4.459  0.0422 -0.0438 -0.4460
 6927TIP3    H120738   8.165   6.180   4.450 -0.6955 -0.0112  1.1900
 6927TIP3    H220739   8.105   6.049   4.495  0.6992 -1.1276 -0.0876
 6928TIP3   OH220740   4.889   6.966   2.560 -0.2833 -0.2090  0.4363
 6928TIP3    H120741   4.829   6.891   2.556 -1.7474  0.9948 -1.8069
 6928TIP3    H220742   4.922   6.965   2.650 -0.9858 -2.9513  0.7475
 6929TIP3   OH220743   2.977   4.450   2.426 -0.1676  0.1261 -0.3464
 6929TIP3    H120744   3.016   4.455   2.513  0.7067  1.0831 -0.7765
 6929TIP3    H220745   3.029   4.383   2.380  0.2572  0.5929 -0.5569
 6930TIP3   OH220746   1.927   7.025   2.501  0.4781 -0.2394  0.2600
 6930TIP3    H120747   1.873   7.101   2.521 -0.8883 -1.4719  1.5161
 6930TIP3    H220748   1.872   6.972   2.443  1.6047 -0.0815 -1.0071
 6931TIP3   OH220749   7.005   6.420   2.089 -0.2028 -0.1300  0.5480
 6931TIP3    H120750   7.019   6.461   2.003  1.0334 -3.2452 -0.8626
 6931TIP3    H220751   7.074   6.457   2.144  1.4519 -0.8395 -0.9294
 6932TIP3   OH220752   4.390   5.450   2.484 -0.5602 -0.1261 -0.1183
 6932TIP3    H120753   4.402   5.412   2.572  2.4629  0.4765 -0.1817
 6932TIP3    H220754   4.311   5.504   2.493 -0.6767 -0.5298  2.0563
 6933TIP3   OH220755   5.257   2.574   1.293  0.1233 -0.1211 -0.4002
 6933TIP3    H120756   5.165   2.558   1.315  0.6736 -1.6077  0.9578
 6933TIP3    H220757   5.299   2.593   1.376  1.3684 -1.2454 -0.7361
 6934TIP3   OH220758   5.748   7.785   5.284  0.0923 -0.7005  0.3170
 6934TIP3    H120759   5.804   7.797   5.360  0.2254 -0.0444  0.1224
 6934TIP3    H220760   5.809   7.778   5.210 -0.0448 -1.0715  0.2344
 6935TIP3   OH220761   6.255   1.791   2.659 -0.5162 -0.7507 -0.5397
 6935TIP3    H120762   6.224   1.700   2.661 -0.0090 -0.9976 -2.1197
 6935TIP3    H220763   6.350   1.784   2.650 -0.3619 -0.0306  0.3922
 6936TIP3   OH220764   0.987   5.769   0.635  0.3262  0.0835  0.2048
 6936TIP3    H120765   1.058   5.799   0.578 -0.3773 -0.0226 -0.7609
 6936TIP3    H220766   0.964   5.682   0.601 -0.3980  0.2028  0.3678
 6937TIP3   OH220767   5.341   1.403   1.080  0.4533 -0.2316  0.0807
 6937TIP3    H120768   5.245   1.397   1.085  0.3377  0.9383 -0.3998
 6937TIP3    H220769   5.368   1.318   1.047 -0.5479 -0.1570 -1.0164
 6938TIP3   OH220770   1.393   0.841   0.285 -0.1632  0.2483 -0.4141
 6938TIP3    H120771   1.413   0.808   0.373 -1.8074 -1.5277 -0.6440
 6938TIP3    H220772   1.426   0.931   0.285  1.0880 -0.1476  1.5499
 6939TIP3   OH220773   6.513   3.871   6.244 -0.5580  0.0086 -0.2888
 6939TIP3    H120774   6.510   3.802   6.311  0.3477 -0.1512 -0.4047
 6939TIP3    H220775   6.493   3.825   6.162  0.2342 -0.1507 -0.3920
 6940TIP3   OH220776   0.254   5.196   4.378  0.0515  0.5389 -0.1409
 6940TIP3    H120777   0.246   5.200   4.282  1.0196 -0.0940 -0.2631
 6940TIP3    H220778   0.218   5.280   4.408 -2.2023 -0.0865 -0.8997
 6941TIP3   OH220779   6.644   5.138   5.113  0.3127  0.1750 -0.0736
 6941TIP3    H120780   6.676   5.111   5.199  0.1957 -0.7876 -0.3177
 6941TIP3    H220781   6.577   5.204   5.131 -0.0352 -0.3565  0.5939
 6942TIP3   OH220782   3.900   5.515   6.437  0.8296  0.0532  0.2242
 6942TIP3    H120783   3.930   5.520   6.346  2.5169 -1.3281  0.6478
 6942TIP3    H220784   3.862   5.601   6.454  2.5179  1.1382 -1.1194
 6943TIP3   OH220785   4.171   5.467   4.207 -0.1798 -0.1580 -0.8956
 6943TIP3    H120786   4.184   5.553   4.165  1.2060  0.7310  1.1868
 6943TIP3    H220787   4.076   5.459   4.216 -0.3084  1.6879 -0.1830
 6944TIP3   OH220788   7.835   3.328   5.039 -0.0319 -0.1095  0.0055
 6944TIP3    H120789   7.775   3.366   5.102  1.4371  1.3356  0.6274
 6944TIP3    H220790   7.903   3.395   5.027  0.5463 -0.9535 -1.9608
 6945TIP3   OH220791   2.075   3.225   6.177  0.2298  0.0696 -0.4059
 6945TIP3    H120792   2.014   3.151   6.174  1.0075 -0.5896 -0.2552
 6945TIP3    H220793   2.162   3.185   6.167  0.8598  0.6835  2.0416
 6946TIP3   OH220794   0.529   1.956   1.846 -0.3180 -1.1742 -0.5530
 6946TIP3    H120795   0.558   1.917   1.763  0.6597 -1.6771  0.0049
 6946TIP3    H220796   0.434   1.964   1.837 -0.1180  0.1146 -2.2871
 6947TIP3   OH220797   0.192   5.951   5.901  0.5774 -0.3601  0.7870
 6947TIP3    H120798   0.131   5.883   5.872  1.1416 -0.5297 -0.0275
 6947TIP3    H220799   0.149   5.990   5.977 -1.2289  0.4596 -0.5624
 6948TIP3   OH220800   3.232   1.320   3.976 -0.3481  0.4357  0.2885
 6948TIP3    H120801   3.296   1.258   3.940  0.0009  0.9265  0.0521
 6948TIP3    H220802   3.158   1.265   4.002 -0.3456 -0.0094 -0.5830
 6949TIP3   OH220803   6.866   6.013   0.214  0.1717 -0.8213 -1.0807
 6949TIP3    H120804   6.931   6.053   0.271 -1.2909 -1.2974  1.0447
 6949TIP3    H220805   6.799   6.081   0.202  0.7866 -0.4750 -2.9053
 6950TIP3   OH220806   2.705   1.047   3.432  0.4659  0.1534  0.0290
 6950TIP3    H120807   2.666   1.132   3.412  0.3348  0.2966  0.8409
 6950TIP3    H220808   2.659   1.018   3.511 -0.1933 -1.1409 -0.7880
 6951TIP3   OH220809   7.849   5.689   6.636 -0.1787  0.0178 -0.5785
 6951TIP3    H120810   7.836   5.596   6.615 -0.0858  0.0686 -0.8760
 6951TIP3    H220811   7.867   5.730   6.551  0.8508  0.1327 -0.3183
 6952TIP3   OH220812   2.369   1.134   6.057  0.2858 -0.0413 -0.2054
 6952TIP3    H120813   2.377   1.118   6.151  1.3143  0.6289 -0.1554
 6952TIP3    H220814   2.381   1.229   6.047  0.1012 -0.0904 -1.0038
 6953TIP3   OH220815   3.893   0.351   4.150  0.2628  0.4033 -0.1540
 6953TIP3    H120816   3.931   0.292   4.215  1.3274  2.1449  0.8923
 6953TIP3    H220817   3.964   0.365   4.087  0.3946  1.3547  0.1863
 6954TIP3   OH220818   3.945   2.151   0.018 -0.1086 -0.1359 -0.2325
 6954TIP3    H120819   3.971   2.165  -0.073  0.1312  0.7106 -0.0485
 6954TIP3    H220820   3.995   2.216   0.067 -2.1210  1.1697  0.2155
 6955TIP3   OH220821   7.347   1.626   3.904  0.2481  0.1821 -0.4839
 6955TIP3    H120822   7.385   1.553   3.954 -2.1297  0.1043  1.3767
 6955TIP3    H220823   7.419   1.657   3.849  2.0677 -1.8928  0.5601
 6956TIP3   OH220824   7.019   2.199   1.799  0.0407 -0.4169  0.1135
 6956TIP3    H120825   7.105   2.204   1.842  0.5221 -2.6857 -0.4217
 6956TIP3    H220826   7.040   2.183   1.707 -0.9509 -0.7345 -0.0667
 6957TIP3   OH220827   7.809   4.765   3.678  0.5568  0.3778 -0.4554
 6957TIP3    H120828   7.716   4.756   3.695  0.5696 -0.7453 -0.8968
 6957TIP3    H220829   7.851   4.708   3.743  1.1485  3.0595  1.6897
 6958TIP3   OH220830   3.767   4.755   0.394 -0.0844  0.3069 -0.0713
 6958TIP3    H120831   3.806   4.675   0.430 -1.3265 -0.3884 -0.2468
 6958TIP3    H220832   3.707   4.725   0.326  1.6797  1.5473 -2.3298
 6959TIP3   OH220833   0.192   0.134   3.620  0.0560  0.5972  0.5064
 6959TIP3    H120834   0.185   0.039   3.626  1.7067  0.3343 -0.9924
 6959TIP3    H220835   0.281   0.154   3.652  0.5477  1.3801 -1.2326
 6960TIP3   OH220836   2.568   5.507   0.394 -0.4481  0.0009  0.8611
 6960TIP3    H120837   2.571   5.600   0.372  0.1047 -0.3929 -0.9676
 6960TIP3    H220838   2.532   5.466   0.315  0.1174 -1.4093  1.3150
 6961TIP3   OH220839   5.286   5.238   1.106 -0.3920  0.2250 -0.5864
 6961TIP3    H120840   5.321   5.324   1.129  1.2106 -0.1214 -1.6071
 6961TIP3    H220841   5.230   5.215   1.180  1.6592  0.7373  1.2140
 6962TIP3   OH220842   1.423   2.858   1.500  0.2454 -0.7268  0.4602
 6962TIP3    H120843   1.515   2.835   1.507  0.6860  1.2996  3.2000
 6962TIP3    H220844   1.422   2.953   1.496 -1.7109 -0.6705  0.9815
 6963TIP3   OH220845   6.356   2.878   0.640  0.3275 -0.0096 -0.1320
 6963TIP3    H120846   6.318   2.962   0.668 -0.1150 -0.0178 -0.6968
 6963TIP3    H220847   6.292   2.841   0.580  0.5287 -0.7511  0.0975
 6964TIP3   OH220848   0.766   0.702   0.003  0.7135  0.0768  0.3103
 6964TIP3    H120849   0.685   0.696  -0.048  1.6527  0.3970 -1.2928
 6964TIP3    H220850   0.738   0.700   0.094 -1.1622  1.0522 -0.2048
 6965TIP3   OH220851   0.457   1.970   6.357 -0.3601 -0.4598  0.4787
 6965TIP3    H120852   0.544   2.006   6.373 -0.6198  0.1882  0.4331
 6965TIP3    H220853   0.462   1.880   6.390  0.8655 -1.0325 -1.1479
 6966TIP3   OH220854   2.403   1.157   6.364  0.7256 -0.2431  0.5681
 6966TIP3    H120855   2.310   1.155   6.386  0.0732 -0.6378 -1.9241
 6966TIP3    H220856   2.442   1.089   6.419 -0.0907  0.9966  2.8352
 6967TIP3   OH220857   2.735   7.373   0.689  0.1863 -0.0733  1.0797
 6967TIP3    H120858   2.718   7.280   0.704 -1.4036  0.0857  0.4026
 6967TIP3    H220859   2.769   7.378   0.600 -1.2366  0.1225  0.5198
 6968TIP3   OH220860   8.207   3.165   0.116  0.2568 -0.0168 -0.4507
 6968TIP3    H120861   8.181   3.159   0.208 -4.1043  1.0768 -1.3473
 6968TIP3    H220862   8.209   3.074   0.086 -0.6891 -0.2961  0.2602
 6969TIP3   OH220863   0.082   1.591   6.023  0.0977  0.0242 -0.2119
 6969TIP3    H120864   0.129   1.664   6.065  1.7423 -0.3283 -1.3502
 6969TIP3    H220865   0.003   1.632   5.987  0.0826  0.8752  0.7293
 6970TIP3   OH220866   0.440   3.142   3.750 -0.7869 -0.2991  0.5643
 6970TIP3    H120867   0.379   3.136   3.824 -1.0546 -1.8084  0.2497
 6970TIP3    H220868   0.391   3.185   3.681 -0.4046  1.5049  1.3631
 6971TIP3   OH220869   4.260   4.299   1.258 -0.5569  0.3087 -0.1950
 6971TIP3    H120870   4.176   4.287   1.214 -0.7466 -1.9883  0.6041
 6971TIP3    H220871   4.256   4.238   1.332  2.9443 -2.3306 -1.8718
 6972TIP3   OH220872   5.833   2.510   6.359  0.1995 -0.1965 -0.1413
 6972TIP3    H120873   5.760   2.448   6.356 -0.9787  1.1397  0.0560
 6972TIP3    H220874   5.885   2.490   6.281 -1.0431 -0.3955 -0.9503
 6973TIP3   OH220875   2.062   4.010   0.311  0.0362 -1.1310  0.1045
 6973TIP3    H120876   2.149   4.015   0.351  0.4923 -0.6002 -0.9068
 6973TIP3    H220877   2.079   3.991   0.219 -0.8596  0.2588 -0.3757
 6974TIP3   OH220878   4.326   3.235   4.036  0.3681 -0.1086 -0.5681
 6974TIP3    H120879   4.301   3.325   4.058 -0.2278 -0.0192 -1.5531
 6974TIP3    H220880   4.243   3.190   4.019  0.7172 -0.4973 -1.3311
 6975TIP3   OH220881   4.437   2.274   1.354 -0.1199  0.4182  0.1184
 6975TIP3    H120882   4.452   2.346   1.415 -0.2630  1.5759 -1.1840
 6975TIP3    H220883   4.416   2.316   1.271 -0.6959 -1.1299 -0.5565
 6976TIP3   OH220884   7.630   1.884   2.985 -0.1384 -0.0052  0.1789
 6976TIP3    H120885   7.662   1.932   3.062  0.7785  0.0634 -0.2415
 6976TIP3    H220886   7.694   1.814   2.972  1.1800  1.4970 -2.0480
 6977TIP3   OH220887   2.126   5.783   1.823 -0.1778 -0.1195  0.6673
 6977TIP3    H120888   2.083   5.804   1.906 -0.9057 -1.3198  0.6091
 6977TIP3    H220889   2.194   5.719   1.847  0.2104  0.2051  0.4561
 6978TIP3   OH220890   5.839   3.608   1.530  0.4546 -0.2139 -0.3309
 6978TIP3    H120891   5.903   3.667   1.490 -0.3517 -0.6364 -2.3330
 6978TIP3    H220892   5.890   3.531   1.554  0.9013 -0.1000 -0.8775
 6979TIP3   OH220893   1.508   5.869   2.256  0.2879  0.1574  0.2586
 6979TIP3    H120894   1.516   5.895   2.165 -0.2887  1.9927  0.6780
 6979TIP3    H220895   1.590   5.896   2.297  0.0744  0.4130  0.5191
 6980TIP3   OH220896   3.369   6.564   5.516  0.3442 -0.2967  0.1703
 6980TIP3    H120897   3.389   6.494   5.453 -3.2095 -1.1151 -0.2409
 6980TIP3    H220898   3.281   6.593   5.493  1.1813  3.5486  1.1360
 6981TIP3   OH220899   6.091   5.106   6.186 -0.3533 -0.3138 -0.2716
 6981TIP3    H120900   6.079   5.012   6.172 -0.5734 -0.4774  0.8870
 6981TIP3    H220901   6.058   5.122   6.274 -0.1320  0.8235 -0.3681
 6982TIP3   OH220902   1.351   5.375   0.854 -0.3147 -0.1533 -0.2593
 6982TIP3    H120903   1.294   5.399   0.781 -1.5948  0.3426  0.8400
 6982TIP3    H220904   1.314   5.293   0.887 -0.6085  0.3252  0.6548
 6983TIP3   OH220905   5.147   2.787   3.314 -0.2610 -0.3075  0.1134
 6983TIP3    H120906   5.117   2.876   3.295 -1.8087 -0.6821  0.6345
 6983TIP3    H220907   5.078   2.731   3.279 -0.2016 -1.2211  1.4140
 6984TIP3   OH220908   3.270   0.217   2.298 -0.2745  0.7069  0.0464
 6984TIP3    H120909   3.292   0.250   2.385  0.2276  1.2596 -0.2878
 6984TIP3    H220910   3.351   0.223   2.248 -0.8348  1.4533 -0.7952
 6985TIP3   OH220911   1.297   3.207   4.715  0.1379  0.1802 -0.1325
 6985TIP3    H120912   1.312   3.118   4.682 -0.3656 -0.0177  0.1453
 6985TIP3    H220913   1.298   3.262   4.637 -0.0059 -0.1368 -0.3629
 6986TIP3   OH220914   0.849   4.821   2.536 -0.0910 -0.2375 -0.1431
 6986TIP3    H120915   0.821   4.912   2.545 -0.0921 -0.2298 -0.2221
 6986TIP3    H220916   0.767   4.771   2.537 -0.0501 -0.3013  0.6418
 6987TIP3   OH220917   2.999   3.769   1.575  0.2881 -0.4202  0.6110
 6987TIP3    H120918   3.061   3.810   1.635  0.0797  0.1751  0.4220
 6987TIP3    H220919   2.994   3.829   1.501 -0.3952 -0.5468  0.5510
 6988TIP3   OH220920   4.221   2.827   0.084  0.4695 -0.3355 -0.4322
 6988TIP3    H120921   4.174   2.910   0.083 -0.1533 -0.6044  1.6865
 6988TIP3    H220922   4.309   2.849   0.052  0.5958  1.3419  0.9187
 6989TIP3   OH220923   1.493   7.733   3.946 -0.1886 -0.1988 -0.2520
 6989TIP3    H120924   1.471   7.742   3.853 -0.9803  0.0801 -0.0465
 6989TIP3    H220925   1.426   7.674   3.980 -2.7655  3.1667  1.0769
 6990TIP3   OH220926   3.868   7.390   2.156 -0.0442 -0.1465  0.1978
 6990TIP3    H120927   3.800   7.443   2.116 -0.2915  0.5009  1.4123
 6990TIP3    H220928   3.923   7.453   2.203  0.8245 -0.7617  0.0274
 6991TIP3   OH220929   4.635   6.109   6.323  0.8593 -0.7532 -0.1411
 6991TIP3    H120930   4.553   6.062   6.308  0.3349  0.0657  0.0623
 6991TIP3    H220931   4.702   6.055   6.281  0.2941 -1.7067  0.1520
 6992TIP3   OH220932   0.405   2.527   5.865 -0.2407  0.1722 -0.0462
 6992TIP3    H120933   0.433   2.537   5.956 -0.4600 -2.1832  0.3480
 6992TIP3    H220934   0.312   2.505   5.871 -0.0589 -0.8541 -0.7493
 6993TIP3   OH220935   3.933   0.400   0.354  0.0652 -0.2842  0.1719
 6993TIP3    H120936   3.951   0.424   0.263  0.6374 -3.3002 -0.6116
 6993TIP3    H220937   4.014   0.420   0.401  0.3084 -0.1570 -0.2981
 6994TIP3   OH220938   7.819   2.811   2.899 -0.0424 -0.2620 -0.5742
 6994TIP3    H120939   7.890   2.779   2.954 -0.4066  1.3392  0.9248
 6994TIP3    H220940   7.863   2.862   2.831  0.3109 -0.4405 -0.4823
 6995TIP3   OH220941   3.354   6.883   2.670  0.0712  0.0968 -0.7562
 6995TIP3    H120942   3.430   6.830   2.693 -1.2483 -1.8393 -0.6125
 6995TIP3    H220943   3.359   6.959   2.727  0.2228 -1.5551  1.5478
 6996TIP3   OH220944   1.708   1.755   2.675 -0.4514 -0.0703 -0.0033
 6996TIP3    H120945   1.798   1.746   2.644 -0.7188  1.6209 -1.4682
 6996TIP3    H220946   1.709   1.834   2.729 -0.5357 -1.5955  2.3778
 6997TIP3   OH220947   3.415   2.952   2.620 -0.1922  0.1257 -0.3070
 6997TIP3    H120948   3.466   2.922   2.695 -1.7089  0.1910  0.8049
 6997TIP3    H220949   3.370   2.873   2.590 -0.6075  0.3600 -0.3043
 6998TIP3   OH220950   3.084   4.458   2.675  0.5465 -0.4366 -0.5252
 6998TIP3    H120951   3.068   4.416   2.759 -0.1009  0.8187 -0.0090
 6998TIP3    H220952   3.178   4.446   2.660  0.8575  0.1315  0.8243
 6999TIP3   OH220953   7.599   5.998   4.392  0.1957 -0.0694  0.0862
 6999TIP3    H120954   7.669   5.935   4.377  1.0763  0.6765  0.9334
 6999TIP3    H220955   7.526   5.945   4.425  0.7152 -0.7220  0.2023
 7000TIP3   OH220956   0.913   5.286   3.720  0.0687  0.9500  0.1393
 7000TIP3    H120957   0.908   5.300   3.625  0.3656  0.6459  0.0787
 7000TIP3    H220958   0.886   5.195   3.733  0.7902  0.7514  0.2679
 7001TIP3   OH220959   1.884   4.198   0.365  0.2893 -0.1460 -0.4701
 7001TIP3    H120960   1.960   4.146   0.340 -0.8672 -1.3493 -1.6436
 7001TIP3    H220961   1.814   4.166   0.309 -1.2133  0.5962  0.9115
 7002TIP3   OH220962   2.967   1.289   3.151  0.2602  0.0101 -0.4558
 7002TIP3    H120963   2.922   1.207   3.168  1.5695 -0.2284  2.3047
 7002TIP3    H220964   3.057   1.263   3.129 -0.0832  0.6184 -2.8898
 7003TIP3   OH220965   5.159   7.658   5.094  0.1553 -0.0680 -0.5090
 7003TIP3    H120966   5.166   7.568   5.063  1.1070 -0.5646  1.0126
 7003TIP3    H220967   5.066   7.670   5.113  0.2251 -1.2853  0.7436
 7004TIP3   OH220968   6.892   1.390   2.579 -0.1254 -0.5317  0.4388
 7004TIP3    H120969   6.980   1.424   2.561 -0.9076  1.0049 -0.6732
 7004TIP3    H220970   6.901   1.344   2.663  1.7584 -0.5321  0.2750
 7005TIP3   OH220971   6.132   1.067   0.563 -0.4838  0.0544  0.0584
 7005TIP3    H120972   6.174   1.110   0.637  0.0141  0.3049 -0.3631
 7005TIP3    H220973   6.134   0.974   0.585  0.7328  0.0125 -0.1583
 7006TIP3   OH220974   0.219   6.217   1.126 -0.2493  0.2187 -0.8618
 7006TIP3    H120975   0.141   6.266   1.099 -0.0594  0.5506 -0.8015
 7006TIP3    H220976   0.183   6.140   1.171 -0.5400  0.4375 -0.7167
 7007TIP3   OH220977   6.710   4.467   0.742  0.1672 -0.3717 -0.0297
 7007TIP3    H120978   6.802   4.484   0.762  0.2566 -0.2147 -0.5597
 7007TIP3    H220979   6.704   4.474   0.647  0.0479 -2.5393 -0.2293
 7008TIP3   OH220980   7.504   0.156   1.643  0.4828 -0.0853 -0.4028
 7008TIP3    H120981   7.479   0.074   1.686  0.5275  0.5734  0.9193
 7008TIP3    H220982   7.582   0.185   1.690  0.7964  0.4443 -1.2277
 7009TIP3   OH220983   4.907   1.776   1.256  0.1462  0.2420  0.7689
 7009TIP3    H120984   4.999   1.763   1.279  0.5483 -0.8967 -1.2822
 7009TIP3    H220985   4.895   1.871   1.260  1.6946  0.5062  0.1601
 7010TIP3   OH220986   2.708   5.501   1.049  0.2382  0.4875  0.1286
 7010TIP3    H120987   2.635   5.544   1.004 -1.0619 -1.5803  0.1085
 7010TIP3    H220988   2.763   5.467   0.979  1.1204  1.8178  0.1455
 7011TIP3   OH220989   4.913   0.414   4.699  0.3064  0.5577 -0.0930
 7011TIP3    H120990   4.861   0.490   4.725  0.3000  0.3100  0.6661
 7011TIP3    H220991   4.903   0.408   4.605 -0.8436  0.6548  0.0148
 7012TIP3   OH220992   2.615   6.038   0.208  0.2463  0.4431 -0.6625
 7012TIP3    H120993   2.592   6.094   0.133 -0.4366  0.0907 -0.7230
 7012TIP3    H220994   2.633   6.099   0.279 -1.1455  0.7492 -0.5411
 7013TIP3   OH220995   0.804   3.657   6.008  0.1901  0.6566  0.1351
 7013TIP3    H120996   0.711   3.637   6.012  0.6442 -1.5213  1.1302
 7013TIP3    H220997   0.829   3.642   5.917  0.0060 -1.0867  0.3439
 7014TIP3   OH220998   3.031   6.245   6.651  0.1528 -0.1112  0.0626
 7014TIP3    H120999   3.107   6.223   6.598 -1.4666 -3.3409 -1.1696
 7014TIP3    H221000   3.029   6.178   6.720 -0.8017  0.7952  0.9622
 7015TIP3   OH221001   6.503   3.538   6.352 -0.0818 -0.1684  0.0018
 7015TIP3    H121002   6.512   3.499   6.440  1.2430  0.6147  0.2434
 7015TIP3    H221003   6.411   3.565   6.347 -0.9184 -2.7258  0.0454
 7016TIP3   OH221004   0.660   3.242   0.603 -0.4059 -0.0226 -0.7928
 7016TIP3    H121005   0.596   3.181   0.568  0.4031 -0.1758 -2.0487
 7016TIP3    H221006   0.613   3.325   0.609 -0.9354 -0.3067 -0.9638
 7017TIP3   OH221007   3.720   4.671   6.420  0.3776  0.1633 -0.4091
 7017TIP3    H121008   3.809   4.695   6.444  0.4776 -0.9074  0.4027
 7017TIP3    H221009   3.721   4.666   6.325  1.4258 -0.6586 -0.3759
 7018TIP3   OH221010   4.154   7.109   3.527 -0.2411 -0.0221  0.3312
 7018TIP3    H121011   4.150   7.145   3.615 -0.2883 -0.7076  0.6111
 7018TIP3    H221012   4.215   7.036   3.534 -2.0283 -1.5844  0.3354
 7019TIP3   OH221013   0.141   1.998   3.299  0.1006 -0.4082  0.0492
 7019TIP3    H121014   0.057   2.007   3.254  0.8205  0.6867 -1.1632
 7019TIP3    H221015   0.144   2.073   3.358  0.8858  0.4847 -1.0883
 7020TIP3   OH221016   2.120   6.243   0.947  0.2077  0.1474 -0.3203
 7020TIP3    H121017   2.187   6.309   0.962 -0.3663  0.8462 -0.7481
 7020TIP3    H221018   2.152   6.191   0.873 -0.1358  1.0559 -1.1195
 7021TIP3   OH221019   0.181   4.708   6.200  0.4665 -1.1578 -0.4689
 7021TIP3    H121020   0.208   4.683   6.112  1.4082  0.3374 -0.6366
 7021TIP3    H221021   0.172   4.625   6.247  2.2007 -1.8850 -1.3370
 7022TIP3   OH221022   7.709   4.067   0.374 -0.2745 -1.3956  0.2748
 7022TIP3    H121023   7.673   4.027   0.295 -1.7676 -1.1395  0.7823
 7022TIP3    H221024   7.638   4.122   0.407  0.9597 -0.0590  0.8038
 7023TIP3   OH221025   2.071   2.359   5.055 -0.1273 -0.2321 -0.0305
 7023TIP3    H121026   2.013   2.351   4.979  1.1998 -1.6198 -0.9298
 7023TIP3    H221027   2.023   2.317   5.126 -1.3323  0.9755 -0.0921
 7024TIP3   OH221028   1.929   5.069   1.670 -0.4090 -0.1339 -0.5746
 7024TIP3    H121029   1.872   4.996   1.691  0.4224 -0.1302  1.9817
 7024TIP3    H221030   1.889   5.145   1.713 -0.2515  0.5680 -1.6082
 7025TIP3   OH221031   6.252   2.621   4.362  0.4188 -0.3170 -0.3984
 7025TIP3    H121032   6.202   2.698   4.387  0.2300 -0.6446  0.2569
 7025TIP3    H221033   6.332   2.625   4.414  0.4702 -0.4903 -0.4604
 7026TIP3   OH221034   7.828   5.946   0.771  0.1470 -0.5928  0.3116
 7026TIP3    H121035   7.872   6.027   0.798 -0.9602  0.9467 -2.1838
 7026TIP3    H221036   7.895   5.896   0.724  0.6398 -0.8241  1.2360
 7027TIP3   OH221037   3.127   4.774   1.238  0.3919 -0.2375  0.7919
 7027TIP3    H121038   3.166   4.689   1.260  2.2423  0.3043 -0.2700
 7027TIP3    H221039   3.188   4.814   1.176 -0.3324  1.9795  1.4135
 7028TIP3   OH221040   4.145   6.285   5.122  0.0212  0.4469  0.0738
 7028TIP3    H121041   4.221   6.323   5.078  0.2217 -0.8849 -0.7653
 7028TIP3    H221042   4.128   6.345   5.195  2.8461  0.0137  1.2423
 7029TIP3   OH221043   5.875   7.688   0.166  0.3127  0.3132 -0.1054
 7029TIP3    H121044   5.962   7.694   0.128  0.6219  0.5316  0.6280
 7029TIP3    H221045   5.840   7.605   0.132  0.9786  0.0011 -0.0420
 7030TIP3   OH221046   1.910   2.611   0.530  0.6538  0.3313  0.5696
 7030TIP3    H121047   1.865   2.535   0.492  1.9321 -0.6792  1.0095
 7030TIP3    H221048   1.842   2.657   0.579 -0.5503  0.4645 -1.1050
 7031TIP3   OH221049   4.502   3.395   4.893  0.4228  0.4526 -0.0201
 7031TIP3    H121050   4.552   3.341   4.832  0.0729  1.5228 -1.3192
 7031TIP3    H221051   4.411   3.369   4.880  0.3934  0.3468  0.3997
 7032TIP3   OH221052   4.383   3.696   2.749 -0.0358 -0.0130  0.0001
 7032TIP3    H121053   4.352   3.771   2.801  1.4709 -0.4754  1.6547
 7032TIP3    H221054   4.454   3.732   2.696 -0.8952  0.2280 -1.0178
 7033TIP3   OH221055   7.617   0.284   1.909  0.0794 -0.4461 -0.7570
 7033TIP3    H121056   7.551   0.293   1.978  1.5310 -1.2708  0.7984
 7033TIP3    H221057   7.615   0.368   1.863  0.8665  1.1587  1.9457
 7034TIP3   OH221058   4.596   3.815   2.595  0.1688  0.8659 -0.4979
 7034TIP3    H121059   4.597   3.852   2.507 -0.8909  0.9470 -0.4951
 7034TIP3    H221060   4.645   3.878   2.648  1.2164  0.5800 -1.1031
 7035TIP3   OH221061   5.439   5.754   4.331  0.2098  0.1764 -0.0416
 7035TIP3    H121062   5.424   5.661   4.313  1.4063 -0.0283 -0.0670
 7035TIP3    H221063   5.392   5.770   4.413  1.0742 -0.8064  0.6844
 7036TIP3   OH221064   1.911   1.636   6.758 -0.1570  0.5413  0.3652
 7036TIP3    H121065   1.907   1.545   6.729  0.4497  0.7987 -0.5843
 7036TIP3    H221066   1.979   1.637   6.825 -0.2924  0.2628  0.5058
 7037TIP3   OH221067   3.866   4.414   3.175  0.2103 -0.4178 -0.3677
 7037TIP3    H121068   3.775   4.392   3.195 -0.0358 -0.0117 -1.0205
 7037TIP3    H221069   3.913   4.398   3.257 -0.6241  0.3689  0.2813
 7038TIP3   OH221070   2.452   2.678   5.007  0.4138 -0.2135  0.0721
 7038TIP3    H121071   2.382   2.616   4.985  0.1482 -0.3995  1.3554
 7038TIP3    H221072   2.484   2.649   5.092 -0.5836  2.1099  1.3512
 7039TIP3   OH221073   6.976   5.338   6.067  0.3605  0.2792  0.0545
 7039TIP3    H121074   6.925   5.417   6.051  0.7382  0.5964  0.4064
 7039TIP3    H221075   6.936   5.299   6.145  0.5574  0.4489  0.2422
 7040TIP3   OH221076   6.018   1.616   5.780  0.2246  0.0895  0.2990
 7040TIP3    H121077   6.013   1.580   5.869  0.0135  1.0668  0.6931
 7040TIP3    H221078   5.933   1.597   5.742 -0.2934  1.1231  0.8924
 7041TIP3   OH221079   1.511   1.498   1.320  0.7031 -0.5787 -0.2386
 7041TIP3    H121080   1.444   1.547   1.273  0.9753  0.0383 -0.0000
 7041TIP3    H221081   1.470   1.415   1.342 -0.2735  0.1119  0.6552
 7042TIP3   OH221082   2.684   5.992   2.159 -0.0257 -0.0647  0.0559
 7042TIP3    H121083   2.757   6.005   2.220  0.5194 -0.4845 -0.4963
 7042TIP3    H221084   2.645   6.079   2.151  0.7278  0.2747 -0.0286
 7043TIP3   OH221085   5.158   0.779   5.065 -0.7058  0.5590 -0.2313
 7043TIP3    H121086   5.209   0.857   5.086 -0.9179  0.8823 -0.8930
 7043TIP3    H221087   5.194   0.711   5.122  1.6201  0.3395 -1.7978
 7044TIP3   OH221088   2.865   0.161   4.296 -0.4998 -0.2196  0.1483
 7044TIP3    H121089   2.916   0.139   4.218 -1.4426  0.4883 -0.6921
 7044TIP3    H221090   2.884   0.091   4.358  1.5009  0.0403 -0.1186
 7045TIP3   OH221091   8.227   1.155   2.362  0.7943 -0.0317 -0.4595
 7045TIP3    H121092   8.146   1.189   2.400 -1.2194 -2.7091 -2.0541
 7045TIP3    H221093   8.232   1.195   2.275 -0.2316 -1.7519 -1.3488
 7046TIP3   OH221094   1.311   7.260   0.975 -0.1606  0.1855 -0.0633
 7046TIP3    H121095   1.240   7.285   1.035 -0.1483 -1.2995  0.6150
 7046TIP3    H221096   1.390   7.266   1.028  0.1210  0.9449 -0.5598
 7047TIP3   OH221097   1.017   2.173   5.421  0.4103  0.2744 -0.6257
 7047TIP3    H121098   0.924   2.197   5.426  0.4144  0.3644 -0.9395
 7047TIP3    H221099   1.044   2.163   5.512 -0.1640 -0.7591 -0.5510
 7048TIP3   OH221100   2.308   2.364   1.912  0.4241 -0.0471  0.0649
 7048TIP3    H121101   2.388   2.390   1.866  1.0134  0.7876  1.4699
 7048TIP3    H221102   2.339   2.311   1.986 -0.6327 -3.2428 -1.6108
 7049TIP3   OH221103   1.788   7.274   2.694 -0.8893 -0.2494  0.5167
 7049TIP3    H121104   1.856   7.236   2.750 -1.2755  1.1617  2.0057
 7049TIP3    H221105   1.836   7.325   2.629 -0.4722 -0.8344  0.3576
 7050TIP3   OH221106   3.845   7.666   2.136 -0.3996  0.1964 -0.0348
 7050TIP3    H121107   3.794   7.688   2.058  0.2782  0.2437 -0.4750
 7050TIP3    H221108   3.933   7.697   2.116 -0.0308 -0.5253  0.4235
 7051TIP3   OH221109   3.947   7.149   4.805 -0.1054 -0.1264  0.5546
 7051TIP3    H121110   3.905   7.204   4.739  0.5443  0.2456  0.4493
 7051TIP3    H221111   3.885   7.077   4.819  0.2093 -0.8070 -1.2466
 7052TIP3   OH221112   1.911   4.847   3.008 -0.2977  0.4372 -0.0530
 7052TIP3    H121113   1.942   4.893   3.086 -0.5698  2.0679 -0.8394
 7052TIP3    H221114   1.819   4.874   3.000 -0.5326 -0.4449 -0.4245
 7053TIP3   OH221115   6.766   3.179   2.853  0.0463  0.1199 -0.3734
 7053TIP3    H121116   6.692   3.145   2.803 -0.1395 -1.5195  0.9372
 7053TIP3    H221117   6.823   3.220   2.788 -1.3247  0.1669 -1.5843
 7054TIP3   OH221118   7.501   5.462   2.447 -0.0670 -0.5939 -0.1641
 7054TIP3    H121119   7.481   5.407   2.523 -0.6312  0.6706  0.6427
 7054TIP3    H221120   7.431   5.444   2.385 -0.1521 -0.9011  0.0182
 7055TIP3   OH221121   6.998   2.631   4.503  0.3635  0.1705  0.5650
 7055TIP3    H121122   7.046   2.581   4.568 -0.2738 -1.0685  0.1134
 7055TIP3    H221123   7.060   2.699   4.474  0.8169  0.4356  2.0686
 7056TIP3   OH221124   3.591   3.218   3.101  0.3373 -0.5631  0.5163
 7056TIP3    H121125   3.606   3.169   3.020  0.4119 -0.6891  0.6062
 7056TIP3    H221126   3.547   3.298   3.072  1.4973 -0.0254  0.2251
 7057TIP3   OH221127   5.780   1.455   5.688 -0.0646  0.2275  0.4132
 7057TIP3    H121128   5.821   1.378   5.728 -1.5490 -1.3132 -0.8869
 7057TIP3    H221129   5.698   1.466   5.736  0.8326  2.0620  1.6597
 7058TIP3   OH221130   6.749   3.410   6.643  0.1545  0.5479  0.4242
 7058TIP3    H121131   6.834   3.437   6.678  0.2325 -2.0939  2.6459
 7058TIP3    H221132   6.766   3.382   6.554  1.4965  0.6372  0.6399
 7059TIP3   OH221133   8.270   4.333   3.011 -0.0280  0.2123  0.3290
 7059TIP3    H121134   8.282   4.291   3.096 -2.5898  0.8224  1.0713
 7059TIP3    H221135   8.188   4.297   2.978 -0.1062  1.4948 -0.9539
 7060TIP3   OH221136   7.409   3.015   5.499  0.2005 -0.1291 -0.0586
 7060TIP3    H121137   7.375   3.076   5.433 -0.3005 -0.5862 -0.2343
 7060TIP3    H221138   7.400   2.929   5.459 -1.9192 -0.6241  1.2896
 7061TIP3   OH221139   2.673   5.715   2.811  0.4395 -0.2334  0.1531
 7061TIP3    H121140   2.724   5.725   2.731  0.4894  2.0793  0.4018
 7061TIP3    H221141   2.587   5.688   2.781  0.0698  1.8664 -0.8648
 7062TIP3   OH221142   2.229   5.763   0.904  0.1132 -0.4832 -0.2316
 7062TIP3    H121143   2.277   5.748   0.986  0.3806  0.5951 -0.1774
 7062TIP3    H221144   2.244   5.855   0.884 -1.7628 -0.1514 -0.3219
 7063TIP3   OH221145   5.807   2.209   6.063  0.5337  0.2471 -0.3641
 7063TIP3    H121146   5.758   2.177   5.988  1.0490 -0.4568 -0.4089
 7063TIP3    H221147   5.793   2.143   6.131 -0.5177  1.2301  0.4163
 7064TIP3   OH221148   7.367   5.302   4.037 -0.1940 -0.1007  0.8978
 7064TIP3    H121149   7.388   5.347   3.955 -1.0670 -0.1752  0.6203
 7064TIP3    H221150   7.382   5.368   4.105 -2.8542  1.1646  0.3900
 7065TIP3   OH221151   4.224   5.265   3.516 -0.1615  0.4638  0.4125
 7065TIP3    H121152   4.194   5.235   3.602  0.7593  2.5774  1.5667
 7065TIP3    H221153   4.266   5.350   3.534  1.2037  0.3770 -1.9446
 7066TIP3   OH221154   3.265   7.780   5.427 -0.0497  0.5013  0.0342
 7066TIP3    H121155   3.180   7.823   5.421 -0.9978 -1.3313 -0.4767
 7066TIP3    H221156   3.312   7.808   5.349 -1.1873 -0.4426 -1.0316
 7067TIP3   OH221157   7.549   2.934   2.892 -0.3661 -0.8222 -0.1027
 7067TIP3    H121158   7.645   2.930   2.898 -0.3955 -0.0393  1.1320
 7067TIP3    H221159   7.525   2.854   2.846  0.8848 -0.9987 -0.4893
 7068TIP3   OH221160   1.189   0.861   3.107  1.0590 -0.2384  0.8190
 7068TIP3    H121161   1.222   0.873   3.018 -0.5128 -0.1104  0.2062
 7068TIP3    H221162   1.094   0.865   3.097  0.8753  1.6211  2.7831
 7069TIP3   OH221163   5.910   6.781   3.786  0.0093  0.0224 -0.0395
 7069TIP3    H121164   5.950   6.700   3.756  1.6144  0.3831  0.9810
 7069TIP3    H221165   5.843   6.753   3.848  1.2477 -0.5499  1.1081
 7070TIP3   OH221166   4.760   0.649   4.748  0.2004  0.4565  0.5500
 7070TIP3    H121167   4.724   0.671   4.833  1.1879  1.4107  0.7477
 7070TIP3    H221168   4.756   0.731   4.698  2.2012  0.6790  0.6498
 7071TIP3   OH221169   5.107   2.934   6.175  0.1285  0.7636 -0.5327
 7071TIP3    H121170   5.176   2.982   6.221  0.6741  0.0165 -0.5578
 7071TIP3    H221171   5.076   2.996   6.108  2.0477  0.5126 -1.7459
 7072TIP3   OH221172   7.262   5.777   5.663 -0.0656  0.3289 -0.7384
 7072TIP3    H121173   7.223   5.757   5.578 -1.7601 -3.2543  0.6640
 7072TIP3    H221174   7.347   5.732   5.661 -0.6184 -0.7975 -0.2189
 7073TIP3   OH221175   1.546   0.027   1.657  0.1667  0.0096  0.1433
 7073TIP3    H121176   1.547  -0.047   1.596  0.5768  0.6671 -0.6729
 7073TIP3    H221177   1.489   0.092   1.615 -1.2208 -0.2930  1.4409
 7074TIP3   OH221178   8.136   5.960   5.643 -0.4898 -0.0342  0.3743
 7074TIP3    H121179   8.229   5.938   5.648 -1.3010 -4.0677  1.3333
 7074TIP3    H221180   8.112   5.941   5.552 -0.8644 -1.7028  0.7977
 7075TIP3   OH221181   5.111   6.846   1.250 -0.4134  0.3341 -0.0744
 7075TIP3    H121182   5.153   6.932   1.252 -0.1887  0.2135  1.0699
 7075TIP3    H221183   5.169   6.790   1.303 -0.5126 -0.5415 -0.8686
 7076TIP3   OH221184   1.709   3.650   4.402  0.0529  0.1025 -0.0236
 7076TIP3    H121185   1.749   3.683   4.321  0.5875  0.7750  0.5042
 7076TIP3    H221186   1.633   3.600   4.372  1.2393 -1.1872 -1.0599
 7077TIP3   OH221187   0.489   4.605   0.411  0.1452 -0.5521 -0.0512
 7077TIP3    H121188   0.410   4.572   0.369 -0.0544 -0.5151  0.2971
 7077TIP3    H221189   0.537   4.648   0.340 -0.1770 -0.5165 -0.2481
 7078TIP3   OH221190   6.924   2.231   4.951 -0.0913  0.4147  0.4910
 7078TIP3    H121191   6.907   2.324   4.967  0.0811  0.6482 -0.5831
 7078TIP3    H221192   6.905   2.189   5.034  0.5783  1.5022  1.2187
 7079TIP3   OH221193   0.724   6.879   3.869 -0.0181 -0.1889  0.2322
 7079TIP3    H121194   0.692   6.962   3.835  0.1231  0.2192  1.0656
 7079TIP3    H221195   0.687   6.873   3.957  0.9517 -0.4281  0.6390
 7080TIP3   OH221196   4.336   2.410   2.538 -0.5056  0.0043 -0.2959
 7080TIP3    H121197   4.421   2.427   2.496  0.2145  0.5655  1.3231
 7080TIP3    H221198   4.294   2.496   2.540  0.1912  0.3469  1.6094
 7081TIP3   OH221199   4.158   7.299   2.473 -0.5090 -0.4331 -0.0214
 7081TIP3    H121200   4.252   7.299   2.490 -0.5121 -0.7479  0.0033
 7081TIP3    H221201   4.137   7.208   2.451 -0.9149 -0.4962  0.5840
 7082TIP3   OH221202   1.564   6.412   2.262 -0.6362  0.0767  0.1657
 7082TIP3    H121203   1.489   6.422   2.203 -0.5658  2.0729  0.3410
 7082TIP3    H221204   1.535   6.452   2.344  0.8959  1.7947 -0.0596
 7083TIP3   OH221205   2.559   5.141   2.925 -0.0527  0.6019 -0.5804
 7083TIP3    H121206   2.486   5.166   2.982 -0.2906  0.5905 -0.8778
 7083TIP3    H221207   2.626   5.108   2.985  0.0091  1.3391 -0.2393
 7084TIP3   OH221208   6.812   6.756   5.383  0.0398  0.0962  0.3178
 7084TIP3    H121209   6.896   6.802   5.389 -0.3817  0.8201  0.7838
 7084TIP3    H221210   6.762   6.804   5.317 -0.0812 -0.2314  0.1635
 7085TIP3   OH221211   5.599   0.941   2.159 -0.2470  0.8035  0.2098
 7085TIP3    H121212   5.588   0.882   2.234 -0.6427 -1.6031 -1.6094
 7085TIP3    H221213   5.512   0.948   2.121  0.6221 -2.1591 -2.8092
 7086TIP3   OH221214   5.334   5.086   1.943  0.2129 -0.1191  0.5058
 7086TIP3    H121215   5.271   5.030   1.988  0.8696  1.1175  3.1349
 7086TIP3    H221216   5.306   5.175   1.963  1.3157  0.4719 -0.4398
 7087TIP3   OH221217   6.268   5.036   2.754  0.8582  0.5675 -0.0479
 7087TIP3    H121218   6.245   5.129   2.757  0.3921  0.4550 -0.0599
 7087TIP3    H221219   6.186   4.991   2.772  1.3224  0.1725  1.1635
 7088TIP3   OH221220   5.237   2.523   2.920 -0.6992 -0.2631  0.0393
 7088TIP3    H121221   5.205   2.433   2.921 -1.1267 -0.1147 -0.1599
 7088TIP3    H221222   5.272   2.538   3.008 -2.2478 -0.0426  0.6410
 7089TIP3   OH221223   2.025   6.577   1.900 -0.1013 -0.5228 -0.5955
 7089TIP3    H121224   2.105   6.552   1.854  1.4566  0.6296  1.3176
 7089TIP3    H221225   2.054   6.598   1.989 -1.9878  2.8146 -0.5753
 7090TIP3   OH221226   4.302   0.530   3.416  0.1486 -0.0348  0.3641
 7090TIP3    H121227   4.333   0.577   3.494  0.2633 -0.3757  0.5284
 7090TIP3    H221228   4.381   0.516   3.364  0.1327 -0.1414  0.3686
 7091TIP3   OH221229   4.900   2.510   0.516 -0.5634  0.4526 -0.0056
 7091TIP3    H121230   4.858   2.596   0.513 -0.7158  0.3685 -0.2951
 7091TIP3    H221231   4.973   2.521   0.577 -1.6901  0.2888  1.4127
 7092TIP3   OH221232   5.068   0.721   1.545  0.2150  0.4390 -0.4101
 7092TIP3    H121233   5.094   0.670   1.468  1.5620  1.2504 -0.5140
 7092TIP3    H221234   4.972   0.719   1.543  0.2209 -1.4288 -0.8301
 7093TIP3   OH221235   7.817   0.205   6.012 -0.4180 -0.9256  0.8753
 7093TIP3    H121236   7.788   0.196   6.103 -0.5882  0.3847  0.9677
 7093TIP3    H221237   7.777   0.287   5.982 -1.0464 -1.7545 -0.6532
 7094TIP3   OH221238   1.637   2.424   4.079  0.2027 -0.2122 -0.1805
 7094TIP3    H121239   1.551   2.445   4.113 -0.2706 -1.0334 -0.8432
 7094TIP3    H221240   1.697   2.448   4.150 -0.6949 -1.2461  0.9839
 7095TIP3   OH221241   6.977   0.742   3.685 -0.1977  0.0415  0.4542
 7095TIP3    H121242   6.984   0.773   3.776 -0.1206  3.0368 -0.4713
 7095TIP3    H221243   6.884   0.746   3.666 -0.1211  0.3963  0.1301
 7096TIP3   OH221244   7.152   5.751   4.079  0.3495  0.1304 -0.0660
 7096TIP3    H121245   7.188   5.718   3.997 -0.7334  0.5121 -0.7095
 7096TIP3    H221246   7.072   5.798   4.054  0.5815  1.1946  1.0788
 7097TIP3   OH221247   7.579   2.695   1.881  0.5843  0.1860  0.3362
 7097TIP3    H121248   7.534   2.680   1.798  0.5928 -0.1912  0.3996
 7097TIP3    H221249   7.536   2.772   1.919 -1.0183 -1.0528  1.1128
 7098TIP3   OH221250   3.623   0.294   5.061 -0.1151 -0.0714 -0.3034
 7098TIP3    H121251   3.529   0.291   5.045 -0.1256  1.3161 -0.6118
 7098TIP3    H221252   3.632   0.347   5.140  0.3275 -1.6549  0.7713
 7099TIP3   OH221253   4.977   1.689   1.824 -0.8936  0.0084 -0.0293
 7099TIP3    H121254   4.917   1.763   1.832  0.6265  1.2645  0.0148
 7099TIP3    H221255   4.991   1.680   1.730  2.0664  2.4572  0.0527
 7100TIP3   OH221256   4.516   0.417   5.891 -0.5489 -0.2508  0.0817
 7100TIP3    H121257   4.527   0.334   5.845  1.6929  0.6882 -1.2477
 7100TIP3    H221258   4.497   0.392   5.981 -1.1714 -2.1801 -0.5346
 7101TIP3   OH221259   4.564   4.944   3.594 -0.1730  0.2552 -0.1301
 7101TIP3    H121260   4.580   4.855   3.564 -1.5201  0.0663 -0.3358
 7101TIP3    H221261   4.638   4.963   3.652  0.0145 -1.0821  0.1043
 7102TIP3   OH221262   5.943   1.384   0.156  0.4900 -0.4694  0.8296
 7102TIP3    H121263   5.923   1.466   0.111  1.3411 -1.6818 -2.0045
 7102TIP3    H221264   5.872   1.374   0.219 -0.1172  1.9981  0.6668
 7103TIP3   OH221265   6.074   1.971   4.093 -0.1180 -0.1512 -0.1667
 7103TIP3    H121266   5.993   1.978   4.041  0.0497 -0.1663 -0.4355
 7103TIP3    H221267   6.111   2.060   4.090  0.1178 -0.2556 -0.4487
 7104TIP3   OH221268   5.585   2.528   3.911  0.4506  0.3358  0.6500
 7104TIP3    H121269   5.641   2.464   3.955 -0.8741 -0.8549  0.6807
 7104TIP3    H221270   5.522   2.475   3.863 -0.1264  1.6349 -0.0666
 7105TIP3   OH221271   5.602   3.145   1.052  0.0368 -0.4181 -0.5138
 7105TIP3    H121272   5.693   3.126   1.033  0.0202  0.0420 -1.0831
 7105TIP3    H221273   5.554   3.109   0.977 -0.3257 -1.2856  0.1101
 7106TIP3   OH221274   6.011   6.832   1.603 -0.2175 -0.5409  0.0297
 7106TIP3    H121275   6.038   6.820   1.512  0.5941 -1.6837  0.3958
 7106TIP3    H221276   5.916   6.827   1.601 -0.1518 -1.7452 -0.6185
 7107TIP3   OH221277   0.539   5.273   1.730  0.0637  0.2103  0.4809
 7107TIP3    H121278   0.460   5.240   1.772 -2.5188  1.5396 -2.8379
 7107TIP3    H221279   0.527   5.253   1.637  4.2311 -0.4629 -0.1174
 7108TIP3   OH221280   5.803   6.313   2.661  0.1128 -0.0599  0.5285
 7108TIP3    H121281   5.839   6.225   2.650  0.7147  0.3224 -0.8119
 7108TIP3    H221282   5.724   6.313   2.606 -0.1192  0.1006  0.8629
 7109TIP3   OH221283   2.816   6.583   3.127  0.2541  0.1118  0.1537
 7109TIP3    H121284   2.781   6.508   3.174  0.8392 -0.7341 -0.7221
 7109TIP3    H221285   2.908   6.561   3.111 -0.0888  0.0120 -2.0012
 7110TIP3   OH221286   4.608   5.867   5.729  0.2447 -0.0182 -0.0696
 7110TIP3    H121287   4.602   5.944   5.672  2.2314 -0.1296 -0.5142
 7110TIP3    H221288   4.619   5.793   5.669  0.0580 -0.4394  0.4034
 7111TIP3   OH221289   0.333   6.366   6.005  0.0584 -0.1396 -0.2024
 7111TIP3    H121290   0.345   6.386   6.098  0.2858  0.0854 -0.2791
 7111TIP3    H221291   0.422   6.348   5.973  0.4519  2.6830 -1.0480
 7112TIP3   OH221292   2.666   2.246   3.326  0.1927  0.2027  0.2336
 7112TIP3    H121293   2.653   2.178   3.393  0.4544 -1.4446 -1.3047
 7112TIP3    H221294   2.582   2.292   3.322  0.1764  0.3607  1.6712
 7113TIP3   OH221295   4.288   0.223   0.575  1.0192  0.6250  0.0642
 7113TIP3    H121296   4.379   0.248   0.557  1.0335  1.2571  0.9843
 7113TIP3    H221297   4.244   0.305   0.596  0.1587  0.3568 -0.6316
 7114TIP3   OH221298   6.062   2.702   3.695  0.4021 -0.2548  0.1254
 7114TIP3    H121299   5.970   2.727   3.687  0.5569  0.4844  0.5407
 7114TIP3    H221300   6.066   2.654   3.778  0.8629  2.1297  1.5724
 7115TIP3   OH221301   4.395   6.080   4.272  0.4015  0.2407  0.4187
 7115TIP3    H121302   4.371   6.082   4.365  0.5012 -2.1707  0.5556
 7115TIP3    H221303   4.471   6.022   4.269 -0.4418 -0.8357 -1.3266
 7116TIP3   OH221304   1.531   7.209   4.378  0.3061  0.2786  0.2235
 7116TIP3    H121305   1.553   7.300   4.397 -1.5334  0.9231 -0.5567
 7116TIP3    H221306   1.571   7.192   4.292 -1.3775  1.1717 -0.7896
 7117TIP3   OH221307   4.258   6.206   0.510 -0.0244  0.0516  0.4877
 7117TIP3    H121308   4.280   6.113   0.501 -0.8616 -0.3202  1.9271
 7117TIP3    H221309   4.343   6.249   0.518  0.4316 -0.4100 -1.3541
 7118TIP3   OH221310   7.746   3.247   4.791  0.4197 -0.4534  0.0887
 7118TIP3    H121311   7.774   3.267   4.881  3.4119  1.6249 -1.1654
 7118TIP3    H221312   7.780   3.159   4.775  0.5313 -0.5320  0.7040
 7119TIP3   OH221313   2.164   0.090   2.684 -0.0368  0.1007 -0.2957
 7119TIP3    H121314   2.177   0.015   2.626  0.5160 -0.2647  0.2796
 7119TIP3    H221315   2.213   0.161   2.645 -0.4575  0.1309 -0.7779
 7120TIP3   OH221316   6.660   0.581   3.885  0.7802  0.4190  0.0132
 7120TIP3    H121317   6.706   0.630   3.817  0.7403  1.5411  0.7763
 7120TIP3    H221318   6.658   0.640   3.960 -0.2119 -0.3599  0.6183
 7121TIP3   OH221319   7.139   3.721   6.224 -0.0622  0.0385  0.1494
 7121TIP3    H121320   7.216   3.715   6.168 -0.6152  0.5576 -0.6930
 7121TIP3    H221321   7.066   3.735   6.163 -0.8434 -0.5773  0.9222
 7122TIP3   OH221322   3.775   4.419   5.076 -0.2654  0.1104 -0.4773
 7122TIP3    H121323   3.689   4.379   5.065 -0.0462 -0.4274 -0.2819
 7122TIP3    H221324   3.780   4.443   5.168  0.1797 -0.7935 -0.2531
 7123TIP3   OH221325   1.853   2.756   5.151  0.0121  0.0491  0.6064
 7123TIP3    H121326   1.901   2.839   5.145  0.2112 -0.1209 -0.4375
 7123TIP3    H221327   1.872   2.712   5.068  0.3061 -1.2650  1.3439
 7124TIP3   OH221328   5.680   7.783   6.394 -0.5449 -0.7777  0.1760
 7124TIP3    H121329   5.761   7.737   6.419  1.8548  2.4599 -0.8679
 7124TIP3    H221330   5.656   7.746   6.310  1.8524  0.3162 -1.0867
 7125TIP3   OH221331   2.256   3.596   0.514 -0.3076  0.0193  0.2302
 7125TIP3    H121332   2.244   3.511   0.557 -0.5980  0.3550  0.8252
 7125TIP3    H221333   2.302   3.649   0.579  0.0969  0.2394 -0.2369
 7126TIP3   OH221334   1.262   7.436   3.183  0.1979 -0.0586 -0.6621
 7126TIP3    H121335   1.178   7.412   3.144 -0.0352  1.3197 -1.0477
 7126TIP3    H221336   1.318   7.359   3.169 -1.5921 -1.9059  1.5712
 7127TIP3   OH221337   2.237   6.765   0.549 -0.5222 -0.0796  0.5932
 7127TIP3    H121338   2.306   6.698   0.537 -0.4577 -0.0945  1.0238
 7127TIP3    H221339   2.248   6.824   0.475  0.6617  0.5282  1.2209
 7128TIP3   OH221340   7.819   1.380   6.161  0.3657 -0.3403  0.5396
 7128TIP3    H121341   7.783   1.421   6.239  0.3469 -0.3391  0.5304
 7128TIP3    H221342   7.743   1.346   6.114  0.4315 -0.9503  0.8627
 7129TIP3   OH221343   5.935   3.669   5.257  0.1296  0.1412 -0.0211
 7129TIP3    H121344   5.992   3.743   5.281  0.0636 -0.3888  1.9275
 7129TIP3    H221345   5.850   3.692   5.294 -0.1580 -0.4372 -0.3200
 7130TIP3   OH221346   0.207   1.113   2.845  0.2016  0.0952  0.0485
 7130TIP3    H121347   0.210   1.206   2.870 -0.2071 -0.1099  0.8994
 7130TIP3    H221348   0.281   1.102   2.786  1.6521  0.4708  1.6925
 7131TIP3   OH221349   6.160   2.263   4.036 -0.4763  0.3500  0.0634
 7131TIP3    H121350   6.204   2.208   3.970  0.5777  0.6324  0.5136
 7131TIP3    H221351   6.229   2.284   4.099 -1.3974  0.3697  1.0807
 7132TIP3   OH221352   2.431   3.357   1.650 -0.0399 -0.1969  0.1838
 7132TIP3    H121353   2.378   3.281   1.676  2.5191 -3.0133 -2.0913
 7132TIP3    H221354   2.414   3.367   1.556  0.8690  1.0523  0.1322
 7133TIP3   OH221355   4.058   1.895   5.292  0.8800  0.0270  0.4018
 7133TIP3    H121356   4.128   1.925   5.234  1.8983 -1.4907  0.8033
 7133TIP3    H221357   3.981   1.888   5.236  1.4222  0.2303 -0.3764
 7134TIP3   OH221358   6.422   6.421   1.641 -0.3397  0.0234  0.2738
 7134TIP3    H121359   6.394   6.508   1.671 -1.0926  0.1594 -0.7547
 7134TIP3    H221360   6.358   6.361   1.678  0.9821 -0.3149  2.1804
 7135TIP3   OH221361   5.424   7.201   3.413  0.1099 -0.0809 -0.3238
 7135TIP3    H121362   5.346   7.146   3.410  0.6014 -0.7974 -0.3896
 7135TIP3    H221363   5.471   7.180   3.332  1.5868 -1.5223  0.8557
 7136TIP3   OH221364   6.665   3.343   1.603  0.3316  0.1004  0.1507
 7136TIP3    H121365   6.705   3.415   1.554  0.4686  0.7068  1.1363
 7136TIP3    H221366   6.703   3.349   1.691 -0.8929 -0.1465  0.7141
 7137TIP3   OH221367   7.698   4.251   6.648 -0.2566 -0.1616 -0.2438
 7137TIP3    H121368   7.743   4.331   6.676  1.6531 -1.5564  0.9076
 7137TIP3    H221369   7.640   4.229   6.721  1.7395 -1.5983  1.0117
 7138TIP3   OH221370   5.258   3.229   5.010 -0.3973  0.0398  0.4233
 7138TIP3    H121371   5.260   3.147   5.058 -0.9034 -0.0640  0.2762
 7138TIP3    H221372   5.320   3.216   4.938 -0.1049 -0.0288  0.6862
 7139TIP3   OH221373   5.458   2.285   3.806 -0.4262  0.5084  0.4292
 7139TIP3    H121374   5.445   2.264   3.898 -0.7581 -0.7661  0.1030
 7139TIP3    H221375   5.507   2.211   3.770 -0.1839  1.0515 -0.3891
 7140TIP3   OH221376   0.400   1.222   3.649  0.0417 -0.3156 -0.5147
 7140TIP3    H121377   0.379   1.272   3.728 -1.2059  1.1771 -1.7233
 7140TIP3    H221378   0.465   1.277   3.603  1.0391 -1.3446 -0.3700
 7141TIP3   OH221379   7.891   4.260   0.846  0.5250 -0.4768 -0.1147
 7141TIP3    H121380   7.877   4.176   0.890  2.3793 -0.8595 -0.1870
 7141TIP3    H221381   7.954   4.241   0.777 -1.1800  0.4225 -2.0174
 7142TIP3   OH221382   2.766   1.801   5.584 -0.1730 -0.1736  0.1752
 7142TIP3    H121383   2.710   1.744   5.635  0.9520 -0.9334  0.5991
 7142TIP3    H221384   2.753   1.773   5.493 -1.5702  0.6476  0.0944
 7143TIP3   OH221385   8.171   4.691   2.552  0.0234  0.3206  0.2224
 7143TIP3    H121386   8.177   4.672   2.458  2.2505  2.4911 -0.1591
 7143TIP3    H221387   8.127   4.614   2.588 -2.6689  0.1998 -2.7964
 7144TIP3   OH221388   0.215   3.495   0.844 -0.1199  0.8657  0.2723
 7144TIP3    H121389   0.184   3.408   0.869 -1.1299  1.2149  0.2903
 7144TIP3    H221390   0.146   3.530   0.787 -0.2170  2.0479  1.0702
 7145TIP3   OH221391   0.129   2.689   5.027 -0.0900  0.2125 -0.0486
 7145TIP3    H121392   0.041   2.654   5.045 -0.6827  1.5560 -0.2332
 7145TIP3    H221393   0.173   2.618   4.980 -1.9394  0.4071 -2.2512
 7146TIP3   OH221394   0.676   3.433   1.105  0.1241 -0.1818  0.6378
 7146TIP3    H121395   0.741   3.377   1.062  0.2289  0.0113  0.5420
 7146TIP3    H221396   0.601   3.431   1.046 -0.5457 -1.6615  1.5195
 7147TIP3   OH221397   6.971   6.693   2.231  0.0115  0.4295 -0.5352
 7147TIP3    H121398   6.931   6.724   2.150  0.8587  0.0233 -1.1312
 7147TIP3    H221399   7.051   6.649   2.202 -1.3696 -2.8125  0.1614
 7148TIP3   OH221400   6.375   5.642   2.494 -0.8812 -0.2770  0.0862
 7148TIP3    H121401   6.300   5.651   2.553 -0.7697 -0.1510  0.2098
 7148TIP3    H221402   6.345   5.676   2.411 -0.8150  0.2004  0.2566
 7149TIP3   OH221403   2.638   0.273   1.984  0.1271 -0.1377 -0.6468
 7149TIP3    H121404   2.732   0.285   1.977  0.3665 -0.4550  1.5289
 7149TIP3    H221405   2.601   0.357   1.956  1.1098  0.4261 -0.2737
 7150TIP3   OH221406   3.723   4.060   3.231  0.1008 -0.8765 -0.0237
 7150TIP3    H121407   3.810   4.050   3.269  0.4355  1.5846 -0.0203
 7150TIP3    H221408   3.738   4.071   3.137 -0.0453  0.7987  0.1171
 7151TIP3   OH221409   1.563   4.618   3.162  0.3333 -0.0980 -0.1656
 7151TIP3    H121410   1.600   4.589   3.079  2.3146 -0.2265  0.7171
 7151TIP3    H221411   1.541   4.536   3.208 -0.6520 -0.0283 -0.4777
 7152TIP3   OH221412   2.000   0.080   4.023 -0.8705 -0.3654  0.4790
 7152TIP3    H121413   2.019   0.113   4.111 -0.4141  1.5119 -0.2698
 7152TIP3    H221414   1.937   0.142   3.986  0.7990  0.3376 -1.3779
 7153TIP3   OH221415   4.103   0.629   5.632 -0.1093 -0.2696  0.8103
 7153TIP3    H121416   4.114   0.722   5.648 -0.0033 -0.1772  0.2352
 7153TIP3    H221417   4.033   0.602   5.691  1.0663 -0.2198  2.2716
 7154TIP3   OH221418   4.074   6.047   3.969  0.4391  0.4123  0.4365
 7154TIP3    H121419   4.089   6.005   4.054 -0.5617 -2.9085 -0.8700
 7154TIP3    H221420   4.148   6.019   3.915 -0.7056 -0.5075 -0.7179
 7155TIP3   OH221421   7.608   5.290   2.234  0.5070 -0.7239  0.1828
 7155TIP3    H121422   7.563   5.277   2.318  0.2295 -1.1662 -0.0318
 7155TIP3    H221423   7.539   5.319   2.174  0.5460 -1.1917 -0.0916
 7156TIP3   OH221424   3.258   7.138   0.600 -0.2920 -0.4663  0.4695
 7156TIP3    H121425   3.287   7.185   0.522 -1.2959  1.0632  0.9832
 7156TIP3    H221426   3.222   7.056   0.566  3.5562 -2.0762 -0.2841
 7157TIP3   OH221427   4.383   5.958   6.597 -0.3998 -0.3115  0.3222
 7157TIP3    H121428   4.292   5.936   6.580  0.3349 -3.0638 -0.4530
 7157TIP3    H221429   4.434   5.888   6.556  2.1634  1.8152 -0.4632
 7158TIP3   OH221430   6.860   6.410   0.233 -0.4124  0.7116  0.4117
 7158TIP3    H121431   6.893   6.424   0.322  1.1326 -1.4174  0.2464
 7158TIP3    H221432   6.816   6.325   0.237 -0.1666  0.5036 -0.8917
 7159TIP3   OH221433   5.666   5.891   5.138 -0.5744  0.2630 -0.9460
 7159TIP3    H121434   5.654   5.966   5.197 -2.0033 -1.2890  0.8872
 7159TIP3    H221435   5.741   5.844   5.174  0.0099  0.5319 -1.7925
 7160TIP3   OH221436   2.086   3.706   4.273  0.1223 -0.2524  0.1241
 7160TIP3    H121437   1.991   3.715   4.281  0.0172 -0.6743 -0.5910
 7160TIP3    H221438   2.116   3.792   4.244  0.0882  0.1955  1.3736
 7161TIP3   OH221439   4.533   4.230   1.875 -0.0470 -0.0031  0.0962
 7161TIP3    H121440   4.450   4.184   1.876 -0.2320  0.3252  0.8995
 7161TIP3    H221441   4.585   4.185   1.809 -1.5988  1.1208 -2.0047
 7162TIP3   OH221442   7.594   7.084   4.805  0.3346  0.2621 -0.4354
 7162TIP3    H121443   7.601   7.151   4.737 -0.2193  0.4364 -0.3312
 7162TIP3    H221444   7.605   7.132   4.888  0.7901  0.0861 -0.3932
 7163TIP3   OH221445   3.853   6.939   4.257 -0.1624 -0.4380  0.2572
 7163TIP3    H121446   3.759   6.939   4.237 -0.1403 -0.3144  0.1496
 7163TIP3    H221447   3.858   6.914   4.349 -0.1634 -2.6405 -0.2854
 7164TIP3   OH221448   6.814   7.180   5.419 -0.5079 -0.0846  0.0613
 7164TIP3    H121449   6.885   7.214   5.365 -1.0519 -0.1640 -0.7299
 7164TIP3    H221450   6.742   7.243   5.407 -1.1422 -0.8920 -0.5262
 7165TIP3   OH221451   4.515   1.458   5.822 -0.0453  0.3081  0.0044
 7165TIP3    H121452   4.446   1.521   5.804 -1.6811 -1.6784 -1.2294
 7165TIP3    H221453   4.490   1.417   5.905  0.0911  0.1723 -0.0195
 7166TIP3   OH221454   5.652   2.123   5.850 -1.3320  0.0353  0.2500
 7166TIP3    H121455   5.693   2.039   5.831  0.7597  1.4006 -1.7067
 7166TIP3    H221456   5.559   2.109   5.832 -0.9640 -1.7175 -0.4697
 7167TIP3   OH221457   1.309   1.103   3.648  0.6770 -0.3991 -0.3652
 7167TIP3    H121458   1.283   1.024   3.602  0.7978  0.1026 -1.3261
 7167TIP3    H221459   1.314   1.170   3.580 -2.4588  1.2316  0.8046
 7168TIP3   OH221460   0.914   5.872   5.989 -0.0983 -0.2806 -0.5642
 7168TIP3    H121461   0.878   5.948   5.944 -0.1654 -1.3736 -2.4713
 7168TIP3    H221462   0.839   5.835   6.036 -0.3043  0.2172 -0.4882
 7169TIP3   OH221463   1.559   4.482   5.433  0.3972 -0.2052 -0.5001
 7169TIP3    H121464   1.588   4.442   5.515  0.4283  1.1367  0.1634
 7169TIP3    H221465   1.470   4.448   5.420  1.2571 -2.3777 -1.2489
 7170TIP3   OH221466   6.669   1.403   3.053 -0.1462 -0.1719 -0.6176
 7170TIP3    H121467   6.602   1.451   3.103  2.3016  4.0242 -0.9766
 7170TIP3    H221468   6.646   1.417   2.962 -0.4266 -1.4178 -0.7607
 7171TIP3   OH221469   0.957   7.084   4.790  0.1441  0.4326  0.3626
 7171TIP3    H121470   1.038   7.033   4.788 -0.1618 -0.0421 -0.4515
 7171TIP3    H221471   0.981   7.168   4.752  0.5154  0.7009  1.1718
 7172TIP3   OH221472   7.821   4.233   0.104  0.0133  0.3864 -0.2983
 7172TIP3    H121473   7.836   4.210   0.013  2.2515  2.4051 -0.5382
 7172TIP3    H221474   7.733   4.270   0.106 -1.7284 -3.2953 -0.7631
 7173TIP3   OH221475   7.164   7.045   6.438  0.4126 -0.3249 -0.5885
 7173TIP3    H121476   7.117   7.097   6.503 -0.3013 -2.3609  0.6233
 7173TIP3    H221477   7.252   7.084   6.434  0.5588 -0.2616  1.8088
 7174TIP3   OH221478   3.793   3.663   1.247 -0.4040  0.3378 -0.3874
 7174TIP3    H121479   3.815   3.636   1.157  0.6276 -2.0537  0.4967
 7174TIP3    H221480   3.726   3.600   1.274 -1.7162  1.8826  0.1123
 7175TIP3   OH221481   1.956   3.009   0.607  0.6088  0.2008 -0.4109
 7175TIP3    H121482   1.887   3.074   0.599 -0.2251 -0.6708 -0.5404
 7175TIP3    H221483   1.977   2.986   0.516  2.8663  2.2436 -0.5051
 7176TIP3   OH221484   7.868   4.854   3.366 -0.1940  0.5988  0.3379
 7176TIP3    H121485   7.934   4.924   3.370  0.3808  0.1040 -0.1112
 7176TIP3    H221486   7.840   4.842   3.456 -0.0360  1.1672  0.4678
 7177TIP3   OH221487   5.553   0.556   5.280 -0.1258 -0.4193  0.0428
 7177TIP3    H121488   5.605   0.528   5.204  1.2020  1.4805  0.1768
 7177TIP3    H221489   5.618   0.584   5.344 -1.2925  0.1220  1.0180
 7178TIP3   OH221490   2.236   6.679   5.932  0.1138  0.6143  0.0678
 7178TIP3    H121491   2.206   6.737   5.862 -0.5839 -2.4638 -2.4427
 7178TIP3    H221492   2.156   6.635   5.962  0.9552 -1.9313 -1.0820
 7179TIP3   OH221493   0.276   4.642   5.941 -0.3272  0.2138 -0.2181
 7179TIP3    H121494   0.220   4.674   5.871  0.2958  1.8527 -0.0175
 7179TIP3    H221495   0.363   4.675   5.920 -0.0057  0.1974  0.9803
 7180TIP3   OH221496   3.250   2.080   5.502  0.5872  0.1280 -0.3278
 7180TIP3    H121497   3.279   2.003   5.453 -0.5656 -0.7615  0.3227
 7180TIP3    H221498   3.160   2.059   5.527 -0.3882  2.4573 -1.6351
 7181TIP3   OH221499   3.237   3.611   4.956  0.4756  0.0703 -0.2144
 7181TIP3    H121500   3.255   3.526   4.915  1.1828  0.4731 -0.7554
 7181TIP3    H221501   3.229   3.590   5.050  0.0824 -0.6700 -0.4041
 7182TIP3   OH221502   4.977   3.072   3.655  0.4194  0.2505  0.0321
 7182TIP3    H121503   5.019   2.995   3.692  0.3672  0.3304  0.2606
 7182TIP3    H221504   4.925   3.108   3.728  0.5550  0.5779 -0.0342
 7183TIP3   OH221505   1.630   2.988   4.282  0.2322  0.1674  0.1842
 7183TIP3    H121506   1.647   2.991   4.376 -1.0002 -1.0262  0.4813
 7183TIP3    H221507   1.673   2.907   4.253  0.2967  0.3410 -0.2095
 7184TIP3   OH221508   3.216   0.949   3.380  0.2056  0.4304  0.3582
 7184TIP3    H121509   3.129   0.978   3.354  0.8668  0.4832 -2.1279
 7184TIP3    H221510   3.206   0.858   3.405 -0.2709 -0.3381 -2.3041
 7185TIP3   OH221511   6.356   5.451   4.366 -0.2432 -0.1293 -0.6921
 7185TIP3    H121512   6.376   5.387   4.434  0.5458  0.9308  0.1058
 7185TIP3    H221513   6.441   5.485   4.338 -0.6356  0.6046 -1.0401
 7186TIP3   OH221514   1.048   4.748   0.942  0.0042  0.4985 -0.0852
 7186TIP3    H121515   1.004   4.699   1.012  0.6644 -1.3420 -0.8841
 7186TIP3    H221516   1.028   4.840   0.960  0.7791  0.1657  2.9399
 7187TIP3   OH221517   6.787   6.966   5.741  0.2018 -0.2225  0.1103
 7187TIP3    H121518   6.773   6.897   5.806  1.6312 -1.9873 -1.3402
 7187TIP3    H221519   6.699   6.989   5.711 -0.2964 -1.7236  0.3265
 7188TIP3   OH221520   5.081   7.138   1.482  0.1748 -0.4472  0.2407
 7188TIP3    H121521   5.077   7.212   1.544 -0.6066 -0.1404 -0.1581
 7188TIP3    H221522   5.174   7.124   1.468  0.3656 -0.4200  1.3666
 7189TIP3   OH221523   6.694   6.792   5.932  0.0255  0.0924 -0.2868
 7189TIP3    H121524   6.660   6.813   6.019  2.8860  1.9687  0.5260
 7189TIP3    H221525   6.670   6.700   5.919  0.8226 -0.7550  3.2099
 7190TIP3   OH221526   8.208   1.526   6.748 -0.0409  0.2125  0.5935
 7190TIP3    H121527   8.298   1.522   6.714 -0.1639 -0.7897  0.3637
 7190TIP3    H221528   8.191   1.439   6.783 -1.5093 -0.1790 -0.9179
 7191TIP3   OH221529   5.288   6.473   1.571 -0.3681  0.0210 -0.2270
 7191TIP3    H121530   5.273   6.560   1.607 -2.7474 -1.1351  1.8653
 7191TIP3    H221531   5.236   6.470   1.491 -2.5311 -0.2881  1.1267
 7192TIP3   OH221532   1.980   2.700   6.244 -0.3992 -0.3124 -0.1129
 7192TIP3    H121533   2.067   2.714   6.206  0.0339  0.1331  1.0054
 7192TIP3    H221534   1.920   2.718   6.172  0.4090  0.0680 -0.7158
 7193TIP3   OH221535   6.572   2.438   1.451  0.0691  0.0670 -0.3444
 7193TIP3    H121536   6.478   2.450   1.461  0.1383  0.2456  0.0717
 7193TIP3    H221537   6.611   2.516   1.488  0.3654  0.2466 -1.0143
 7194TIP3   OH221538   5.979   4.509   5.884  0.7195 -0.1200 -0.5589
 7194TIP3    H121539   6.069   4.542   5.884  1.0018 -0.8009 -1.8794
 7194TIP3    H221540   5.974   4.451   5.960  0.9929  0.9200  0.2711
 7195TIP3   OH221541   2.446   2.321   3.522 -0.5606  0.1028 -0.2694
 7195TIP3    H121542   2.424   2.407   3.559 -1.9375  0.0930 -0.9764
 7195TIP3    H221543   2.368   2.296   3.473  0.8184 -0.3016 -2.3916
 7196TIP3   OH221544   6.355   7.430   3.177  0.2821 -0.5645  0.0997
 7196TIP3    H121545   6.317   7.349   3.142  0.9860 -0.4624 -0.9204
 7196TIP3    H221546   6.446   7.408   3.197  0.6410  0.1334 -0.7430
 7197TIP3   OH221547   7.772   0.726   5.654  0.1146 -0.0558  0.6801
 7197TIP3    H121548   7.796   0.634   5.664  0.4289  0.1026  1.5198
 7197TIP3    H221549   7.707   0.727   5.584 -0.0322 -0.9376  0.7954
 7198TIP3   OH221550   7.546   7.059   3.809 -0.7409 -0.1538  0.5499
 7198TIP3    H121551   7.613   7.115   3.770  0.5464 -1.2076  1.1602
 7198TIP3    H221552   7.463   7.091   3.772  0.1291  0.8528 -0.6172
 7199TIP3   OH221553   4.466   3.930   3.492  0.0621  0.0914  0.4606
 7199TIP3    H121554   4.537   3.972   3.443 -0.1438 -0.1135 -0.0174
 7199TIP3    H221555   4.499   3.924   3.581  1.0597 -0.9288  0.0383
 7200TIP3   OH221556   3.985   5.186   2.548 -0.2061 -0.5441  0.1791
 7200TIP3    H121557   3.986   5.106   2.496 -1.5770 -2.0327  2.2703
 7200TIP3    H221558   4.056   5.174   2.612 -0.4634 -0.1281  0.5505
 7201TIP3   OH221559   4.219   6.207   5.712  0.0779  0.0867  0.7316
 7201TIP3    H121560   4.152   6.174   5.653 -0.1616  2.3231 -0.3747
 7201TIP3    H221561   4.284   6.137   5.717 -0.9393 -0.9873 -0.4849
 7202TIP3   OH221562   8.220   0.230   6.628 -0.3943  0.2301 -0.6989
 7202TIP3    H121563   8.166   0.309   6.620 -0.9736  0.0306  0.9035
 7202TIP3    H221564   8.284   0.251   6.695 -1.1554 -0.9486  0.4435
 7203TIP3   OH221565   7.412   2.177   4.825  0.0226 -0.2389 -0.2277
 7203TIP3    H121566   7.494   2.164   4.778 -0.2824 -0.1036 -0.8051
 7203TIP3    H221567   7.434   2.237   4.896  0.2142  0.6122 -0.9810
 7204TIP3   OH221568   3.012   4.168   2.427 -0.6042  0.1964  0.5760
 7204TIP3    H121569   3.005   4.118   2.508 -1.4342  1.5057  1.3637
 7204TIP3    H221570   3.106   4.178   2.413 -0.4440 -0.9220  0.8084
 7205TIP3   OH221571   3.783   5.122   4.349 -0.2588  0.2441 -0.1749
 7205TIP3    H121572   3.713   5.057   4.353 -0.4449  0.3023 -1.8352
 7205TIP3    H221573   3.751   5.195   4.402 -0.1791 -0.8684  1.4513
 7206TIP3   OH221574   3.377   4.101   4.859  0.4625 -0.1716 -0.0175
 7206TIP3    H121575   3.292   4.140   4.874  0.2834 -0.3227 -0.6090
 7206TIP3    H221576   3.438   4.175   4.856  0.4114 -0.0900  0.7443
 7207TIP3   OH221577   3.425   1.376   5.880  0.0151 -0.8590  0.3606
 7207TIP3    H121578   3.393   1.287   5.896 -1.2260 -0.3936  0.5567
 7207TIP3    H221579   3.355   1.433   5.912  0.4817  0.1843 -0.4087
 7208TIP3   OH221580   7.660   1.472   6.446  0.6995 -0.1153 -0.3268
 7208TIP3    H121581   7.620   1.533   6.507  1.5251  0.8271 -0.6991
 7208TIP3    H221582   7.616   1.490   6.362 -0.5669 -1.5339 -0.0222
 7209TIP3   OH221583   3.201   6.436   0.459 -0.1737  0.2841 -0.2589
 7209TIP3    H121584   3.207   6.395   0.545 -0.6080 -0.6030 -0.6391
 7209TIP3    H221585   3.290   6.466   0.441 -0.0615  0.4103  0.4552
 7210TIP3   OH221586   2.392   3.993   4.270 -0.2776 -0.4134 -0.2372
 7210TIP3    H121587   2.460   3.934   4.238  0.0516  0.0643 -0.4249
 7210TIP3    H221588   2.428   4.081   4.257 -1.2871 -0.1219 -1.1654
 7211TIP3   OH221589   6.380   6.856   1.894 -0.0834  0.2241  0.2021
 7211TIP3    H121590   6.458   6.910   1.885  0.1566 -0.0036  0.8682
 7211TIP3    H221591   6.309   6.912   1.863  0.6926 -0.6838 -3.6465
 7212TIP3   OH221592   2.219   1.230   5.356  0.1662 -0.6321 -0.6391
 7212TIP3    H121593   2.218   1.134   5.348 -1.0828 -0.9325  2.1008
 7212TIP3    H221594   2.130   1.252   5.384  0.0248  1.5345 -2.5585
 7213TIP3   OH221595   3.014   0.742   0.986  0.4266 -0.0921  0.3983
 7213TIP3    H121596   3.058   0.695   1.057  1.8395  0.1865 -0.2596
 7213TIP3    H221597   3.013   0.680   0.913  0.9829  0.3632 -0.0113
 7214TIP3   OH221598   4.030   4.098   4.842  0.0315 -0.5631  0.1098
 7214TIP3    H121599   4.035   4.006   4.870 -0.4263 -0.4589  0.5708
 7214TIP3    H221600   4.110   4.113   4.793 -0.7900 -1.7890 -1.7277
 7215TIP3   OH221601   4.377   4.516   2.376  0.4661 -0.2003  0.0059
 7215TIP3    H121602   4.455   4.572   2.377 -0.1570  0.6797  0.9651
 7215TIP3    H221603   4.345   4.521   2.286  1.0886  0.0289 -0.2116
 7216TIP3   OH221604   3.900   1.216   0.484  0.4828  0.4082 -0.3672
 7216TIP3    H121605   3.861   1.285   0.430  0.0061  0.3959 -0.0444
 7216TIP3    H221606   3.939   1.263   0.558 -0.2622  0.3085  0.1068
 7217TIP3   OH221607   3.633   4.099   0.096 -0.3500 -0.2260  0.1413
 7217TIP3    H121608   3.644   4.056   0.011 -0.0088  0.0023  0.0667
 7217TIP3    H221609   3.633   4.193   0.076  1.3409 -0.1021  0.5405
 7218TIP3   OH221610   2.367   7.160   4.951 -0.0272  0.2437  0.6803
 7218TIP3    H121611   2.361   7.188   5.043  1.5591  0.6967  0.6718
 7218TIP3    H221612   2.348   7.066   4.954 -2.7850  0.7498  1.0613
 7219TIP3   OH221613   5.477   5.343   0.235  0.5895 -0.7793  0.0229
 7219TIP3    H121614   5.450   5.401   0.306 -0.3865 -2.5764  1.2062
 7219TIP3    H221615   5.423   5.265   0.246  3.3513 -2.8636 -0.0731
 7220TIP3   OH221616   1.534   7.585   5.306  0.1799  0.0673  0.1688
 7220TIP3    H121617   1.586   7.565   5.384  0.3362 -0.9506 -0.1832
 7220TIP3    H221618   1.443   7.573   5.334  0.2938 -2.3058 -0.3092
 7221TIP3   OH221619   1.037   0.271   4.098 -0.2570 -0.2086  0.3851
 7221TIP3    H121620   0.982   0.236   4.168  0.8137 -0.6298  1.0380
 7221TIP3    H221621   1.039   0.366   4.115 -1.7600 -0.0178 -0.3739
 7222TIP3   OH221622   5.711   7.491   4.743  0.1736  0.0107 -0.0162
 7222TIP3    H121623   5.789   7.477   4.798 -0.0668 -3.4897 -0.3679
 7222TIP3    H221624   5.639   7.498   4.805  0.2196 -1.4481  0.2283
 7223TIP3   OH221625   7.990   0.900   4.698 -0.4190 -0.1197 -0.7091
 7223TIP3    H121626   7.961   0.826   4.644 -1.6427 -0.0837 -0.1485
 7223TIP3    H221627   7.914   0.921   4.752  0.9205 -0.5649  1.4844
 7224TIP3   OH221628   2.671   5.616   5.793  0.1031  0.6324 -0.3010
 7224TIP3    H121629   2.652   5.693   5.845  0.3744  0.8807 -0.5659
 7224TIP3    H221630   2.762   5.627   5.765  0.8194 -0.7254  1.2951
 7225TIP3   OH221631   2.402   4.448   2.297  0.1929  0.2173  0.2038
 7225TIP3    H121632   2.347   4.526   2.294  0.2358  0.2163 -0.8975
 7225TIP3    H221633   2.382   4.401   2.216  0.8721 -0.4308  0.4020
 7226TIP3   OH221634   2.362   4.663   1.242 -0.2519  0.6998 -0.1715
 7226TIP3    H121635   2.267   4.662   1.250 -0.3589  1.3063 -1.1313
 7226TIP3    H221636   2.381   4.602   1.171  0.0709  0.6446 -0.0403
 7227TIP3   OH221637   2.416   2.743   0.302 -0.1629 -0.1565 -0.1999
 7227TIP3    H121638   2.393   2.744   0.395 -0.2189 -1.1270 -0.1929
 7227TIP3    H221639   2.427   2.835   0.279  0.5435  0.0645  0.9435
 7228TIP3   OH221640   7.453   5.418   6.703 -0.0221 -0.1448  0.1604
 7228TIP3    H121641   7.393   5.345   6.699  0.9488 -0.9459 -0.2404
 7228TIP3    H221642   7.429   5.473   6.628 -1.1381  0.2851  0.8081
 7229TIP3   OH221643   5.649   1.188   5.576 -0.3155 -0.6590 -0.4537
 7229TIP3    H121644   5.611   1.182   5.488  0.2932  1.7908 -0.9453
 7229TIP3    H221645   5.743   1.181   5.562 -0.2363 -0.6503  0.0610
 7230TIP3   OH221646   1.358   1.433   1.708  0.0652 -0.0130 -0.4148
 7230TIP3    H121647   1.332   1.357   1.760 -0.8929  0.4531 -0.1911
 7230TIP3    H221648   1.374   1.502   1.773 -0.4371  0.3692 -0.6902
 7231TIP3   OH221649   4.768   3.205   0.078 -0.0681 -0.0960 -0.0087
 7231TIP3    H121650   4.783   3.216  -0.016  0.3857  2.3637  0.2930
 7231TIP3    H221651   4.676   3.227   0.090 -0.2607 -0.9217  0.0695
 7232TIP3   OH221652   1.348   0.449   0.228 -0.4444 -0.3397 -0.4277
 7232TIP3    H121653   1.261   0.465   0.191  0.2930  2.3185 -1.1839
 7232TIP3    H221654   1.334   0.452   0.323 -1.2303 -0.4080 -0.5317
 7233TIP3   OH221655   5.266   3.310   6.661  0.1169  0.7558  0.6562
 7233TIP3    H121656   5.185   3.287   6.617  1.4197  0.9990 -2.0859
 7233TIP3    H221657   5.301   3.226   6.692  1.3489 -0.2215 -2.9353
 7234TIP3   OH221658   5.450   1.062   6.358 -0.2981 -0.2525 -0.9636
 7234TIP3    H121659   5.492   1.014   6.287 -0.0846 -2.5161  0.6017
 7234TIP3    H221660   5.365   1.019   6.368 -0.5836  0.4622 -0.2339
 7235TIP3   OH221661   1.193   2.821   0.775  0.0413  0.4787 -0.1245
 7235TIP3    H121662   1.170   2.847   0.864  1.7291 -0.1320  0.5339
 7235TIP3    H221663   1.124   2.759   0.749 -0.6255  0.8964  0.6277
 7236TIP3   OH221664   0.741   2.451   5.994  0.1020 -0.1706 -0.0279
 7236TIP3    H121665   0.799   2.375   5.991 -0.3032 -0.5745  1.6553
 7236TIP3    H221666   0.756   2.495   5.910  2.0721 -0.8187 -0.0779
 7237TIP3   OH221667   6.782   4.469   3.053  0.0790 -0.4168  0.5283
 7237TIP3    H121668   6.794   4.528   3.127  4.0432 -0.7705  0.3817
 7237TIP3    H221669   6.718   4.405   3.083 -0.6714  1.1521  2.4851
 7238TIP3   OH221670   5.459   4.870   4.843  0.0092  0.2309  0.1694
 7238TIP3    H121671   5.530   4.932   4.824  0.2688  0.5579  1.9788
 7238TIP3    H221672   5.440   4.884   4.936 -0.9376 -1.3896  0.2524
 7239TIP3   OH221673   4.767   0.722   4.144 -0.4155 -0.3387  0.4799
 7239TIP3    H121674   4.795   0.812   4.163  1.6204 -0.6497 -0.6807
 7239TIP3    H221675   4.780   0.713   4.049 -2.1212 -1.3918  0.3098
 7240TIP3   OH221676   3.132   4.251   4.790  0.2561  0.7395  0.2965
 7240TIP3    H121677   3.043   4.241   4.756  0.4269  0.9896 -0.2290
 7240TIP3    H221678   3.123   4.312   4.864  0.1259  1.5180 -0.3461
 7241TIP3   OH221679   3.163   1.929   6.055 -0.0860  0.5959 -0.1218
 7241TIP3    H121680   3.200   1.921   6.142  0.2200 -2.0013 -0.4141
 7241TIP3    H221681   3.087   1.986   6.066  0.8040  1.5111  1.5310
 7242TIP3   OH221682   4.008   6.499   0.720 -0.2034 -0.4499  0.4783
 7242TIP3    H121683   4.090   6.485   0.766  0.2695  0.0017 -0.1967
 7242TIP3    H221684   4.003   6.594   0.708 -1.5733 -0.3187  1.8304
 7243TIP3   OH221685   1.280   4.234   0.669 -0.5876 -0.3667 -0.0128
 7243TIP3    H121686   1.222   4.301   0.704 -1.0961  0.0305 -1.5669
 7243TIP3    H221687   1.287   4.254   0.576  0.7988 -1.3376 -0.1438
 7244TIP3   OH221688   4.534   4.411   0.364  0.0213 -0.6114 -0.2746
 7244TIP3    H121689   4.457   4.456   0.330  0.3621  0.9542  0.9076
 7244TIP3    H221690   4.504   4.373   0.447 -0.1765 -2.3499 -1.1102
 7245TIP3   OH221691   3.059   3.157   1.468  0.1496 -0.0143 -0.6096
 7245TIP3    H121692   3.033   3.089   1.407  2.2593 -1.4021 -0.0872
 7245TIP3    H221693   3.092   3.228   1.413 -1.2569  0.2635 -1.1335
 7246TIP3   OH221694   7.789   7.656   5.904  0.4939  0.0780 -0.1544
 7246TIP3    H121695   7.831   7.583   5.860  1.2727 -0.0807  0.8064
 7246TIP3    H221696   7.697   7.650   5.878  1.2257  1.2929 -3.4713
 7247TIP3   OH221697   1.153   0.861   1.293  0.4245 -0.2630 -0.0719
 7247TIP3    H121698   1.095   0.818   1.230  0.3554  0.3021 -0.4023
 7247TIP3    H221699   1.212   0.913   1.238  0.3319  0.2723  0.3404
 7248TIP3   OH221700   7.214   7.724   3.001  0.0027  0.2716  0.2810
 7248TIP3    H121701   7.286   7.689   3.054 -0.7229 -1.2998  0.2954
 7248TIP3    H221702   7.138   7.674   3.030 -0.4939 -0.3593 -1.9706
 7249TIP3   OH221703   8.235   6.584   4.092 -0.0718 -0.4056 -0.0790
 7249TIP3    H121704   8.314   6.555   4.046 -1.1389 -0.5143 -1.9279
 7249TIP3    H221705   8.257   6.671   4.125  0.5669 -0.0735 -1.3118
 7250TIP3   OH221706   1.028   5.625   0.889  0.3527  0.1613  0.2728
 7250TIP3    H121707   1.031   5.653   0.798 -0.6335 -1.1723 -0.1913
 7250TIP3    H221708   1.030   5.530   0.886  0.9728  0.0933  1.6910
 7251TIP3   OH221709   2.821   2.566   1.212 -0.0536 -0.2889  0.0023
 7251TIP3    H121710   2.820   2.585   1.118  0.0351 -4.0095 -0.9359
 7251TIP3    H221711   2.907   2.595   1.241  0.3928 -0.1256 -1.3875
 7252TIP3   OH221712   0.083   0.607   1.403 -0.2839 -0.0409  0.7094
 7252TIP3    H121713   0.041   0.569   1.480 -0.7179  0.6676  0.8276
 7252TIP3    H221714   0.174   0.621   1.429 -0.4118  0.1242  1.0669
 7253TIP3   OH221715   3.941   4.794   6.517  0.1188  0.0802 -0.2820
 7253TIP3    H121716   4.002   4.747   6.461  0.6250  0.2459  0.1179
 7253TIP3    H221717   3.996   4.829   6.588 -0.2424  1.3091 -0.5937
 7254TIP3   OH221718   3.162   0.874   1.870 -0.5204  0.0414  0.5463
 7254TIP3    H121719   3.185   0.965   1.852  0.3218 -0.3971 -0.6982
 7254TIP3    H221720   3.127   0.841   1.787  0.2008 -1.0757  0.6771
 7255TIP3   OH221721   1.649   3.811   0.426 -0.6799  0.6133  0.0093
 7255TIP3    H121722   1.723   3.791   0.370 -1.9843 -2.5778 -0.7690
 7255TIP3    H221723   1.573   3.806   0.368 -1.7822  0.6529  1.4033
 7256TIP3   OH221724   3.603   5.339   6.014  0.2600  0.7869 -0.2466
 7256TIP3    H121725   3.603   5.424   6.056  0.1939 -0.1551  1.7588
 7256TIP3    H221726   3.687   5.300   6.037  0.4362  0.4252 -1.4214
 7257TIP3   OH221727   6.130   2.186   3.318 -0.3085 -0.2818  0.1952
 7257TIP3    H121728   6.063   2.254   3.310 -1.0250 -1.1318 -1.5347
 7257TIP3    H221729   6.137   2.149   3.230  0.7226 -1.8455  0.8945
 7258TIP3   OH221730   0.558   4.792   1.989 -0.1030 -0.1489 -0.6745
 7258TIP3    H121731   0.641   4.837   2.006 -0.6795  0.8314 -0.3262
 7258TIP3    H221732   0.565   4.709   2.037 -0.2476  0.9699  1.4235
 7259TIP3   OH221733   5.894   4.901   6.568  0.0193 -0.1783  0.7173
 7259TIP3    H121734   5.858   4.945   6.491  1.0295 -0.8938 -0.1987
 7259TIP3    H221735   5.908   4.810   6.539  1.8096 -0.1038  1.2421
 7260TIP3   OH221736   1.861   0.011   1.880  0.2220 -0.5754 -0.3890
 7260TIP3    H121737   1.880   0.047   1.794 -0.6600  0.1793 -0.2773
 7260TIP3    H221738   1.891   0.077   1.942  2.5997 -1.8974 -0.0028
 7261TIP3   OH221739   7.064   4.324   0.332  0.2467  0.2705 -0.0938
 7261TIP3    H121740   7.049   4.410   0.370 -0.2820 -0.5782  1.7467
 7261TIP3    H221741   7.120   4.340   0.257  1.1242  2.0960  0.8881
 7262TIP3   OH221742   2.316   1.196   1.501  0.0779 -0.2398  0.4371
 7262TIP3    H121743   2.239   1.189   1.557  0.0159 -1.5747  0.2348
 7262TIP3    H221744   2.345   1.105   1.490  0.5046  0.0635 -1.1096
 7263TIP3   OH221745   3.951   6.607   1.747 -0.0835  0.3566  0.0700
 7263TIP3    H121746   4.046   6.605   1.761 -0.3529 -1.1780  2.1677
 7263TIP3    H221747   3.920   6.671   1.811 -0.5822 -0.2758  0.4692
 7264TIP3   OH221748   3.722   7.359   4.673 -0.4152 -0.1849  0.1167
 7264TIP3    H121749   3.769   7.438   4.645 -2.8902  1.1475 -0.6028
 7264TIP3    H221750   3.711   7.370   4.767 -0.7738  0.3653  0.0153
 7265TIP3   OH221751   1.743   0.059   3.618  0.4049  0.1758 -0.1185
 7265TIP3    H121752   1.760  -0.031   3.644  0.5216  0.3936  0.5837
 7265TIP3    H221753   1.659   0.080   3.659 -0.8533 -0.3682 -2.2243
 7266TIP3   OH221754   4.344   7.696   0.957 -0.2333  0.1412  0.3309
 7266TIP3    H121755   4.424   7.684   0.906  0.7356 -1.4111  2.0960
 7266TIP3    H221756   4.279   7.642   0.912  0.7389 -1.6173  0.9344
 7267TIP3   OH221757   4.527   5.943   2.863  0.1067  0.0005 -0.0114
 7267TIP3    H121758   4.548   5.852   2.840  0.2249  0.2061 -0.7386
 7267TIP3    H221759   4.612   5.986   2.871  0.0335  0.1831 -0.2220
 7268TIP3   OH221760   1.376   2.288   0.062  0.0223  0.1466  0.5415
 7268TIP3    H121761   1.340   2.301  -0.026 -0.9803 -1.3106  0.7028
 7268TIP3    H221762   1.419   2.371   0.083 -1.3659  1.1855 -0.5493
 7269TIP3   OH221763   4.122   5.915   0.282 -0.1560 -0.0747  0.4681
 7269TIP3    H121764   4.068   5.866   0.220 -0.9384 -0.3038  1.3073
 7269TIP3    H221765   4.059   5.954   0.343  0.5972 -0.0337  1.2403
 7270TIP3   OH221766   6.314   6.216   6.570  0.6070 -0.5770 -0.0736
 7270TIP3    H121767   6.398   6.175   6.550  1.2622  0.2537  0.8666
 7270TIP3    H221768   6.315   6.227   6.665  0.1471  0.9188 -0.2166
 7271TIP3   OH221769   7.938   0.662   4.241  0.1665  0.0055 -0.7298
 7271TIP3    H121770   7.973   0.643   4.328 -1.1907  0.2604 -0.1062
 7271TIP3    H221771   7.961   0.753   4.225 -0.8346  0.4105  0.0139
 7272TIP3   OH221772   7.067   4.475   3.345 -0.4178 -1.2000 -0.6395
 7272TIP3    H121773   7.080   4.532   3.269 -1.2469  0.0421  0.1015
 7272TIP3    H221774   7.060   4.387   3.308 -0.0513 -0.7159 -1.9237
 7273TIP3   OH221775   4.166   2.998   1.260  0.3418 -0.3973 -0.0449
 7273TIP3    H121776   4.080   3.037   1.276  0.1636 -0.5253 -0.6710
 7273TIP3    H221777   4.228   3.068   1.281  0.1482 -0.6641  1.5464
 7274TIP3   OH221778   6.573   5.481   5.842 -0.2842  0.0509 -0.5944
 7274TIP3    H121779   6.631   5.412   5.809 -0.0286  0.2754 -0.6192
 7274TIP3    H221780   6.563   5.541   5.768 -2.3186 -1.1020 -1.3285
 7275TIP3   OH221781   1.840   5.114   0.169 -0.5422 -0.0401  0.1480
 7275TIP3    H121782   1.824   5.206   0.190  2.1571  1.3280 -2.9423
 7275TIP3    H221783   1.918   5.091   0.218 -0.9459 -0.5427  0.5577
 7276TIP3   OH221784   1.782   1.913   5.397  0.4329  0.1428  0.4884
 7276TIP3    H121785   1.854   1.922   5.334  0.6279 -0.7786  0.5685
 7276TIP3    H221786   1.762   1.819   5.398 -0.3742  0.3070  0.9118
 7277TIP3   OH221787   3.435   1.385   4.446 -0.0163  0.5385  0.1504
 7277TIP3    H121788   3.505   1.321   4.433  0.0246  0.3648  1.1815
 7277TIP3    H221789   3.361   1.349   4.396 -0.1605 -0.5971  1.1268
 7278TIP3   OH221790   3.487   0.617   3.426 -0.0880  0.3858  0.0345
 7278TIP3    H121791   3.466   0.619   3.333 -0.8005 -1.9301  0.0783
 7278TIP3    H221792   3.530   0.533   3.440  0.2528  0.7945  1.7497
 7279TIP3   OH221793   4.328   1.655   5.860  0.1442 -0.4148  0.5085
 7279TIP3    H121794   4.286   1.618   5.938 -0.9740 -1.8360 -0.7200
 7279TIP3    H221795   4.262   1.648   5.791  0.5874  2.1093 -0.2879
 7280TIP3   OH221796   5.851   0.827   1.336 -0.8075 -0.0716  0.3685
 7280TIP3    H121797   5.768   0.782   1.322 -0.5140  0.1717 -2.9140
 7280TIP3    H221798   5.833   0.918   1.315  0.0344  0.2056  0.8023
 7281TIP3   OH221799   2.257   7.456   2.963  0.4029  0.0843 -0.6681
 7281TIP3    H121800   2.225   7.366   2.953 -0.4170  0.3460 -0.4956
 7281TIP3    H221801   2.339   7.458   2.914 -0.3405 -0.3592 -1.9879
 7282TIP3   OH221802   4.520   2.276   0.097  0.4589  0.1108 -0.1389
 7282TIP3    H121803   4.490   2.340   0.033  0.3636  2.9547  2.4815
 7282TIP3    H221804   4.485   2.308   0.180  2.1799 -2.2324  1.6297
 7283TIP3   OH221805   2.863   5.646   5.464 -0.0968 -0.3430  0.2640
 7283TIP3    H121806   2.849   5.570   5.407 -0.0028 -0.4170  0.3385
 7283TIP3    H221807   2.845   5.614   5.552 -0.3211 -0.2065  0.2681
 7284TIP3   OH221808   1.770   5.929   1.689 -0.4201 -0.0991  0.1201
 7284TIP3    H121809   1.804   5.943   1.601 -0.2656  0.9408  0.3367
 7284TIP3    H221810   1.699   5.992   1.698  0.8546  1.2659  1.4223
 7285TIP3   OH221811   5.287   4.352   6.054  0.0979 -0.0489  0.1542
 7285TIP3    H121812   5.334   4.423   6.010  1.9351 -1.7366 -0.7344
 7285TIP3    H221813   5.198   4.357   6.018  1.0365 -0.1748 -2.3697
 7286TIP3   OH221814   7.240   7.527   4.933 -0.0823  0.2465 -0.6232
 7286TIP3    H121815   7.278   7.595   4.876  1.7123 -0.6004 -0.5154
 7286TIP3    H221816   7.314   7.469   4.953 -1.3457 -1.1577  0.1386
 7287TIP3   OH221817   2.964   3.072   3.352 -0.5556  0.3135  0.2019
 7287TIP3    H121818   2.875   3.062   3.386 -0.1292 -1.3799  0.9445
 7287TIP3    H221819   3.019   3.080   3.429 -0.1255  2.4166 -0.2763
 7288TIP3   OH221820   6.399   4.594   1.395 -0.8276 -0.0452  0.0666
 7288TIP3    H121821   6.439   4.568   1.478 -0.9712 -0.2801  0.0632
 7288TIP3    H221822   6.472   4.608   1.336 -0.7194  0.2087  0.2597
 7289TIP3   OH221823   4.154   2.414   4.942  0.0603 -0.3071 -0.5029
 7289TIP3    H121824   4.131   2.324   4.918 -2.2138  0.3124 -0.8671
 7289TIP3    H221825   4.243   2.426   4.908  0.1849 -2.2198 -0.9445
 7290TIP3   OH221826   3.326   5.485   4.739 -0.1185 -0.0694  0.3495
 7290TIP3    H121827   3.400   5.490   4.678 -1.3848  1.0926 -1.1612
 7290TIP3    H221828   3.250   5.468   4.683 -1.0774 -0.8450  1.8194
 7291TIP3   OH221829   2.034   1.928   3.528 -0.5813 -0.0435  0.0756
 7291TIP3    H121830   2.011   1.841   3.497  0.8087 -0.1036 -0.8678
 7291TIP3    H221831   2.003   1.931   3.618 -1.0946 -1.3217 -0.0475
 7292TIP3   OH221832   5.354   1.751   6.633 -0.3787  0.0877 -0.6789
 7292TIP3    H121833   5.367   1.785   6.544  0.7982 -0.2136 -0.6487
 7292TIP3    H221834   5.384   1.660   6.628 -0.1732  0.1092  0.0583
 7293TIP3   OH221835   5.056   4.920   1.483  0.1232  0.0846  0.6604
 7293TIP3    H121836   5.104   4.924   1.566  2.3871  3.7248 -0.6014
 7293TIP3    H221837   4.974   4.966   1.501 -0.2499 -0.8068  1.3093
 7294TIP3   OH221838   4.610   6.676   6.512  0.1495 -0.2012 -0.5341
 7294TIP3    H121839   4.568   6.655   6.429 -4.0237 -0.5034  1.3975
 7294TIP3    H221840   4.617   6.592   6.557 -1.9029  0.3755  1.0512
 7295TIP3   OH221841   5.165   5.974   2.032  0.2650 -0.1652 -0.7273
 7295TIP3    H121842   5.070   5.973   2.021  0.3074  0.2046 -1.1868
 7295TIP3    H221843   5.198   6.002   1.946  0.7276  1.0374 -0.1822
 7296TIP3   OH221844   4.156   2.363   1.576 -0.5221 -0.6595 -0.3607
 7296TIP3    H121845   4.231   2.421   1.588 -1.2085  0.1674  0.0623
 7296TIP3    H221846   4.168   2.325   1.489 -0.9072  1.4182 -1.3611
 7297TIP3   OH221847   7.814   4.807   2.197 -0.0233 -0.2268  0.6094
 7297TIP3    H121848   7.774   4.854   2.271 -0.4768  0.4281 -0.0363
 7297TIP3    H221849   7.797   4.715   2.216 -2.0341  0.0169  0.2974
 7298TIP3   OH221850   4.833   0.465   0.317 -0.3753  0.9344  0.3670
 7298TIP3    H121851   4.852   0.397   0.251 -0.0477  1.1095  0.2742
 7298TIP3    H221852   4.915   0.474   0.366  0.1843  2.5058 -0.7654
 7299TIP3   OH221853   5.208   2.428   3.664  0.0512  0.2233  0.1905
 7299TIP3    H121854   5.134   2.433   3.724  0.0743  0.8512  0.1755
 7299TIP3    H221855   5.278   2.388   3.716 -0.6541 -1.5865 -0.1737
 7300TIP3   OH221856   4.122   3.850   3.767 -0.2947  0.6453  0.2750
 7300TIP3    H121857   4.052   3.904   3.804  0.8555  2.5733 -0.1998
 7300TIP3    H221858   4.202   3.898   3.788  1.0457 -1.9770  1.6552
 7301TIP3   OH221859   2.915   2.678   4.362  0.4048  0.0997 -0.0969
 7301TIP3    H121860   2.883   2.631   4.285 -1.3865 -0.7386  1.1171
 7301TIP3    H221861   2.984   2.622   4.397  0.9558  0.2946 -0.8325
 7302TIP3   OH221862   0.452   5.228   2.816  0.0863  0.0024  0.4286
 7302TIP3    H121863   0.493   5.283   2.749 -1.1640  1.6309  0.9246
 7302TIP3    H221864   0.363   5.213   2.784  0.0356 -0.7301  0.8842
 7303TIP3   OH221865   7.390   5.138   6.379  0.1723 -0.4475 -0.4575
 7303TIP3    H121866   7.400   5.075   6.307 -0.4681 -0.9483 -0.1189
 7303TIP3    H221867   7.362   5.219   6.337  0.5987 -0.5044 -0.8565
 7304TIP3   OH221868   0.870   1.255   2.456  0.4655 -0.2476 -0.7406
 7304TIP3    H121869   0.874   1.334   2.401  1.5125  0.1939 -0.0553
 7304TIP3    H221870   0.958   1.218   2.452  0.0667 -1.2225 -0.8021
 7305TIP3   OH221871   7.371   6.488   1.848  0.0912  0.6357 -0.0662
 7305TIP3    H121872   7.390   6.487   1.754  2.5576 -0.0662  0.3557
 7305TIP3    H221873   7.277   6.475   1.854 -0.0158 -0.1183 -2.4273
 7306TIP3   OH221874   3.451   2.161   0.354  0.3414 -0.0555 -0.4252
 7306TIP3    H121875   3.415   2.081   0.314  0.4902  0.4596 -1.6380
 7306TIP3    H221876   3.410   2.232   0.304  0.2082  0.6338  0.6431
 7307TIP3   OH221877   5.312   6.169   6.190 -0.0954  0.7630 -0.5297
 7307TIP3    H121878   5.326   6.264   6.199 -0.8275  0.6754  2.8089
 7307TIP3    H221879   5.343   6.149   6.102  3.0966  3.5627 -0.2529
 7308TIP3   OH221880   2.411   5.451   4.392 -0.1423  0.2651  0.1076
 7308TIP3    H121881   2.454   5.502   4.323 -0.0107  0.3828  0.2710
 7308TIP3    H221882   2.387   5.517   4.458 -0.1414  0.1385  0.2351
 7309TIP3   OH221883   1.760   2.762   3.180 -0.4084  0.1414  0.0786
 7309TIP3    H121884   1.820   2.762   3.255  0.4108 -1.9403 -0.4808
 7309TIP3    H221885   1.683   2.808   3.211  0.1830 -0.0362  1.9833
 7310TIP3   OH221886   7.589   7.764   6.100 -0.0108  0.5025 -0.0384
 7310TIP3    H121887   7.594   7.859   6.110  0.7111  0.4436  0.2088
 7310TIP3    H221888   7.680   7.735   6.092 -0.2781  0.1563 -3.3780
 7311TIP3   OH221889   2.550   5.093   2.243  0.4139  0.0616 -0.0467
 7311TIP3    H121890   2.628   5.062   2.290  0.1772 -1.1122 -0.3914
 7311TIP3    H221891   2.538   5.182   2.274  0.1658 -0.7077  2.2681
 7312TIP3   OH221892   4.038   4.938   2.400 -0.8392 -0.1514  0.2937
 7312TIP3    H121893   3.972   4.872   2.381 -0.9299  0.0200  0.0143
 7312TIP3    H221894   4.115   4.888   2.428 -0.3776 -0.4693 -1.4421
 7313TIP3   OH221895   3.923   4.013   5.160  0.1635  0.1358 -0.0624
 7313TIP3    H121896   3.878   3.948   5.214  0.3056  0.1344  0.0539
 7313TIP3    H221897   3.944   3.966   5.079 -0.0706  0.1449 -0.1317
 7314TIP3   OH221898   7.581   1.482   0.959  0.3709 -0.4079 -0.0275
 7314TIP3    H121899   7.615   1.414   0.902  0.8980 -2.2238  2.2996
 7314TIP3    H221900   7.487   1.466   0.963  0.5435 -1.3255  0.8283
 7315TIP3   OH221901   1.950   3.615   2.099  0.2767  0.4240 -0.2145
 7315TIP3    H121902   1.896   3.606   2.021 -1.5278  0.9004  0.9173
 7315TIP3    H221903   2.020   3.675   2.074  2.3789 -2.7171 -2.7137
 7316TIP3   OH221904   1.984   5.852   1.197 -0.3849 -0.1569 -0.4717
 7316TIP3    H121905   1.960   5.931   1.149 -1.8113 -0.2829  0.0136
 7316TIP3    H221906   2.007   5.788   1.129  2.0035  1.0023 -0.8510
 7317TIP3   OH221907   7.489   2.463   1.096  0.0211 -0.3602 -0.1220
 7317TIP3    H121908   7.441   2.410   1.033  0.6774 -2.3410  0.9714
 7317TIP3    H221909   7.428   2.478   1.168  0.0349 -0.1476 -0.1527
 7318TIP3   OH221910   3.363   7.705   3.365 -0.2065  0.7199 -0.1370
 7318TIP3    H121911   3.328   7.731   3.450  0.6823 -0.4573  0.6275
 7318TIP3    H221912   3.455   7.731   3.367 -0.5028  1.9666 -1.3269
 7319TIP3   OH221913   1.307   7.594   5.502 -0.0847  0.1967 -0.1881
 7319TIP3    H121914   1.362   7.562   5.574  1.3292 -0.6884 -1.6051
 7319TIP3    H221915   1.339   7.681   5.483  0.0679  0.1237 -0.2648
 7320TIP3   OH221916   6.315   6.679   0.232  0.5089 -0.0050 -0.2189
 7320TIP3    H121917   6.404   6.711   0.218  0.0395  0.4912 -2.5613
 7320TIP3    H221918   6.323   6.614   0.302  2.6847  0.1067 -0.3026
 7321TIP3   OH221919   1.947   0.894   4.809 -0.3990  0.2100 -0.0961
 7321TIP3    H121920   1.871   0.892   4.751  0.3377 -0.8935 -1.0699
 7321TIP3    H221921   1.967   0.802   4.825  0.2051  0.4996  0.8563
 7322TIP3   OH221922   5.331   0.260   4.341  0.1680 -0.3094 -0.2123
 7322TIP3    H121923   5.304   0.196   4.407 -0.4112  0.5607  0.4113
 7322TIP3    H221924   5.361   0.336   4.391 -0.1622  0.3185 -0.9375
 7323TIP3   OH221925   5.891   6.397   4.573  0.1782  0.3689  0.0124
 7323TIP3    H121926   5.961   6.331   4.577  0.7903  1.0498  1.0078
 7323TIP3    H221927   5.930   6.471   4.527 -0.4992  0.0751 -1.0727
 7324TIP3   OH221928   4.106   7.540   0.827  0.0699 -0.1915 -0.3100
 7324TIP3    H121929   4.028   7.491   0.801 -0.6257  1.4364 -1.4146
 7324TIP3    H221930   4.175   7.507   0.770 -0.2282 -0.3725 -0.5685
 7325TIP3   OH221931   5.169   1.557   4.499  0.1284  0.0416  0.3184
 7325TIP3    H121932   5.160   1.510   4.415 -1.5355  0.7113  0.0873
 7325TIP3    H221933   5.195   1.489   4.561 -1.3693 -1.0405 -0.1857
 7326TIP3   OH221934   4.793   5.231   0.157 -0.5512  0.0046 -0.5651
 7326TIP3    H121935   4.723   5.245   0.093 -1.0053  0.6964  0.0747
 7326TIP3    H221936   4.749   5.194   0.233  0.3490 -3.4961 -1.5548
 7327TIP3   OH221937   2.249   0.408   4.206 -0.4282  0.1081  0.4691
 7327TIP3    H121938   2.246   0.411   4.110  2.2176 -2.4933  0.1607
 7327TIP3    H221939   2.318   0.470   4.229 -1.1137  0.7874  0.7402
 7328TIP3   OH221940   0.817   6.424   3.884  0.1866 -0.1486 -0.2647
 7328TIP3    H121941   0.873   6.497   3.910  1.8971 -1.4927 -0.0085
 7328TIP3    H221942   0.869   6.346   3.902 -1.5553 -1.4504 -0.6003
 7329TIP3   OH221943   1.612   2.218   3.907 -0.5410 -0.0999 -0.0285
 7329TIP3    H121944   1.662   2.168   3.972 -1.7784  0.8899  1.7650
 7329TIP3    H221945   1.600   2.304   3.946  0.1872  1.1694 -2.3792
 7330TIP3   OH221946   2.040   6.483   5.510  0.1915 -0.4922 -0.7123
 7330TIP3    H121947   1.964   6.488   5.452 -0.9254 -0.1207  0.7400
 7330TIP3    H221948   2.091   6.410   5.475  0.0496  0.3190 -2.7140
 7331TIP3   OH221949   6.593   3.459   5.015 -0.3113 -0.0552 -0.1585
 7331TIP3    H121950   6.628   3.530   5.068 -1.2872 -1.2324  2.1930
 7331TIP3    H221951   6.517   3.498   4.971 -0.9545  0.3160  1.2477
 7332TIP3   OH221952   1.545   5.985   4.386  0.9365 -0.3072  0.7825
 7332TIP3    H121953   1.562   5.892   4.367  0.2718 -0.1449 -0.7577
 7332TIP3    H221954   1.593   6.033   4.318  2.3330  0.5736  2.3207
 7333TIP3   OH221955   4.945   1.807   5.432 -0.4687 -0.1508 -0.1980
 7333TIP3    H121956   4.993   1.785   5.512  2.3405  1.9450 -1.1598
 7333TIP3    H221957   4.973   1.740   5.369 -1.4005 -0.8280  0.0847
 7334TIP3   OH221958   2.182   1.465   6.538 -0.1078  0.0755 -0.1160
 7334TIP3    H121959   2.268   1.500   6.513  0.0267 -0.8903 -1.0816
 7334TIP3    H221960   2.202   1.393   6.599 -0.2653  0.1502  0.0261
 7335TIP3   OH221961   3.935   1.377   2.962 -0.3621  0.6856  0.3832
 7335TIP3    H121962   3.847   1.408   2.941 -0.6540 -1.1003 -1.3764
 7335TIP3    H221963   3.968   1.341   2.879  2.3406  1.9527  0.7978
 7336TIP3   OH221964   2.437   1.133   4.944 -0.2199  0.1524  0.4196
 7336TIP3    H121965   2.475   1.145   5.031 -1.0598  1.0791  0.6733
 7336TIP3    H221966   2.503   1.082   4.896  0.4354 -0.0153  1.4604
 7337TIP3   OH221967   3.329   5.462   6.792 -0.4005 -0.2277 -0.0733
 7337TIP3    H121968   3.368   5.465   6.705 -0.2746 -0.5932 -0.0326
 7337TIP3    H221969   3.324   5.553   6.820 -1.6625  0.0273 -1.0106
 7338TIP3   OH221970   4.763   7.080   4.235 -0.4833 -0.0307 -0.1838
 7338TIP3    H121971   4.702   7.020   4.194 -0.2923 -1.4174  1.4518
 7338TIP3    H221972   4.796   7.134   4.163 -2.0605 -0.6170 -1.4031
 7339TIP3   OH221973   6.110   2.399   1.245 -0.9204 -0.3911  0.0883
 7339TIP3    H121974   6.094   2.322   1.190 -1.5719  0.2274 -0.6095
 7339TIP3    H221975   6.088   2.473   1.189  1.1871  0.4012  0.2076
 7340TIP3   OH221976   2.529   1.499   3.207 -0.4774  1.3238  0.0747
 7340TIP3    H121977   2.489   1.489   3.121 -0.7811 -2.5898  0.5258
 7340TIP3    H221978   2.617   1.533   3.188 -0.2355 -0.2258 -1.8880
 7341TIP3   OH221979   6.172   3.827   0.619  0.0927 -0.4648 -0.6125
 7341TIP3    H121980   6.239   3.823   0.550  0.9536 -2.9650  0.2401
 7341TIP3    H221981   6.223   3.836   0.700 -0.3672 -3.5550  0.1671
 7342TIP3   OH221982   0.114   1.555   5.343  0.1190 -0.0458 -0.2755
 7342TIP3    H121983   0.122   1.463   5.368  0.0715 -0.0132 -0.1372
 7342TIP3    H221984   0.202   1.591   5.355  0.1399 -0.0753 -0.3396
 7343TIP3   OH221985   6.280   4.782   3.089  0.6315  0.1208  0.4677
 7343TIP3    H121986   6.343   4.852   3.071 -0.2190  0.2996 -2.4811
 7343TIP3    H221987   6.197   4.815   3.055  0.0363 -1.9963 -0.3301
 7344TIP3   OH221988   7.029   4.220   2.796  0.3380  0.1136  0.1089
 7344TIP3    H121989   6.954   4.280   2.794 -1.6504 -2.1762  1.2036
 7344TIP3    H221990   6.991   4.134   2.778  2.9032 -1.0006 -0.3046
 7345TIP3   OH221991   5.492   1.162   1.023 -0.0501  0.0244  0.1203
 7345TIP3    H121992   5.486   1.072   1.053 -0.3058 -0.0606 -0.1791
 7345TIP3    H221993   5.449   1.162   0.937 -0.9631  0.6263  0.5562
 7346TIP3   OH221994   4.011   4.493   3.887 -0.0644  0.5491 -0.0431
 7346TIP3    H121995   3.965   4.410   3.901  1.4562 -0.3168 -0.0095
 7346TIP3    H221996   4.020   4.530   3.975  1.3519 -0.4301  0.2520
 7347TIP3   OH221997   1.946   2.744   4.839  0.2445 -0.3651 -0.0344
 7347TIP3    H121998   1.968   2.825   4.793  1.7040 -1.3942 -1.2255
 7347TIP3    H221999   2.019   2.730   4.900  0.3458 -1.1258 -0.3176
 7348TIP3   OH222000   0.240   1.979   1.824 -0.0477  0.3160  0.1397
 7348TIP3    H122001   0.218   2.069   1.803  0.1759  0.3285 -0.0429
 7348TIP3    H222002   0.190   1.926   1.761  1.9111  0.4054 -1.5939
 7349TIP3   OH222003   8.039   2.750   0.255 -0.4195 -0.1365  0.3350
 7349TIP3    H122004   8.039   2.655   0.245 -1.8989 -0.3327  1.7205
 7349TIP3    H222005   8.021   2.765   0.348  0.7910  1.5047  0.3570
 7350TIP3   OH222006   6.137   5.128   3.887 -0.2622 -0.3703  0.1376
 7350TIP3    H122007   6.057   5.094   3.926 -0.2347 -0.2099  0.3352
 7350TIP3    H222008   6.116   5.136   3.794 -0.3072 -0.8071  0.1090
 7351TIP3   OH222009   4.007   1.802   4.570  0.3497  0.4469  0.1444
 7351TIP3    H122010   4.000   1.869   4.503 -1.5426  0.3222  0.1783
 7351TIP3    H222011   3.970   1.723   4.530 -0.3006  0.2308  1.1334
 7352TIP3   OH222012   0.643   2.089   2.839  0.3255  0.2668 -0.2120
 7352TIP3    H122013   0.632   2.027   2.767  2.2120 -0.0247 -0.2802
 7352TIP3    H222014   0.630   2.175   2.799 -0.0364  0.0376 -0.5902
 7353TIP3   OH222015   5.782   6.791   1.853  0.4845 -0.1432 -0.1752
 7353TIP3    H122016   5.878   6.793   1.857  0.6213 -2.9307 -0.2854
 7353TIP3    H222017   5.754   6.825   1.938  1.5049  1.3044 -0.3710
 7354TIP3   OH222018   3.022   7.422   3.599  0.2190  0.2357  0.4252
 7354TIP3    H122019   3.099   7.398   3.650  0.9212  0.6756 -0.4059
 7354TIP3    H222020   3.033   7.515   3.581  0.4147 -0.0874 -1.2392
 7355TIP3   OH222021   5.622   3.426   3.127 -0.0159  0.5667  0.0796
 7355TIP3    H122022   5.691   3.481   3.092  0.7530 -0.6843 -0.4465
 7355TIP3    H222023   5.667   3.350   3.163 -0.9434  0.8238  1.9369
 7356TIP3   OH222024   2.015   5.973   5.742  0.2038 -0.3105 -1.4165
 7356TIP3    H122025   2.042   5.987   5.833  0.3742  0.5079 -1.5889
 7356TIP3    H222026   1.987   6.059   5.711 -0.1259 -0.6370 -2.0584
 7357TIP3   OH222027   7.216   0.907   0.922  0.0029 -0.1411 -0.2599
 7357TIP3    H122028   7.182   0.826   0.961  4.1018 -1.6548  0.6008
 7357TIP3    H222029   7.279   0.877   0.857  0.9775  2.4042 -0.5753
 7358TIP3   OH222030   4.284   1.095   2.028 -0.5647 -0.2402  0.0314
 7358TIP3    H122031   4.197   1.136   2.035  0.0430  0.8882  1.4566
 7358TIP3    H222032   4.265   1.001   2.018 -1.9483 -0.0273  0.4304
 7359TIP3   OH222033   6.122   4.361   4.456 -0.4865  0.8679  0.0803
 7359TIP3    H122034   6.130   4.397   4.545  1.6327 -1.4802  0.9671
 7359TIP3    H222035   6.079   4.277   4.469  1.2062 -0.1829 -0.8737
 7360TIP3   OH222036   1.924   3.398   6.016  0.4464 -0.3784 -0.8129
 7360TIP3    H122037   1.954   3.357   5.935 -1.0446 -1.4121 -0.8939
 7360TIP3    H222038   1.973   3.353   6.085  2.5932  1.3156 -1.1393
 7361TIP3   OH222039   4.040   7.161   1.539  0.8196  0.1947 -0.2037
 7361TIP3    H122040   4.107   7.202   1.593  0.5041  0.0516  0.3101
 7361TIP3    H222041   4.064   7.183   1.449  0.6148  1.5514  0.0579
 7362TIP3   OH222042   6.771   3.800   1.902 -0.2043  0.0401 -0.2923
 7362TIP3    H122043   6.839   3.764   1.846 -0.4669 -0.6693 -0.1716
 7362TIP3    H222044   6.779   3.751   1.984 -0.1414  0.7241  0.1206
 7363TIP3   OH222045   6.063   4.071   3.281 -0.0469 -0.0633 -0.0335
 7363TIP3    H122046   6.050   4.129   3.206  0.2710 -1.9886 -1.6856
 7363TIP3    H222047   6.100   3.991   3.242 -1.6535 -1.8568  1.9025
 7364TIP3   OH222048   1.637   1.776   4.513 -0.4517 -0.5242 -0.1819
 7364TIP3    H122049   1.619   1.850   4.570  1.6526  0.6033 -0.8831
 7364TIP3    H222050   1.593   1.797   4.431 -1.1470 -0.8104  0.1130
 7365TIP3   OH222051   8.197   0.019   1.430 -0.0979  0.0174  0.3893
 7365TIP3    H122052   8.223   0.046   1.342 -0.8477 -0.8717 -0.1141
 7365TIP3    H222053   8.254   0.070   1.488  1.4658 -0.5013 -0.6270
 7366TIP3   OH222054   7.909   4.204   0.497  0.1151 -0.3030  0.0902
 7366TIP3    H122055   7.846   4.140   0.464 -3.4684  3.5834 -1.4950
 7366TIP3    H222056   7.957   4.233   0.420 -0.9432  1.4646  0.0591
 7367TIP3   OH222057   5.723   6.339   1.546  0.3685 -0.0288 -0.3008
 7367TIP3    H122058   5.666   6.414   1.564 -2.9267 -2.5333  0.8088
 7367TIP3    H222059   5.790   6.343   1.614 -1.0082  0.7988  1.0792
 7368TIP3   OH222060   4.275   2.032   3.084  0.5377  0.3527  0.3135
 7368TIP3    H122061   4.243   2.067   3.000  1.1519  0.9810  0.3325
 7368TIP3    H222062   4.369   2.051   3.084  1.0429 -1.8010  0.0860
 7369TIP3   OH222063   2.639   0.913   3.687  0.3854  0.4116  0.5006
 7369TIP3    H122064   2.562   0.956   3.650  0.8771  0.6280 -0.3002
 7369TIP3    H222065   2.605   0.864   3.762 -0.5289  0.5147  0.1708
 7370TIP3   OH222066   2.863   7.743   2.849 -0.3342  0.2634  0.1131
 7370TIP3    H122067   2.771   7.717   2.840  0.1695 -1.0611 -1.7941
 7370TIP3    H222068   2.879   7.801   2.775  0.6838 -0.4977 -0.2765
 7371TIP3   OH222069   7.385   6.609   3.362 -0.1783 -0.0795 -0.5243
 7371TIP3    H122070   7.459   6.560   3.328  1.2377  1.4424  0.2061
 7371TIP3    H222071   7.308   6.567   3.324  0.8700 -3.1166  0.4281
 7372TIP3   OH222072   0.246   4.221   2.004 -0.6011  0.5621 -0.0383
 7372TIP3    H122073   0.290   4.297   1.966  0.6268 -0.7648 -1.4311
 7372TIP3    H222074   0.164   4.256   2.040 -0.5169  2.3908 -1.4605
 7373TIP3   OH222075   7.500   4.930   2.176  0.8384 -0.0293  0.3183
 7373TIP3    H122076   7.410   4.947   2.204  1.2468  0.2635  1.5323
 7373TIP3    H222077   7.496   4.933   2.080 -0.5154 -0.4546  0.3378
 7374TIP3   OH222078   2.324   1.234   4.067  0.0849  0.3830  0.7863
 7374TIP3    H122079   2.272   1.284   4.005 -0.3077  0.4765  1.1895
 7374TIP3    H222080   2.362   1.163   4.015  1.3435  1.5649  0.0209
 7375TIP3   OH222081   7.911   4.453   3.585  0.5651 -0.0089  0.1671
 7375TIP3    H122082   7.940   4.473   3.496  2.0737 -1.7338  0.2072
 7375TIP3    H222083   7.816   4.466   3.583  0.8004  1.9985 -1.0828
 7376TIP3   OH222084   0.936   3.517   6.218  0.1969 -0.3001 -0.5759
 7376TIP3    H122085   0.915   3.590   6.159  0.8287 -0.2977 -0.7998
 7376TIP3    H222086   0.853   3.499   6.263 -0.3294 -0.3741 -1.5339
 7377TIP3   OH222087   3.768   2.653   1.518 -0.3553  0.8321 -0.1839
 7377TIP3    H122088   3.741   2.567   1.486  2.5015  0.7641 -2.8931
 7377TIP3    H222089   3.777   2.706   1.439  0.6039  2.7741  1.1553
 7378TIP3   OH222090   5.651   2.501   4.954 -0.0805 -0.0093  0.2485
 7378TIP3    H122091   5.734   2.524   4.996 -0.5511  0.0783  1.1598
 7378TIP3    H222092   5.670   2.422   4.904  0.5418 -0.0126  0.4812
 7379TIP3   OH222093   5.899   1.563   2.051  0.3058 -0.1037  0.2110
 7379TIP3    H122094   5.888   1.468   2.055  1.6327 -0.3120 -0.5355
 7379TIP3    H222095   5.979   1.579   2.101 -0.8111  0.8286  1.7793
 7380TIP3   OH222096   6.831   2.799   3.089 -0.1500  0.4594 -0.3795
 7380TIP3    H122097   6.787   2.861   3.030 -1.6156 -0.2462 -0.0728
 7380TIP3    H222098   6.894   2.754   3.033 -2.5479 -1.2757 -1.8673
 7381TIP3   OH222099   5.196   2.239   4.017 -0.4469 -0.0024  0.3633
 7381TIP3    H122100   5.105   2.267   4.020  0.1843  2.1925  0.6104
 7381TIP3    H222101   5.234   2.273   4.098  0.1002 -2.9271  1.4632
 7382TIP3   OH222102   2.733   3.665   3.241  0.6650 -0.0649 -0.3859
 7382TIP3    H122103   2.677   3.742   3.251  1.0074 -0.0720  2.5185
 7382TIP3    H222104   2.675   3.597   3.208 -0.3493  0.6944 -0.2231
 7383TIP3   OH222105   0.927   3.225   1.611  0.4771  0.0333  0.6882
 7383TIP3    H122106   0.882   3.302   1.575 -0.4403 -0.5381  0.5990
 7383TIP3    H222107   1.009   3.220   1.561 -1.3606 -1.6121 -2.5248
 7384TIP3   OH222108   4.118   1.060   2.374  0.3775  0.4406  0.0275
 7384TIP3    H122109   4.126   1.155   2.376  0.4462  0.4505  1.9586
 7384TIP3    H222110   4.123   1.036   2.282  1.1541  2.2347 -0.4266
 7385TIP3   OH222111   3.463   4.018   1.248  0.2696  0.1893  0.2290
 7385TIP3    H122112   3.473   3.968   1.167 -0.6475  1.3604 -0.6529
 7385TIP3    H222113   3.521   4.094   1.237 -0.7475  0.9735  0.1327
 7386TIP3   OH222114   2.474   2.603   5.273 -0.5583  0.3623 -0.4819
 7386TIP3    H122115   2.500   2.593   5.364  0.4239 -0.3752 -0.8313
 7386TIP3    H222116   2.385   2.640   5.278 -0.7774 -0.2700  0.7758
 7387TIP3   OH222117   5.756   0.243   4.105 -0.2440 -0.8383 -0.0913
 7387TIP3    H122118   5.736   0.334   4.081 -2.1811 -1.4073 -0.7859
 7387TIP3    H222119   5.850   0.244   4.126 -0.3429  1.4124  0.4427
 7388TIP3   OH222120   7.155   4.590   1.034  0.5477  0.0701 -0.2730
 7388TIP3    H122121   7.224   4.625   0.977 -1.3669  1.2129 -2.0370
 7388TIP3    H222122   7.146   4.656   1.103  1.4575 -0.2897  0.2134
 7389TIP3   OH222123   4.157   4.399   2.544  0.0681  0.1789 -0.2811
 7389TIP3    H122124   4.082   4.404   2.485 -0.9335  2.7563  1.0201
 7389TIP3    H222125   4.220   4.462   2.508  0.5149 -0.0685  0.0560
 7390TIP3   OH222126   2.007   7.727   6.246  0.4501  0.2816 -0.6654
 7390TIP3    H122127   2.065   7.717   6.322  0.3673 -0.6607 -0.7112
 7390TIP3    H222128   2.012   7.819   6.224  0.8173  0.4864  0.2227
 7391TIP3   OH222129   1.300   1.830   2.477  0.1417 -0.1190  0.0591
 7391TIP3    H122130   1.380   1.778   2.463  1.2624  0.9860  1.9699
 7391TIP3    H222131   1.294   1.885   2.399  2.3579  1.1018  0.6618
 7392TIP3   OH222132   0.538   7.627   6.460 -0.6959 -0.3552  0.6416
 7392TIP3    H122133   0.627   7.662   6.453 -0.4928 -0.6044  1.8277
 7392TIP3    H222134   0.543   7.541   6.417 -0.3344 -0.4100  0.7849
 7393TIP3   OH222135   4.228   2.931   4.920  0.2482 -0.1624 -0.0224
 7393TIP3    H122136   4.291   2.990   4.961 -1.2855  0.3853  1.6823
 7393TIP3    H222137   4.215   2.862   4.986 -0.8095 -0.3359 -0.4082
 7394TIP3   OH222138   8.247   4.809   3.672 -0.1430  0.2030  0.1570
 7394TIP3    H122139   8.241   4.713   3.675 -0.2935  0.1702 -0.8229
 7394TIP3    H222140   8.163   4.839   3.708 -0.7604 -0.0738 -0.9804
 7395TIP3   OH222141   0.233   4.153   4.436  0.4724  0.0693  0.7080
 7395TIP3    H122142   0.181   4.233   4.426 -0.3482 -0.4840  0.4675
 7395TIP3    H222143   0.199   4.093   4.370  1.5547 -0.2475  0.4199
 7396TIP3   OH222144   2.672   6.675   5.136  0.0039 -0.2482  0.3681
 7396TIP3    H122145   2.712   6.723   5.208  0.8840 -1.1323  0.4944
 7396TIP3    H222146   2.584   6.655   5.166  0.3733 -0.6454  1.2399
 7397TIP3   OH222147   6.756   6.549   6.338  0.2457 -0.0172  0.1861
 7397TIP3    H122148   6.779   6.461   6.369  0.7322 -0.2131 -0.6881
 7397TIP3    H222149   6.701   6.534   6.262  1.6843  0.3891 -0.9798
 7398TIP3   OH222150   3.157   3.550   5.205  0.4663 -0.1225 -0.4643
 7398TIP3    H122151   3.192   3.587   5.287  0.6621 -1.4271  0.0662
 7398TIP3    H222152   3.072   3.593   5.195  0.3774 -0.0332  0.5089
 7399TIP3   OH222153   5.274   5.911   3.293 -0.0725 -0.3464 -0.1975
 7399TIP3    H122154   5.363   5.906   3.259  0.7523  0.7014  1.6666
 7399TIP3    H222155   5.256   5.824   3.329  0.3551 -0.4256 -0.1793
 7400TIP3   OH222156   3.297   2.725   4.303  0.6093 -0.1674 -0.0823
 7400TIP3    H122157   3.322   2.806   4.349 -1.0558 -0.1275  0.8372
 7400TIP3    H222158   3.377   2.672   4.303  1.9930  1.7633 -1.4502
 7401TIP3   OH222159   0.755   6.203   0.171 -0.0488 -0.2893  0.3165
 7401TIP3    H122160   0.711   6.235   0.092  0.1491 -0.0121  0.3203
 7401TIP3    H222161   0.698   6.230   0.243  1.1375  1.9098  0.5056
 7402TIP3   OH222162   3.809   1.112   1.694  0.0774 -0.2905 -0.1568
 7402TIP3    H122163   3.865   1.067   1.630  0.1599 -0.3124 -0.0708
 7402TIP3    H222164   3.795   1.046   1.763 -0.4676 -0.4534 -0.4170
 7403TIP3   OH222165   1.563   3.315   4.555  0.1511 -0.7342  0.5110
 7403TIP3    H122166   1.649   3.319   4.513 -0.4661 -0.3065 -0.7480
 7403TIP3    H222167   1.529   3.404   4.548 -0.6432 -1.0372  0.4457
 7404TIP3   OH222168   5.346   1.782   0.003 -0.9921  0.1900 -0.1783
 7404TIP3    H122169   5.258   1.791  -0.035 -0.6746  2.3457 -0.5155
 7404TIP3    H222170   5.332   1.787   0.097 -1.2725  0.1309 -0.2145
 7405TIP3   OH222171   5.843   7.732   6.729  0.6488  0.1703  0.6823
 7405TIP3    H122172   5.901   7.791   6.681 -1.1552  0.9798 -0.5938
 7405TIP3    H222173   5.820   7.664   6.666  0.2444 -0.1708  1.1895
 7406TIP3   OH222174   7.974   5.502   3.384 -0.6491  0.8961 -0.4409
 7406TIP3    H122175   8.047   5.468   3.333 -1.0820  1.9363 -1.8212
 7406TIP3    H222176   8.014   5.531   3.467 -0.1458 -2.0224  0.4434
 7407TIP3   OH222177   2.119   2.206   3.124  0.1269 -0.0103  0.1284
 7407TIP3    H122178   2.043   2.199   3.182 -0.9519 -1.0600 -1.3505
 7407TIP3    H222179   2.191   2.166   3.174 -1.2086 -2.6722  0.0789
 7408TIP3   OH222180   7.735   6.205   6.684  0.2190 -0.2915 -0.4682
 7408TIP3    H122181   7.787   6.284   6.697 -1.1358  0.7875 -1.3584
 7408TIP3    H222182   7.721   6.200   6.590 -1.8223 -0.1714 -0.2070
 7409TIP3   OH222183   5.396   3.900   5.261 -0.1998 -0.4836 -0.0367
 7409TIP3    H122184   5.491   3.915   5.267 -0.1837 -1.0836  2.2335
 7409TIP3    H222185   5.386   3.805   5.267 -0.9688 -0.3522  1.4235
 7410TIP3   OH222186   0.852   6.669   0.671 -0.3374 -0.1283  0.3007
 7410TIP3    H122187   0.770   6.630   0.702  0.4768 -2.7029 -0.4537
 7410TIP3    H222188   0.848   6.661   0.575  0.9612 -0.8335  0.2704
 7411TIP3   OH222189   3.556   6.173   0.633  0.1888 -0.2244 -0.2558
 7411TIP3    H122190   3.613   6.184   0.710 -0.3537 -0.5048  0.1885
 7411TIP3    H222191   3.504   6.095   0.652  0.0544 -0.3020 -0.9168
 7412TIP3   OH222192   7.927   6.454   5.874 -0.2730 -0.4901 -0.2656
 7412TIP3    H122193   8.001   6.393   5.871 -0.5415 -0.9063  1.0104
 7412TIP3    H222194   7.882   6.433   5.955 -0.2335  1.5805  0.3412
 7413TIP3   OH222195   4.684   3.896   2.351 -0.5714  0.6121  0.0936
 7413TIP3    H122196   4.715   3.958   2.285  3.3976  1.7243  2.6237
 7413TIP3    H222197   4.717   3.811   2.321 -0.3022  0.8230 -0.2224
 7414TIP3   OH222198   6.237   2.840   2.319  0.4305  0.3693 -0.4412
 7414TIP3    H122199   6.170   2.773   2.335  2.4790 -2.4498 -2.5314
 7414TIP3    H222200   6.293   2.837   2.396  0.5527 -0.4022 -0.5556
 7415TIP3   OH222201   1.575   4.028   4.254  0.4408  0.4755 -0.6103
 7415TIP3    H122202   1.630   4.023   4.175  0.7498  0.1736 -0.3813
 7415TIP3    H222203   1.486   4.040   4.220  0.7681  2.0909 -0.9547
 7416TIP3   OH222204   1.607   6.971   4.491  0.3380  0.5109 -0.5974
 7416TIP3    H122205   1.564   7.055   4.471 -0.7908 -0.0659 -0.6919
 7416TIP3    H222206   1.581   6.913   4.420  1.0289  0.0467 -0.4780
 7417TIP3   OH222207   1.441   7.709   0.011 -0.1814  0.6016  0.2744
 7417TIP3    H122208   1.387   7.687   0.087 -2.0939 -0.8236 -1.3673
 7417TIP3    H222209   1.385   7.765  -0.043  1.4059  2.2050  0.2104
 7418TIP3   OH222210   4.772   1.252   5.492 -0.3110  0.0822 -0.0407
 7418TIP3    H122211   4.681   1.267   5.518 -0.3532 -1.6214  0.8891
 7418TIP3    H222212   4.824   1.302   5.555 -0.5640  1.2956 -0.7477
 7419TIP3   OH222213   7.222   3.097   2.349  0.4938  0.0397  0.0730
 7419TIP3    H122214   7.281   3.104   2.424  2.4227 -0.2285 -1.3724
 7419TIP3    H222215   7.241   3.173   2.295 -0.9185  0.2611 -0.1654
 7420TIP3   OH222216   4.394   0.804   5.509  0.0145 -0.0475  0.1246
 7420TIP3    H122217   4.329   0.836   5.572 -0.1738  0.4138 -0.2975
 7420TIP3    H222218   4.468   0.864   5.518  0.0444 -0.0666  0.0038
 7421TIP3   OH222219   0.449   5.937   6.017  0.0497  0.7100  0.1380
 7421TIP3    H122220   0.506   6.007   5.987 -0.8855  1.6869  0.5771
 7421TIP3    H222221   0.370   5.945   5.964 -0.7442  1.0882  1.3201
 7422TIP3   OH222222   4.781   2.825   0.078  0.4162  0.4905  0.1536
 7422TIP3    H122223   4.796   2.762   0.149  1.2999  1.5031  0.9017
 7422TIP3    H222224   4.869   2.844   0.044  0.0387  0.3400 -0.9502
 7423TIP3   OH222225   3.664   2.813   3.617 -0.2924  0.4827 -0.4955
 7423TIP3    H122226   3.634   2.838   3.530 -1.5952  1.8371  0.2783
 7423TIP3    H222227   3.759   2.821   3.613 -0.3685  1.0676 -1.6380
 7424TIP3   OH222228   3.353   6.649   1.257 -0.4470  0.9495  0.4327
 7424TIP3    H122229   3.422   6.676   1.317 -2.0582 -0.4366  3.0507
 7424TIP3    H222230   3.397   6.593   1.193  1.1734  1.8514  0.6906
 7425TIP3   OH222231   1.322   3.680   1.053  0.0842 -0.1976 -0.2337
 7425TIP3    H122232   1.253   3.735   1.017 -1.3820  0.1200  2.7433
 7425TIP3    H222233   1.397   3.692   0.994 -1.4800  1.7079 -1.9533
 7426TIP3   OH222234   7.320   1.537   5.903 -0.1682  0.2473 -0.2853
 7426TIP3    H122235   7.406   1.537   5.946  0.5327 -1.4963 -1.5658
 7426TIP3    H222236   7.270   1.604   5.949  0.6844 -1.1275  2.9093
 7427TIP3   OH222237   0.679   4.930   3.217  0.2115  0.3016  0.6693
 7427TIP3    H122238   0.671   4.837   3.240  0.7228  0.3488  1.0435
 7427TIP3    H222239   0.610   4.944   3.152 -0.3083 -0.1841  1.0956
 7428TIP3   OH222240   3.810   3.568   6.552 -0.1109 -0.4106 -0.1811
 7428TIP3    H122241   3.758   3.629   6.604  0.9133  0.5474 -0.2542
 7428TIP3    H222242   3.783   3.481   6.582  0.1684  0.1142  1.6655
 7429TIP3   OH222243   5.517   5.100   6.105  0.0206  0.2200  0.3442
 7429TIP3    H122244   5.540   5.021   6.057  0.4108  0.2070  0.5508
 7429TIP3    H222245   5.448   5.072   6.165 -0.5585  0.2637 -0.2876
 7430TIP3   OH222246   6.848   4.038   4.721 -0.1544 -0.1191  0.3745
 7430TIP3    H122247   6.842   3.949   4.757  1.9247 -0.0889  0.8834
 7430TIP3    H222248   6.786   4.038   4.648 -0.0368 -2.0567  0.2152
 7431TIP3   OH222249   3.269   2.196   3.050 -0.2338 -0.2473 -0.1632
 7431TIP3    H122250   3.288   2.150   2.968 -1.2073  0.7190 -0.9617
 7431TIP3    H222251   3.264   2.288   3.025 -0.7369  0.0451  0.9548
 7432TIP3   OH222252   6.973   5.583   4.908  0.0792 -0.3307  0.2213
 7432TIP3    H122253   6.881   5.560   4.903  0.1203 -0.4773  0.1306
 7432TIP3    H222254   6.993   5.623   4.823  0.0839 -0.2402  0.2643
 7433TIP3   OH222255   0.445   4.226   0.191 -0.9155  0.5427 -0.2198
 7433TIP3    H122256   0.384   4.278   0.138 -1.9467 -1.4320 -1.0995
 7433TIP3    H222257   0.391   4.153   0.224  0.6091 -0.3901  0.3133
 7434TIP3   OH222258   4.177   5.581   1.234  0.4110 -0.1179 -0.0283
 7434TIP3    H122259   4.134   5.523   1.170  0.6707  0.5951 -0.8705
 7434TIP3    H222260   4.108   5.637   1.266  0.3910 -0.0795 -0.1358
 7435TIP3   OH222261   0.751   2.221   2.018  0.5655 -0.3088  0.0718
 7435TIP3    H122262   0.793   2.243   2.101 -1.9048  0.1115  1.3047
 7435TIP3    H222263   0.665   2.187   2.043 -0.5366  0.4871 -2.3403
 7436TIP3   OH222264   5.258   6.628   1.065  0.2529  0.6485  0.0492
 7436TIP3    H122265   5.317   6.703   1.056  1.3644  0.0869  1.8621
 7436TIP3    H222266   5.314   6.552   1.050 -0.8063  0.1354 -1.5252
 7437TIP3   OH222267   6.956   2.604   1.450  0.4048  0.5363 -0.0040
 7437TIP3    H122268   6.908   2.632   1.528 -2.0850 -1.4659 -0.6567
 7437TIP3    H222269   6.933   2.511   1.441  3.9204 -0.3973 -0.8456
 7438TIP3   OH222270   6.580   6.416   2.707  0.1863  0.0917 -0.0173
 7438TIP3    H122271   6.596   6.509   2.724 -3.8309  0.9429 -0.0810
 7438TIP3    H222272   6.578   6.410   2.611 -2.2872  0.6371 -0.0694
 7439TIP3   OH222273   6.473   7.613   5.738  0.0007  0.2666  0.4726
 7439TIP3    H122274   6.425   7.628   5.657  1.1971  1.9160  0.0184
 7439TIP3    H222275   6.565   7.606   5.711  0.4050  0.7223  1.6563
 7440TIP3   OH222276   2.842   3.950   4.711  0.3077  0.0599 -0.5703
 7440TIP3    H122277   2.821   4.023   4.769  0.3527 -0.0335 -0.4342
 7440TIP3    H222278   2.842   3.988   4.623 -0.3309  0.0827 -0.5662
 7441TIP3   OH222279   7.090   5.833   1.625 -0.6914  0.2421 -0.8814
 7441TIP3    H122280   7.155   5.767   1.601 -0.2988  0.4504 -0.3944
 7441TIP3    H222281   7.063   5.872   1.541 -0.5957 -0.2189 -1.1293
 7442TIP3   OH222282   5.435   0.981   6.109 -0.4458 -1.0333  0.8036
 7442TIP3    H122283   5.418   0.890   6.136 -0.6647 -1.3845 -0.4805
 7442TIP3    H222284   5.376   0.996   6.035  0.5747 -0.3007  0.1162
 7443TIP3   OH222285   0.115   7.127   6.617 -0.1601 -0.0213  0.1652
 7443TIP3    H122286   0.048   7.080   6.566 -0.0605  1.8801 -1.8292
 7443TIP3    H222287   0.175   7.162   6.552  0.2223  2.1680  1.5996
 7444TIP3   OH222288   2.242   0.371   0.739  0.0184  0.0515  0.6011
 7444TIP3    H122289   2.193   0.317   0.801  1.8608 -0.1809  1.9171
 7444TIP3    H222290   2.319   0.400   0.787  2.3325 -1.3312 -1.9979
 7445TIP3   OH222291   6.292   7.669   4.076  0.1037 -0.2321 -0.4356
 7445TIP3    H122292   6.246   7.752   4.077  0.2103 -0.1493 -1.2361
 7445TIP3    H222293   6.349   7.671   4.153  0.4496  0.6357 -0.6997
 7446TIP3   OH222294   0.482   7.422   1.811 -0.5418 -0.7305 -0.2468
 7446TIP3    H122295   0.472   7.338   1.765 -0.7392 -0.3401 -0.9414
 7446TIP3    H222296   0.473   7.488   1.742 -0.8009 -0.1220  0.3553
 7447TIP3   OH222297   0.921   1.259   0.439  0.8312  0.5914 -0.3601
 7447TIP3    H122298   0.877   1.344   0.437  0.8938  0.6174 -0.7145
 7447TIP3    H222299   0.989   1.266   0.372  1.0675  0.3862 -0.1401
 7448TIP3   OH222300   7.338   6.750   1.428  0.1004  0.1528 -0.0290
 7448TIP3    H122301   7.354   6.666   1.385 -0.4003  0.0207  0.0370
 7448TIP3    H222302   7.324   6.811   1.356  0.2448  0.1360 -0.0722
 7449TIP3   OH222303   7.755   5.784   5.346 -0.1408 -0.2086  0.3320
 7449TIP3    H122304   7.679   5.755   5.295 -0.4796 -2.0265  1.7693
 7449TIP3    H222305   7.730   5.767   5.437  0.9102  1.8277  1.0634
 7450TIP3   OH222306   1.860   1.223   0.554 -0.5470  0.1886  0.2289
 7450TIP3    H122307   1.953   1.209   0.574  0.6190  0.9019 -3.7489
 7450TIP3    H222308   1.854   1.317   0.533 -1.4124 -0.3648 -2.3636
 7451TIP3   OH222309   4.974   5.901   6.748  0.6188  0.1207 -0.7888
 7451TIP3    H122310   5.024   5.931   6.824 -1.9532  0.4411  0.9123
 7451TIP3    H222311   4.932   5.980   6.714  0.0639 -0.3395 -1.2059
 7452TIP3   OH222312   1.297   7.440   1.674 -0.4154  0.9379 -0.3401
 7452TIP3    H122313   1.244   7.518   1.690 -0.8261  0.3353  1.4468
 7452TIP3    H222314   1.370   7.447   1.736  1.1112  1.2433 -2.0651
 7453TIP3   OH222315   2.927   4.361   1.312 -0.5650 -0.3607  0.2549
 7453TIP3    H122316   2.918   4.456   1.323 -0.1144 -0.5161  2.2824
 7453TIP3    H222317   2.959   4.351   1.222  2.7670  1.6774  1.0379
 7454TIP3   OH222318   4.291   4.396  -0.004 -0.3413 -0.1938  0.1937
 7454TIP3    H122319   4.244   4.355   0.067  0.2128 -1.2875 -0.0504
 7454TIP3    H222320   4.338   4.324  -0.047 -0.3664  0.4935 -1.0347
 7455TIP3   OH222321   0.718   7.487   4.096  0.2948  0.5281  0.0405
 7455TIP3    H122322   0.744   7.430   4.169 -1.2853  0.7781  0.8412
 7455TIP3    H222323   0.689   7.426   4.027 -0.0091  0.3272  0.3441
 7456TIP3   OH222324   1.193   5.890   3.580  0.3857 -0.4527 -0.3810
 7456TIP3    H122325   1.149   5.805   3.574  2.0932 -1.4663  0.4547
 7456TIP3    H222326   1.147   5.946   3.518 -2.1918 -1.3286  0.6212
 7457TIP3   OH222327   3.746   4.775   6.154 -0.3655 -0.2908 -0.0198
 7457TIP3    H122328   3.662   4.820   6.144  0.2442  0.4900 -2.1772
 7457TIP3    H222329   3.810   4.846   6.159  0.1673 -0.8607  2.2482
 7458TIP3   OH222330   4.406   7.186   2.925 -0.0295  0.4144 -0.1055
 7458TIP3    H122331   4.328   7.228   2.960  0.6532  1.1059  0.6374
 7458TIP3    H222332   4.450   7.254   2.874  0.6791  0.3947  0.4517
 7459TIP3   OH222333   2.598   2.211   5.966 -0.4028 -0.4923 -0.3580
 7459TIP3    H122334   2.635   2.199   6.053 -2.0750  0.6471  0.5682
 7459TIP3    H222335   2.534   2.140   5.956 -0.9446 -0.0376 -0.2107
 7460TIP3   OH222336   6.309   2.987   1.491 -0.7563 -0.4311  0.1091
 7460TIP3    H122337   6.227   2.946   1.462 -0.0921 -1.5485 -0.2521
 7460TIP3    H222338   6.326   3.053   1.424 -0.1011 -1.8817 -1.2402
 7461TIP3   OH222339   3.267   1.211   3.653  0.1096 -0.0338  0.5497
 7461TIP3    H122340   3.246   1.302   3.674 -0.6254  0.0344 -0.4158
 7461TIP3    H222341   3.332   1.186   3.719 -0.5876  0.7916  1.5821
 7462TIP3   OH222342   4.981   4.009   1.602  0.6249  0.1198 -0.1848
 7462TIP3    H122343   4.961   4.076   1.538  2.2420 -0.8956 -1.8552
 7462TIP3    H222344   4.896   3.968   1.621  0.0647  0.6431 -1.4397
 7463TIP3   OH222345   5.407   5.143   3.686 -0.3539 -0.6433  0.0848
 7463TIP3    H122346   5.318   5.108   3.680  0.2399 -1.9488 -1.8784
 7463TIP3    H222347   5.457   5.094   3.621  1.5197  1.0009  0.1954
 7464TIP3   OH222348   2.252   0.469   5.328  0.1822  0.4188  0.6420
 7464TIP3    H122349   2.162   0.495   5.310  0.1475  0.2255  0.5353
 7464TIP3    H222350   2.294   0.549   5.360  0.6379  1.1694 -1.6807
 7465TIP3   OH222351   0.096   0.888   2.111 -0.3459 -0.4115 -0.8904
 7465TIP3    H122352   0.028   0.883   2.179  0.5354  2.4326  0.3850
 7465TIP3    H222353   0.170   0.840   2.147 -0.0540  0.6622  0.0065
 7466TIP3   OH222354   3.214   4.999   3.223  0.1737 -0.0577 -0.5531
 7466TIP3    H122355   3.201   5.083   3.267  1.8564 -0.1823  0.2504
 7466TIP3    H222356   3.264   4.946   3.285 -1.2101 -1.8384 -0.8644
 7467TIP3   OH222357   0.684   2.094   0.921  0.0654 -0.2223 -0.2033
 7467TIP3    H122358   0.772   2.108   0.956  0.0059  0.4005 -0.2897
 7467TIP3    H222359   0.628   2.150   0.974 -0.4345 -1.3583  0.4993
 7468TIP3   OH222360   0.905   6.215   4.719 -0.2553 -0.4732  0.9014
 7468TIP3    H122361   0.949   6.196   4.802  0.1215 -0.0307  0.8096
 7468TIP3    H222362   0.971   6.195   4.652  0.0594  0.8468  0.7901
 7469TIP3   OH222363   3.670   5.635   0.698 -0.4321  0.1994 -0.1159
 7469TIP3    H122364   3.685   5.729   0.697 -0.0542  0.1643  1.1177
 7469TIP3    H222365   3.575   5.626   0.707 -0.5586  0.4420 -1.0842
 7470TIP3   OH222366   0.607   6.590   6.709 -0.1044  0.6923  0.4596
 7470TIP3    H122367   0.677   6.603   6.646 -0.3032  0.2753  0.1493
 7470TIP3    H222368   0.649   6.543   6.782 -0.1721  0.0003  0.0549
 7471TIP3   OH222369   0.794   6.008   1.513 -0.7163  0.2557 -0.0253
 7471TIP3    H122370   0.810   6.081   1.572  1.5587 -0.7620  0.7127
 7471TIP3    H222371   0.857   6.021   1.441  0.3138 -1.3595  0.5334
 7472TIP3   OH222372   2.970   5.900   4.517 -0.1706 -0.3730 -0.1936
 7472TIP3    H122373   2.993   5.990   4.539  1.6124 -1.2615  1.9591
 7472TIP3    H222374   3.020   5.882   4.438 -0.6831  0.5398 -0.7513
 7473TIP3   OH222375   1.551   1.089   1.163  0.1070 -0.2988 -0.2983
 7473TIP3    H122376   1.563   1.165   1.220 -0.0369 -1.2052  0.9705
 7473TIP3    H222377   1.547   1.127   1.075 -0.8591  1.2622  0.3599
 7474TIP3   OH222378   4.974   6.970   0.343 -0.1260  0.2390  0.3787
 7474TIP3    H122379   5.008   7.041   0.397  1.1323 -0.8759  1.1232
 7474TIP3    H222380   5.044   6.952   0.280 -1.1730  0.8553 -1.0210
 7475TIP3   OH222381   6.908   7.586   1.736 -0.5639 -0.0891 -1.0140
 7475TIP3    H122382   6.930   7.582   1.829 -0.6600 -0.0292 -0.9894
 7475TIP3    H222383   6.981   7.634   1.696 -0.2020 -0.6641 -1.0656
 7476TIP3   OH222384   0.760   1.402   2.100 -0.5691  0.7523  0.5158
 7476TIP3    H122385   0.804   1.436   2.178  0.1013  0.5216  0.2456
 7476TIP3    H222386   0.786   1.461   2.030 -0.1091  0.2145  0.2182
 7477TIP3   OH222387   7.754   2.657   0.062  0.1811  0.3046  0.6414
 7477TIP3    H122388   7.845   2.635   0.078  0.3392 -0.1029 -0.7073
 7477TIP3    H222389   7.758   2.730  -0.000 -0.3769 -1.0616 -1.1007
 7478TIP3   OH222390   0.245   6.952   4.472  0.0377  0.0944 -0.0819
 7478TIP3    H122391   0.300   6.876   4.492  0.0323  0.0840 -0.1069
 7478TIP3    H222392   0.217   6.985   4.557 -0.9087 -0.6140 -0.1053
 7479TIP3   OH222393   5.693   4.810   2.529 -0.4218 -0.0633  0.1196
 7479TIP3    H122394   5.700   4.773   2.440  0.7898  0.4670 -0.0293
 7479TIP3    H222395   5.747   4.751   2.583 -0.9359 -0.2277  0.4563
 7480TIP3   OH222396   1.713   0.531   5.534 -0.3414  0.2853 -0.0323
 7480TIP3    H122397   1.779   0.485   5.587  1.0993  0.6874 -1.4116
 7480TIP3    H222398   1.682   0.465   5.472 -0.1608  0.4786 -0.3307
 7481TIP3   OH222399   2.850   5.639   2.622  0.7264  0.1842  0.0396
 7481TIP3    H122400   2.928   5.620   2.674  1.7909  1.4182 -1.0216
 7481TIP3    H222401   2.876   5.712   2.566 -0.7715 -0.2547 -1.3065
 7482TIP3   OH222402   6.385   6.347   1.057  0.0477 -0.3328  0.2440
 7482TIP3    H122403   6.473   6.383   1.069  0.0980 -0.5377  0.4871
 7482TIP3    H222404   6.342   6.360   1.141 -0.4132  0.4550 -0.0954
 7483TIP3   OH222405   0.084   2.020   5.150  0.5781  0.1400  0.0403
 7483TIP3    H122406   0.128   1.958   5.092 -1.8723 -1.5238 -0.1966
 7483TIP3    H222407   0.059   1.967   5.226  0.0154  1.2943  0.6801
 7484TIP3   OH222408   5.465   6.529   2.697  0.2843  0.0295 -0.0912
 7484TIP3    H122409   5.403   6.559   2.631  0.9359  0.8353 -0.3575
 7484TIP3    H222410   5.440   6.439   2.716 -1.3830  0.5409  0.2859
 7485TIP3   OH222411   7.944   6.015   5.861 -0.1937 -0.0226  0.9930
 7485TIP3    H122412   8.030   5.989   5.827 -0.8466 -2.1577  0.8055
 7485TIP3    H222413   7.955   6.106   5.888  1.7812  0.1298 -0.1506
 7486TIP3   OH222414   4.665   0.500   1.709 -0.0934  0.3147 -0.6395
 7486TIP3    H122415   4.674   0.443   1.786 -2.6890 -0.6118 -0.9148
 7486TIP3    H222416   4.716   0.456   1.641  0.3438 -0.0866 -0.0684
 7487TIP3   OH222417   4.012   0.601   1.605  0.9894 -0.0148 -0.7689
 7487TIP3    H122418   4.023   0.682   1.655 -2.1611 -0.3812  0.7731
 7487TIP3    H222419   4.058   0.535   1.656  1.2565  0.3451 -0.5427
 7488TIP3   OH222420   4.970   3.812   4.463 -0.1209  0.0715  0.0641
 7488TIP3    H122421   4.982   3.883   4.526 -0.9304  2.4976 -2.3678
 7488TIP3    H222422   5.049   3.814   4.409 -0.6761 -0.0527 -0.7720
 7489TIP3   OH222423   5.623   2.997   2.128 -0.1779 -0.4499  0.0789
 7489TIP3    H122424   5.577   2.976   2.209 -2.5307  0.1248 -1.0281
 7489TIP3    H222425   5.693   3.056   2.155 -0.4595 -0.8315  1.7663
 7490TIP3   OH222426   7.339   2.686   5.090 -0.1442 -0.3778 -0.4076
 7490TIP3    H122427   7.433   2.668   5.085 -0.0606 -0.2909  0.7742
 7490TIP3    H222428   7.323   2.748   5.019  0.4816 -1.2247 -1.3170
 7491TIP3   OH222429   7.617   0.067   4.758 -0.0156  0.1076 -0.0455
 7491TIP3    H122430   7.538   0.024   4.793 -0.0408 -0.0518 -0.2933
 7491TIP3    H222431   7.643   0.011   4.685  0.0232  0.4499 -0.2938
 7492TIP3   OH222432   5.159   5.804   6.093 -0.0633  0.0532 -0.5929
 7492TIP3    H122433   5.230   5.768   6.146 -0.1785 -0.8774 -1.0449
 7492TIP3    H222434   5.167   5.760   6.009 -0.9153  0.2515 -0.7908
 7493TIP3   OH222435   3.111   1.916   4.880 -0.2254  0.1252 -0.8817
 7493TIP3    H122436   3.033   1.971   4.882 -0.3751 -0.0952 -0.2949
 7493TIP3    H222437   3.096   1.852   4.950  0.7310  0.4237 -0.3876
 7494TIP3   OH222438   5.518   7.309   4.493 -0.2427 -0.2414 -0.2373
 7494TIP3    H122439   5.607   7.311   4.526 -0.7618  1.1477  1.2254
 7494TIP3    H222440   5.520   7.246   4.421  1.7461 -0.7226  0.1854
 7495TIP3   OH222441   2.570   3.667   4.895  0.5510  0.0166 -0.0023
 7495TIP3    H122442   2.483   3.630   4.910  0.9686 -0.8446  0.4190
 7495TIP3    H222443   2.592   3.643   4.805 -0.2057  1.4665 -0.6094
 7496TIP3   OH222444   0.610   0.959   2.731 -0.4116 -0.6389 -0.0607
 7496TIP3    H122445   0.624   0.888   2.668  2.2036 -0.1118 -0.2025
 7496TIP3    H222446   0.555   0.921   2.799  0.1959 -2.5328 -0.5717
 7497TIP3   OH222447   8.217   4.614   5.285  0.6028 -0.4512 -0.2225
 7497TIP3    H122448   8.203   4.674   5.359  0.7123  0.2742 -0.7830
 7497TIP3    H222449   8.176   4.658   5.211  1.3834 -0.7017 -0.8074
 7498TIP3   OH222450   0.177   5.991   3.280 -0.1368  0.4347 -0.5958
 7498TIP3    H122451   0.119   6.065   3.264  1.1428  1.3718 -1.1015
 7498TIP3    H222452   0.217   6.009   3.365 -2.1663 -1.3191  0.8079
 7499TIP3   OH222453   4.255   6.578   3.108 -0.1520 -0.1391 -0.0904
 7499TIP3    H122454   4.336   6.528   3.122  1.1893  1.4684 -1.7368
 7499TIP3    H222455   4.284   6.661   3.072 -2.5678  0.4937 -0.7247
 7500TIP3   OH222456   1.147   5.250   1.568  0.1192 -0.9675 -0.3203
 7500TIP3    H122457   1.198   5.169   1.558  0.5115 -0.8382  0.5626
 7500TIP3    H222458   1.155   5.272   1.660 -0.0147  0.0638 -0.5445
 7501TIP3   OH222459   4.035   3.613   1.805 -0.2208 -0.2069  0.6244
 7501TIP3    H122460   4.090   3.671   1.753  1.7957 -1.0077  1.7172
 7501TIP3    H222461   3.973   3.576   1.743 -0.5119  1.8396 -0.3895
 7502TIP3   OH222462   6.116   7.577   6.771 -0.3883 -0.5663  0.4739
 7502TIP3    H122463   6.136   7.492   6.730 -0.2878 -0.3060 -0.0264
 7502TIP3    H222464   6.027   7.567   6.804  0.7166 -2.0160  3.4274
 7503TIP3   OH222465   0.416   4.034   2.110  0.2802 -0.0840  0.3330
 7503TIP3    H122466   0.504   4.071   2.120  0.8906 -1.1237 -0.9180
 7503TIP3    H222467   0.366   4.101   2.065  0.6677  0.1986  0.3229
 7504TIP3   OH222468   2.406   2.751   5.614  0.1746 -0.1799  0.3434
 7504TIP3    H122469   2.347   2.818   5.578 -1.9470 -3.2185 -2.4279
 7504TIP3    H222470   2.351   2.698   5.671  1.4802 -0.3926  1.4661
 7505TIP3   OH222471   7.560   6.046   1.730  0.0815 -0.0462  0.4896
 7505TIP3    H122472   7.559   6.121   1.790  0.4551  0.5808 -0.2665
 7505TIP3    H222473   7.468   6.021   1.721 -0.3137  1.7622 -0.9960
 7506TIP3   OH222474   2.069   5.413   4.705  0.4312 -0.6869 -0.5082
 7506TIP3    H122475   2.133   5.342   4.717  1.6412  0.4256 -0.2083
 7506TIP3    H222476   2.066   5.428   4.611 -0.0859 -1.3428 -0.6069
 7507TIP3   OH222477   6.129   1.436   2.463  0.0551  0.3348  0.5713
 7507TIP3    H122478   6.061   1.384   2.418 -0.1855  1.7952 -0.8479
 7507TIP3    H222479   6.081   1.483   2.531  0.1733 -0.8202  1.4769
 7508TIP3   OH222480   0.136   2.139   1.309 -0.5056 -0.2698  0.3338
 7508TIP3    H122481   0.159   2.231   1.326  0.4746 -0.8484  2.6025
 7508TIP3    H222482   0.164   2.123   1.219  1.1129  1.1598  0.5323
 7509TIP3   OH222483   3.490   5.920   5.872  0.0264 -0.4677  0.0944
 7509TIP3    H122484   3.441   5.954   5.797 -0.6785 -1.1962  0.2187
 7509TIP3    H222485   3.440   5.949   5.949 -2.0901 -3.8154  0.1990
 7510TIP3   OH222486   3.532   0.712   1.786 -0.1290 -0.1176 -0.0496
 7510TIP3    H122487   3.491   0.777   1.729  1.1901  1.0093  0.2360
 7510TIP3    H222488   3.493   0.727   1.872  0.7373  0.8743  0.1958
 7511TIP3   OH222489   2.797   5.869   1.224 -0.3670 -0.1017 -0.2216
 7511TIP3    H122490   2.857   5.834   1.158  1.4055  1.8771  0.2503
 7511TIP3    H222491   2.787   5.961   1.201 -2.9191 -0.2502  0.0107
 7512TIP3   OH222492   3.738   3.640   6.272  0.4555  0.0667  0.1197
 7512TIP3    H122493   3.664   3.646   6.333  0.9056  1.0053  0.5979
 7512TIP3    H222494   3.813   3.673   6.322  0.9177  0.4359 -0.8014
 7513TIP3   OH222495   5.149   1.423   6.031 -0.5125 -0.2953  0.2502
 7513TIP3    H122496   5.222   1.470   6.071 -0.6052 -1.0705  1.3814
 7513TIP3    H222497   5.155   1.334   6.067 -1.1105 -0.7995 -0.8251
 7514TIP3   OH222498   4.438   3.275   6.549  0.2151  0.0929  0.2153
 7514TIP3    H122499   4.476   3.293   6.463 -0.9146 -1.1834 -0.5778
 7514TIP3    H222500   4.344   3.275   6.534 -0.1535  2.4108  1.9846
 7515TIP3   OH222501   4.884   4.575   5.685  0.2752 -0.0367  0.1379
 7515TIP3    H122502   4.869   4.654   5.737 -0.8109  1.2435 -1.9731
 7515TIP3    H222503   4.980   4.568   5.680  0.4866  2.6013 -1.5580
 7516TIP3   OH222504   6.349   2.379   0.286 -0.5363  0.1594 -0.0824
 7516TIP3    H122505   6.442   2.369   0.263  0.7582  0.0933  4.3265
 7516TIP3    H222506   6.326   2.296   0.328 -1.4813  1.3749  1.9413
 7517TIP3   OH222507   3.773   5.655   5.772 -0.1341  0.0527  0.3567
 7517TIP3    H122508   3.773   5.559   5.774 -0.5133 -0.0180 -1.3410
 7517TIP3    H222509   3.772   5.677   5.678 -1.3361  1.7123  0.7177
 7518TIP3   OH222510   1.303   3.764   2.806 -0.2988  0.1597  0.1761
 7518TIP3    H122511   1.230   3.736   2.751  1.5237 -0.9097 -1.8693
 7518TIP3    H222512   1.270   3.840   2.853 -2.7559 -0.3782 -0.5246
 7519TIP3   OH222513   4.510   1.612   6.305  0.2482 -0.7151 -0.3512
 7519TIP3    H122514   4.415   1.627   6.300 -0.1131 -2.8777 -1.3305
 7519TIP3    H222515   4.520   1.545   6.372  1.6440  2.4881  3.0275
 7520TIP3   OH222516   5.489   6.486   3.494 -0.0511  0.2923  0.1082
 7520TIP3    H122517   5.525   6.495   3.406  1.9631 -1.4525  0.6747
 7520TIP3    H222518   5.517   6.399   3.523  0.1651  1.1619  2.8113
 7521TIP3   OH222519   0.386   5.188   0.502 -0.0559  0.3932  0.2579
 7521TIP3    H122520   0.467   5.199   0.552 -0.1386  2.1917  0.0617
 7521TIP3    H222521   0.318   5.181   0.568  0.1777 -0.4906  0.4153
 7522TIP3   OH222522   6.680   7.035   0.737  0.4695 -0.2448  0.3446
 7522TIP3    H122523   6.684   6.994   0.823  0.5304  0.0590  0.4884
 7522TIP3    H222524   6.679   7.129   0.755 -0.8896 -0.1830  0.0775
 7523TIP3   OH222525   0.490   1.513   4.525 -0.2363  0.0560  0.5449
 7523TIP3    H122526   0.458   1.476   4.443 -1.2187  2.0657 -0.0271
 7523TIP3    H222527   0.577   1.547   4.504  0.5794 -1.6042  1.0203
 7524TIP3   OH222528   3.637   6.901   3.066 -0.0072  0.0514 -0.0007
 7524TIP3    H122529   3.650   6.808   3.050 -1.3615  0.0155 -0.9450
 7524TIP3    H222530   3.661   6.944   2.984  0.8300  0.5766  0.4985
 7525TIP3   OH222531   2.663   0.855   1.537 -0.1116 -0.0196 -0.4836
 7525TIP3    H122532   2.592   0.805   1.497  0.5917 -0.8851 -0.6762
 7525TIP3    H222533   2.659   0.941   1.494 -0.4105 -0.3875 -1.2114
 7526TIP3   OH222534   2.164  -0.005   3.074  0.3738  0.0521  0.5549
 7526TIP3    H122535   2.201   0.078   3.045 -0.7738  0.4670  0.2557
 7526TIP3    H222536   2.191  -0.012   3.166  0.2279  0.8954  0.6688
 7527TIP3   OH222537   5.495   6.816   4.430 -0.2739  0.8323  0.1417
 7527TIP3    H122538   5.548   6.878   4.480 -1.3317  1.5444  0.4079
 7527TIP3    H222539   5.459   6.868   4.358  1.6096 -0.2726 -1.7434
 7528TIP3   OH222540   0.110   0.672   0.599  0.1054  0.3085  0.3131
 7528TIP3    H122541   0.020   0.674   0.568  0.3867  1.1549 -0.5075
 7528TIP3    H222542   0.123   0.583   0.631 -1.0416  0.2045  0.5255
 7529TIP3   OH222543   1.342   1.538   2.539 -0.4440  0.2713 -0.1863
 7529TIP3    H122544   1.319   1.500   2.455 -1.6977 -0.1520  0.3291
 7529TIP3    H222545   1.433   1.512   2.554 -0.1949  0.3981 -1.4191
 7530TIP3   OH222546   3.740   7.340   5.034 -0.1092  0.1728  0.3736
 7530TIP3    H122547   3.729   7.361   5.126 -0.0233 -1.6986  0.8312
 7530TIP3    H222548   3.712   7.249   5.026  0.9257 -0.0428 -1.2390
 7531TIP3   OH222549   4.418   5.874   3.560  0.2609 -0.7314 -0.2767
 7531TIP3    H122550   4.337   5.827   3.576 -0.3130  0.2596 -0.1745
 7531TIP3    H222551   4.426   5.935   3.634  0.5222 -0.0587 -0.8450
 7532TIP3   OH222552   5.300   0.272   5.064 -0.3215 -0.8058  0.0651
 7532TIP3    H122553   5.240   0.233   5.000 -1.1098 -0.0968  0.3465
 7532TIP3    H222554   5.330   0.353   5.023 -0.7500 -0.3987  0.5380
 7533TIP3   OH222555   4.311   4.460   5.134 -0.3058  0.0628  0.2670
 7533TIP3    H122556   4.277   4.472   5.046 -1.1543  1.7498  0.7884
 7533TIP3    H222557   4.402   4.489   5.130 -0.7943  1.6844  0.2713
 7534TIP3   OH222558   0.946   7.416   3.488 -0.2139  0.4129  0.1350
 7534TIP3    H122559   0.952   7.501   3.445  0.2988  0.9782  1.2718
 7534TIP3    H222560   0.909   7.358   3.422 -1.6340  1.7676 -0.3102
 7535TIP3   OH222561   2.109   0.444   6.219  0.0493  0.8412  0.2445
 7535TIP3    H122562   2.031   0.465   6.168 -0.3236 -2.2926 -0.7004
 7535TIP3    H222563   2.180   0.493   6.177 -0.6487  0.1046 -1.9399
 7536TIP3   OH222564   3.544   3.661   6.702 -0.1714  0.3172  0.2731
 7536TIP3    H122565   3.579   3.593   6.760 -0.0238 -0.4010 -0.6411
 7536TIP3    H222566   3.543   3.740   6.757  1.6608  0.0745  0.7425
 7537TIP3   OH222567   0.123   3.956   4.273  0.2699 -0.3982  0.4279
 7537TIP3    H122568   0.031   3.941   4.297 -0.0458 -1.4554 -1.2629
 7537TIP3    H222569   0.168   3.876   4.299  0.1380 -1.0723 -1.2885
 7538TIP3   OH222570   0.380   7.333   2.748 -0.5754  0.2918  0.2908
 7538TIP3    H122571   0.312   7.276   2.786 -1.0004 -1.1511 -2.3429
 7538TIP3    H222572   0.332   7.391   2.689  0.1038  2.0727  1.4167
 7539TIP3   OH222573   6.473   2.136   5.997  0.6899 -0.1822 -0.1149
 7539TIP3    H122574   6.460   2.205   6.062 -1.2195 -0.3390 -0.2643
 7539TIP3    H222575   6.455   2.055   6.045  1.3792 -0.4697 -0.3275
 7540TIP3   OH222576   1.723   4.434   6.703 -0.2456  0.4393 -0.1078
 7540TIP3    H122577   1.659   4.410   6.636 -0.5463 -0.6494  0.5358
 7540TIP3    H222578   1.671   4.473   6.773 -0.0294  0.8494 -0.1735
 7541TIP3   OH222579   2.073   3.788   2.924  0.1808 -0.5070  0.6833
 7541TIP3    H122580   2.004   3.740   2.969  0.4073 -0.6551  0.8794
 7541TIP3    H222581   2.034   3.815   2.841 -0.2433 -0.2237  0.9759
 7542TIP3   OH222582   2.547   5.284   6.176 -0.2020  0.2985 -0.8479
 7542TIP3    H122583   2.578   5.221   6.241 -0.7006  0.8054 -0.1030
 7542TIP3    H222584   2.602   5.268   6.099  2.3413  1.5427  0.5701
 7543TIP3   OH222585   6.333   0.710   2.537 -0.2362 -0.0080 -0.0730
 7543TIP3    H122586   6.313   0.748   2.623 -1.0204  0.5176 -0.4757
 7543TIP3    H222587   6.324   0.784   2.476  0.6940 -0.2896 -0.5649
 7544TIP3   OH222588   6.580   2.868   3.243 -0.1478 -0.1420  0.1371
 7544TIP3    H122589   6.610   2.927   3.312  1.6738 -1.7272  0.7705
 7544TIP3    H222590   6.643   2.880   3.172 -0.6716 -0.2211 -0.3561
 7545TIP3   OH222591   7.592   7.588   0.052  0.4917  0.1354  0.0750
 7545TIP3    H122592   7.642   7.563  -0.025  0.9961 -0.3289  0.5476
 7545TIP3    H222593   7.640   7.661   0.090  0.7509 -0.2211  0.4501
 7546TIP3   OH222594   1.245   0.681   2.565 -0.2209 -0.6356 -0.5619
 7546TIP3    H122595   1.294   0.605   2.535 -1.5245 -1.9220  0.4538
 7546TIP3    H222596   1.154   0.653   2.566 -0.8360  1.1719 -0.8392
 7547TIP3   OH222597   3.100   5.691   6.419 -0.4416 -0.1422 -0.1428
 7547TIP3    H122598   3.036   5.634   6.377  0.2631 -0.7713 -0.3816
 7547TIP3    H222599   3.147   5.732   6.347 -1.1009  0.9489  0.0239
 7548TIP3   OH222600   4.234   6.919   5.423 -0.3667  0.0965 -0.3206
 7548TIP3    H122601   4.281   7.001   5.407 -1.3125  0.7194 -0.0115
 7548TIP3    H222602   4.178   6.938   5.499  0.1549 -1.1600  0.4233
 7549TIP3   OH222603   7.586   7.347   0.520 -0.2794  0.1602 -0.2193
 7549TIP3    H122604   7.506   7.340   0.573  0.1669  0.0068  0.4501
 7549TIP3    H222605   7.569   7.421   0.462 -0.6069  0.6288  0.4558
 7550TIP3   OH222606   5.431   5.717   2.401  0.1638 -0.0405 -0.0600
 7550TIP3    H122607   5.375   5.753   2.470 -1.0446 -1.8369 -0.0435
 7550TIP3    H222608   5.460   5.632   2.435  1.1105 -0.1133 -0.9923
 7551TIP3   OH222609   4.513   2.702   2.468  0.4247  0.6026 -0.0695
 7551TIP3    H122610   4.576   2.774   2.471  3.7553 -2.0925  0.6889
 7551TIP3    H222611   4.519   2.669   2.378 -0.3661  0.6290 -0.1409
 7552TIP3   OH222612   3.597   0.585   2.699 -0.0687 -0.4597  0.4208
 7552TIP3    H122613   3.655   0.645   2.652  0.2417  1.2768  2.8369
 7552TIP3    H222614   3.650   0.506   2.712 -1.0906 -2.3099 -4.4326
 7553TIP3   OH222615   2.449   2.603   1.369 -0.8410 -0.1065 -0.1444
 7553TIP3    H122616   2.482   2.688   1.341  0.1030 -0.0363  1.1031
 7553TIP3    H222617   2.386   2.622   1.438  1.4928 -0.4256  2.2533
 7554TIP3   OH222618   7.028   7.607   0.750  0.3269 -0.3088 -0.3463
 7554TIP3    H122619   7.108   7.629   0.799  0.8100  0.1718 -1.3259
 7554TIP3    H222620   7.056   7.605   0.659 -0.7535 -0.2944 -0.6859
 7555TIP3   OH222621   7.328   0.919   3.457 -0.8867 -0.2134  0.2851
 7555TIP3    H122622   7.327   0.950   3.547  0.1265  1.3140 -0.1814
 7555TIP3    H222623   7.237   0.900   3.437 -0.9532 -2.0536  2.0826
 7556TIP3   OH222624   4.480   6.489   2.248 -0.2269 -0.1389  0.0006
 7556TIP3    H122625   4.426   6.467   2.171 -0.3689 -1.1772  0.3867
 7556TIP3    H222626   4.550   6.545   2.213 -0.5819 -0.1815 -0.7947
 7557TIP3   OH222627   1.620   6.142   2.310 -0.4071  0.0963  0.6269
 7557TIP3    H122628   1.609   6.235   2.294  0.4364  0.1804  0.4845
 7557TIP3    H222629   1.697   6.118   2.258 -0.0627 -0.4824  1.3878
 7558TIP3   OH222630   6.609   1.084   5.128  0.1009  0.1953  0.7754
 7558TIP3    H122631   6.605   1.171   5.169 -0.0530  0.4871  0.1607
 7558TIP3    H222632   6.624   1.103   5.035  0.1186 -0.4405  0.6473
 7559TIP3   OH222633   1.320   4.307   2.692  0.5276  0.0609  0.2788
 7559TIP3    H122634   1.261   4.350   2.754 -0.3933  1.7965 -1.6290
 7559TIP3    H222635   1.404   4.351   2.704  0.8333 -0.8283  1.4589
 7560TIP3   OH222636   3.110   5.975   6.254  0.3383 -0.3685 -0.4701
 7560TIP3    H122637   3.041   5.974   6.189  0.5502 -0.1991 -0.6994
 7560TIP3    H222638   3.142   6.066   6.255 -0.4707 -0.0710  0.7305
 7561TIP3   OH222639   8.028   5.497   4.147 -0.7302 -0.5754 -0.2226
 7561TIP3    H122640   7.991   5.447   4.074  1.0650 -0.0723 -1.5286
 7561TIP3    H222641   8.122   5.486   4.139 -0.3439  1.8147  0.3132
 7562TIP3   OH222642   3.246   4.890   3.607 -0.6101  0.1438  0.1245
 7562TIP3    H122643   3.314   4.950   3.577  0.0339 -0.6825 -0.0943
 7562TIP3    H222644   3.265   4.808   3.562 -0.9160 -0.4986  1.1487
 7563TIP3   OH222645   1.008   0.858   3.482 -0.1480 -0.1511  0.3350
 7563TIP3    H122646   0.995   0.796   3.410 -0.3863 -0.3095  0.5137
 7563TIP3    H222647   1.095   0.895   3.466 -0.5678  0.5015 -0.5618
 7564TIP3   OH222648   3.876   7.431   1.756  0.2798  0.1886  0.2381
 7564TIP3    H122649   3.818   7.498   1.793 -0.6790  0.0326 -0.9145
 7564TIP3    H222650   3.842   7.348   1.790 -0.7551  0.0254 -1.1251
 7565TIP3   OH222651   8.053   6.948   4.274 -0.2522  0.9197 -0.5013
 7565TIP3    H122652   7.989   6.899   4.222 -0.6664 -0.0740  0.8888
 7565TIP3    H222653   8.107   6.880   4.315 -1.0116  1.5594  1.6877
 7566TIP3   OH222654   2.006   0.841   2.662 -0.3642  0.0939  0.2552
 7566TIP3    H122655   2.039   0.767   2.610  0.4409 -0.3469  1.3549
 7566TIP3    H222656   1.946   0.887   2.602  0.2786 -0.5704 -0.9496
 7567TIP3   OH222657   5.513   0.598   0.829 -0.5080 -0.0768  0.1114
 7567TIP3    H122658   5.417   0.599   0.829 -0.5981  0.6147  3.2727
 7567TIP3    H222659   5.538   0.690   0.818 -0.1864 -0.2414 -0.5857
 7568TIP3   OH222660   2.628   4.500   5.954  0.3387  0.3925  0.2140
 7568TIP3    H122661   2.654   4.590   5.973 -0.4896  0.7614 -0.3139
 7568TIP3    H222662   2.581   4.506   5.871  0.1198 -0.5054  0.2602
 7569TIP3   OH222663   5.880   5.434   5.189 -0.5047 -0.3214  0.4590
 7569TIP3    H122664   5.829   5.497   5.241 -0.1314  0.0098  0.4273
 7569TIP3    H222665   5.968   5.438   5.225  0.0328  0.7090 -0.8888
 7570TIP3   OH222666   1.879   3.766   0.272  0.3605  0.1073 -0.3101
 7570TIP3    H122667   1.946   3.832   0.292  0.7839 -0.6823  0.9626
 7570TIP3    H222668   1.924   3.682   0.285 -0.7460 -0.4296  0.1280
 7571TIP3   OH222669   1.304   5.905   1.204 -0.2274  0.2068  0.1965
 7571TIP3    H122670   1.350   5.823   1.185  0.1594  0.5810 -0.5063
 7571TIP3    H222671   1.300   5.950   1.120  0.4437  1.3578  0.7670
 7572TIP3   OH222672   4.241   5.053   5.771 -0.1160 -0.0872  0.2203
 7572TIP3    H122673   4.177   5.008   5.826 -0.2732 -0.9762 -0.6642
 7572TIP3    H222674   4.249   4.998   5.693  0.9554  0.5499 -0.1428
 7573TIP3   OH222675   3.682   7.479   0.925 -0.4239 -0.2793 -0.1104
 7573TIP3    H122676   3.589   7.499   0.915 -0.3672  1.3636  1.9038
 7573TIP3    H222677   3.684   7.400   0.979 -0.6405 -0.6261 -0.6047
 7574TIP3   OH222678   1.918   6.083   1.503  0.8064 -0.0653  0.0583
 7574TIP3    H122679   1.944   6.173   1.519  2.5433 -0.2771 -1.1821
 7574TIP3    H222680   1.981   6.031   1.554  1.2009 -0.5744 -0.9178
 7575TIP3   OH222681   7.045   5.562   2.447  0.4594  0.3913 -0.0369
 7575TIP3    H122682   7.100   5.640   2.441  1.1311 -0.1554 -1.6909
 7575TIP3    H222683   7.099   5.498   2.492  0.9990  0.0247 -1.1781
 7576TIP3   OH222684   3.528   6.858   2.075  0.2238  0.4539  0.4668
 7576TIP3    H122685   3.542   6.921   2.004  1.3825  0.2270  0.4833
 7576TIP3    H222686   3.454   6.805   2.045 -0.8353  1.8302  0.4790
 7577TIP3   OH222687   1.725   4.609   6.011 -0.1964  0.1151  0.4740
 7577TIP3    H122688   1.682   4.694   6.014  0.0443  0.2169  1.1490
 7577TIP3    H222689   1.800   4.617   6.069 -1.1918 -1.0968  2.0453
 7578TIP3   OH222690   8.156   0.998   5.536 -0.4639 -0.0855  0.0602
 7578TIP3    H122691   8.218   1.025   5.469 -0.7539  0.5305  0.0348
 7578TIP3    H222692   8.164   1.065   5.604 -2.2044  0.8557 -0.6291
 7579TIP3   OH222693   7.831   4.676   6.584 -0.1245 -0.1003  0.3609
 7579TIP3    H122694   7.868   4.589   6.599 -0.6029 -0.2893  0.4542
 7579TIP3    H222695   7.775   4.692   6.660  0.1643  0.4004  0.4714
 7580TIP3   OH222696   1.326   6.471   0.704  0.0675 -0.2815 -0.6400
 7580TIP3    H122697   1.351   6.549   0.655 -0.0694 -0.3256 -0.7795
 7580TIP3    H222698   1.365   6.484   0.791 -0.2627  0.1072 -0.5493
 7581TIP3   OH222699   6.417   5.927   3.782  0.3158 -0.1768  0.3371
 7581TIP3    H122700   6.363   5.855   3.748 -1.5862  0.7780  1.1899
 7581TIP3    H222701   6.501   5.916   3.738 -0.4729 -1.8883 -0.8735
 7582TIP3   OH222702   4.232   2.720   1.688 -0.3691 -0.2420 -0.2146
 7582TIP3    H122703   4.163   2.675   1.736 -0.1806 -0.5381 -0.2217
 7582TIP3    H222704   4.205   2.714   1.596  0.1074 -1.1342 -0.3062
 7583TIP3   OH222705   4.495   7.342   2.718  0.5068 -0.0970  0.7119
 7583TIP3    H122706   4.578   7.298   2.701 -0.3774 -1.6551  0.3193
 7583TIP3    H222707   4.456   7.355   2.631 -1.1445 -2.3927  1.0353
 7584TIP3   OH222708   2.411   4.993   5.660  0.7846  0.9537 -0.6334
 7584TIP3    H122709   2.349   5.042   5.714  1.8749  2.0317 -0.3070
 7584TIP3    H222710   2.446   5.058   5.599  1.8270  0.4531 -0.5928
 7585TIP3   OH222711   7.451   7.705   2.126  0.0393 -0.0775  0.3645
 7585TIP3    H122712   7.537   7.746   2.135  0.5394 -1.1207  0.5160
 7585TIP3    H222713   7.433   7.707   2.032 -0.3198  1.2142  0.4501
 7586TIP3   OH222714   0.263   2.543   1.758 -0.5784 -0.2776  0.4300
 7586TIP3    H122715   0.220   2.620   1.720  0.5398 -0.5211 -1.4343
 7586TIP3    H222716   0.307   2.577   1.836 -1.3297  0.6546  0.4746
 7587TIP3   OH222717   7.185   5.073   4.942 -0.4277 -0.1878  0.2092
 7587TIP3    H122718   7.183   5.086   5.036 -0.1639  0.2993  0.1536
 7587TIP3    H222719   7.124   5.138   4.907  0.2518  0.3399 -0.0200
 7588TIP3   OH222720   2.701   6.966   0.941 -0.6082 -0.0782 -0.4587
 7588TIP3    H122721   2.714   7.019   1.019 -0.0004 -1.2633  0.2706
 7588TIP3    H222722   2.752   7.011   0.873  1.1239 -0.4880  0.5066
 7589TIP3   OH222723   2.428   2.717   6.333 -0.6600 -0.3567 -0.0086
 7589TIP3    H122724   2.431   2.661   6.411  0.1985 -1.6681 -0.9605
 7589TIP3    H222725   2.519   2.728   6.307 -0.8032  1.4660  0.0987
 7590TIP3   OH222726   5.287   1.961   2.509 -0.4056 -0.4102 -0.3235
 7590TIP3    H122727   5.214   1.916   2.465 -0.2022  0.0776 -1.1920
 7590TIP3    H222728   5.312   2.030   2.448 -0.4792  0.6694  0.8314
 7591TIP3   OH222729   2.630   6.562   4.889  0.3719 -0.5800 -0.6671
 7591TIP3    H122730   2.676   6.590   4.968 -0.8852 -0.3177 -0.0116
 7591TIP3    H222731   2.581   6.485   4.917  1.9790 -2.1323 -1.8739
 7592TIP3   OH222732   1.348   7.463   3.982 -0.2493 -0.0472  0.8247
 7592TIP3    H122733   1.433   7.423   4.003  1.2847  1.2645 -2.3165
 7592TIP3    H222734   1.289   7.388   3.970  1.8981 -1.4475 -2.3607
 7593TIP3   OH222735   7.378   4.337   6.099 -0.2938 -0.9045  0.1409
 7593TIP3    H122736   7.464   4.375   6.121 -0.8927  1.7657 -1.6132
 7593TIP3    H222737   7.333   4.330   6.183  1.1967 -1.2449  0.9596
 7594TIP3   OH222738   2.742   3.005   4.146  0.6573 -0.1374  0.0999
 7594TIP3    H122739   2.701   2.987   4.062 -1.3707 -0.1823  1.0270
 7594TIP3    H222740   2.832   3.029   4.125 -0.3436  1.9317 -2.2638
 7595TIP3   OH222741   1.398   3.541   5.525 -0.8385 -0.0057 -0.2700
 7595TIP3    H122742   1.338   3.615   5.514  0.6440  1.4243  0.7155
 7595TIP3    H222743   1.382   3.511   5.615  1.5456  2.0450  0.9737
 7596TIP3   OH222744   4.511   1.269   5.597  0.1827  0.6185 -0.1373
 7596TIP3    H122745   4.519   1.323   5.676  3.3953  3.3426 -2.0819
 7596TIP3    H222746   4.435   1.305   5.551  0.7301  1.8000 -0.1554
 7597TIP3   OH222747   7.731   3.515   4.298  0.2074 -0.0711 -0.2454
 7597TIP3    H122748   7.708   3.527   4.390 -0.6266 -0.7041 -0.3657
 7597TIP3    H222749   7.726   3.603   4.261 -0.0145  0.1006  0.1856
 7598TIP3   OH222750   5.147   2.545   2.040 -0.5833  0.4254  0.9274
 7598TIP3    H122751   5.067   2.594   2.060 -2.4808 -2.3202  0.5299
 7598TIP3    H222752   5.163   2.562   1.947 -0.6448  1.0088  1.0153
 7599TIP3   OH222753   2.017   1.090   0.862 -0.3304 -0.0484 -0.0876
 7599TIP3    H122754   2.085   1.154   0.877 -1.0529  1.0389 -1.2085
 7599TIP3    H222755   2.060   1.020   0.813 -0.2745  1.3453 -2.1863
 7600TIP3   OH222756   3.938   1.011   0.229  0.3167  0.2765 -0.1002
 7600TIP3    H122757   4.008   1.077   0.228  1.3795 -0.7996 -0.2357
 7600TIP3    H222758   3.861   1.057   0.199  0.6829  1.8079  1.1427
 7601TIP3   OH222759   6.286   1.103   0.307  0.2273  0.1108  0.2777
 7601TIP3    H122760   6.224   1.034   0.282 -0.8276  1.3942 -0.7612
 7601TIP3    H222761   6.279   1.108   0.403  1.3360 -2.1085  0.5469
 7602TIP3   OH222762   6.293   1.077   6.488  0.2289  0.1126  0.4752
 7602TIP3    H122763   6.238   1.086   6.566 -0.7569 -1.7954  0.0473
 7602TIP3    H222764   6.382   1.067   6.524  0.0905  1.3336  1.2384
 7603TIP3   OH222765   5.836   6.431   2.339 -0.2244 -0.6735 -0.3672
 7603TIP3    H122766   5.902   6.459   2.403  0.2626 -0.7942 -0.8116
 7603TIP3    H222767   5.830   6.336   2.351 -0.3585 -0.6559 -0.2912
 7604TIP3   OH222768   3.765   0.885   1.863  0.4291 -0.0677  0.0043
 7604TIP3    H122769   3.752   0.939   1.940  1.7453  1.3139 -0.6788
 7604TIP3    H222770   3.690   0.826   1.861  1.1990 -1.3281  3.2494
 7605TIP3   OH222771   4.641   3.875   6.022 -0.1074 -0.2049  0.3800
 7605TIP3    H122772   4.607   3.948   6.074  1.9367  1.3345 -0.3111
 7605TIP3    H222773   4.610   3.797   6.068  1.0953  1.0482  3.6133
 7606TIP3   OH222774   3.569   7.126   0.232  0.6859  0.6586  0.7064
 7606TIP3    H122775   3.545   7.209   0.190  0.4732 -0.0485 -0.6522
 7606TIP3    H222776   3.491   7.072   0.224  1.4498 -0.3589 -0.2903
 7607TIP3   OH222777   7.294   4.967   5.681  0.4244  0.3320  0.0307
 7607TIP3    H122778   7.303   5.053   5.639 -0.8437  0.9657  0.9618
 7607TIP3    H222779   7.204   4.967   5.714  0.7444 -0.9501  0.9502
 7608TIP3   OH222780   6.541   6.032   0.282 -0.0318 -0.2298 -0.1230
 7608TIP3    H122781   6.469   5.988   0.236  1.4777 -0.7475 -2.0800
 7608TIP3    H222782   6.609   5.966   0.290  0.5010  0.4330  1.1748
 7609TIP3   OH222783   2.472   2.970   4.203 -0.2350  0.5729 -0.2935
 7609TIP3    H122784   2.567   2.965   4.197 -0.2134  1.5358 -1.1517
 7609TIP3    H222785   2.449   2.916   4.279  1.1820  2.1403  1.3471
 7610TIP3   OH222786   2.687   0.063   2.599  0.0801 -0.2482 -0.3190
 7610TIP3    H122787   2.766   0.080   2.548  0.8083  1.2268  1.2053
 7610TIP3    H222788   2.623   0.127   2.566  0.4603  0.5112  0.3828
 7611TIP3   OH222789   2.066   7.789   2.276  0.3026  0.2557 -0.9702
 7611TIP3    H122790   2.088   7.699   2.253  1.0307  0.4729 -1.1314
 7611TIP3    H222791   2.134   7.816   2.338  0.0916  0.6976 -0.9274
 7612TIP3   OH222792   7.225   0.857   5.114  0.0262 -0.0237  0.2127
 7612TIP3    H122793   7.158   0.796   5.083  1.0274 -1.3314  0.5022
 7612TIP3    H222794   7.289   0.861   5.043 -0.2806  1.1177 -0.0139
 7613TIP3   OH222795   7.118   2.771   5.888 -0.3610 -0.1937 -0.9895
 7613TIP3    H122796   7.163   2.828   5.825 -2.1889  0.9790 -1.3078
 7613TIP3    H222797   7.149   2.802   5.973  0.1887 -0.0741 -1.2278
 7614TIP3   OH222798   5.887   5.623   0.254 -0.4396  0.6831 -0.4849
 7614TIP3    H122799   5.803   5.627   0.208 -1.3229 -1.3627  0.7987
 7614TIP3    H222800   5.952   5.612   0.184 -1.4397  0.4798 -1.4103
 7615TIP3   OH222801   7.185   7.114   4.023  0.3032  0.2947  0.5673
 7615TIP3    H122802   7.185   7.207   4.046 -0.8572  0.1630  1.1959
 7615TIP3    H222803   7.115   7.105   3.959  0.0555 -0.2196  0.8935
 7616TIP3   OH222804   1.285   7.008   3.728  0.7930 -0.6068  0.0174
 7616TIP3    H122805   1.300   6.937   3.666  1.2933 -0.1451 -0.3895
 7616TIP3    H222806   1.226   6.970   3.793  0.6144 -1.2252 -0.4973
 7617TIP3   OH222807   5.706   3.439   6.193  0.0071  0.3984  0.1970
 7617TIP3    H122808   5.797   3.440   6.164  0.1907 -0.7563  0.6544
 7617TIP3    H222809   5.656   3.418   6.114  0.1604  0.8530 -0.0181
 7618TIP3   OH222810   7.786   4.118   2.107  0.4734  0.2794  0.4943
 7618TIP3    H122811   7.723   4.166   2.053  1.3837 -0.9739 -1.8292
 7618TIP3    H222812   7.732   4.078   2.176 -1.3542 -0.7989 -1.4305
 7619TIP3   OH222813   6.600   6.911   2.124  0.2537  0.5327 -0.1497
 7619TIP3    H122814   6.684   6.891   2.083  0.3689  0.1590  0.2662
 7619TIP3    H222815   6.569   6.988   2.077  0.1151 -0.2146 -1.3427
 7620TIP3   OH222816   2.329   7.603   3.655 -0.1484 -0.0575 -0.7940
 7620TIP3    H122817   2.367   7.571   3.737 -0.1110  0.4264 -0.6215
 7620TIP3    H222818   2.390   7.670   3.624  1.2602 -2.0470 -2.6006
 7621TIP3   OH222819   0.412   4.085   2.557 -0.0143  0.0385 -0.2746
 7621TIP3    H122820   0.426   4.011   2.498 -1.3877 -0.6318  0.1872
 7621TIP3    H222821   0.493   4.091   2.607  0.1278 -1.1723 -0.3133
 7622TIP3   OH222822   7.880   3.625   6.551 -0.1606  0.0281  0.4007
 7622TIP3    H122823   7.846   3.568   6.482  0.3266 -0.6432  0.7106
 7622TIP3    H222824   7.853   3.584   6.633 -2.3386  1.7819  0.6593
 7623TIP3   OH222825   8.265   5.984   6.637  0.7076  0.0340 -0.6397
 7623TIP3    H122826   8.271   6.075   6.607  0.2130  0.5380  0.7223
 7623TIP3    H222827   8.340   5.974   6.696  0.6022 -0.3552 -0.5705
 7624TIP3   OH222828   6.945   0.219   6.762 -0.1012  0.2721 -0.0628
 7624TIP3    H122829   6.862   0.266   6.761  0.6784  1.7104 -0.3933
 7624TIP3    H222830   6.933   0.146   6.701 -1.2194  0.2627  0.1602
 7625TIP3   OH222831   4.033   2.043   0.507 -0.5795 -0.0094  0.4299
 7625TIP3    H122832   4.021   2.119   0.450 -2.2782 -1.3926 -1.2136
 7625TIP3    H222833   4.127   2.027   0.507 -0.3940  0.9199 -0.8377
 7626TIP3   OH222834   1.633   1.451   2.528  0.0025  0.2499 -0.1819
 7626TIP3    H122835   1.722   1.447   2.493  0.4929  1.0808  0.8846
 7626TIP3    H222836   1.644   1.482   2.618 -1.3992  0.8509 -0.1829
 7627TIP3   OH222837   5.944   4.572   2.205  0.3566  0.1467  0.0200
 7627TIP3    H122838   5.863   4.535   2.170 -0.0653  0.1596  0.9451
 7627TIP3    H222839   5.991   4.497   2.241  1.7859 -0.2106 -2.3687
 7628TIP3   OH222840   3.751   0.743   4.724  0.2958 -0.1106 -0.3680
 7628TIP3    H122841   3.817   0.697   4.672  0.9567 -0.7249  0.9655
 7628TIP3    H222842   3.712   0.675   4.779 -0.3716  0.5192 -0.0435
 7629TIP3   OH222843   3.940   0.735   0.251  0.4362 -0.4539 -0.2729
 7629TIP3    H122844   3.910   0.824   0.232 -1.1667 -0.9510 -0.2706
 7629TIP3    H222845   4.024   0.747   0.294 -0.4129  1.1632  1.0908
 7630TIP3   OH222846   0.405   4.613   3.561 -0.2573  0.3412 -0.0139
 7630TIP3    H122847   0.415   4.673   3.634 -1.5976  1.6561 -0.8748
 7630TIP3    H222848   0.316   4.625   3.530  0.3947  0.1631 -2.1587
 7631TIP3   OH222849   6.976   0.482   4.352  0.5680  0.0061 -0.5474
 7631TIP3    H122850   6.925   0.447   4.426  1.3241  1.8680  0.9352
 7631TIP3    H222851   6.912   0.530   4.300  0.2724 -0.1752 -0.3627
 7632TIP3   OH222852   7.668   0.712   1.467 -0.9116  0.2672 -0.2148
 7632TIP3    H122853   7.684   0.703   1.373 -1.2223 -2.0930 -0.1104
 7632TIP3    H222854   7.617   0.792   1.476 -2.6625 -0.5279 -2.3061
 7633TIP3   OH222855   0.864   0.295   5.188 -0.2650  0.4758  0.2913
 7633TIP3    H122856   0.779   0.252   5.184  0.5077 -1.0412 -0.8861
 7633TIP3    H222857   0.917   0.237   5.243  0.5199  0.4108 -0.5046
 7634TIP3   OH222858   3.574   6.366   1.103 -0.4581 -0.0973  0.5287
 7634TIP3    H122859   3.639   6.295   1.112  1.0595  1.2383  0.5991
 7634TIP3    H222860   3.625   6.446   1.112 -2.0609  1.0317  0.0078
 7635TIP3   OH222861   7.686   4.815   5.287  0.1631  0.4142 -0.6515
 7635TIP3    H122862   7.762   4.860   5.323 -0.1533 -0.9104  1.8873
 7635TIP3    H222863   7.709   4.722   5.290 -1.7783 -0.0858  0.9221
 7636TIP3   OH222864   1.528   3.723   0.097  0.1873 -0.4088  0.0658
 7636TIP3    H122865   1.529   3.634   0.060 -1.4281 -0.3761 -0.1470
 7636TIP3    H222866   1.478   3.714   0.178  0.2984  0.2456  0.2122
 7637TIP3   OH222867   1.819   3.775   3.479  0.0973 -0.3553  0.1300
 7637TIP3    H122868   1.802   3.845   3.543  0.5455  1.2107 -1.3867
 7637TIP3    H222869   1.772   3.699   3.514 -0.0455  0.5609  2.0719
 7638TIP3   OH222870   0.328   2.706   5.623 -0.1769  0.2030 -0.5119
 7638TIP3    H122871   0.402   2.765   5.639  0.6189 -0.7304 -0.6193
 7638TIP3    H222872   0.351   2.626   5.670 -0.5305 -0.5366 -1.5624
 7639TIP3   OH222873   0.675   4.854   0.535  0.4653  0.4843 -0.0477
 7639TIP3    H122874   0.663   4.801   0.457 -0.1309  0.5084  0.0241
 7639TIP3    H222875   0.671   4.944   0.504  1.0671  0.4940 -0.1089
 7640TIP3   OH222876   7.259   6.114   0.057 -0.1715  0.2046  0.0584
 7640TIP3    H122877   7.298   6.033   0.088  0.5152  0.0020 -1.3033
 7640TIP3    H222878   7.271   6.175   0.130  0.4408 -0.5573  0.6106
 7641TIP3   OH222879   6.474   0.957   1.503  0.2353 -0.0846  0.4665
 7641TIP3    H122880   6.402   1.012   1.535 -1.2322 -0.2025 -2.3037
 7641TIP3    H222881   6.431   0.877   1.472  1.3771  0.2337 -2.1808
 7642TIP3   OH222882   2.603   7.207   5.780 -0.0963 -0.6329  0.2927
 7642TIP3    H122883   2.593   7.247   5.866 -0.5559  1.2594 -0.5916
 7642TIP3    H222884   2.674   7.257   5.739 -1.2281 -0.1513 -1.1391
 7643TIP3   OH222885   2.432   7.359   0.576  0.6485 -0.1759 -0.2955
 7643TIP3    H122886   2.510   7.397   0.617  0.0730  0.8375 -0.1082
 7643TIP3    H222887   2.378   7.330   0.650 -0.4507  1.7716 -0.2801
 7644TIP3   OH222888   6.691   2.353   0.545 -0.1641  0.0274  0.2697
 7644TIP3    H122889   6.619   2.325   0.601  0.0430  1.2223  1.1828
 7644TIP3    H222890   6.663   2.437   0.509  0.8022  0.5634  0.7204
 7645TIP3   OH222891   1.508   2.131   6.463  0.0669 -0.2274 -0.0557
 7645TIP3    H122892   1.486   2.201   6.524 -0.4571  0.6382 -1.1899
 7645TIP3    H222893   1.482   2.051   6.508  0.7553  0.2741  1.3046
 7646TIP3   OH222894   1.379   6.155   2.629  0.0414 -0.0306 -0.3834
 7646TIP3    H122895   1.400   6.218   2.560  1.3492  0.8649  0.7787
 7646TIP3    H222896   1.373   6.207   2.708  0.4291 -1.2752  0.5001
 7647TIP3   OH222897   7.868   1.176   2.146 -0.0100 -0.1229 -0.0531
 7647TIP3    H122898   7.773   1.169   2.134  0.0699 -2.0576  0.1268
 7647TIP3    H222899   7.879   1.183   2.241  0.0067  0.6175 -0.1091
 7648TIP3   OH222900   5.366   3.153   2.009  0.1930 -0.2007 -0.0976
 7648TIP3    H122901   5.307   3.101   2.063 -1.5210  0.0166 -1.6693
 7648TIP3    H222902   5.428   3.192   2.071 -1.4993 -0.1807  1.6681
 7649TIP3   OH222903   5.595   2.100   2.474  0.1533  0.7144 -0.0710
 7649TIP3    H122904   5.623   2.012   2.448  1.8988  1.2990 -0.2981
 7649TIP3    H222905   5.534   2.126   2.405  1.2199  0.4636 -1.1508
 7650TIP3   OH222906   3.223   7.242   4.774  0.2586 -0.1009 -0.3899
 7650TIP3    H122907   3.269   7.323   4.798  1.5436 -1.6611  3.0413
 7650TIP3    H222908   3.134   7.254   4.807  0.7973 -0.4885  1.3074
 7651TIP3   OH222909   5.243   5.346   2.021 -0.2277 -0.0870 -0.2579
 7651TIP3    H122910   5.192   5.420   1.990  0.8500  0.6462 -0.3307
 7651TIP3    H222911   5.333   5.378   2.024  0.1933 -1.2455  0.1720
 7652TIP3   OH222912   1.471   2.582   2.098  0.2321 -0.2006  0.5905
 7652TIP3    H122913   1.443   2.650   2.160  0.5783 -0.3777  0.9437
 7652TIP3    H222914   1.531   2.627   2.039 -0.2593  0.0187  0.2486
 7653TIP3   OH222915   6.136   2.181   3.015 -0.5024 -0.0498  0.5509
 7653TIP3    H122916   6.075   2.171   2.942 -0.0179 -1.1323  0.2734
 7653TIP3    H222917   6.181   2.097   3.021  0.4453  0.4753  1.2208
 7654TIP3   OH222918   4.078   7.686   3.412  0.2777  0.3611  0.4742
 7654TIP3    H122919   4.051   7.772   3.380  1.1131  0.2729 -0.5095
 7654TIP3    H222920   4.011   7.626   3.379 -1.8728  0.9109  3.4532
 7655TIP3   OH222921   7.428   0.385   0.613 -0.0392  0.3506 -0.0373
 7655TIP3    H122922   7.377   0.380   0.693 -0.6863  0.5585 -0.4304
 7655TIP3    H222923   7.510   0.340   0.634 -1.3437 -2.2938 -0.1502
 7656TIP3   OH222924   2.619   5.093   5.458  0.2456 -0.9076  0.3532
 7656TIP3    H122925   2.700   5.116   5.503  0.6358  1.8452 -1.5141
 7656TIP3    H222926   2.642   5.096   5.365 -2.1796  1.0259 -0.2890
 7657TIP3   OH222927   5.850   7.690   5.035 -0.2775 -0.3075  0.3084
 7657TIP3    H122928   5.763   7.694   4.995 -0.9464  0.0110  1.7264
 7657TIP3    H222929   5.879   7.600   5.022  0.0020  0.0368 -1.7797
 7658TIP3   OH222930   0.690   2.087   0.578  0.4287  0.0138  0.1119
 7658TIP3    H122931   0.692   2.071   0.483  0.7510  0.4340  0.0434
 7658TIP3    H222932   0.604   2.128   0.593 -1.1478 -3.1839  0.5487
 7659TIP3   OH222933   7.682   1.283   0.799  0.2967 -0.1310  0.4045
 7659TIP3    H122934   7.647   1.273   0.711  0.5919 -1.0535  0.3797
 7659TIP3    H222935   7.767   1.327   0.787  0.6269 -0.8211  0.1636
 7660TIP3   OH222936   0.253   3.586   1.544  0.0762 -0.1732  0.0789
 7660TIP3    H122937   0.190   3.544   1.484 -1.1036  1.9892 -0.2979
 7660TIP3    H222938   0.312   3.634   1.486  0.9652 -0.7089  0.5287
 7661TIP3   OH222939   1.736   5.881   2.719 -0.7671  0.0718 -0.6369
 7661TIP3    H122940   1.750   5.795   2.678  0.0150  0.6709 -1.6716
 7661TIP3    H222941   1.643   5.899   2.707 -0.7358 -0.1954 -1.2881
 7662TIP3   OH222942   4.893   5.013   2.145 -0.0550  0.0698  0.7561
 7662TIP3    H122943   4.942   4.984   2.068 -2.1802  1.8602 -1.4226
 7662TIP3    H222944   4.925   5.101   2.163 -0.0888 -0.0559  1.4947
 7663TIP3   OH222945   3.178   0.972   6.024 -0.0134  0.2620  0.2368
 7663TIP3    H122946   3.115   0.912   5.984 -1.3043  0.6202  1.6319
 7663TIP3    H222947   3.250   0.916   6.051 -0.4636 -0.4147  0.0772
 7664TIP3   OH222948   6.192   2.375   0.971  0.2907  0.1365 -0.2544
 7664TIP3    H122949   6.134   2.450   0.979  0.3280  0.0877  0.5010
 7664TIP3    H222950   6.257   2.387   1.040  0.4389 -0.4606 -0.2844
 7665TIP3   OH222951   8.259   0.290   3.638 -0.2856  0.3160 -0.1087
 7665TIP3    H122952   8.228   0.230   3.571  0.3315 -2.7671  2.1496
 7665TIP3    H222953   8.352   0.271   3.648 -0.7933 -1.3032  3.2335
 7666TIP3   OH222954   0.153   5.719   2.654  0.4582 -0.5636  0.0499
 7666TIP3    H122955   0.079   5.757   2.702  1.4155  1.3642  0.0930
 7666TIP3    H222956   0.160   5.630   2.688 -1.6670 -0.7291  0.2269
 7667TIP3   OH222957   5.758   5.953   3.539  0.7163 -0.1853 -0.7641
 7667TIP3    H122958   5.682   5.894   3.534  1.5317 -1.3206 -0.2019
 7667TIP3    H222959   5.770   5.985   3.450  0.9584 -1.8116 -1.3428
 7668TIP3   OH222960   5.726   3.072   5.306 -0.0841 -0.0113 -0.2373
 7668TIP3    H122961   5.639   3.087   5.342 -0.2765  0.2919 -0.8207
 7668TIP3    H222962   5.784   3.072   5.383 -0.2865  2.1539 -0.0041
 7669TIP3   OH222963   0.471   4.179   4.551  0.1528  0.0299 -0.1556
 7669TIP3    H122964   0.383   4.166   4.516  0.6416 -0.2125 -1.3610
 7669TIP3    H222965   0.519   4.221   4.479  1.0774 -0.0465  0.3975
 7670TIP3   OH222966   2.265   2.644   4.327  0.1717 -0.2278  0.1880
 7670TIP3    H122967   2.339   2.661   4.268  0.4380 -0.8705  0.3307
 7670TIP3    H222968   2.305   2.612   4.408 -0.2203  0.1941  0.5538
 7671TIP3   OH222969   2.684   6.375   3.285 -0.3549  0.1800  0.8350
 7671TIP3    H122970   2.606   6.430   3.277 -0.3881  0.0209 -0.0109
 7671TIP3    H222971   2.687   6.351   3.378 -1.7808 -0.4997  0.7421
 7672TIP3   OH222972   6.840   4.522   1.754  0.5944  0.6241  0.4019
 7672TIP3    H122973   6.837   4.604   1.805 -0.5551  0.2140  1.0369
 7672TIP3    H222974   6.756   4.480   1.772  0.1703  0.4236 -1.8120
 7673TIP3   OH222975   1.386   0.488   5.621  0.5792 -0.5793 -0.4942
 7673TIP3    H122976   1.317   0.450   5.676  0.8278  1.5570  1.5031
 7673TIP3    H222977   1.342   0.509   5.539 -0.5968 -1.2582 -0.0737
 7674TIP3   OH222978   3.953   6.853   4.523 -0.0460 -0.2136  0.6025
 7674TIP3    H122979   4.029   6.799   4.501 -0.2874  0.1458 -1.2146
 7674TIP3    H222980   3.930   6.826   4.612  1.3743 -1.2823  0.6851
 7675TIP3   OH222981   2.539   3.394   1.028  0.8150  0.0440 -0.0330
 7675TIP3    H122982   2.532   3.488   1.047 -0.9556  0.1924 -1.1079
 7675TIP3    H222983   2.629   3.381   0.999  1.4116  1.1786  1.2254
 7676TIP3   OH222984   0.849   1.930   5.158  1.0089 -0.0086  0.2421
 7676TIP3    H122985   0.857   1.885   5.074 -0.1418  0.4528 -0.1374
 7676TIP3    H222986   0.815   1.864   5.217 -2.4139  0.7062 -0.7407
 7677TIP3   OH222987   1.186   7.240   3.919  0.0385 -0.3335  0.2227
 7677TIP3    H122988   1.127   7.291   3.864  0.0116 -0.4300  0.1618
 7677TIP3    H222989   1.203   7.160   3.869 -0.4733 -0.7015  0.6205
 7678TIP3   OH222990   7.883   6.805   5.034  1.0097 -0.1642 -0.1865
 7678TIP3    H122991   7.957   6.855   5.068  0.1756  1.2374 -0.3214
 7678TIP3    H222992   7.806   6.850   5.071  0.2026 -0.9004 -0.9337
 7679TIP3   OH222993   0.020   7.618   5.094  0.6990  0.4583  0.2436
 7679TIP3    H122994   0.073   7.612   5.174 -0.5446  0.2102  1.0876
 7679TIP3    H222995   0.083   7.624   5.023  1.8571  2.0034  1.3358
 7680TIP3   OH222996   6.388   7.316   3.901  0.1545  0.2488 -0.5486
 7680TIP3    H122997   6.448   7.242   3.912 -0.0960  0.3802  3.0952
 7680TIP3    H222998   6.301   7.277   3.900 -0.0828  0.3626  2.8712
 7681TIP3   OH222999   0.301   4.989   4.842 -0.0609  0.5057  0.0011
 7681TIP3    H123000   0.292   4.900   4.876  0.3830  0.0246 -1.1055
 7681TIP3    H223001   0.299   5.044   4.920  0.1491 -0.5062  0.7487
 7682TIP3   OH223002   4.489   0.627   4.192  0.5755 -0.6269  0.7315
 7682TIP3    H123003   4.583   0.643   4.188  0.2709  1.0877 -0.3355
 7682TIP3    H223004   4.453   0.701   4.241 -0.6102  0.9436 -2.2513
 7683TIP3   OH223005   5.509   1.118   3.527  0.0731 -0.1136  0.4406
 7683TIP3    H123006   5.571   1.166   3.473 -0.1372 -0.1219  0.1929
 7683TIP3    H223007   5.519   1.027   3.499 -2.0974  0.1967 -1.6790
 7684TIP3   OH223008   3.098   3.333   3.803 -0.0549 -0.3152  0.4991
 7684TIP3    H123009   3.031   3.321   3.736  0.7332  0.0775 -0.3780
 7684TIP3    H223010   3.165   3.268   3.782  0.2579 -0.1061  0.8281
 7685TIP3   OH223011   2.320   6.774   2.490 -0.1620  0.0147 -0.4599
 7685TIP3    H123012   2.290   6.691   2.528 -2.2876  1.0863  0.4154
 7685TIP3    H223013   2.414   6.777   2.508 -0.3968 -1.3274  1.2349
 7686TIP3   OH223014   7.717   5.544   2.912 -0.2843  0.3802  0.1749
 7686TIP3    H123015   7.791   5.596   2.944  0.3560 -0.5016  0.1591
 7686TIP3    H223016   7.640   5.581   2.956  0.1745  1.2347  0.2709
 7687TIP3   OH223017   3.285   1.714   4.385 -0.0116 -0.3712 -0.4237
 7687TIP3    H123018   3.221   1.708   4.456 -0.3553 -1.6055 -0.7999
 7687TIP3    H223019   3.252   1.653   4.319 -0.1471  1.3220 -2.0124
 7688TIP3   OH223020   7.179   3.353   4.109  0.5327 -0.1044  0.6450
 7688TIP3    H123021   7.270   3.331   4.087  0.2961 -0.3208 -0.1779
 7688TIP3    H223022   7.133   3.347   4.025 -0.2330  0.0463  1.0504
 7689TIP3   OH223023   4.261   6.033   1.392  0.0494  0.0764 -0.5688
 7689TIP3    H123024   4.212   6.032   1.474  1.4207  3.4893  0.4866
 7689TIP3    H223025   4.343   5.989   1.413  0.6115  1.3979  0.1232
 7690TIP3   OH223026   3.352   1.875   0.079 -0.6694 -0.2246  0.1329
 7690TIP3    H123027   3.422   1.811   0.089 -0.5325 -0.4926 -1.9864
 7690TIP3    H223028   3.284   1.828   0.031 -2.2431  0.1075  1.9391
 7691TIP3   OH223029   5.306   3.441   3.100  0.0816 -0.1939  0.1676
 7691TIP3    H123030   5.401   3.439   3.085  0.3917 -0.1676  1.9339
 7691TIP3    H223031   5.297   3.449   3.195 -1.7270 -2.8378  0.2983
 7692TIP3   OH223032   3.192   6.351   0.765 -0.0543  0.2127 -0.1977
 7692TIP3    H123033   3.162   6.266   0.734 -0.0638 -0.6122  1.9087
 7692TIP3    H223034   3.112   6.394   0.798  0.2557  0.1234  0.7045
 7693TIP3   OH223035   6.557   3.031   0.291 -0.5739  0.6916  0.5440
 7693TIP3    H123036   6.616   3.062   0.222  0.0473 -0.5836  0.4711
 7693TIP3    H223037   6.615   2.994   0.357 -1.2737 -1.5717 -0.0133
 7694TIP3   OH223038   0.466   6.768   2.912 -0.0272 -0.5855 -0.3528
 7694TIP3    H123039   0.502   6.845   2.955 -0.4685 -0.7751  0.3893
 7694TIP3    H223040   0.481   6.697   2.975 -0.4454 -0.9196 -0.6274
 7695TIP3   OH223041   2.006   2.111   5.556 -0.2922 -0.2754 -0.2854
 7695TIP3    H123042   1.921   2.105   5.513 -1.0139  0.3110  1.0093
 7695TIP3    H223043   2.030   2.203   5.551 -0.1510 -0.2865  0.1225
 7696TIP3   OH223044   0.285   4.463   5.626  0.1781 -0.7601 -1.1000
 7696TIP3    H123045   0.240   4.458   5.711  0.3633  3.7119 -0.5237
 7696TIP3    H223046   0.216   4.449   5.561 -1.5715  2.6216 -0.1829
 7697TIP3   OH223047   7.847   4.672   6.070  0.2143  0.3997 -0.1893
 7697TIP3    H123048   7.789   4.603   6.102  1.2422 -0.3392  0.1225
 7697TIP3    H223049   7.888   4.708   6.148 -1.3929  2.4064 -0.2021
 7698TIP3   OH223050   2.180   2.185   3.424 -0.3206 -0.0056  0.9699
 7698TIP3    H123051   2.247   2.128   3.386 -0.1058  0.6163  0.3930
 7698TIP3    H223052   2.130   2.128   3.482 -0.6146 -0.9670 -0.1950
 7699TIP3   OH223053   8.117   0.497   2.608 -0.2207  0.4258 -0.1169
 7699TIP3    H123054   8.083   0.413   2.577 -0.1457  1.0065 -1.8956
 7699TIP3    H223055   8.212   0.490   2.600 -0.1190  0.2180  1.0564
 7700TIP3   OH223056   1.717   3.515   6.729 -0.2751  0.3674 -0.3568
 7700TIP3    H123057   1.777   3.531   6.656  0.3368  0.7794  0.2160
 7700TIP3    H223058   1.760   3.446   6.780 -1.3922 -0.9528 -1.1392
 7701TIP3   OH223059   4.029   5.784   4.780  0.7413 -0.1927  0.4163
 7701TIP3    H123060   4.025   5.877   4.760 -2.2552 -0.7867 -2.5977
 7701TIP3    H223061   4.099   5.750   4.725 -0.5552 -0.1773 -1.3331
 7702TIP3   OH223062   6.843   3.101   4.810 -0.4902 -0.3052 -0.0405
 7702TIP3    H123063   6.914   3.075   4.752 -0.3173  0.5522 -0.2276
 7702TIP3    H223064   6.771   3.125   4.750 -0.9203 -1.1017  0.1440
 7703TIP3   OH223065   5.049   6.812   4.382 -0.6295  0.2376 -0.3063
 7703TIP3    H123066   4.986   6.755   4.425  0.2855  0.1759  1.0291
 7703TIP3    H223067   5.130   6.761   4.381  0.0748  1.2798  0.4599
 7704TIP3   OH223068   6.098   7.030   1.105 -0.5681 -0.3671  0.3291
 7704TIP3    H123069   6.106   6.993   1.017 -0.9656 -0.3740  0.2920
 7704TIP3    H223070   6.188   7.039   1.136 -0.3571  0.6100 -0.4852
 7705TIP3   OH223071   6.736   7.066   6.075 -0.0045 -0.0027 -0.1585
 7705TIP3    H123072   6.669   7.008   6.112 -0.2299  0.2303 -0.2036
 7705TIP3    H223073   6.816   7.043   6.122 -0.6294  1.5132  1.7473
 7706TIP3   OH223074   4.412   4.940   6.518 -0.6479 -0.0238  0.7608
 7706TIP3    H123075   4.508   4.946   6.524 -0.6009 -0.8536  0.9488
 7706TIP3    H223076   4.390   4.983   6.435 -0.1723  0.6818  0.9870
 7707TIP3   OH223077   0.261   4.446   0.300  0.5892  0.1211  0.7145
 7707TIP3    H123078   0.285   4.480   0.214 -1.1158 -1.2511 -0.3770
 7707TIP3    H223079   0.243   4.353   0.285 -0.4377  0.0051  2.4091
 7708TIP3   OH223080   7.668   6.206   5.743 -0.5194 -0.0693 -0.1593
 7708TIP3    H123081   7.736   6.239   5.684  0.3550 -1.2967  0.1295
 7708TIP3    H223082   7.637   6.126   5.701  0.5462 -1.3023  1.2911
 7709TIP3   OH223083   2.467   5.468   6.430 -0.0334 -0.0411 -0.1123
 7709TIP3    H123084   2.380   5.428   6.440  0.4665 -0.8716  1.1181
 7709TIP3    H223085   2.466   5.505   6.342 -1.9608  0.7529  0.1900
 7710TIP3   OH223086   6.590   2.937   5.182  0.1533 -0.6885 -0.0528
 7710TIP3    H123087   6.622   2.915   5.269 -2.3620 -0.2445  1.0752
 7710TIP3    H223088   6.587   3.033   5.181  0.9857 -0.6597 -0.9764
 7711TIP3   OH223089   4.721   1.913   2.941 -0.7336  0.1423  0.2821
 7711TIP3    H123090   4.789   1.866   2.989 -1.3628  0.7015  1.7813
 7711TIP3    H223091   4.649   1.850   2.934 -1.2037  0.5281  1.4233
 7712TIP3   OH223092   5.619   5.499   4.896  0.4206  0.7515 -0.3223
 7712TIP3    H123093   5.565   5.549   4.958  2.3499  2.0698  0.3825
 7712TIP3    H223094   5.628   5.556   4.820  0.5002  0.3668 -0.6078
 7713TIP3   OH223095   5.460   7.215   5.731 -0.5985 -0.4974  0.5820
 7713TIP3    H123096   5.396   7.145   5.747  0.0452 -0.7823  2.1818
 7713TIP3    H223097   5.409   7.286   5.693 -2.0784 -0.4378  2.4880
 7714TIP3   OH223098   6.162   4.985   1.967  0.2446 -0.8294 -0.4645
 7714TIP3    H123099   6.233   5.047   1.982 -0.8193  0.3548 -0.1371
 7714TIP3    H223100   6.142   4.951   2.054  0.2584 -0.9829 -0.5222
 7715TIP3   OH223101   6.973   6.333   1.206 -0.5358 -0.3539  0.4101
 7715TIP3    H123102   6.895   6.308   1.157  0.1204  0.8668 -1.3586
 7715TIP3    H223103   6.961   6.426   1.225  1.7813  0.7824 -2.7455
 7716TIP3   OH223104   0.792   2.572   2.461 -0.0017  0.8067  0.2952
 7716TIP3    H123105   0.774   2.511   2.533 -0.0195  1.9634  1.2925
 7716TIP3    H223106   0.883   2.553   2.437  0.3302  1.0681  1.2955
 7717TIP3   OH223107   4.779   2.975   0.759 -0.0643 -0.0698 -0.0184
 7717TIP3    H123108   4.777   3.071   0.753 -0.6255 -0.0627  0.2193
 7717TIP3    H223109   4.690   2.951   0.787  0.3157 -0.6049  0.7537
 7718TIP3   OH223110   0.675   5.925   3.324 -0.2271  0.3935  0.0218
 7718TIP3    H123111   0.712   5.904   3.409  0.8157  0.0997 -0.4851
 7718TIP3    H223112   0.586   5.890   3.327  0.0179 -0.1938  0.7492
 7719TIP3   OH223113   2.480   2.293   3.941 -0.0824 -0.3603 -0.2346
 7719TIP3    H123114   2.403   2.325   3.895  0.1369 -1.5021 -1.4860
 7719TIP3    H223115   2.518   2.370   3.982 -0.9165  0.5162 -1.0690
 7720TIP3   OH223116   1.629   1.827   3.903  0.5717 -0.3321 -0.4281
 7720TIP3    H123117   1.565   1.857   3.839 -0.3862  0.1550  0.7166
 7720TIP3    H223118   1.582   1.827   3.986  1.8572 -0.6633  0.3346
 7721TIP3   OH223119   2.313   4.320   3.007 -0.7517 -0.2905  0.3483
 7721TIP3    H123120   2.394   4.285   2.971 -0.9639 -1.3548  0.8708
 7721TIP3    H223121   2.307   4.409   2.972  0.3510 -0.4007 -0.1369
 7722TIP3   OH223122   3.043   2.549   2.331 -0.2465 -0.2492  0.3427
 7722TIP3    H123123   3.096   2.471   2.312 -0.7360 -0.6058  0.4453
 7722TIP3    H223124   3.061   2.569   2.423  0.0333 -0.1210  0.2613
 7723TIP3   OH223125   1.301   4.277   4.039 -0.0519 -0.1235  0.1892
 7723TIP3    H123126   1.314   4.333   4.116  0.1662  1.3807 -0.8846
 7723TIP3    H223127   1.390   4.258   4.008 -0.1405 -0.6057  0.2279
 7724TIP3   OH223128   1.368   5.247   4.863  0.2342 -0.8745 -0.6817
 7724TIP3    H123129   1.350   5.241   4.957  0.6484 -0.5862 -0.5828
 7724TIP3    H223130   1.285   5.222   4.821  0.1387 -1.3132 -0.2444
 7725TIP3   OH223131   4.898   2.183   0.150  0.6935 -0.7629  0.2429
 7725TIP3    H123132   4.917   2.234   0.071  2.2210  1.8210  2.1314
 7725TIP3    H223133   4.979   2.136   0.169  0.4187 -1.1663  0.4460
 7726TIP3   OH223134   3.897   3.794   0.800  0.1704  0.4785 -0.5948
 7726TIP3    H123135   3.885   3.850   0.724  1.0307  0.5435 -0.6994
 7726TIP3    H223136   3.867   3.846   0.874 -0.4779  0.4908 -0.8650
 7727TIP3   OH223137   3.166   7.317  -0.007  0.0061 -0.0371 -0.6316
 7727TIP3    H123138   3.118   7.234  -0.018 -0.8955  0.3360  0.2871
 7727TIP3    H223139   3.249   7.292   0.034 -0.1027 -0.5250 -0.7025
 7728TIP3   OH223140   3.074   2.708   1.772 -0.1062 -0.0111 -0.0915
 7728TIP3    H123141   3.166   2.726   1.795 -0.0370 -0.0456 -0.3460
 7728TIP3    H223142   3.065   2.741   1.683 -1.1874  3.0199  1.0100
 7729TIP3   OH223143   8.257   4.784   2.856  0.3406 -0.3027 -0.5663
 7729TIP3    H123144   8.248   4.740   2.941 -0.2495 -1.8448 -1.3964
 7729TIP3    H223145   8.219   4.723   2.793 -1.3618  1.7815 -1.7008
 7730TIP3   OH223146   4.409   2.365   2.209  0.1947 -0.7225 -0.5138
 7730TIP3    H123147   4.406   2.311   2.130  0.5738  0.7829 -1.5993
 7730TIP3    H223148   4.396   2.455   2.178 -2.9090 -0.3255  1.4806
 7731TIP3   OH223149   1.632   0.504   3.503 -0.3227  0.2759  0.2847
 7731TIP3    H123150   1.567   0.479   3.568  1.0600 -1.5251  1.0576
 7731TIP3    H223151   1.591   0.576   3.454 -3.1917 -1.2863  0.1886
 7732TIP3   OH223152   1.529   3.227   6.594 -0.0254 -0.0549  0.2256
 7732TIP3    H123153   1.536   3.160   6.662  1.6514  0.4987  0.6622
 7732TIP3    H223154   1.603   3.210   6.536 -0.1398  0.8301 -0.2050
 7733TIP3   OH223155   5.452   4.203   1.334 -0.2659 -0.0762  0.4400
 7733TIP3    H123156   5.396   4.182   1.409 -0.1962  2.1893  1.2073
 7733TIP3    H223157   5.391   4.233   1.266 -0.3254 -2.0910 -0.4568
 7734TIP3   OH223158   6.914   5.594   6.251 -0.0434  0.5109 -0.1191
 7734TIP3    H123159   6.948   5.514   6.291 -0.3454 -0.4861 -1.7795
 7734TIP3    H223160   6.872   5.641   6.323  0.5286 -0.6022  0.9731
 7735TIP3   OH223161   8.273   0.304   5.049 -0.5410  0.3609 -0.1159
 7735TIP3    H123162   8.201   0.288   4.988  0.3913 -1.5029 -0.7793
 7735TIP3    H223163   8.289   0.220   5.090  1.1579  0.7712  0.1282
 7736TIP3   OH223164   0.591   4.120   1.290 -0.0125  0.0549 -0.8594
 7736TIP3    H123165   0.533   4.053   1.254 -0.8620  1.2619 -1.8736
 7736TIP3    H223166   0.677   4.101   1.252 -0.1373 -0.6961 -0.7818
 7737TIP3   OH223167   4.223   6.624   1.805 -0.0123 -0.3618  0.0207
 7737TIP3    H123168   4.194   6.715   1.806  1.5598  0.1660  1.2814
 7737TIP3    H223169   4.319   6.629   1.812  0.1536 -2.1007 -0.4684
 7738TIP3   OH223170   7.180   2.729   0.719 -0.4597 -0.1455  0.3616
 7738TIP3    H123171   7.088   2.723   0.744 -0.7571  1.4925 -0.1948
 7738TIP3    H223172   7.189   2.817   0.683  1.4624 -0.0702  0.9189
 7739TIP3   OH223173   2.946   7.254   4.857  0.2247  0.0741  0.3872
 7739TIP3    H123174   2.865   7.241   4.807  0.5800  0.5650 -0.3346
 7739TIP3    H223175   2.923   7.321   4.921  0.2949  0.8816 -0.4100
 7740TIP3   OH223176   7.706   1.637   5.713  0.2707 -0.0324  0.6328
 7740TIP3    H123177   7.759   1.574   5.664  0.1964 -1.0063  1.7595
 7740TIP3    H223178   7.766   1.710   5.731  0.5955 -0.1432  0.0117
 7741TIP3   OH223179   6.315   0.656   3.985 -0.1448 -0.4950  0.2778
 7741TIP3    H123180   6.356   0.572   3.966  1.9411  0.4110  0.5509
 7741TIP3    H223181   6.300   0.695   3.898 -1.1706 -1.1435  0.1490
 7742TIP3   OH223182   4.507   3.816   3.764  0.2895 -0.0249 -0.5848
 7742TIP3    H123183   4.520   3.739   3.819  3.0009  0.8227  0.0967
 7742TIP3    H223184   4.594   3.839   3.734 -0.7448  1.4415 -2.6831
 7743TIP3   OH223185   5.092   2.909   5.118  0.1329  0.0779  0.0894
 7743TIP3    H123186   5.056   2.923   5.030 -0.3120  1.0023  0.4010
 7743TIP3    H223187   5.082   2.815   5.133  0.9115 -0.2164 -1.1361
 7744TIP3   OH223188   7.421   1.586   0.571 -0.0300  0.0630  0.0051
 7744TIP3    H123189   7.345   1.604   0.626 -0.8223  1.2052 -1.4061
 7744TIP3    H223190   7.478   1.662   0.584  0.5694 -0.4741  0.5456
 7745TIP3   OH223191   1.378   3.170   2.139 -0.2189  0.4812 -0.3016
 7745TIP3    H123192   1.344   3.083   2.119  0.0910  0.2530  0.1437
 7745TIP3    H223193   1.314   3.230   2.101 -0.3144  0.0613 -0.8145
 7746TIP3   OH223194   1.500   1.498   4.439 -0.3819  0.0822  0.3865
 7746TIP3    H123195   1.434   1.550   4.393 -1.4617  0.6476  2.4317
 7746TIP3    H223196   1.584   1.531   4.408 -1.0609  1.7560  0.2435
 7747TIP3   OH223197   7.705   6.672   2.420 -0.6922  0.1577  0.0576
 7747TIP3    H123198   7.661   6.716   2.492 -0.7802 -0.4266  0.3628
 7747TIP3    H223199   7.645   6.601   2.395 -0.5358  0.1857 -0.4056
 7748TIP3   OH223200   3.231   3.858   3.526  0.4727 -0.1965 -0.0248
 7748TIP3    H123201   3.299   3.882   3.464  0.8238 -0.9620  0.0528
 7748TIP3    H223202   3.264   3.779   3.569  0.0312  0.0586  0.8071
 7749TIP3   OH223203   3.438   7.325   0.119 -0.2110  0.1164 -0.2621
 7749TIP3    H123204   3.423   7.380   0.196 -1.1202  0.1899 -0.4733
 7749TIP3    H223205   3.468   7.386   0.052 -0.1603  0.1769 -0.1841
 7750TIP3   OH223206   0.820   5.697   2.210 -0.0010 -0.0871 -0.4810
 7750TIP3    H123207   0.908   5.693   2.170 -0.2043 -2.9029 -0.9096
 7750TIP3    H223208   0.832   5.658   2.296 -0.8364 -0.5514 -0.5736
 7751TIP3   OH223209   3.016   3.798   1.053 -1.0263 -0.4513 -0.5983
 7751TIP3    H123210   2.926   3.768   1.067 -1.6211  1.0768 -0.9287
 7751TIP3    H223211   3.064   3.719   1.029 -2.2667 -1.3052 -0.3778
 7752TIP3   OH223212   0.225   3.187   6.732 -0.4077 -0.1264 -0.2660
 7752TIP3    H123213   0.299   3.127   6.739  0.7522  1.1277 -1.2748
 7752TIP3    H223214   0.155   3.134   6.694  0.7088 -0.7714 -1.5020
 7753TIP3   OH223215   1.648   4.559   6.341 -0.3621 -0.5581  0.3871
 7753TIP3    H123216   1.714   4.521   6.283  0.5145  1.9941 -0.4364
 7753TIP3    H223217   1.637   4.494   6.411  1.1977 -2.1342 -0.7316
 7754TIP3   OH223218   4.444   7.526   2.928 -0.7832 -0.8824  0.6680
 7754TIP3    H123219   4.530   7.567   2.926 -1.1752  0.1007  2.1752
 7754TIP3    H223220   4.444   7.466   2.853  0.5852  0.3191 -0.3510
 7755TIP3   OH223221   5.344   0.879   5.796  0.5741 -0.1639  0.2742
 7755TIP3    H123222   5.415   0.844   5.850  0.7185  0.0174  0.2047
 7755TIP3    H223223   5.325   0.809   5.733 -0.7916 -1.0951  1.6361
 7756TIP3   OH223224   7.900   5.947   0.136 -0.0996  0.0824 -0.6094
 7756TIP3    H123225   7.838   5.882   0.100 -0.5886  0.5000 -0.5300
 7756TIP3    H223226   7.982   5.929   0.090 -0.7451  0.6793 -2.0583
 7757TIP3   OH223227   0.044   4.648   5.708  0.2899 -0.0068 -0.0985
 7757TIP3    H123228  -0.039   4.601   5.702 -0.3191  1.1198 -0.6582
 7757TIP3    H223229   0.051   4.695   5.626  1.8627 -0.6669 -0.3713
 7758TIP3   OH223230   0.344   3.748   3.428 -0.2381 -0.5335  0.2997
 7758TIP3    H123231   0.264   3.787   3.394  0.2708  0.8663  0.6299
 7758TIP3    H223232   0.367   3.804   3.503  0.4995 -1.5194  0.8263
 7759TIP3   OH223233   1.436   4.179   0.420  0.1774  0.1154  0.2044
 7759TIP3    H123234   1.466   4.178   0.330 -1.4562  2.4695 -0.4656
 7759TIP3    H223235   1.512   4.153   0.472  0.7272 -2.8629 -1.8550
 7760TIP3   OH223236   5.001   5.914   2.465 -0.0998 -0.7159 -0.7484
 7760TIP3    H123237   4.979   5.835   2.515 -0.3201 -0.5802 -0.6286
 7760TIP3    H223238   4.938   5.979   2.496 -0.0652 -0.5583 -1.0161
 7761TIP3   OH223239   2.018   2.870   5.437 -0.0421  0.5556  0.1824
 7761TIP3    H123240   1.977   2.931   5.375 -0.2303  0.5706  0.3208
 7761TIP3    H223241   1.962   2.793   5.434  1.5142 -0.5895 -1.8081
 7762TIP3   OH223242   8.091   7.169   5.592  0.5157  0.2235  0.3211
 7762TIP3    H123243   8.002   7.188   5.622 -0.3059 -0.2579 -1.6944
 7762TIP3    H223244   8.109   7.236   5.527  1.1839 -0.3451 -0.0923
 7763TIP3   OH223245   7.695   4.395   4.181  0.0642  0.0421 -0.6878
 7763TIP3    H123246   7.693   4.487   4.154 -0.9018  0.5844  1.0833
 7763TIP3    H223247   7.771   4.389   4.240 -0.5834  0.0075  0.1566
 7764TIP3   OH223248   6.270   0.011   2.686  0.4213  0.5343 -0.2503
 7764TIP3    H123249   6.291   0.084   2.745  0.5567  0.1918  0.1306
 7764TIP3    H223250   6.253   0.053   2.602  1.4331  0.9394 -0.2748
 7765TIP3   OH223251   1.704   7.155   3.549 -0.0596  0.0386 -0.3856
 7765TIP3    H123252   1.715   7.111   3.633 -0.2468  0.1401 -0.3085
 7765TIP3    H223253   1.629   7.212   3.561 -0.9035 -0.8982 -1.0138
 7766TIP3   OH223254   2.561   3.645   2.105 -0.1601 -0.2893 -0.2056
 7766TIP3    H123255   2.535   3.600   2.024 -0.0336 -1.3562  0.3317
 7766TIP3    H223256   2.604   3.577   2.157  3.3002  1.2466 -0.8065
 7767TIP3   OH223257   3.095   1.577   0.326  0.5140  0.0305 -0.5901
 7767TIP3    H123258   3.186   1.551   0.337  0.2137 -1.7888 -1.9849
 7767TIP3    H223259   3.100   1.657   0.274  1.3130 -0.6683 -1.6434
 7768TIP3   OH223260   8.043   6.211   3.238 -0.0436 -0.3122 -0.3680
 7768TIP3    H123261   8.035   6.290   3.184 -0.6067 -0.7700 -0.9773
 7768TIP3    H223262   8.136   6.205   3.259  0.2471 -0.2870 -1.5657
 7769TIP3   OH223263   6.087   1.744   4.767  0.3945  0.0647 -0.5758
 7769TIP3    H123264   6.047   1.830   4.761  1.4060  0.5202 -1.1350
 7769TIP3    H223265   6.180   1.759   4.748  0.7061 -1.0513 -0.0568
 7770TIP3   OH223266   5.913   4.713   0.574  0.5944 -0.1980 -0.3017
 7770TIP3    H123267   5.978   4.646   0.596 -0.8337 -1.9189 -0.9919
 7770TIP3    H223268   5.829   4.668   0.586 -0.3864  0.8898 -2.5945
 7771TIP3   OH223269   1.123   7.271   2.882 -0.2960 -0.7692 -0.1925
 7771TIP3    H123270   1.141   7.358   2.846 -1.2562 -1.2264 -1.9033
 7771TIP3    H223271   1.071   7.287   2.960  1.0331  0.2365  0.5237
 7772TIP3   OH223272   2.026   4.925   4.062  0.4321  0.4154  0.1031
 7772TIP3    H123273   2.093   4.857   4.056  0.9250  0.8895  0.0922
 7772TIP3    H223274   2.005   4.946   3.971 -0.5120 -0.4766  0.1068
 7773TIP3   OH223275   3.403   7.726   2.228  0.1559  0.1256  0.1360
 7773TIP3    H123276   3.430   7.634   2.234 -0.6212 -0.0887  0.4708
 7773TIP3    H223277   3.388   7.752   2.319 -1.5998 -0.0271 -0.0847
 7774TIP3   OH223278   2.340   3.900   3.732  0.2469 -0.1837  0.1320
 7774TIP3    H123279   2.312   3.989   3.755 -0.8327 -0.0145 -1.7061
 7774TIP3    H223280   2.267   3.863   3.683  1.5065 -1.3299 -0.9551
 7775TIP3   OH223281   2.543   3.621   1.798  0.0908  0.0088 -0.0984
 7775TIP3    H123282   2.530   3.657   1.710  0.7697 -1.9665 -1.0528
 7775TIP3    H223283   2.636   3.601   1.803  0.1230  0.3909  1.2053
 7776TIP3   OH223284   3.096   3.880   6.125 -0.1884  0.4523  0.0643
 7776TIP3    H123285   3.036   3.898   6.052 -0.0776 -0.2618 -0.2179
 7776TIP3    H223286   3.183   3.894   6.088 -0.1432  0.4212  0.1580
 7777TIP3   OH223287   2.509   6.862   3.933 -0.4308  0.6189  0.2280
 7777TIP3    H123288   2.557   6.797   3.985  0.3370  1.9075  1.1751
 7777TIP3    H223289   2.567   6.938   3.930 -0.4418  0.6208 -2.5282
 7778TIP3   OH223290   4.459   1.726   5.597 -0.0208 -0.7418  0.3701
 7778TIP3    H123291   4.414   1.688   5.521 -0.1566 -0.2749  0.2129
 7778TIP3    H223292   4.392   1.732   5.665 -0.4333  0.7446 -0.1352
 7779TIP3   OH223293   4.508   2.995   5.727  0.7859 -0.0538 -0.5075
 7779TIP3    H123294   4.593   2.951   5.727  0.8223 -0.2079  2.7388
 7779TIP3    H223295   4.444   2.924   5.733  0.6698  0.1551  1.0586
 7780TIP3   OH223296   7.364   0.683   0.448 -0.1766  0.4755 -0.4984
 7780TIP3    H123297   7.427   0.612   0.438  0.3060  0.6580  0.8947
 7780TIP3    H223298   7.380   0.740   0.373  0.3258 -0.2246 -0.9358
 7781TIP3   OH223299   8.108   2.003   5.971  0.4347  0.4375  0.1143
 7781TIP3    H123300   8.128   2.092   5.943  2.0154 -0.0819 -0.5265
 7781TIP3    H223301   8.145   1.996   6.059  1.8214 -0.0474 -0.4700
 7782TIP3   OH223302   5.445   2.818   2.494 -0.0916 -0.1698  0.5555
 7782TIP3    H123303   5.365   2.781   2.531 -0.6943  0.6656  0.1158
 7782TIP3    H223304   5.445   2.792   2.402  1.3795 -2.1932  1.0503
 7783TIP3   OH223305   3.562   4.401   2.770 -0.3302  0.1504 -0.4993
 7783TIP3    H123306   3.605   4.480   2.739 -0.2770  0.1444 -0.4430
 7783TIP3    H223307   3.469   4.422   2.771 -0.3240  0.1803 -0.5746
 7784TIP3   OH223308   5.924   3.173   6.537 -0.0463  0.5897  0.0332
 7784TIP3    H123309   5.899   3.249   6.483  0.0450 -0.0095 -0.8756
 7784TIP3    H223310   5.864   3.176   6.611 -1.0671  0.6856 -0.7708
 7785TIP3   OH223311   4.258   4.305   4.141  0.8327  0.1269  0.2186
 7785TIP3    H123312   4.188   4.246   4.114 -0.0943  0.8903  0.8945
 7785TIP3    H223313   4.308   4.320   4.061 -1.4902  1.8479 -1.0179
 7786TIP3   OH223314   1.770   5.247   6.393 -0.0192 -0.1142 -0.1493
 7786TIP3    H123315   1.726   5.164   6.414  1.2487 -0.8023 -0.1276
 7786TIP3    H223316   1.848   5.248   6.448  0.9683  0.1978 -1.5019
 7787TIP3   OH223317   2.572   3.121   2.661 -0.4395  0.5620 -0.1630
 7787TIP3    H123318   2.663   3.143   2.643 -0.2388  0.6844  0.8868
 7787TIP3    H223319   2.575   3.075   2.745 -1.2819  0.0088 -0.4219
 7788TIP3   OH223320   4.691   1.335   3.324  0.1704  0.0985 -0.5511
 7788TIP3    H123321   4.642   1.417   3.321  0.6154  0.3990  0.1686
 7788TIP3    H223322   4.666   1.295   3.408  1.8023  0.6823  0.2577
 7789TIP3   OH223323   5.672   1.298   1.181 -0.2147  0.3025 -0.2383
 7789TIP3    H123324   5.632   1.374   1.224 -0.3910  0.6056 -0.9198
 7789TIP3    H223325   5.599   1.249   1.145 -0.0119  0.7459 -1.3044
 7790TIP3   OH223326   3.060   0.762   5.416  0.4992 -0.4978 -0.1447
 7790TIP3    H123327   3.138   0.740   5.466 -0.6200 -0.3940  1.7189
 7790TIP3    H223328   2.987   0.741   5.474 -0.8031  1.9847 -0.7346
 7791TIP3   OH223329   1.846   4.190   3.366 -0.2121  0.1555  0.3231
 7791TIP3    H123330   1.869   4.219   3.454 -0.1839 -0.7845  0.6421
 7791TIP3    H223331   1.917   4.130   3.342  0.5744  1.5213 -0.9515
 7792TIP3   OH223332   0.747   2.401   4.210 -0.2728  0.4228  0.2952
 7792TIP3    H123333   0.684   2.360   4.270  1.1874  0.3459  1.8648
 7792TIP3    H223334   0.693   2.454   4.151 -1.7490  1.8960  2.7647
 7793TIP3   OH223335   5.472   1.965   3.970  0.3077 -0.3661  0.3581
 7793TIP3    H123336   5.481   2.060   3.977  0.0343 -0.1260 -1.8185
 7793TIP3    H223337   5.377   1.950   3.970  0.3049 -0.4518 -0.8371
 7794TIP3   OH223338   2.863   6.873   3.248 -0.0328  0.0707  0.6390
 7794TIP3    H123339   2.829   6.813   3.182 -0.7372  0.4971  0.5971
 7794TIP3    H223340   2.797   6.872   3.318  0.2720  0.2927  0.9380
 7795TIP3   OH223341   3.992   4.380   0.773  0.5019  0.0626  0.3490
 7795TIP3    H123342   3.954   4.434   0.843  1.4615 -1.1636  1.8730
 7795TIP3    H223343   4.085   4.400   0.775  0.6123 -0.3676 -0.2389
 7796TIP3   OH223344   4.896   7.242   3.760 -0.0077 -0.1708 -0.2090
 7796TIP3    H123345   4.869   7.157   3.724  0.5753 -0.5825  0.3243
 7796TIP3    H223346   4.971   7.223   3.816  1.0390  0.8831 -1.1889
 7797TIP3   OH223347   3.347   0.341   4.952 -0.2248 -0.0406  0.3943
 7797TIP3    H123348   3.344   0.342   4.856 -1.4718  0.1710  0.4245
 7797TIP3    H223349   3.311   0.256   4.976 -0.1324  0.0014  0.6805
 7798TIP3   OH223350   0.858   5.289   6.692  0.1202  0.0001 -0.6013
 7798TIP3    H123351   0.821   5.373   6.663  0.6869  0.4976  0.0553
 7798TIP3    H223352   0.809   5.268   6.772 -0.2340 -0.4572 -0.9376
 7799TIP3   OH223353   1.554   4.199   2.978  0.6602  0.0439 -0.0826
 7799TIP3    H123354   1.633   4.240   2.943  0.0858  0.7902 -0.5325
 7799TIP3    H223355   1.571   4.189   3.071  1.0850  0.6964 -0.0850
 7800TIP3   OH223356   3.432   5.838   0.365  0.0513  0.2245  0.0387
 7800TIP3    H123357   3.341   5.808   0.372 -0.2947  0.3385 -2.7799
 7800TIP3    H223358   3.427   5.915   0.308  2.0513 -0.7637 -1.5847
 7801TIP3   OH223359   3.468   2.615   1.482 -0.3527  0.1305  0.2053
 7801TIP3    H123360   3.540   2.554   1.469 -0.7268 -0.6324  1.5358
 7801TIP3    H223361   3.509   2.701   1.482  0.6893 -0.3220  1.5590
 7802TIP3   OH223362   2.990   4.001   2.651 -0.4272 -0.4225 -0.4917
 7802TIP3    H123363   2.907   3.960   2.676  0.7908 -1.3476  2.4326
 7802TIP3    H223364   3.015   4.052   2.727  1.2664  0.6336 -1.6904
 7803TIP3   OH223365   2.392   4.402   4.459 -0.1450  0.0379 -0.6683
 7803TIP3    H123366   2.399   4.492   4.425  0.5265 -0.3576 -1.6114
 7803TIP3    H223367   2.356   4.413   4.547  3.3478  1.5672  0.7607
 7804TIP3   OH223368   5.657   2.725   2.016 -0.1662 -0.5173  0.2618
 7804TIP3    H123369   5.591   2.779   1.973 -0.4486  0.4465  1.8565
 7804TIP3    H223370   5.649   2.745   2.109  1.0044 -1.9123  0.7109
 7805TIP3   OH223371   1.460   2.534   0.110 -0.7196 -0.4724  0.2681
 7805TIP3    H123372   1.500   2.614   0.075 -0.2722 -0.4028  0.9290
 7805TIP3    H223373   1.368   2.558   0.123 -0.6607 -0.1692  0.1433
 7806TIP3   OH223374   6.541   0.341   6.468 -0.3748  0.2999 -0.7312
 7806TIP3    H123375   6.506   0.411   6.522  0.3076 -0.1049  0.2581
 7806TIP3    H223376   6.469   0.319   6.408 -0.7344  1.5424 -0.7875
 7807TIP3   OH223377   0.717   1.368   4.809  0.0366 -0.6081  0.2821
 7807TIP3    H123378   0.753   1.382   4.721 -0.0847  0.0337  0.3312
 7807TIP3    H223379   0.786   1.322   4.856 -0.1714 -1.6244 -0.3646
 7808TIP3   OH223380   0.049   7.022   0.202  0.2729 -0.7025  0.1910
 7808TIP3    H123381   0.142   7.003   0.214  0.2619 -0.9884 -0.1623
 7808TIP3    H223382   0.046   7.116   0.183  0.4931 -0.7052  0.1394
 7809TIP3   OH223383   3.591   1.719   2.153  0.5676 -0.4598 -0.0948
 7809TIP3    H123384   3.637   1.668   2.086  0.9969  0.6230 -0.6493
 7809TIP3    H223385   3.551   1.791   2.105  0.4177  0.0205  0.7403
 7810TIP3   OH223386   7.575   2.179   1.068 -0.2251  0.1082  0.7527
 7810TIP3    H123387   7.568   2.254   1.127 -0.5120  0.7691 -0.1133
 7810TIP3    H223388   7.648   2.127   1.104  0.0788  0.8749  1.2650
 7811TIP3   OH223389   4.338   5.714   5.322 -0.1259 -0.2836 -0.1488
 7811TIP3    H123390   4.381   5.643   5.369  0.5132 -0.4166 -0.9252
 7811TIP3    H223391   4.357   5.698   5.230  1.5290  1.8318 -0.2602
 7812TIP3   OH223392   1.905   5.076   2.532  0.1172 -0.1630 -0.4152
 7812TIP3    H123393   1.953   4.994   2.525  1.8163  0.5120  1.9940
 7812TIP3    H223394   1.813   5.052   2.523  0.6263 -2.2202 -0.4300
 7813TIP3   OH223395   4.386   4.612   4.175  0.0944  0.5526  0.0435
 7813TIP3    H123396   4.369   4.581   4.086 -0.4850 -1.2897  0.7405
 7813TIP3    H223397   4.301   4.639   4.208  0.1151  0.2218  0.3823
 7814TIP3   OH223398   1.742   6.509   2.521  0.6886  0.2834 -0.4521
 7814TIP3    H123399   1.681   6.478   2.587  0.4086  0.2253 -0.7395
 7814TIP3    H223400   1.719   6.601   2.508  2.5707  1.1514  1.6102
 7815TIP3   OH223401   1.174   0.434   1.203 -0.5525  0.4101 -0.4950
 7815TIP3    H123402   1.120   0.486   1.262 -1.9485 -2.5270  1.0921
 7815TIP3    H223403   1.163   0.344   1.235 -0.6250 -1.2800 -4.6581
 7816TIP3   OH223404   0.257   2.369   0.835  0.2452  0.4104 -0.3867
 7816TIP3    H123405   0.338   2.337   0.796  0.5815  0.7542  0.0105
 7816TIP3    H223406   0.192   2.362   0.766  0.6546  0.2866 -0.7627
 7817TIP3   OH223407   3.122   5.332   3.023 -0.5911  0.4094 -0.2329
 7817TIP3    H123408   3.046   5.339   2.966 -2.4842 -0.5788  2.0222
 7817TIP3    H223409   3.166   5.252   2.993 -0.2126  1.1281 -1.7190
 7818TIP3   OH223410   7.786   2.173   1.789  0.2914  0.1507 -0.3955
 7818TIP3    H123411   7.766   2.082   1.812  4.7611 -1.0937 -0.4130
 7818TIP3    H223412   7.867   2.192   1.836  0.1686  3.7677 -1.3687
 7819TIP3   OH223413   2.402   3.430   2.940  0.0262  0.5575  0.3476
 7819TIP3    H123414   2.476   3.420   2.880 -1.0433 -0.6244 -0.8337
 7819TIP3    H223415   2.423   3.372   3.013 -0.2540 -0.6878 -0.5380
 7820TIP3   OH223416   4.631   2.390   6.672 -0.2223 -0.0648  0.4062
 7820TIP3    H123417   4.594   2.368   6.758  2.5542  1.4625  2.1750
 7820TIP3    H223418   4.577   2.463   6.641 -0.4528  0.2720  1.5327
 7821TIP3   OH223419   0.449   6.181   3.207  0.0431  0.0781  0.4974
 7821TIP3    H123420   0.459   6.191   3.302 -0.0361 -0.6843  0.5882
 7821TIP3    H223421   0.525   6.130   3.180  0.6726  1.2450 -0.0355
 7822TIP3   OH223422   5.671   6.066   4.418  0.3004  0.1066  0.1408
 7822TIP3    H123423   5.665   6.161   4.412 -0.2036  0.1697  1.4005
 7822TIP3    H223424   5.730   6.050   4.492 -2.4594 -0.5120  2.3522
 7823TIP3   OH223425   3.593   4.147   2.823 -0.0714  0.0332  0.5008
 7823TIP3    H123426   3.680   4.137   2.862  0.4899 -0.3876 -0.8006
 7823TIP3    H223427   3.590   4.237   2.793  0.7916 -0.5323 -1.4052
 7824TIP3   OH223428   6.063   0.028   6.326  0.1851  0.9218 -0.2158
 7824TIP3    H123429   6.069  -0.068   6.320  1.5068  0.9217  0.7760
 7824TIP3    H223430   6.131   0.060   6.268 -0.2231  1.2686 -0.5065
 7825TIP3   OH223431   7.083   1.139   1.413  0.7365 -0.0415 -0.1238
 7825TIP3    H123432   7.167   1.149   1.457  0.7812  1.1063 -0.4218
 7825TIP3    H223433   7.090   1.194   1.335 -0.8255  1.3651  0.6527
 7826TIP3   OH223434   7.365   7.037   3.257 -0.7205 -0.1502  0.4595
 7826TIP3    H123435   7.392   7.092   3.331  1.0526  1.5307 -1.2789
 7826TIP3    H223436   7.437   6.975   3.246 -2.2183 -2.1956  1.7341
 7827TIP3   OH223437   5.862   0.657   4.837  0.4922 -0.2479  0.0550
 7827TIP3    H123438   5.898   0.614   4.760  0.3199  1.3477 -0.9484
 7827TIP3    H223439   5.848   0.748   4.810 -1.6310 -0.1521  1.2930
 7828TIP3   OH223440   4.154   5.272   6.155 -0.8603 -0.4355  0.1389
 7828TIP3    H123441   4.086   5.338   6.140 -1.3336 -1.0317 -0.3941
 7828TIP3    H223442   4.231   5.322   6.183 -0.7929  0.4787 -1.5675
 7829TIP3   OH223443   1.966   0.619   1.692  0.3661  0.2068 -0.0150
 7829TIP3    H123444   1.872   0.603   1.700  0.7811 -1.9075  1.8248
 7829TIP3    H223445   1.974   0.713   1.677 -2.0247  0.4826  0.1431
 7830TIP3   OH223446   4.222   0.173   4.112 -0.0820  0.0524 -0.0454
 7830TIP3    H123447   4.169   0.094   4.120 -1.0393  0.5578 -1.0650
 7830TIP3    H223448   4.269   0.180   4.195 -0.9098 -0.9195  0.5211
 7831TIP3   OH223449   2.044   4.925   0.961  0.4923  0.2980  0.2524
 7831TIP3    H123450   2.019   4.912   1.052  0.9947 -0.5482  0.2843
 7831TIP3    H223451   2.139   4.936   0.964  0.4614  0.6724 -0.1256
 7832TIP3   OH223452   5.206   2.263   3.437 -0.2351 -0.1100 -0.1531
 7832TIP3    H123453   5.115   2.245   3.411  0.4072 -1.9074 -1.2873
 7832TIP3    H223454   5.197   2.318   3.515 -2.2666  1.7616 -1.5709
 7833TIP3   OH223455   3.518   4.975   4.998 -0.2530 -0.3786 -0.2110
 7833TIP3    H123456   3.457   4.923   4.945  0.9168 -2.1513  0.0976
 7833TIP3    H223457   3.462   5.014   5.065 -1.2392 -0.9664 -0.6573
 7834TIP3   OH223458   7.201   1.038   0.274  0.4124  0.1507 -0.3422
 7834TIP3    H123459   7.281   1.000   0.238 -0.1054 -1.2570 -0.0704
 7834TIP3    H223460   7.130   0.998   0.224 -0.1181  1.9106 -1.0463
 7835TIP3   OH223461   2.562   6.689   4.640  0.0062  0.8373  0.0582
 7835TIP3    H123462   2.605   6.712   4.722  2.2862  0.3449 -0.9365
 7835TIP3    H223463   2.507   6.614   4.662  0.7212  0.6016  1.1102
 7836TIP3   OH223464   7.309   2.867   0.312 -0.2992 -0.3416  0.3053
 7836TIP3    H123465   7.308   2.915   0.229 -2.0269  2.1325  1.6293
 7836TIP3    H223466   7.401   2.867   0.339  0.0561  0.1978 -0.8613
 7837TIP3   OH223467   2.674   7.110   5.096 -0.2497  0.6112  0.1066
 7837TIP3    H123468   2.685   7.052   5.020 -0.2135  1.1777 -0.3229
 7837TIP3    H223469   2.679   7.198   5.060  0.2336  0.8887  0.8407
 7838TIP3   OH223470   6.447   2.735   1.866 -0.6946 -0.2390 -0.2156
 7838TIP3    H123471   6.354   2.714   1.874 -0.7375 -0.0496 -0.1895
 7838TIP3    H223472   6.491   2.682   1.933 -0.7541 -0.5161 -0.3951
 7839TIP3   OH223473   5.549   4.082   5.867 -0.4505  0.3418  0.1157
 7839TIP3    H123474   5.640   4.113   5.869 -0.5390  0.8808 -1.7030
 7839TIP3    H223475   5.556   3.987   5.872  0.3276  0.2998 -1.1327
 7840TIP3   OH223476   6.337   6.811   3.637  0.3735  0.3693 -0.2556
 7840TIP3    H123477   6.370   6.773   3.719  0.8201 -0.4892 -0.8144
 7840TIP3    H223478   6.356   6.904   3.645 -1.7351  0.7164  1.6366
 7841TIP3   OH223479   7.513   3.720   1.134  0.4784  0.1684 -0.4710
 7841TIP3    H123480   7.593   3.717   1.082  0.2398  0.3520 -0.8522
 7841TIP3    H223481   7.468   3.799   1.104  0.8937  0.9326  0.8433
 7842TIP3   OH223482   4.065   0.911   3.837  0.4167  0.2331 -0.0509
 7842TIP3    H123483   4.009   0.979   3.874 -0.9741 -1.7719  1.7524
 7842TIP3    H223484   4.102   0.952   3.759 -1.1130  2.7088  0.3786
 7843TIP3   OH223485   8.170   4.050   4.169  0.2329 -0.8159 -0.1194
 7843TIP3    H123486   8.101   4.112   4.150  1.4587  0.7386  0.3046
 7843TIP3    H223487   8.198   4.018   4.084  0.3355  0.0626 -0.4190
 7844TIP3   OH223488   1.704   2.474   4.328  0.3567 -0.0787 -0.2928
 7844TIP3    H123489   1.660   2.426   4.398 -0.4294  1.8918  0.6450
 7844TIP3    H223490   1.796   2.474   4.355  0.3345 -0.8213 -0.1848
 7845TIP3   OH223491   2.414   7.398   3.819  0.2733 -0.0260  0.1050
 7845TIP3    H123492   2.431   7.430   3.907  0.2506 -0.8997  0.4404
 7845TIP3    H223493   2.478   7.327   3.806  1.8876  1.6013 -1.4828
 7846TIP3   OH223494   1.506   3.694   1.406  0.3374 -0.3728  0.5554
 7846TIP3    H123495   1.536   3.619   1.458  2.0089 -0.4533 -0.4328
 7846TIP3    H223496   1.559   3.690   1.326 -0.9472  0.7304 -0.4003
 7847TIP3   OH223497   1.545   0.941   1.791 -0.8259 -0.0320  0.2937
 7847TIP3    H123498   1.525   0.961   1.883 -0.7798 -0.8599  0.4932
 7847TIP3    H223499   1.478   0.986   1.741 -1.1950 -0.0450  0.7748
 7848TIP3   OH223500   1.908   6.023   5.427 -0.0923 -0.3290 -0.3277
 7848TIP3    H123501   1.946   5.937   5.406 -0.4864 -0.1256 -2.0558
 7848TIP3    H223502   1.865   6.050   5.346 -1.6096  0.6683  0.7526
 7849TIP3   OH223503   5.959   7.451   5.414 -0.2325 -0.3039  0.1349
 7849TIP3    H123504   5.892   7.383   5.427  0.5731 -1.1487 -0.0300
 7849TIP3    H223505   6.033   7.422   5.467 -0.0335  0.6975  0.4279
 7850TIP3   OH223506   7.913   5.673   0.912  0.2467 -0.1554 -0.1051
 7850TIP3    H123507   7.831   5.721   0.924  0.5261  0.1965  0.4089
 7850TIP3    H223508   7.886   5.583   0.897 -0.2712  0.0882 -0.7378
 7851TIP3   OH223509   4.124   6.983   3.764 -0.2113  0.3122 -0.0158
 7851TIP3    H123510   4.195   6.921   3.782 -0.4921  0.2154  0.7977
 7851TIP3    H223511   4.141   7.056   3.824  0.0845  1.0098 -0.9214
 7852TIP3   OH223512   6.119   0.390   3.173  0.2130  0.4030 -0.4605
 7852TIP3    H123513   6.080   0.381   3.086  0.1772 -4.7595 -0.2013
 7852TIP3    H223514   6.200   0.341   3.168 -0.8514 -2.0021  2.8566
 7853TIP3   OH223515   2.872   7.662   6.391  0.1215  0.4864  0.1394
 7853TIP3    H123516   2.919   7.735   6.350 -0.3871  1.1287  0.6719
 7853TIP3    H223517   2.786   7.661   6.349 -0.1452  0.6870  0.6711
 7854TIP3   OH223518   7.069   7.012   2.659  0.3578  0.3109 -0.3508
 7854TIP3    H123519   7.124   7.083   2.627  0.1023  0.5996 -0.1548
 7854TIP3    H223520   7.034   6.971   2.580  0.3771  0.5071 -0.4615
 7855TIP3   OH223521   0.894   4.441   0.814  0.3090  0.1448  0.5735
 7855TIP3    H123522   0.864   4.493   0.889  1.7000  1.3707  0.3329
 7855TIP3    H223523   0.841   4.472   0.741  1.3096  1.5048  0.3745
 7856TIP3   OH223524   0.860   7.756   5.118 -0.7397  0.1604  0.4157
 7856TIP3    H123525   0.791   7.714   5.068 -0.9211  1.0709 -0.1136
 7856TIP3    H223526   0.815   7.820   5.173 -0.3434  0.6833  0.1462
 7857TIP3   OH223527   6.460   2.406   1.096  0.2891  0.2428 -0.2684
 7857TIP3    H123528   6.546   2.390   1.058  0.5810 -1.0993  0.8689
 7857TIP3    H223529   6.453   2.343   1.167 -1.5922  0.4050 -0.2514
 7858TIP3   OH223530   7.018   7.308   5.325 -0.5300 -0.1368 -0.4593
 7858TIP3    H123531   6.980   7.392   5.350  0.7813  0.1975  0.4730
 7858TIP3    H223532   7.101   7.330   5.284 -0.7714 -0.9283 -1.4467
 7859TIP3   OH223533   2.676   6.250   3.599  0.1157 -0.6366  0.1146
 7859TIP3    H123534   2.742   6.183   3.620 -0.0897 -1.1844 -0.9271
 7859TIP3    H223535   2.598   6.201   3.576 -0.0038 -0.0579 -0.7894
 7860TIP3   OH223536   1.074   5.636   3.566 -0.1444  0.5318  0.2649
 7860TIP3    H123537   0.991   5.617   3.521  0.9953 -0.4638 -1.5621
 7860TIP3    H223538   1.114   5.551   3.578  1.6243  1.1193 -1.0146
 7861TIP3   OH223539   1.070   1.367   1.115 -0.1741 -0.3686  0.3471
 7861TIP3    H123540   1.056   1.386   1.022  1.4602  1.0413  0.3365
 7861TIP3    H223541   0.985   1.334   1.145 -1.7977  2.2841 -0.9107
 7862TIP3   OH223542   2.278   1.251   3.484  0.1829 -0.1631 -0.6263
 7862TIP3    H123543   2.252   1.325   3.539  1.8177  0.8127 -1.1107
 7862TIP3    H223544   2.197   1.223   3.442 -0.5468  1.0623 -0.0886
 7863TIP3   OH223545   7.274   7.098   3.629  0.0220 -0.1524 -0.2213
 7863TIP3    H123546   7.322   7.029   3.582 -0.3035  0.0449 -0.8489
 7863TIP3    H223547   7.192   7.107   3.580 -0.4356 -0.1231  0.5428
 7864TIP3   OH223548   1.656   0.597   0.477  0.7485 -0.0041  0.3547
 7864TIP3    H123549   1.722   0.667   0.478  1.0276 -0.2562 -0.1249
 7864TIP3    H223550   1.629   0.591   0.385  1.0884 -0.8682  0.3056
 7865TIP3   OH223551   4.834   5.763   0.714 -0.2134  0.2404  0.0722
 7865TIP3    H123552   4.783   5.724   0.785  1.6459  0.5341  1.6498
 7865TIP3    H223553   4.781   5.838   0.685 -1.1835 -0.1152  0.8772
 7866TIP3   OH223554   8.043   7.375   6.412 -0.2604  0.3612 -0.3311
 7866TIP3    H123555   8.083   7.373   6.325  0.1984  0.7198 -0.1361
 7866TIP3    H223556   8.112   7.410   6.469 -1.0150  1.4714 -0.0744
 7867TIP3   OH223557   6.143   0.424   0.866 -0.2016  0.7641 -0.2099
 7867TIP3    H123558   6.073   0.360   0.853  0.2603  0.2348 -0.1239
 7867TIP3    H223559   6.115   0.477   0.940 -0.2439  0.1755  0.2009
 7868TIP3   OH223560   4.166   5.269   4.890 -0.6012  0.2603 -0.1284
 7868TIP3    H123561   4.123   5.344   4.932 -0.0493  0.4925  0.0405
 7868TIP3    H223562   4.259   5.293   4.889 -0.3518 -0.6285  0.3776
 7869TIP3   OH223563   3.163   7.357   0.739  0.3694 -0.1577  0.0811
 7869TIP3    H123564   3.181   7.295   0.668 -0.7716  1.0697 -1.3550
 7869TIP3    H223565   3.247   7.369   0.782  0.8828 -1.7003 -0.4197
 7870TIP3   OH223566   1.380   6.612   3.412  0.0291 -0.0262  0.4137
 7870TIP3    H123567   1.471   6.605   3.440  0.4766 -0.2471 -0.9874
 7870TIP3    H223568   1.385   6.608   3.316 -1.4858 -0.3712  0.3317
 7871TIP3   OH223569   0.037   3.268   3.991 -0.2153 -0.0324  0.0580
 7871TIP3    H123570   0.017   3.302   4.078  0.6946 -1.3893  0.8423
 7871TIP3    H223571  -0.043   3.224   3.962 -0.2282 -0.3901  0.6317
 7872TIP3   OH223572   2.796   1.589   4.963  0.0021  0.0898  0.3191
 7872TIP3    H123573   2.708   1.627   4.955 -0.0025  0.2475  1.0243
 7872TIP3    H223574   2.780   1.498   4.990  0.0418 -0.0612 -0.1635
 7873TIP3   OH223575   4.717   4.830   3.011 -0.2038  0.5288 -0.2890
 7873TIP3    H123576   4.702   4.833   2.917 -2.7103 -0.1329  0.0202
 7873TIP3    H223577   4.631   4.810   3.048  0.8290  0.2574  2.1133
 7874TIP3   OH223578   0.657   5.182   4.084  0.1415  0.1304  0.0686
 7874TIP3    H123579   0.735   5.137   4.050 -0.3958 -1.2304  0.5617
 7874TIP3    H223580   0.634   5.245   4.016  2.2503  1.2963  0.3546
 7875TIP3   OH223581   3.037   5.771   3.503 -0.1625 -0.3131 -0.2433
 7875TIP3    H123582   2.973   5.735   3.565 -0.1590 -0.7164 -0.4645
 7875TIP3    H223583   2.989   5.839   3.455 -0.3910 -0.5220 -0.3171
 7876TIP3   OH223584   5.376   5.769   0.141  0.3980  0.0969  0.8046
 7876TIP3    H123585   5.373   5.744   0.048  0.0697 -1.5543  1.2316
 7876TIP3    H223586   5.349   5.860   0.142  0.8515  0.2838 -0.7749
 7877TIP3   OH223587   0.464   0.974   1.024  0.9901 -0.0729  0.3986
 7877TIP3    H123588   0.527   0.911   1.058 -0.7106 -1.0487  1.9177
 7877TIP3    H223589   0.511   1.057   1.023  2.8085 -1.0633 -0.1786
 7878TIP3   OH223590   4.517   1.100   1.302 -0.5455 -0.0257 -0.2692
 7878TIP3    H123591   4.477   1.014   1.317 -0.8295  0.1467 -0.0287
 7878TIP3    H223592   4.524   1.106   1.207 -2.7819  0.6825 -0.4598
 7879TIP3   OH223593   1.062   7.734   3.395 -0.0429 -0.1488 -0.5659
 7879TIP3    H123594   0.982   7.688   3.371 -0.8323  0.4221  0.8456
 7879TIP3    H223595   1.032   7.820   3.425  0.9473 -0.4162  1.3453
 7880TIP3   OH223596   3.185   7.646   5.090 -0.1466 -0.0368 -0.3948
 7880TIP3    H123597   3.215   7.715   5.031 -0.4425  0.9204  0.5330
 7880TIP3    H223598   3.129   7.692   5.153  0.4719 -0.9504  0.8615
 7881TIP3   OH223599   4.929   0.990   0.316  0.1980 -0.0908  0.0393
 7881TIP3    H123600   4.888   1.009   0.401  1.4163 -0.7230  0.8170
 7881TIP3    H223601   4.952   1.075   0.280 -0.3892  0.1875  0.3153
 7882TIP3   OH223602   3.726   4.643   1.040  0.2968 -0.1723 -0.1656
 7882TIP3    H123603   3.654   4.650   0.978 -0.4189  0.8430  0.7498
 7882TIP3    H223604   3.735   4.731   1.077 -0.1956 -1.0302  2.1404
 7883TIP3   OH223605   7.521   0.373   4.588  0.3536  0.1042 -0.1611
 7883TIP3    H123606   7.562   0.392   4.673 -1.0681 -0.0744  0.5977
 7883TIP3    H223607   7.514   0.458   4.545  1.0793  0.1969 -0.1064
 7884TIP3   OH223608   7.299   2.923   4.930  0.0995 -0.1015 -0.4742
 7884TIP3    H123609   7.382   2.901   4.889  0.0300  0.5464 -0.9884
 7884TIP3    H223610   7.238   2.933   4.857 -0.4224 -0.5330 -0.1074
 7885TIP3   OH223611   1.507   7.063   3.845 -0.3391 -0.2845 -0.3835
 7885TIP3    H123612   1.431   7.063   3.787 -1.3378 -1.2411  0.8642
 7885TIP3    H223613   1.536   6.972   3.847  2.1325  0.3377 -2.3732
 7886TIP3   OH223614   6.768   4.700   1.941  0.4005  0.0957 -0.4407
 7886TIP3    H123615   6.807   4.787   1.936 -0.1572  0.4445  0.7861
 7886TIP3    H223616   6.697   4.709   2.005  1.9492 -1.8040  1.7389
 7887TIP3   OH223617   7.528   3.102   5.910  0.4046  0.6309  0.4187
 7887TIP3    H123618   7.451   3.046   5.920  0.2248  0.4870 -1.4706
 7887TIP3    H223619   7.600   3.051   5.946 -0.2704  0.5683  1.7621
 7888TIP3   OH223620   3.462   3.508   1.924 -0.1056  0.1816  0.6678
 7888TIP3    H123621   3.449   3.564   2.000  2.0208 -1.0458  2.0445
 7888TIP3    H223622   3.404   3.434   1.937 -0.0950  0.2046  0.8400
 7889TIP3   OH223623   7.480   0.189   5.331 -0.2985 -0.4696  0.2047
 7889TIP3    H123624   7.469   0.095   5.337  0.3052 -0.4501  2.7341
 7889TIP3    H223625   7.564   0.206   5.373 -1.0480  1.2971  1.1005
 7890TIP3   OH223626   6.817   2.855   6.682  0.1100 -0.3039 -0.3330
 7890TIP3    H123627   6.775   2.920   6.739  2.0569 -0.1079  0.9865
 7890TIP3    H223628   6.890   2.821   6.734  2.3870  0.2918 -2.8896
 7891TIP3   OH223629   3.994   6.353   4.512 -0.0747 -0.2613  0.8357
 7891TIP3    H123630   3.929   6.398   4.566  0.5071  1.2184  0.3711
 7891TIP3    H223631   4.076   6.399   4.531  0.4676 -0.8734  0.0137
 7892TIP3   OH223632   4.321   3.688   4.121 -0.3630  0.0958 -0.6276
 7892TIP3    H123633   4.388   3.727   4.064 -0.2841 -0.6560 -1.0589
 7892TIP3    H223634   4.366   3.618   4.167 -1.1455 -1.3148 -1.9161
 7893TIP3   OH223635   6.074   2.133   2.435  0.1052 -0.3213  0.3744
 7893TIP3    H123636   6.102   2.116   2.345 -0.2320  0.9544  0.0121
 7893TIP3    H223637   6.039   2.222   2.433  0.7300 -0.0083  1.9125
 7894TIP3   OH223638   6.315   1.796   2.055 -0.3439  0.3984  0.2433
 7894TIP3    H123639   6.387   1.769   1.998 -2.2670 -0.6458 -1.8404
 7894TIP3    H223640   6.326   1.890   2.065  1.6715  0.1843  0.6081
 7895TIP3   OH223641   2.562   7.292   6.027  0.3236  0.3390 -0.2787
 7895TIP3    H123642   2.472   7.270   6.053  0.6532  1.6690  2.4538
 7895TIP3    H223643   2.568   7.386   6.043  2.1398  0.3125 -0.6300
 7896TIP3   OH223644   7.985   7.479   1.010  0.4197  0.0017 -0.2195
 7896TIP3    H123645   7.964   7.566   1.046  1.9953  0.0389  0.6875
 7896TIP3    H223646   7.927   7.419   1.057 -0.7971  0.5599 -0.9690
 7897TIP3   OH223647   2.422   7.289  -0.029 -0.1816  1.0311  0.2543
 7897TIP3    H123648   2.435   7.216   0.031  1.2226  0.3681 -0.7981
 7897TIP3    H223649   2.485   7.355  -0.000 -0.0557  1.0228  0.0045
 7898TIP3   OH223650   1.535   4.943   1.058  0.4600 -0.1647  0.5012
 7898TIP3    H123651   1.489   4.860   1.044  0.2442  0.3075 -1.9882
 7898TIP3    H223652   1.476   4.994   1.114 -1.0267 -0.4274 -0.7617
 7899TIP3   OH223653   5.400   3.904   2.461  0.0532 -0.4454 -0.6157
 7899TIP3    H123654   5.306   3.890   2.450 -0.3546 -0.9102  2.5704
 7899TIP3    H223655   5.421   3.975   2.400 -2.3483 -0.3082 -1.3883
 7900TIP3   OH223656   2.095   0.467   2.145 -0.6614  0.3231  0.1230
 7900TIP3    H123657   2.023   0.479   2.084 -0.5703 -0.5273 -0.1689
 7900TIP3    H223658   2.067   0.510   2.226 -1.3809  0.2177 -0.0721
 7901TIP3   OH223659   3.865   6.034   1.437  0.1856 -0.1201  0.0012
 7901TIP3    H123660   3.831   6.004   1.353  1.3642  0.4528 -0.7050
 7901TIP3    H223661   3.794   6.017   1.499 -0.4733 -1.1292 -0.9878
 7902TIP3   OH223662   0.598   2.572   6.421  0.2076 -0.6391  0.7659
 7902TIP3    H123663   0.662   2.620   6.474  0.2779 -1.0305  1.0443
 7902TIP3    H223664   0.538   2.533   6.485 -2.3501  2.4188  0.4437
 7903TIP3   OH223665   7.136   4.128   1.843 -0.5177  0.7599  0.6559
 7903TIP3    H123666   7.134   4.149   1.936  0.2901  0.1207  0.8263
 7903TIP3    H223667   7.143   4.213   1.800  0.6653  0.9868  1.2539
 7904TIP3   OH223668   4.312   0.332   2.022 -0.0413  0.8323 -0.5411
 7904TIP3    H123669   4.338   0.418   2.054  1.3349  0.4216 -0.4478
 7904TIP3    H223670   4.357   0.323   1.938 -0.5586  0.3905 -0.7788
 7905TIP3   OH223671   0.668   5.600   1.968  0.2917  0.1457  0.7692
 7905TIP3    H123672   0.701   5.598   2.058  0.2062 -1.0388  0.7869
 7905TIP3    H223673   0.655   5.693   1.949  0.0796  0.3923  2.0617
 7906TIP3   OH223674   0.401   7.066   0.804 -0.3754 -0.0015 -0.2977
 7906TIP3    H123675   0.321   7.048   0.853  0.7774 -1.2165  1.2750
 7906TIP3    H223676   0.376   7.131   0.739 -1.9764  1.8160  1.9962
 7907TIP3   OH223677   5.233   4.826   2.228 -0.4781  0.2018  0.1744
 7907TIP3    H123678   5.327   4.815   2.217 -0.5707  0.6728 -1.2515
 7907TIP3    H223679   5.221   4.919   2.245 -0.3705 -0.3808  4.6292
 7908TIP3   OH223680   3.247   0.877   4.086  0.0667  0.0171 -0.3037
 7908TIP3    H123681   3.263   0.841   4.173  0.5269  0.4090 -0.2191
 7908TIP3    H223682   3.152   0.881   4.079  0.0217  0.8655  0.5647
 7909TIP3   OH223683   0.874   1.684   4.972  0.3560  0.4100 -0.1674
 7909TIP3    H123684   0.948   1.623   4.974 -0.5625 -0.7503 -0.3157
 7909TIP3    H223685   0.810   1.646   5.032 -0.0659  1.4769  0.0824
 7910TIP3   OH223686   7.502   0.924   5.036  0.9297  0.9387 -0.7693
 7910TIP3    H123687   7.534   0.962   5.117 -0.3819 -0.6625  0.5802
 7910TIP3    H223688   7.563   0.854   5.016  1.3138  1.4011 -1.2554
 7911TIP3   OH223689   6.115   7.778   5.107  0.3403 -0.3238  0.5503
 7911TIP3    H123690   6.098   7.753   5.198 -0.4841 -0.7560  0.2861
 7911TIP3    H223691   6.036   7.753   5.060  0.5993  0.2756 -0.2214
 7912TIP3   OH223692   6.208   7.614   0.248  0.1093  0.3530 -0.3230
 7912TIP3    H123693   6.126   7.564   0.254 -0.3014  1.0834  0.4129
 7912TIP3    H223694   6.179   7.706   0.243  0.8947  0.7119  1.2038
 7913TIP3   OH223695   7.242   0.991   5.737 -0.1319 -0.3062 -0.4286
 7913TIP3    H123696   7.199   1.047   5.673 -0.2937 -1.4325 -1.3409
 7913TIP3    H223697   7.264   1.050   5.810 -0.5473  0.8611 -1.2182
 7914TIP3   OH223698   3.137   2.319   0.938 -0.0601  0.6731  0.1691
 7914TIP3    H123699   3.209   2.261   0.913 -0.1127  0.7144 -0.0827
 7914TIP3    H223700   3.147   2.330   1.033  0.2605  0.6733  0.1379
 7915TIP3   OH223701   6.034   6.472   5.105  0.2401  0.7652 -0.1881
 7915TIP3    H123702   6.111   6.508   5.149 -0.3617 -0.5751  2.1095
 7915TIP3    H223703   6.043   6.377   5.114 -0.9926  0.5297 -1.1105
 7916TIP3   OH223704   1.316   5.524   1.588  0.5619  0.4149 -0.4948
 7916TIP3    H123705   1.262   5.461   1.635  0.9153 -1.2910 -2.2481
 7916TIP3    H223706   1.300   5.607   1.633 -3.3173 -0.0162 -0.6775
 7917TIP3   OH223707   5.867   1.749   1.850 -0.1413 -0.5487 -0.2418
 7917TIP3    H123708   5.916   1.830   1.869  0.4082 -0.9475  0.0697
 7917TIP3    H223709   5.887   1.692   1.924 -0.0333 -1.2012 -0.7717
 7918TIP3   OH223710   5.929   6.058   1.174  0.1619  0.4505  0.6200
 7918TIP3    H123711   5.844   6.018   1.189  0.3556 -0.4831 -0.5880
 7918TIP3    H223712   5.947   6.108   1.253 -1.7759  1.1596  0.6562
 7919TIP3   OH223713   3.678   2.190   6.105 -0.1143  0.1763 -0.4580
 7919TIP3    H123714   3.686   2.279   6.140 -0.7133  0.8989 -2.0937
 7919TIP3    H223715   3.723   2.193   6.021 -1.8845 -0.5118 -1.4760
 7920TIP3   OH223716   2.304   4.954   0.940  0.4280  0.4762  0.4615
 7920TIP3    H123717   2.398   4.938   0.931  0.2698  0.3934 -1.3566
 7920TIP3    H223718   2.269   4.949   0.851 -1.2711  0.7680  1.0586
 7921TIP3   OH223719   4.486   5.152   6.749 -0.3933  0.1841 -0.6819
 7921TIP3    H123720   4.572   5.139   6.787  0.0999  4.1375  0.0248
 7921TIP3    H223721   4.437   5.073   6.771  2.6990 -1.7500 -0.2339
 7922TIP3   OH223722   4.404   5.681   3.159 -0.2787  0.0218  0.0208
 7922TIP3    H123723   4.448   5.619   3.102  0.5128  0.2717  0.3461
 7922TIP3    H223724   4.331   5.632   3.196  1.0068 -1.1130  1.1898
 7923TIP3   OH223725   6.635   4.204   0.742 -0.4165 -0.2291  0.6374
 7923TIP3    H123726   6.604   4.172   0.827 -1.6002 -1.5471 -0.2362
 7923TIP3    H223727   6.655   4.296   0.757 -2.0681 -0.0384  1.9753
 7924TIP3   OH223728   0.751   6.186   4.328 -0.0430  0.2275 -0.5010
 7924TIP3    H123729   0.800   6.105   4.319 -0.4685 -0.2732  1.2584
 7924TIP3    H223730   0.817   6.255   4.328  0.3664 -0.1610 -1.4395
 7925TIP3   OH223731   6.220   6.342   6.353 -0.1629 -0.1873 -0.1449
 7925TIP3    H123732   6.262   6.428   6.353 -0.8995  0.2289 -2.1503
 7925TIP3    H223733   6.248   6.301   6.435  0.3334  1.8849  0.7733
 7926TIP3   OH223734   8.303   4.277   4.282 -0.2743 -0.5306  0.1834
 7926TIP3    H123735   8.274   4.187   4.270  1.9806 -1.2124 -0.5155
 7926TIP3    H223736   8.278   4.321   4.201 -0.5533 -0.7532  0.1454
 7927TIP3   OH223737   2.572   2.541   6.089 -0.0491  0.0404  0.4516
 7927TIP3    H123738   2.654   2.509   6.053 -0.7104 -0.4253 -0.7098
 7927TIP3    H223739   2.597   2.609   6.151  1.2005 -0.1180  0.1410
 7928TIP3   OH223740   2.569   7.692   6.428  0.2557 -0.4865  0.2687
 7928TIP3    H123741   2.611   7.611   6.458  1.9781  0.1388 -0.3224
 7928TIP3    H223742   2.581   7.753   6.501  1.0510 -0.0909 -0.1825
 7929TIP3   OH223743   7.041   4.212   3.303 -0.1452 -0.6529  0.5984
 7929TIP3    H123744   6.957   4.191   3.346 -0.1027  1.3770  1.8318
 7929TIP3    H223745   7.077   4.127   3.278 -1.9545 -1.6755  1.2493
 7930TIP3   OH223746   7.699   7.216   3.645 -0.1937  0.2482  0.1701
 7930TIP3    H123747   7.681   7.280   3.714  0.0594  0.9535 -0.3927
 7930TIP3    H223748   7.759   7.262   3.586  2.6369 -1.6186  1.3940
 7931TIP3   OH223749   3.261   0.402   0.921 -0.3644  0.1028 -0.3490
 7931TIP3    H123750   3.332   0.350   0.883 -1.0572 -1.0203 -0.1338
 7931TIP3    H223751   3.274   0.490   0.884 -0.5760 -0.7529 -2.6231
 7932TIP3   OH223752   6.757   0.988   3.051 -0.5353 -0.6762 -0.6581
 7932TIP3    H123753   6.769   0.918   2.987  0.6737  1.1937 -2.5825
 7932TIP3    H223754   6.846   1.017   3.073 -0.9765 -0.3280  0.8353
 7933TIP3   OH223755   4.768   1.246   2.212 -0.3094  0.6932 -0.1116
 7933TIP3    H123756   4.713   1.169   2.202 -1.3343  1.4623 -0.5001
 7933TIP3    H223757   4.791   1.271   2.122  0.5324  0.4912  0.0368
 7934TIP3   OH223758   2.888   4.643   3.084  0.5957 -0.2156 -0.3968
 7934TIP3    H123759   2.826   4.591   3.136 -0.2059 -0.1851 -1.2974
 7934TIP3    H223760   2.890   4.600   2.999  3.2540 -1.3323  0.1142
 7935TIP3   OH223761   1.388   6.688   5.669  0.1822  0.6434  0.2338
 7935TIP3    H123762   1.309   6.725   5.629 -0.8486 -0.9243  0.6935
 7935TIP3    H223763   1.355   6.621   5.729  1.8982 -1.5564 -1.1165
 7936TIP3   OH223764   7.527   6.497   2.217  0.2321  0.5446  0.3517
 7936TIP3    H123765   7.518   6.478   2.311  0.0580 -0.2347  0.1832
 7936TIP3    H223766   7.477   6.427   2.174  0.2821  0.9193 -0.3212
 7937TIP3   OH223767   4.689   5.528   6.604  0.2673  0.8734 -0.2677
 7937TIP3    H123768   4.628   5.564   6.540  0.4501  0.3576 -0.7460
 7937TIP3    H223769   4.744   5.602   6.630 -0.6538  1.3742  0.2854
 7938TIP3   OH223770   7.146   6.110   4.019 -0.1230 -0.2665  0.5003
 7938TIP3    H123771   7.193   6.036   3.979 -1.2763 -2.0955  2.3187
 7938TIP3    H223772   7.054   6.095   3.996 -0.1461  2.3920 -1.6816
 7939TIP3   OH223773   6.340   2.598   0.136 -0.5802 -0.1257 -0.1542
 7939TIP3    H123774   6.353   2.676   0.190 -1.8276 -0.1669  0.2472
 7939TIP3    H223775   6.337   2.525   0.198  0.7178 -0.5233 -0.5376
 7940TIP3   OH223776   4.055   2.752   3.325  0.4647 -0.3631 -0.2289
 7940TIP3    H123777   4.095   2.708   3.399  0.6162 -0.7318 -0.5247
 7940TIP3    H223778   4.130   2.785   3.274  0.3887 -0.7379 -0.5916
 7941TIP3   OH223779   6.686   5.162   5.375  0.4274  0.1194 -0.0701
 7941TIP3    H123780   6.606   5.203   5.407  0.7711  0.1116  0.8373
 7941TIP3    H223781   6.709   5.098   5.442  0.6210 -0.6270 -0.8361
 7942TIP3   OH223782   4.154   5.425   1.809  0.2649  0.0452  0.2197
 7942TIP3    H123783   4.191   5.408   1.895 -0.1159  0.0205  0.3821
 7942TIP3    H223784   4.081   5.363   1.802 -1.2471  1.6560  0.8777
 7943TIP3   OH223785   7.832   4.318   4.557 -0.0225  0.0526  0.3004
 7943TIP3    H123786   7.842   4.240   4.611 -0.5115  0.0629  0.4021
 7943TIP3    H223787   7.738   4.334   4.553  0.1463  1.9625  2.1635
 7944TIP3   OH223788   1.496   3.107   3.160  0.3581 -0.5787  0.1803
 7944TIP3    H123789   1.445   3.187   3.172  0.0256 -1.0439  2.1521
 7944TIP3    H223790   1.529   3.113   3.070 -0.1734  1.4625  0.0762
 7945TIP3   OH223791   4.404   7.488   0.767  0.8017  0.3699 -0.1597
 7945TIP3    H123792   4.482   7.434   0.760  0.7730 -0.0125  1.8851
 7945TIP3    H223793   4.343   7.436   0.820  0.5133  2.0642  1.2812
 7946TIP3   OH223794   3.888   6.251   1.767  0.0525  0.0588  0.3250
 7946TIP3    H123795   3.854   6.292   1.687  0.2106 -0.6899 -0.1310
 7946TIP3    H223796   3.810   6.223   1.814 -0.0154 -0.4162 -0.0611
 7947TIP3   OH223797   3.012   2.177   2.458 -0.3926 -0.2682  0.4956
 7947TIP3    H123798   2.997   2.237   2.530 -0.8932  1.4298 -0.9540
 7947TIP3    H223799   3.071   2.224   2.399 -0.6447 -1.2637 -0.6046
 7948TIP3   OH223800   1.743   6.322   1.207 -0.1601 -0.3518  0.0419
 7948TIP3    H123801   1.727   6.247   1.264 -0.8906  0.2757  0.6841
 7948TIP3    H223802   1.736   6.286   1.118  0.8381 -1.3029  0.3289
 7949TIP3   OH223803   8.003   7.074   1.777  0.2775  0.1588  0.3570
 7949TIP3    H123804   8.035   7.155   1.737  1.3288  0.3115  1.4546
 7949TIP3    H223805   8.082   7.026   1.801 -0.3370 -0.8857  0.3350
 7950TIP3   OH223806   1.616   1.016   2.905 -0.3143  0.4442 -0.8616
 7950TIP3    H123807   1.585   1.097   2.862 -0.2685  1.7411  1.4056
 7950TIP3    H223808   1.619   1.038   2.998  1.0151 -1.7823 -0.3133
 7951TIP3   OH223809   6.943   5.098   1.985  0.1700  0.3177 -0.1354
 7951TIP3    H123810   7.006   5.029   2.004 -0.8081 -0.5815 -0.0559
 7951TIP3    H223811   6.884   5.099   2.060 -0.6876  0.2354 -0.7860
 7952TIP3   OH223812   7.237   3.016   2.721 -0.1648  0.3467  0.5663
 7952TIP3    H123813   7.198   2.938   2.680  0.6373 -0.7242  1.7845
 7952TIP3    H223814   7.251   2.991   2.812  0.0275  1.9706  1.0095
 7953TIP3   OH223815   7.963   5.491   5.269  0.3096 -0.1314  0.0444
 7953TIP3    H123816   8.000   5.510   5.355  0.1737  1.9610 -0.3140
 7953TIP3    H223817   7.959   5.396   5.266 -1.3831 -0.3018  3.0934
 7954TIP3   OH223818   2.395   6.337   0.579  0.0146 -0.4740  0.3920
 7954TIP3    H123819   2.373   6.243   0.583 -2.5627  0.0696  1.6074
 7954TIP3    H223820   2.360   6.366   0.495  0.1361 -0.4623  0.3457
 7955TIP3   OH223821   4.170   1.108   5.349  0.3116 -0.1195  0.0875
 7955TIP3    H123822   4.210   1.106   5.262  0.3182  0.7315  0.0626
 7955TIP3    H223823   4.166   1.201   5.372  1.4226 -0.3818  1.5108
 7956TIP3   OH223824   6.721   0.344   1.548 -0.0782 -0.4790  0.4787
 7956TIP3    H123825   6.678   0.395   1.478  0.5267 -0.8303 -0.1636
 7956TIP3    H223826   6.781   0.286   1.501  0.2625 -0.7936  1.2967
 7957TIP3   OH223827   6.070   1.072   2.037 -0.1086 -0.0715 -0.4263
 7957TIP3    H123828   5.989   1.022   2.042  0.2535 -0.7737 -1.3369
 7957TIP3    H223829   6.107   1.050   1.951 -0.4185  2.5082 -1.3106
 7958TIP3   OH223830   3.162   3.063   3.578 -0.3315  0.7704  0.4416
 7958TIP3    H123831   3.196   3.062   3.488  0.0347 -1.9315  0.5151
 7958TIP3    H223832   3.238   3.043   3.633 -0.5642  2.3387  1.3912
 7959TIP3   OH223833   5.367   6.404   5.775  0.1404 -0.4446 -0.1758
 7959TIP3    H123834   5.294   6.393   5.835 -1.6834  3.0853 -1.4550
 7959TIP3    H223835   5.421   6.472   5.814  1.6503 -1.5314 -0.2751
 7960TIP3   OH223836   2.382   2.973   5.350 -0.1121 -0.2835 -0.1099
 7960TIP3    H123837   2.370   3.050   5.294 -0.9931 -0.2575  0.1004
 7960TIP3    H223838   2.344   2.998   5.434  1.0167 -0.4011  0.4593
 7961TIP3   OH223839   0.907   4.739   0.143  0.5905  0.1675 -0.4056
 7961TIP3    H123840   0.995   4.700   0.143  0.6580  0.3087 -0.8944
 7961TIP3    H223841   0.865   4.703   0.064  0.6609  1.0951 -0.8821
 7962TIP3   OH223842   7.649   4.107   5.264 -0.6765  0.0902  0.2433
 7962TIP3    H123843   7.680   4.094   5.354 -0.1970  0.3509  0.1164
 7962TIP3    H223844   7.564   4.063   5.262 -1.3572  1.3091  1.2222
 7963TIP3   OH223845   8.201   7.609   2.537  0.5969 -0.1941 -0.6179
 7963TIP3    H123846   8.188   7.702   2.556 -2.2137 -0.8203  1.0789
 7963TIP3    H223847   8.167   7.598   2.448 -1.5594  0.0164  0.1248
 7964TIP3   OH223848   3.131   7.392   6.400 -0.0499 -0.4663 -0.6621
 7964TIP3    H123849   3.139   7.307   6.356  2.2701  0.0008 -1.2671
 7964TIP3    H223850   3.055   7.433   6.359 -0.5667 -1.8050 -1.1125
 7965TIP3   OH223851   1.443   5.965   5.505  0.9489  0.0441 -0.0998
 7965TIP3    H123852   1.429   6.043   5.559  1.1438 -0.0932  0.1501
 7965TIP3    H223853   1.506   5.913   5.554 -1.2339 -1.5941  1.1215
 7966TIP3   OH223854   5.146   0.014   6.271 -0.4818 -0.0568 -0.1476
 7966TIP3    H123855   5.116   0.077   6.336  0.7976  1.4912 -1.0102
 7966TIP3    H223856   5.207  -0.042   6.319 -1.7641 -0.8263  0.6645
 7967TIP3   OH223857   4.582   4.041   6.263  0.2044 -0.2045 -0.1137
 7967TIP3    H123858   4.515   4.109   6.268 -0.0544 -0.2851 -2.0570
 7967TIP3    H223859   4.657   4.079   6.309 -0.6188  0.5166  0.6923
 7968TIP3   OH223860   4.197   7.308   3.106 -0.1462 -0.3239 -0.6013
 7968TIP3    H123861   4.241   7.385   3.143 -0.5825 -0.8469  1.1029
 7968TIP3    H223862   4.238   7.234   3.150  0.7392 -1.1662 -2.7192
 7969TIP3   OH223863   7.642   2.389   5.388 -0.6752 -0.2057  0.4120
 7969TIP3    H123864   7.649   2.337   5.468 -0.3793 -0.7509  0.0336
 7969TIP3    H223865   7.557   2.433   5.395 -0.1620  0.6509  1.5524
 7970TIP3   OH223866   7.897   4.147   6.393 -0.2215  0.0277 -0.4265
 7970TIP3    H123867   7.919   4.063   6.432 -1.3785 -0.4419 -0.7568
 7970TIP3    H223868   7.803   4.144   6.380 -0.0841  0.8082 -1.7882
 7971TIP3   OH223869   7.278   0.249   3.509  0.2392 -0.1728  0.1854
 7971TIP3    H123870   7.205   0.311   3.504  1.7045  1.5490 -1.5636
 7971TIP3    H223871   7.287   0.229   3.602  0.0251  2.6978  0.9105
 7972TIP3   OH223872   2.631   3.298   4.665 -0.7277 -0.0288 -0.1397
 7972TIP3    H123873   2.645   3.385   4.627 -2.1167 -0.1974 -1.1283
 7972TIP3    H223874   2.711   3.250   4.645 -0.8773  0.3193 -1.6993
 7973TIP3   OH223875   5.654   1.486   5.181 -0.1782 -0.3006  0.1042
 7973TIP3    H123876   5.637   1.399   5.217  0.8200 -0.6456 -0.2205
 7973TIP3    H223877   5.571   1.533   5.190 -0.7039 -1.2596  0.3544
 7974TIP3   OH223878   2.272   5.474   2.238  0.4166 -0.7176  1.0613
 7974TIP3    H123879   2.286   5.506   2.327  0.8426  0.5993  0.5444
 7974TIP3    H223880   2.330   5.398   2.231  1.5111  0.0492  1.4507
 7975TIP3   OH223881   2.936   4.961   1.267  0.6507 -0.0420 -0.2459
 7975TIP3    H123882   2.985   5.043   1.264  0.2583  0.1764 -0.6608
 7975TIP3    H223883   2.999   4.894   1.238  0.6396  0.2736 -1.0233
 7976TIP3   OH223884   4.528   1.279   4.456  0.0463  0.6950  0.2968
 7976TIP3    H123885   4.494   1.205   4.405  1.5617 -0.2040  0.5223
 7976TIP3    H223886   4.521   1.354   4.397 -0.2081  0.0935 -0.4508
 7977TIP3   OH223887   3.963   0.928   5.346 -0.4778  0.0002 -0.0186
 7977TIP3    H123888   4.023   1.001   5.332 -0.4833 -0.1620 -0.9116
 7977TIP3    H223889   4.015   0.850   5.327 -0.6968 -0.1876  0.1520
 7978TIP3   OH223890   4.853   5.189   1.029  0.3779  0.0361  0.1335
 7978TIP3    H123891   4.876   5.200   1.122  1.9440  1.8110 -0.3932
 7978TIP3    H223892   4.761   5.217   1.024  0.8616  1.9409  0.8659
 7979TIP3   OH223893   1.651   7.205   0.031 -0.4025  0.4382 -0.5304
 7979TIP3    H123894   1.630   7.298   0.038  0.1403  0.6746 -1.7216
 7979TIP3    H223895   1.586   7.170  -0.029  0.3924  0.4262 -1.4139
 7980TIP3   OH223896   0.618   5.224   4.338 -0.3703  0.0183  0.2232
 7980TIP3    H123897   0.657   5.209   4.252  0.6084 -0.0524  0.6554
 7980TIP3    H223898   0.545   5.283   4.322 -1.7642 -1.9027 -0.9887
 7981TIP3   OH223899   5.618   3.903   4.986  0.4464 -0.4076  0.1304
 7981TIP3    H123900   5.663   3.925   5.068 -0.3118 -0.3826  0.5491
 7981TIP3    H223901   5.626   3.808   4.980  0.6598 -0.3918  0.1373
 7982TIP3   OH223902   8.227   7.457   6.611 -0.2796 -0.4588 -0.4047
 7982TIP3    H123903   8.245   7.464   6.705 -1.5905  2.2274 -0.2745
 7982TIP3    H223904   8.311   7.477   6.569  0.3414 -1.7834  0.1376
 7983TIP3   OH223905   4.532   4.292   1.230 -0.0549 -0.0891  0.3596
 7983TIP3    H123906   4.543   4.330   1.144  0.1021 -2.9147 -1.0011
 7983TIP3    H223907   4.443   4.258   1.231  0.2611 -0.9522  0.9033
 7984TIP3   OH223908   7.737   1.335   2.416  0.2379  0.2161  0.7831
 7984TIP3    H123909   7.709   1.419   2.380 -0.5660 -0.9030 -1.3516
 7984TIP3    H223910   7.672   1.315   2.483 -1.7009 -0.2918 -1.1292
 7985TIP3   OH223911   5.989   2.240   5.169  0.1477 -0.4259  0.1156
 7985TIP3    H123912   6.021   2.181   5.238  0.9797 -0.9016 -0.6679
 7985TIP3    H223913   5.898   2.211   5.154  0.0803 -0.5615  0.7500
 7986TIP3   OH223914   6.791   2.990   4.146  0.4536 -0.0691  0.4887
 7986TIP3    H123915   6.871   3.021   4.189  1.2874 -2.1276  0.5504
 7986TIP3    H223916   6.822   2.950   4.065 -0.5868 -0.4680  0.2771
 7987TIP3   OH223917   2.601   0.176   5.625  0.1448 -0.5263  0.3405
 7987TIP3    H123918   2.585   0.177   5.720  2.9261 -2.2978  0.9455
 7987TIP3    H223919   2.608   0.083   5.603  0.8514 -0.1074 -1.3521
 7988TIP3   OH223920   1.218   4.052   2.728 -0.2293 -0.1204 -0.2323
 7988TIP3    H123921   1.240   4.145   2.719  1.1401 -0.2420  1.3298
 7988TIP3    H223922   1.284   4.007   2.674 -1.2189 -0.1947 -1.4213
 7989TIP3   OH223923   2.928   2.071   2.827  0.0152  0.5535 -0.1053
 7989TIP3    H123924   2.983   2.025   2.891  0.6171  0.4132 -0.7101
 7989TIP3    H223925   2.840   2.068   2.865  0.2409 -0.1196  0.3940
 7990TIP3   OH223926   1.353   2.771   1.904 -0.1172  0.0118  0.1012
 7990TIP3    H123927   1.307   2.816   1.975 -1.1838 -1.2537  0.2412
 7990TIP3    H223928   1.362   2.681   1.934  2.2987  0.1337 -0.0304
 7991TIP3   OH223929   7.189   6.536   0.375 -0.0049 -0.5100 -0.4733
 7991TIP3    H123930   7.156   6.625   0.390 -2.6519 -1.4621 -0.1220
 7991TIP3    H223931   7.156   6.486   0.450  1.7874 -1.7539 -0.4471
 7992TIP3   OH223932   7.055   7.694   5.827  0.2791  0.2274 -0.2585
 7992TIP3    H123933   7.070   7.620   5.768 -2.9435 -0.6213 -0.1790
 7992TIP3    H223934   7.034   7.767   5.770  0.0805  0.1876 -0.2354
 7993TIP3   OH223935   7.739   4.562   3.092  0.0157 -0.1483 -0.9312
 7993TIP3    H123936   7.663   4.599   3.137  1.3933  1.0524  0.5187
 7993TIP3    H223937   7.713   4.559   3.000 -1.8475  0.0438 -0.4532
 7994TIP3   OH223938   2.633   1.453   3.658 -0.1597 -0.2460  0.4320
 7994TIP3    H123939   2.646   1.490   3.571  0.5900 -1.5591 -0.0415
 7994TIP3    H223940   2.674   1.367   3.654 -0.1029 -0.3278  2.0958
 7995TIP3   OH223941   6.266   0.387   5.783 -0.6372  0.4634 -0.0786
 7995TIP3    H123942   6.231   0.464   5.739 -1.0004  1.4619  1.8119
 7995TIP3    H223943   6.353   0.375   5.746  0.3178  3.1339  1.0411
 7996TIP3   OH223944   1.828   0.729   6.350  0.4501 -0.5092  0.4872
 7996TIP3    H123945   1.778   0.682   6.417  0.4182  1.4085  1.8708
 7996TIP3    H223946   1.773   0.723   6.272 -0.0735 -1.7805  0.9233
 7997TIP3   OH223947   0.357   3.558   1.878 -0.5336 -0.0009 -0.5095
 7997TIP3    H123948   0.364   3.646   1.914 -0.7725 -0.7503  1.5185
 7997TIP3    H223949   0.447   3.534   1.855  0.0519 -0.3243  1.8435
 7998TIP3   OH223950   5.985   6.833   1.271  0.1318 -0.1690  0.1423
 7998TIP3    H123951   6.007   6.910   1.217 -3.0167  0.3548 -0.6031
 7998TIP3    H223952   6.027   6.760   1.226  0.3042  0.6857 -1.1689
 7999TIP3   OH223953   1.927   3.274   2.731 -0.1329  0.5715  0.5079
 7999TIP3    H123954   1.999   3.303   2.787 -0.4258  0.0222  1.1923
 7999TIP3    H223955   1.922   3.179   2.745 -0.4584  0.4809 -0.1652
 8000TIP3   OH223956   5.705   3.991   3.830  0.5655  0.5775  0.1657
 8000TIP3    H123957   5.700   3.987   3.735  2.8635  0.4884 -0.0071
 8000TIP3    H223958   5.731   3.902   3.856  0.0580  0.6263  0.8763
 8001TIP3   OH223959   6.943   5.535   1.103  0.1527 -0.4760 -0.7007
 8001TIP3    H123960   6.991   5.597   1.158 -0.4430 -0.7363  0.1357
 8001TIP3    H223961   6.977   5.449   1.128  0.1255 -0.5683 -0.9818
 8002TIP3   OH223962   4.154   7.759   1.172  0.6800  0.0356  0.1918
 8002TIP3    H123963   4.197   7.718   1.248  0.3643 -2.3495 -0.8182
 8002TIP3    H223964   4.204   7.726   1.097 -0.5574  0.3094 -0.7682
 8003TIP3   OH223965   2.717   0.206   3.516 -0.2457  0.2254 -0.2050
 8003TIP3    H123966   2.777   0.280   3.510 -0.4319  0.3618 -0.3940
 8003TIP3    H223967   2.654   0.220   3.445 -0.3134 -0.0844 -0.2088
 8004TIP3   OH223968   5.709   6.844   4.860 -0.0798  0.0091 -0.2098
 8004TIP3    H123969   5.633   6.800   4.821  0.3238  1.2790 -2.5939
 8004TIP3    H223970   5.785   6.803   4.817  0.7471 -1.7268  2.6305
 8005TIP3   OH223971   4.544   3.062   0.194 -0.5236  0.1058  0.3487
 8005TIP3    H123972   4.511   3.146   0.227 -0.0979  0.8919 -1.1281
 8005TIP3    H223973   4.516   3.061   0.102 -1.2123 -1.7479  0.5429
 8006TIP3   OH223974   1.242   1.591   0.535  0.4156  0.5661  0.5698
 8006TIP3    H123975   1.168   1.577   0.593  0.3535  0.2634  0.4160
 8006TIP3    H223976   1.292   1.510   0.539  0.8648  0.8486  0.8514
 8007TIP3   OH223977   1.129   0.130   3.375  0.0680 -0.0085  0.3293
 8007TIP3    H123978   1.044   0.172   3.388  0.0581 -0.0879  0.5234
 8007TIP3    H223979   1.111   0.059   3.313  0.4783  1.5737 -1.7089
 8008TIP3   OH223980   6.754   4.047   1.662  0.3939  0.1164  0.3416
 8008TIP3    H123981   6.713   3.992   1.596 -1.7944  1.3411  0.5538
 8008TIP3    H223982   6.823   3.993   1.700  0.1526 -1.4420 -1.3116
 8009TIP3   OH223983   1.689   1.281   5.908  0.1365  0.4683  0.5474
 8009TIP3    H123984   1.618   1.336   5.941 -1.2242 -0.2609 -0.9902
 8009TIP3    H223985   1.762   1.341   5.895 -1.5048  2.1773 -1.7840
 8010TIP3   OH223986   7.613   2.622   1.494  0.1200  0.6424  0.9081
 8010TIP3    H123987   7.555   2.661   1.560 -1.3318 -0.1354  0.1410
 8010TIP3    H223988   7.578   2.534   1.480 -0.7959  1.3595 -2.1786
 8011TIP3   OH223989   6.030   4.988   4.281  0.0974  0.0110  0.0552
 8011TIP3    H123990   6.074   5.070   4.260  1.1911 -0.1514  1.5440
 8011TIP3    H223991   6.083   4.921   4.237  0.5969 -0.0706  0.7573
 8012TIP3   OH223992   3.964   6.563   3.029  0.2665 -0.4034  0.2349
 8012TIP3    H123993   3.967   6.468   3.041 -0.1720 -0.3369  0.8976
 8012TIP3    H223994   4.040   6.596   3.077 -0.1278 -0.3384  0.8146
 8013TIP3   OH223995   3.059   4.045   0.825 -0.1766 -0.5679  0.3581
 8013TIP3    H123996   3.068   4.140   0.812  1.4897 -0.9956 -2.3189
 8013TIP3    H223997   3.100   4.029   0.910  1.5321  0.8966 -0.1268
 8014TIP3   OH223998   4.359   1.391   0.307  0.3593 -0.1551 -0.3098
 8014TIP3    H123999   4.423   1.391   0.378 -0.5798  0.5733  0.5706
 8014TIP3    H224000   4.276   1.416   0.349 -0.6934 -1.8536 -1.2504
 8015TIP3   OH224001   2.808   1.250  -0.015  0.3080  0.3328 -0.2805
 8015TIP3    H124002   2.848   1.297   0.059  1.2211 -0.3652 -0.3104
 8015TIP3    H224003   2.714   1.255   0.001  0.5008 -0.1757  1.1845
 8016TIP3   OH224004   7.248   6.615   3.695 -0.2500 -0.1933  0.2043
 8016TIP3    H124005   7.322   6.669   3.723  1.6263  1.0392 -5.5545
 8016TIP3    H224006   7.289   6.537   3.657 -2.2944 -1.4724  0.5162
 8017TIP3   OH224007   6.902   2.312   1.455 -0.0149  0.0717 -0.0256
 8017TIP3    H124008   6.969   2.246   1.474 -0.3692 -0.0305  0.8891
 8017TIP3    H224009   6.829   2.291   1.513 -0.7056  0.4080 -0.7491
 8018TIP3   OH224010   1.798   5.237   1.839  0.5930  0.2031  0.5057
 8018TIP3    H124011   1.800   5.280   1.925  0.9619 -1.2740  1.2605
 8018TIP3    H224012   1.705   5.233   1.816  0.3327 -0.9199  1.6497
 8019TIP3   OH224013   1.484   5.851   6.775 -0.3907 -0.2917  0.2912
 8019TIP3    H124014   1.573   5.886   6.787 -1.0924  1.7982 -0.1871
 8019TIP3    H224015   1.490   5.797   6.697  1.1065 -2.7676  1.9546
 8020TIP3   OH224016   2.448   2.630   2.214  0.0966 -0.0587  0.2252
 8020TIP3    H124017   2.413   2.652   2.300  0.7220  0.2372  0.4085
 8020TIP3    H224018   2.481   2.714   2.180 -2.2177  0.3511 -1.2913
 8021TIP3   OH224019   8.251   5.633   1.359 -0.0568  0.3000 -0.2550
 8021TIP3    H124020   8.205   5.591   1.286 -0.1898 -0.3343  0.1970
 8021TIP3    H224021   8.323   5.574   1.380 -0.4290  0.1341  0.5878
 8022TIP3   OH224022   1.138   5.447   2.066 -0.4988 -0.2622 -0.4249
 8022TIP3    H124023   1.182   5.421   2.147  1.2954 -1.6783 -1.7603
 8022TIP3    H224024   1.046   5.425   2.082 -0.1242 -0.9304  1.0700
 8023TIP3   OH224025   5.671   7.205   4.734 -0.2800  1.0034 -0.1962
 8023TIP3    H124026   5.632   7.189   4.820  1.9751  0.9774  0.9190
 8023TIP3    H224027   5.708   7.293   4.741  0.3670  0.8022 -0.9535
 8024TIP3   OH224028   3.023   2.663   3.270 -0.4498  0.2156  0.3135
 8024TIP3    H124029   3.020   2.716   3.190  0.5365  1.5512  1.1296
 8024TIP3    H224030   2.948   2.693   3.321  1.1940  2.3556  1.6460
 8025TIP3   OH224031   1.437   7.643   1.206  0.0534 -0.3462  0.4634
 8025TIP3    H124032   1.437   7.565   1.262  0.5034 -1.4265 -0.9583
 8025TIP3    H224033   1.501   7.622   1.137 -2.0048 -0.0141 -1.6704
 8026TIP3   OH224034   5.552   6.681   5.592 -0.8592 -0.4395  0.2212
 8026TIP3    H124035   5.489   6.711   5.526 -1.0266 -0.1513  0.5111
 8026TIP3    H224036   5.610   6.622   5.544  1.5722  2.8184 -1.1929
 8027TIP3   OH224037   7.359   0.637   1.447 -0.7433 -0.1601 -0.5309
 8027TIP3    H124038   7.362   0.543   1.430  0.4784 -0.4211  0.8959
 8027TIP3    H224039   7.447   0.659   1.478 -0.3364  1.9039 -2.8271
 8028TIP3   OH224040   5.252   3.176   2.291 -0.1463  0.0074  0.3227
 8028TIP3    H124041   5.323   3.194   2.353 -1.2538  1.3828  1.2566
 8028TIP3    H224042   5.200   3.109   2.333 -0.4835  0.4068  0.5482
 8029TIP3   OH224043   6.734   3.621   3.855  0.6012 -0.1546  0.3164
 8029TIP3    H124044   6.639   3.609   3.857  0.3909  1.3369  1.2302
 8029TIP3    H224045   6.755   3.654   3.943  2.2828 -2.4634  0.8695
 8030TIP3   OH224046   0.078   2.829   6.408 -0.2908 -0.0662  0.2745
 8030TIP3    H124047   0.138   2.788   6.347 -0.1703 -0.8712  0.9179
 8030TIP3    H224048   0.113   2.918   6.420  0.3267 -0.2770  0.0641
 8031TIP3   OH224049   8.114   6.393   2.756 -0.2254  0.1313  0.0984
 8031TIP3    H124050   8.035   6.436   2.725 -0.4741 -0.1739  0.2986
 8031TIP3    H224051   8.183   6.421   2.696 -0.5137  0.2874 -0.1584
 8032TIP3   OH224052   5.996   0.244   5.560 -0.1103  0.6868  0.3187
 8032TIP3    H124053   6.071   0.186   5.565  1.2751  2.2789 -0.7665
 8032TIP3    H224054   6.000   0.282   5.472 -2.6356  0.2766 -0.0475
 8033TIP3   OH224055   8.088   4.493   5.672 -0.5375 -0.4185  0.5316
 8033TIP3    H124056   8.039   4.411   5.667 -1.1822 -0.0284  0.3498
 8033TIP3    H224057   8.036   4.555   5.622  1.0044 -0.4110 -1.1633
 8034TIP3   OH224058   1.916   2.394   1.590  0.6030 -0.2082 -0.1512
 8034TIP3    H124059   1.871   2.431   1.666  1.5836  1.0512 -0.1571
 8034TIP3    H224060   1.990   2.345   1.628  1.7111  1.2848 -0.2893
 8035TIP3   OH224061   1.756   7.647   1.706 -0.2109  0.2437 -0.0136
 8035TIP3    H124062   1.767   7.555   1.730 -1.4647  0.1188  0.1613
 8035TIP3    H224063   1.845   7.682   1.704  0.3152 -1.0544 -0.4502
 8036TIP3   OH224064   7.957   2.161   2.665 -0.3348 -0.2774 -0.0934
 8036TIP3    H124065   7.931   2.185   2.755 -0.1713  0.9411 -0.3477
 8036TIP3    H224066   7.913   2.077   2.649 -0.9727 -0.1482  0.8624
 8037TIP3   OH224067   0.279   5.784   5.148  0.0813  0.0046 -0.0691
 8037TIP3    H124068   0.286   5.719   5.079 -0.6930 -1.2709  1.0059
 8037TIP3    H224069   0.224   5.853   5.112  0.0191 -0.4466 -0.8505
 8038TIP3   OH224070   7.021   1.964   0.650  0.9497  0.2257 -0.0298
 8038TIP3    H124071   6.969   1.896   0.692 -0.6576  1.0972 -0.5121
 8038TIP3    H224072   7.060   2.013   0.723 -0.2093  0.5228  0.4162
 8039TIP3   OH224073   2.335   7.220   2.422 -0.1609 -0.1751 -0.1811
 8039TIP3    H124074   2.283   7.162   2.478 -1.4904 -0.1595 -1.3469
 8039TIP3    H224075   2.410   7.166   2.396  0.0729 -0.4332  0.9719
 8040TIP3   OH224076   5.672   5.968   5.456 -0.0944  0.0243 -0.5635
 8040TIP3    H124077   5.735   6.025   5.413  0.7467 -2.1459 -2.4075
 8040TIP3    H224078   5.725   5.904   5.503 -0.9945  0.1913  0.7327
 8041TIP3   OH224079   4.405   0.857   1.294  0.1611 -0.1170 -0.1366
 8041TIP3    H124080   4.418   0.833   1.202  1.2800 -0.5013  0.1203
 8041TIP3    H224081   4.361   0.782   1.332 -0.8878  0.2947 -0.4860
 8042TIP3   OH224082   1.209   1.794   3.121  0.0416 -0.2514  0.1141
 8042TIP3    H124083   1.172   1.740   3.191 -1.1763 -0.5445 -0.7213
 8042TIP3    H224084   1.157   1.772   3.044  1.7283 -0.3843 -1.0407
 8043TIP3   OH224085   7.694   7.460   5.237  0.5487 -0.5430 -0.1632
 8043TIP3    H124086   7.725   7.388   5.181 -0.2371  0.2387 -1.6676
 8043TIP3    H224087   7.741   7.537   5.204  0.5282 -0.1670  0.6772
 8044TIP3   OH224088   7.555   5.923   0.799 -0.2626 -0.1671 -0.0957
 8044TIP3    H124089   7.552   5.917   0.894 -0.7411  3.3056  0.2391
 8044TIP3    H224090   7.647   5.940   0.779 -0.3812  0.5103 -0.0900
 8045TIP3   OH224091   1.461   7.286   1.938 -0.1544  0.4904  0.0568
 8045TIP3    H124092   1.427   7.259   2.023 -0.9282  0.9713 -0.0943
 8045TIP3    H224093   1.543   7.331   1.958 -0.7360  1.3194  0.6214
 8046TIP3   OH224094   2.170   7.626  -0.016 -0.5039 -0.2173  0.3408
 8046TIP3    H124095   2.259   7.654  -0.039  0.0447 -2.6271 -0.7760
 8046TIP3    H224096   2.166   7.635   0.079  2.0209 -2.7352  0.8095
 8047TIP3   OH224097   2.053   5.668   4.053 -0.1550 -0.4652 -0.3664
 8047TIP3    H124098   2.088   5.580   4.067  2.6510  0.6163  0.0992
 8047TIP3    H224099   1.979   5.674   4.113 -0.9447 -2.7244 -0.9873
 8048TIP3   OH224100   5.726   7.190   0.019  0.6977  0.2876 -0.0721
 8048TIP3    H124101   5.686   7.173   0.104  1.8659  2.9328  1.1195
 8048TIP3    H224102   5.652   7.190  -0.043 -0.1915 -1.4974  0.9284
 8049TIP3   OH224103   2.759   0.846   4.438 -0.2882 -0.3076  0.2553
 8049TIP3    H124104   2.739   0.761   4.476 -0.9163 -0.1671  0.2521
 8049TIP3    H224105   2.690   0.904   4.471 -1.2644 -0.3212 -1.6203
 8050TIP3   OH224106   4.229   1.933   6.299  0.1049 -0.0733  0.1673
 8050TIP3    H124107   4.198   1.907   6.386 -0.8684  0.5790  0.0306
 8050TIP3    H224108   4.312   1.977   6.316  0.9779 -1.7910  0.5470
 8051TIP3   OH224109   7.118   1.384   6.676  0.4647  0.0915 -0.5829
 8051TIP3    H124110   7.049   1.444   6.646 -0.2111 -1.4432 -2.3113
 8051TIP3    H224111   7.076   1.298   6.676  1.4454 -0.4466  1.7048
 8052TIP3   OH224112   7.384   5.205   2.407  0.0055  0.2277 -0.1383
 8052TIP3    H124113   7.412   5.129   2.456  0.8138  0.1764 -0.6638
 8052TIP3    H224114   7.331   5.169   2.335  1.4344  0.0280 -1.1354
 8053TIP3   OH224115   3.329   6.227   1.212  0.2998  0.1216  0.2697
 8053TIP3    H124116   3.385   6.275   1.150  0.9264 -1.2940 -0.3068
 8053TIP3    H224117   3.339   6.275   1.295  0.0969  1.5590 -0.5037
 8054TIP3   OH224118   3.967   2.525   5.505  0.0206  0.3122 -0.1338
 8054TIP3    H124119   4.003   2.558   5.587 -1.0242 -0.7858  0.8034
 8054TIP3    H224120   3.908   2.594   5.475 -1.9829 -0.5047  1.6888
 8055TIP3   OH224121   8.042   0.411   2.930  0.7704  0.0346  0.8740
 8055TIP3    H124122   8.091   0.341   2.974  0.6814  0.3294  1.4559
 8055TIP3    H224123   8.108   0.473   2.901  1.0113 -1.0688 -1.1303
 8056TIP3   OH224124   3.547   5.002   4.419  0.3762 -0.0811 -0.5973
 8056TIP3    H124125   3.454   4.993   4.400  0.0477  1.2894  0.2298
 8056TIP3    H224126   3.554   5.083   4.469  1.5701 -1.7677  2.2624
 8057TIP3   OH224127   3.970   1.723   6.054 -0.3623  0.3080 -0.7482
 8057TIP3    H124128   4.032   1.739   5.983 -0.5678  0.6444 -0.8575
 8057TIP3    H224129   3.937   1.635   6.038  0.8193 -0.2654 -0.1224
 8058TIP3   OH224130   4.952   3.479   5.948 -0.3632  0.3863  0.3030
 8058TIP3    H124131   4.937   3.482   5.854  0.4194  0.4674  0.1724
 8058TIP3    H224132   4.870   3.509   5.987 -0.3117  1.4817 -0.3800
 8059TIP3   OH224133   5.898   5.781   1.784 -0.1600 -0.3702 -0.3377
 8059TIP3    H124134   5.937   5.814   1.703 -0.6356 -0.6933 -0.7106
 8059TIP3    H224135   5.824   5.840   1.800  0.2941  0.0681  0.2090
 8060TIP3   OH224136   6.389   0.287   3.166  0.0701  0.1097 -0.4946
 8060TIP3    H124137   6.408   0.301   3.259  0.1273 -0.9251 -0.3458
 8060TIP3    H224138   6.468   0.247   3.131  0.3419  1.1936 -1.1723
 8061TIP3   OH224139   7.728   7.030   0.067 -0.0774  0.3048  1.0857
 8061TIP3    H124140   7.757   7.115   0.100  0.4580  0.4569  0.2763
 8061TIP3    H224141   7.660   7.052   0.003  0.9692  0.2388 -0.0972
 8062TIP3   OH224142   7.276   7.690   5.396 -0.0014  0.4642 -0.3938
 8062TIP3    H124143   7.332   7.629   5.348  1.0035  0.5365  0.6498
 8062TIP3    H224144   7.274   7.655   5.485 -3.5011 -0.8414 -0.8530
 8063TIP3   OH224145   6.653   0.745   1.574  0.5829 -0.2062  0.6049
 8063TIP3    H124146   6.733   0.721   1.527 -0.7514 -1.3550 -1.2056
 8063TIP3    H224147   6.637   0.836   1.549  0.8302 -0.2542  0.2709
 8064TIP3   OH224148   3.266   4.971  -0.010  0.1195  0.7337  0.1870
 8064TIP3    H124149   3.303   4.883  -0.009 -1.4726 -0.0069 -0.8916
 8064TIP3    H224150   3.335   5.028   0.024  1.9803 -0.6319 -1.1566
 8065TIP3   OH224151   5.683   1.656   3.082 -0.0458  0.0861 -0.4685
 8065TIP3    H124152   5.684   1.560   3.077  0.3862  0.0632  0.0458
 8065TIP3    H224153   5.726   1.684   3.001 -0.0111 -0.1534 -0.5347
 8066TIP3   OH224154   6.419   0.273   0.019 -0.4625  0.1324 -0.3450
 8066TIP3    H124155   6.330   0.256   0.050 -0.8033 -0.3460 -1.5503
 8066TIP3    H224156   6.422   0.368   0.005 -0.2417  0.3911  1.2770
 8067TIP3   OH224157   5.769   3.416   3.898 -0.0784 -0.1950  0.3107
 8067TIP3    H124158   5.696   3.429   3.958  0.6917  1.6470  0.9120
 8067TIP3    H224159   5.752   3.474   3.825 -0.7993 -2.1281 -1.1433
 8068TIP3   OH224160   2.102   5.632   6.064 -0.2297  0.7416  0.0618
 8068TIP3    H124161   2.014   5.598   6.045 -0.6640  1.6440  0.3887
 8068TIP3    H224162   2.159   5.556   6.055 -1.0583  0.1085 -0.0302
 8069TIP3   OH224163   0.601   0.841   4.402  0.1750  0.5020  0.2676
 8069TIP3    H124164   0.544   0.764   4.399  0.7410  0.0243  1.3074
 8069TIP3    H224165   0.630   0.852   4.311 -1.1678  0.4698 -0.1947
 8070TIP3   OH224166   2.176   1.951   1.836 -1.1281 -0.1157 -0.0804
 8070TIP3    H124167   2.103   2.012   1.831 -1.3920 -0.5085 -1.4309
 8070TIP3    H224168   2.214   1.952   1.748 -0.0096 -0.5299  0.3767
 8071TIP3   OH224169   7.934   3.480   2.245 -0.0252 -0.4386 -0.1780
 8071TIP3    H124170   7.931   3.507   2.336  2.8248  0.8535 -0.3540
 8071TIP3    H224171   7.905   3.557   2.196 -0.5896 -0.7927 -0.4076
 8072TIP3   OH224172   3.649   5.725   0.174 -0.9704  0.0074 -0.4846
 8072TIP3    H124173   3.570   5.775   0.153 -1.1831 -0.6065 -1.1621
 8072TIP3    H224174   3.629   5.682   0.257  0.0666  2.8684  1.4276
 8073TIP3   OH224175   6.650   1.507   2.741 -0.5453 -0.2810  0.0858
 8073TIP3    H124176   6.649   1.488   2.648  0.7376  1.0978 -0.2452
 8073TIP3    H224177   6.692   1.593   2.748 -0.1431 -0.5763  1.9629
 8074TIP3   OH224178   2.763   2.304   1.268  0.5723  0.3031  0.4864
 8074TIP3    H124179   2.783   2.389   1.229  0.3988  0.5165  0.8566
 8074TIP3    H224180   2.845   2.255   1.263 -0.0211 -0.5595 -2.3294
 8075TIP3   OH224181   2.369   1.058   5.657  0.1866 -0.1003  0.5814
 8075TIP3    H124182   2.365   1.153   5.652 -1.0994 -0.2022 -1.3296
 8075TIP3    H224183   2.284   1.032   5.691  0.4979 -0.5746  1.0082
 8076TIP3   OH224184   1.529   1.145   0.897 -0.5840  0.0054 -0.0185
 8076TIP3    H124185   1.441   1.109   0.890 -0.0986 -0.9695 -1.5003
 8076TIP3    H224186   1.560   1.153   0.807  0.4251  1.4482  0.4041
 8077TIP3   OH224187   2.352   1.576   4.512  0.2747 -0.4515  0.6755
 8077TIP3    H124188   2.274   1.625   4.538 -1.0115 -0.9800 -1.8503
 8077TIP3    H224189   2.392   1.629   4.442  0.4248 -1.6323 -0.1636
 8078TIP3   OH224190   7.083   5.825   6.263  0.0221  0.6633 -0.1637
 8078TIP3    H124191   7.155   5.763   6.254 -0.2284  0.3625 -0.1210
 8078TIP3    H224192   7.004   5.772   6.253 -0.2146  0.8386  0.6387
 8079TIP3   OH224193   3.775   5.866   6.203  0.4386 -0.0429 -0.2074
 8079TIP3    H124194   3.703   5.843   6.262  1.4363 -0.4750  0.8990
 8079TIP3    H224195   3.756   5.955   6.175  0.7155  0.8038  2.0685
 8080TIP3   OH224196   0.708   4.418   2.345  0.4872 -0.4472 -0.0423
 8080TIP3    H124197   0.709   4.330   2.383 -1.1590 -0.8628 -0.8551
 8080TIP3    H224198   0.771   4.414   2.273  0.3452 -0.9938 -0.1360
 8081TIP3   OH224199   0.179   4.777   2.496  0.6091  0.6151  0.5757
 8081TIP3    H124200   0.137   4.793   2.581 -0.5085  1.4046 -0.0984
 8081TIP3    H224201   0.229   4.857   2.479  2.1580 -0.1877  1.2141
 8082TIP3   OH224202   2.560   7.681   2.849  0.3178  0.7767  0.1306
 8082TIP3    H124203   2.468   7.707   2.852  0.0074 -0.3827  1.1694
 8082TIP3    H224204   2.559   7.590   2.819  1.2619  1.2961 -1.6032
 8083TIP3   OH224205   2.281   3.934   5.302 -0.1030  0.2476 -0.4467
 8083TIP3    H124206   2.315   3.898   5.221  0.4094  0.1220 -0.1806
 8083TIP3    H224207   2.328   4.017   5.313 -0.5240  0.4988 -0.5260
 8084TIP3   OH224208   3.882   7.205   2.835 -0.4510  0.1717 -0.2140
 8084TIP3    H124209   3.969   7.232   2.804 -0.1488 -0.0090  0.4455
 8084TIP3    H224210   3.842   7.285   2.868 -0.1042  0.0702  0.4692
 8085TIP3   OH224211   5.482   3.599   5.323  0.1790  0.1852  0.0826
 8085TIP3    H124212   5.459   3.560   5.238 -0.4448 -0.0653  0.3602
 8085TIP3    H224213   5.435   3.546   5.387  0.9933  0.0927  0.6256
 8086TIP3   OH224214   7.266   4.691   5.288  0.0696  0.1079 -0.1549
 8086TIP3    H124215   7.298   4.710   5.200  0.6378  2.7765  0.5627
 8086TIP3    H224216   7.343   4.699   5.345 -0.2406 -1.7891  0.6172
 8087TIP3   OH224217   3.812   4.971   2.700 -0.3293  0.1733 -0.4419
 8087TIP3    H124218   3.846   4.882   2.705  4.1871  1.6299  4.3272
 8087TIP3    H224219   3.881   5.020   2.655  0.0759  2.0144  1.9950
 8088TIP3   OH224220   3.444   1.777   1.093  0.0854 -0.2740  0.0306
 8088TIP3    H124221   3.373   1.794   1.156 -0.3477  0.2733 -0.5915
 8088TIP3    H224222   3.417   1.699   1.046 -0.0804 -0.0914 -0.1757
 8089TIP3   OH224223   4.643   6.575   3.333 -0.0114 -0.0992  0.0764
 8089TIP3    H124224   4.660   6.628   3.255 -0.5981 -0.1474 -0.0884
 8089TIP3    H224225   4.679   6.627   3.406  0.4498 -0.0110 -0.2101
 8090TIP3   OH224226   2.237   2.991   5.559 -0.0895  0.5085  0.3477
 8090TIP3    H124227   2.153   2.953   5.534 -0.3102  0.6671  0.8356
 8090TIP3    H224228   2.232   2.999   5.655  0.7491 -0.1276  0.4544
 8091TIP3   OH224229   3.299   1.573   5.672 -0.4230 -0.9770 -0.8211
 8091TIP3    H124230   3.224   1.533   5.628 -1.7391  0.7369 -0.2349
 8091TIP3    H224231   3.331   1.506   5.732 -2.6399 -1.1343  0.2447
 8092TIP3   OH224232   4.592   5.161   4.562 -0.4454 -0.1356 -0.9804
 8092TIP3    H124233   4.506   5.194   4.589 -0.0342 -0.3395  0.6787
 8092TIP3    H224234   4.615   5.214   4.486 -2.0825 -0.1564 -1.5363
 8093TIP3   OH224235   5.624   7.168   6.454  1.1837 -0.1184 -0.1397
 8093TIP3    H124236   5.613   7.228   6.528  0.8440 -0.0401 -0.2547
 8093TIP3    H224237   5.719   7.155   6.448  1.3872  1.5290 -0.9898
 8094TIP3   OH224238   7.688   7.730   1.531  0.4110  0.2431  0.1710
 8094TIP3    H124239   7.711   7.789   1.459 -2.8533  1.1260 -0.2887
 8094TIP3    H224240   7.670   7.789   1.605  0.2995 -0.4066  0.6676
 8095TIP3   OH224241   6.349   0.554   6.012  0.4303  0.3780 -0.4749
 8095TIP3    H124242   6.420   0.500   6.048 -0.2027  0.6032  1.1891
 8095TIP3    H224243   6.304   0.496   5.951  0.4579 -0.6315  0.4253
 8096TIP3   OH224244   4.668   6.525   0.448  0.2487 -0.1158  0.1906
 8096TIP3    H124245   4.761   6.506   0.458  0.3189  0.1789  0.1014
 8096TIP3    H224246   4.655   6.534   0.354  0.0230 -0.6871  0.1621
 8097TIP3   OH224247   4.083   3.008   0.639 -0.2980  0.0674 -0.0622
 8097TIP3    H124248   4.027   2.963   0.577  0.4985 -0.1550 -0.6416
 8097TIP3    H224249   4.094   2.946   0.711  0.0879 -0.3404 -0.4591
 8098TIP3   OH224250   6.248   7.081   5.743 -0.5499 -0.0846 -0.5008
 8098TIP3    H124251   6.253   7.176   5.750  0.9546 -0.1282 -0.5803
 8098TIP3    H224252   6.339   7.052   5.749 -1.0531 -1.5818  0.3736
 8099TIP3   OH224253   4.730   5.852   5.426 -0.1002  0.7605 -0.1829
 8099TIP3    H124254   4.710   5.899   5.345 -0.3998  0.0269 -0.5388
 8099TIP3    H224255   4.822   5.872   5.443  0.2741  0.0608 -1.2851
 8100TIP3   OH224256   2.628   7.654   1.190  0.5340  0.1546 -0.3560
 8100TIP3    H124257   2.700   7.591   1.194  0.4977  0.0527 -1.1560
 8100TIP3    H224258   2.660   7.724   1.134 -0.1346 -0.0947 -1.0704
 8101TIP3   OH224259   7.679   2.387   0.102  0.1198  0.1745 -0.6289
 8101TIP3    H124260   7.705   2.473   0.068  1.1821  0.0736 -0.1133
 8101TIP3    H224261   7.596   2.404   0.147  0.6954  1.1152  0.1409
 8102TIP3   OH224262   8.236   0.396   3.249  0.2088  0.2909 -0.2165
 8102TIP3    H124263   8.188   0.328   3.297 -0.0109 -1.5361 -2.7994
 8102TIP3    H224264   8.328   0.378   3.268  0.1745 -1.0537 -1.1670
 8103TIP3   OH224265   3.622   4.867   6.602  0.0241  0.0887  0.5204
 8103TIP3    H124266   3.615   4.813   6.681 -0.6037 -0.7949 -0.1161
 8103TIP3    H224267   3.669   4.811   6.539 -0.1836  0.4739  0.0149
 8104TIP3   OH224268   8.202   3.456   2.902 -0.2345 -0.2027  0.1854
 8104TIP3    H124269   8.191   3.375   2.950  0.5184 -0.1626  0.4309
 8104TIP3    H224270   8.166   3.524   2.960 -1.1449 -0.3815 -0.1463
 8105TIP3   OH224271   1.460   4.466   5.931  0.9314  0.1244  0.3052
 8105TIP3    H124272   1.393   4.531   5.955  0.4580 -0.6226  1.0578
 8105TIP3    H224273   1.542   4.507   5.956  0.5126 -0.2789  2.5590
 8106TIP3   OH224274   7.944   3.380   2.736  0.5034 -0.3048  0.1310
 8106TIP3    H124275   7.895   3.438   2.794  0.2745 -0.7312  0.3710
 8106TIP3    H224276   8.035   3.389   2.763  0.4572 -0.1317  0.2280
 8107TIP3   OH224277   2.670   6.705   4.110  0.6014  0.1151  0.3985
 8107TIP3    H124278   2.706   6.775   4.165  0.8423  1.2334 -1.1330
 8107TIP3    H224279   2.745   6.674   4.059  0.2572 -0.5150  0.2656
 8108TIP3   OH224280   3.655   3.997   3.526 -0.0141  0.5766  0.3274
 8108TIP3    H124281   3.606   3.960   3.600 -1.3207  1.6620  0.0344
 8108TIP3    H224282   3.700   4.073   3.563 -1.3668  1.6405 -0.1464
 8109TIP3   OH224283   5.945   2.431   2.234 -0.4503  0.6774 -0.0993
 8109TIP3    H124284   5.900   2.375   2.297  0.0324 -0.5273 -0.7942
 8109TIP3    H224285   5.988   2.498   2.288 -1.4310  0.6966  0.7045
 8110TIP3   OH224286   1.626   1.987   5.617 -0.2226 -0.1359 -0.1301
 8110TIP3    H124287   1.626   1.899   5.655  2.2172  0.4144  1.3780
 8110TIP3    H224288   1.671   1.977   5.533  0.0924 -0.3291  0.0603
 8111TIP3   OH224289   7.011   5.876  -0.011  0.3193 -0.2512 -0.4721
 8111TIP3    H124290   6.979   5.939   0.054 -0.0744 -0.5849 -0.3411
 8111TIP3    H224291   6.934   5.824  -0.035  0.1966  0.5782 -2.0370
 8112TIP3   OH224292   4.029   5.189   6.397  0.3504 -0.1313 -0.6080
 8112TIP3    H124293   4.067   5.230   6.320  1.5812 -0.1269 -0.0132
 8112TIP3    H224294   4.097   5.194   6.463 -0.9903  0.6750  0.7804
 8113TIP3   OH224295   7.747   1.593   0.778  0.1590  0.1992  0.6026
 8113TIP3    H124296   7.678   1.591   0.845  1.6276 -0.5124  2.1486
 8113TIP3    H224297   7.811   1.655   0.812  0.5057  0.5252 -0.6112
 8114TIP3   OH224298   0.030   3.648   4.256  0.2378  0.7340  0.6425
 8114TIP3    H124299   0.120   3.671   4.279  0.0774  1.1982  0.8169
 8114TIP3    H224300   0.022   3.673   4.163 -0.2760  2.5170  1.1127
 8115TIP3   OH224301   1.437   5.176   5.470 -0.1826  0.2576  0.3714
 8115TIP3    H124302   1.499   5.130   5.413 -0.2524  1.2797 -0.5540
 8115TIP3    H224303   1.361   5.119   5.474  0.4475 -0.5939  0.8000
 8116TIP3   OH224304   1.477   0.536   1.737  0.0900  0.1230  0.3027
 8116TIP3    H124305   1.404   0.587   1.772  0.0407  0.8544 -0.8143
 8116TIP3    H224306   1.436   0.475   1.675  0.5542  2.3130 -2.3913
 8117TIP3   OH224307   7.806   4.516   0.834 -0.0034  0.0435  0.4339
 8117TIP3    H124308   7.735   4.489   0.776 -0.0767 -2.6817  1.6330
 8117TIP3    H224309   7.843   4.434   0.867  1.7923  1.4243  2.1369
 8118TIP3   OH224310   0.783   0.288   5.829 -0.4723 -0.2239 -0.0342
 8118TIP3    H124311   0.763   0.309   5.920  1.9933 -0.2656  0.6135
 8118TIP3    H224312   0.855   0.224   5.835  2.5708  2.6846 -1.8932
 8119TIP3   OH224313   2.022   0.226   5.463  0.1411  0.3416 -0.7101
 8119TIP3    H124314   2.044   0.211   5.371 -0.9518  2.7699 -1.4738
 8119TIP3    H224315   1.927   0.220   5.466  0.1964 -0.1782  0.3723
 8120TIP3   OH224316   3.533   3.798   0.745  0.6997  0.2015  0.3354
 8120TIP3    H124317   3.588   3.769   0.673  0.7570 -1.2768  0.9276
 8120TIP3    H224318   3.455   3.835   0.703  1.2199  0.3900 -0.4798
 8121TIP3   OH224319   2.609   3.416   5.462  0.7880  0.0020 -0.3940
 8121TIP3    H124320   2.551   3.377   5.527 -0.1298  3.0968  0.7754
 8121TIP3    H224321   2.565   3.400   5.378  0.4695 -1.3971  0.0137
 8122TIP3   OH224322   2.172   2.033   3.774  0.3861  0.3225  0.4243
 8122TIP3    H124323   2.228   2.004   3.702 -0.7228  0.0868 -0.3735
 8122TIP3    H224324   2.178   2.129   3.771  1.1886  0.2891  0.7226
 8123TIP3   OH224325   6.641   0.097   6.474 -0.6872  0.0852 -0.2928
 8123TIP3    H124326   6.701   0.077   6.402 -1.1249  0.2221 -0.7001
 8123TIP3    H224327   6.619   0.189   6.462  0.2227  0.4559  0.7567
 8124TIP3   OH224328   7.497   6.790   2.583  0.0566 -0.1280  0.6684
 8124TIP3    H124329   7.497   6.885   2.591  0.8423 -0.1460  0.9441
 8124TIP3    H224330   7.469   6.759   2.669  3.5581 -0.2049  1.9268
 8125TIP3   OH224331   1.126   3.979   1.645  0.5317 -0.2416 -0.3124
 8125TIP3    H124332   1.220   3.970   1.628  0.4830 -0.3760 -0.5153
 8125TIP3    H224333   1.085   3.976   1.558  0.3095 -0.5574 -0.1995
 8126TIP3   OH224334   7.438   0.594   2.608 -0.3003 -0.0259 -0.4947
 8126TIP3    H124335   7.364   0.548   2.647  0.7139  0.3462  2.0374
 8126TIP3    H224336   7.498   0.524   2.581  0.2003 -0.2975  1.2093
 8127TIP3   OH224337   6.368   6.869   4.142 -0.0584 -0.3764  0.2902
 8127TIP3    H124338   6.390   6.950   4.189  2.4299 -0.9280  0.2539
 8127TIP3    H224339   6.284   6.887   4.101  0.5900  2.3715 -0.0603
 8128TIP3   OH224340   0.086   5.823   4.716 -0.0087  0.3668 -0.2447
 8128TIP3    H124341   0.050   5.911   4.700 -2.8452 -0.7342 -0.4247
 8128TIP3    H224342   0.056   5.800   4.803 -0.6641 -1.0321 -0.8145
 8129TIP3   OH224343   4.666   1.045   5.283  0.1434 -0.5271 -0.3386
 8129TIP3    H124344   4.752   1.075   5.252  0.0743 -1.1533 -1.1590
 8129TIP3    H224345   4.667   1.064   5.377  1.3659 -0.9293 -0.2525
 8130TIP3   OH224346   1.972   6.651   1.127 -0.8020  0.4023  0.4835
 8130TIP3    H124347   2.037   6.673   1.194 -2.9237  0.1931  2.8028
 8130TIP3    H224348   2.015   6.669   1.044  2.1060  0.4284  1.8703
 8131TIP3   OH224349   7.648   2.707   0.871  0.3448 -0.2114  0.1315
 8131TIP3    H124350   7.558   2.692   0.841  0.3146 -1.4888  0.7950
 8131TIP3    H224351   7.642   2.785   0.926 -0.1412  0.3630 -0.7112
 8132TIP3   OH224352   1.620   1.958   2.186 -0.4736  0.5068  0.6069
 8132TIP3    H124353   1.536   1.975   2.144  0.2295  0.9147 -0.6855
 8132TIP3    H224354   1.680   1.941   2.113  0.1708 -1.6848  1.5443
 8133TIP3   OH224355   5.913   2.679   1.955  0.5804 -0.4672  0.2427
 8133TIP3    H124356   5.883   2.589   1.943 -0.5727 -0.0221 -0.3033
 8133TIP3    H224357   5.833   2.729   1.969  1.1492  0.6197 -0.3289
 8134TIP3   OH224358   6.860   0.877   5.083  0.4812  0.6350  0.3330
 8134TIP3    H124359   6.879   0.846   5.172 -2.2411 -0.4611  0.6465
 8134TIP3    H224360   6.879   0.971   5.086 -0.2374  0.7746  2.3248
 8135TIP3   OH224361   4.727   2.470   1.535  0.4471  0.4454  0.9946
 8135TIP3    H124362   4.674   2.549   1.528 -1.2808 -0.7453 -0.0759
 8135TIP3    H224363   4.666   2.401   1.560  1.8351 -0.6422  1.5322
 8136TIP3   OH224364   2.211   4.466   5.766  0.0059 -0.1437 -0.3382
 8136TIP3    H124365   2.148   4.482   5.696 -0.8359 -1.6803  0.0241
 8136TIP3    H224366   2.183   4.524   5.837 -2.6269 -2.5209  0.7456
 8137TIP3   OH224367   7.862   6.462   2.241 -0.2003 -0.4883  0.3194
 8137TIP3    H124368   7.885   6.546   2.201 -0.4410 -0.7521 -0.3838
 8137TIP3    H224369   7.791   6.483   2.302  0.0606 -0.1093  0.4952
 8138TIP3   OH224370   0.736   5.595   2.742 -0.3217 -0.0421  0.1840
 8138TIP3    H124371   0.742   5.565   2.832  1.5710  0.0109  0.1144
 8138TIP3    H224372   0.730   5.690   2.748  1.9834  0.1650  0.2785
 8139TIP3   OH224373   6.200   4.715   2.446 -0.0431 -0.2651  0.1853
 8139TIP3    H124374   6.119   4.754   2.413  0.8283 -0.6349 -2.7265
 8139TIP3    H224375   6.256   4.789   2.467 -0.7095 -0.0098  1.1048
 8140TIP3   OH224376   3.752   3.742   2.163  0.4100  0.1857  0.6721
 8140TIP3    H124377   3.770   3.776   2.076  1.4605  0.7642  1.0871
 8140TIP3    H224378   3.839   3.735   2.204 -0.1407  1.0974  2.0839
 8141TIP3   OH224379   6.624   5.896   4.018 -0.1132  0.3534 -0.1382
 8141TIP3    H124380   6.711   5.900   4.058  0.3062  1.1661 -1.0842
 8141TIP3    H224381   6.629   5.821   3.959 -1.0766 -1.5112  2.0368
 8142TIP3   OH224382   7.759   3.130   6.526  0.0408 -0.7034 -0.5212
 8142TIP3    H124383   7.713   3.123   6.610 -0.5699  0.4757 -0.7253
 8142TIP3    H224384   7.845   3.092   6.542 -0.6093 -1.9235  0.1925
 8143TIP3   OH224385   6.984   7.429   0.258  0.0667 -0.6651 -0.0866
 8143TIP3    H124386   7.073   7.403   0.280  1.2878  3.8903  1.6317
 8143TIP3    H224387   6.992   7.474   0.174 -0.4060  0.3494  0.3904
 8144TIP3   OH224388   6.021   0.902   2.505  0.0696 -0.6543 -0.1381
 8144TIP3    H124389   6.026   0.824   2.450  0.0426  0.4588 -1.7749
 8144TIP3    H224390   6.113   0.924   2.523  0.0887 -0.7114 -0.1661
 8145TIP3   OH224391   2.827   4.396   2.127  0.5076 -0.0441  0.1026
 8145TIP3    H124392   2.847   4.477   2.175 -0.1729 -0.0527  0.4049
 8145TIP3    H224393   2.891   4.395   2.055  0.0172  1.1790 -0.3817
 8146TIP3   OH224394   8.111   1.906   1.280 -0.2255  0.2219  0.1544
 8146TIP3    H124395   8.058   1.829   1.296 -0.7064  0.0420 -2.0254
 8146TIP3    H224396   8.135   1.938   1.367 -1.9559 -1.0266  1.1323
 8147TIP3   OH224397   7.410   7.587   3.144  0.0593  0.0030 -0.0023
 8147TIP3    H124398   7.498   7.549   3.145  0.2132  0.3481 -0.1712
 8147TIP3    H224399   7.352   7.513   3.158  0.2667 -0.5578 -1.7816
 8148TIP3   OH224400   5.849   7.060   4.165  0.2288 -0.1682  0.3157
 8148TIP3    H124401   5.897   6.983   4.133 -1.1902 -1.0674  0.2625
 8148TIP3    H224402   5.912   7.132   4.159  1.0991 -1.0061 -1.1600
 8149TIP3   OH224403   6.468   4.055   6.649 -0.9753 -0.1055 -0.6219
 8149TIP3    H124404   6.440   3.966   6.629  0.9462 -0.7889 -0.5611
 8149TIP3    H224405   6.398   4.092   6.702 -0.6272 -2.5683  1.7402
 8150TIP3   OH224406   3.506   3.614   6.428 -0.4043 -0.6365 -0.2602
 8150TIP3    H124407   3.545   3.629   6.514 -2.2882 -1.3090  0.7772
 8150TIP3    H224408   3.442   3.684   6.418  0.4209 -0.0348 -1.5434
 8151TIP3   OH224409   0.147   4.532   1.842 -0.2224 -0.0148  0.0856
 8151TIP3    H124410   0.117   4.505   1.756  1.4245 -0.1385 -0.4894
 8151TIP3    H224411   0.067   4.542   1.894 -1.2032 -0.4461 -1.2957
 8152TIP3   OH224412   5.620   4.691   2.279  0.0133 -0.0535  0.0023
 8152TIP3    H124413   5.571   4.672   2.199  0.7543 -0.5179 -0.3510
 8152TIP3    H224414   5.663   4.609   2.301 -1.6408 -0.4947  1.9446
 8153TIP3   OH224415   5.539   3.402   0.529  0.0064 -0.0673  0.5758
 8153TIP3    H124416   5.621   3.353   0.529 -0.1890 -0.4497  2.3095
 8153TIP3    H224417   5.541   3.451   0.447  0.4790 -2.4923 -0.9672
 8154TIP3   OH224418   3.090   2.084   1.782 -0.5061  0.4494  0.5386
 8154TIP3    H124419   3.086   2.037   1.699 -0.3478  1.1735  0.1158
 8154TIP3    H224420   3.147   2.030   1.837 -1.5006 -0.6027  0.5682
 8155TIP3   OH224421   5.758   7.107   3.312 -0.0648 -0.6954 -0.0726
 8155TIP3    H124422   5.796   7.190   3.341  0.4727 -1.0608  0.3125
 8155TIP3    H224423   5.801   7.041   3.367  0.3376 -1.3361 -1.1123
 8156TIP3   OH224424   1.357   5.826   3.926 -0.2876  0.3715  0.3627
 8156TIP3    H124425   1.351   5.746   3.873  1.1690  0.3171  0.2504
 8156TIP3    H224426   1.293   5.885   3.887 -0.7918 -0.4445 -0.0744
 8157TIP3   OH224427   3.595   1.502   2.598  0.2829 -0.2052 -0.2649
 8157TIP3    H124428   3.553   1.582   2.567  1.7942  0.1923 -1.3599
 8157TIP3    H224429   3.523   1.439   2.606 -1.2492  1.6406  2.2250
 8158TIP3   OH224430   4.592   5.614   2.572 -0.2898 -0.1791  0.4924
 8158TIP3    H124431   4.522   5.549   2.566 -0.1332 -0.2415 -0.9296
 8158TIP3    H224432   4.551   5.696   2.545  0.1073 -0.1684 -0.1067
 8159TIP3   OH224433   8.159   0.470   6.176  0.5804 -0.0047  0.2191
 8159TIP3    H124434   8.125   0.475   6.265 -0.5115 -0.1780 -0.1670
 8159TIP3    H224435   8.082   0.484   6.121  1.5173  1.8333 -0.7108
 8160TIP3   OH224436   1.881   1.436   2.872  0.3548  0.1077 -0.0769
 8160TIP3    H124437   1.892   1.341   2.863  1.8055  0.4040 -2.0499
 8160TIP3    H224438   1.788   1.451   2.860 -0.1398 -1.1630  1.7148
 8161TIP3   OH224439   2.094   6.989   1.437 -0.2236  0.5987  0.2261
 8161TIP3    H124440   2.100   6.896   1.458  1.1804  0.0873 -2.0630
 8161TIP3    H224441   2.070   6.991   1.344 -0.1261  2.5349  0.1946
 8162TIP3   OH224442   2.124   4.569   3.244 -0.1290 -0.0267 -0.2128
 8162TIP3    H124443   2.173   4.486   3.244 -1.1809 -0.6670  0.7536
 8162TIP3    H224444   2.060   4.559   3.174 -1.3379 -0.7159  0.9537
 8163TIP3   OH224445   3.198   7.197   3.718 -0.0970  0.1826 -0.1094
 8163TIP3    H124446   3.106   7.186   3.743 -0.4620  1.5449 -0.7885
 8163TIP3    H224447   3.196   7.206   3.623  0.6578  1.0079 -0.0508
 8164TIP3   OH224448   1.785   1.928   2.867 -0.6447 -0.3801  0.2378
 8164TIP3    H124449   1.805   2.005   2.814 -2.2083 -1.5789 -2.3041
 8164TIP3    H224450   1.727   1.960   2.936 -0.0769  0.9345  0.1232
 8165TIP3   OH224451   7.530   4.233   0.489  0.7673 -0.0928  0.8204
 8165TIP3    H124452   7.577   4.214   0.570 -0.8634 -1.1393  1.5817
 8165TIP3    H224453   7.438   4.215   0.511  0.1559  0.7627 -0.9230
 8166TIP3   OH224454   2.984   0.661   2.019  0.0415  0.4234 -0.1800
 8166TIP3    H124455   3.042   0.730   1.987  0.6189  0.1542  0.2749
 8166TIP3    H224456   2.927   0.705   2.082  2.0333  0.0582  2.0332
 8167TIP3   OH224457   5.101   5.098   6.273 -0.1292 -0.8104 -0.0098
 8167TIP3    H124458   5.141   5.137   6.195 -1.5621  1.6261  0.3504
 8167TIP3    H224459   5.053   5.170   6.314  0.9783 -1.8324  3.4713
 8168TIP3   OH224460   3.745   2.059   4.626 -0.1773  0.3291  0.8333
 8168TIP3    H124461   3.699   2.096   4.701  0.1332  2.7059 -0.0382
 8168TIP3    H224462   3.764   2.135   4.570 -0.3324 -1.3112 -1.6128
 8169TIP3   OH224463   4.034   5.402   0.806  0.3666 -0.3391 -0.4720
 8169TIP3    H124464   3.997   5.324   0.764 -0.6336 -1.1501  1.7457
 8169TIP3    H224465   4.128   5.394   0.793  0.1744 -1.1341 -1.5525
 8170TIP3   OH224466   6.410   4.722   5.118  0.6294 -0.4022 -0.0960
 8170TIP3    H124467   6.402   4.732   5.023  4.0395  2.4608 -0.2631
 8170TIP3    H224468   6.502   4.736   5.136 -0.0432  0.0508  3.7872
 8171TIP3   OH224469   6.329   1.300   0.845  0.6231  1.2537  0.1976
 8171TIP3    H124470   6.247   1.333   0.880  0.3952  0.6732  0.2113
 8171TIP3    H224471   6.326   1.206   0.859  1.5303  1.2829  0.7061
 8172TIP3   OH224472   4.762   7.424   1.964 -0.3048 -0.0394  0.2700
 8172TIP3    H124473   4.702   7.441   1.891 -0.7306  0.4924  0.7398
 8172TIP3    H224474   4.754   7.501   2.020  0.1741 -0.3547  0.7814
 8173TIP3   OH224475   7.131   6.354   3.282 -0.0818 -0.5862  0.1003
 8173TIP3    H124476   7.119   6.441   3.320 -1.1607 -0.0259 -1.3943
 8173TIP3    H224477   7.226   6.341   3.279  0.1988  1.3731 -1.3417
 8174TIP3   OH224478   5.724   2.735   4.639  0.2634 -0.5071 -0.1639
 8174TIP3    H124479   5.753   2.691   4.559  1.5153  1.2402 -0.7106
 8174TIP3    H224480   5.665   2.804   4.608  1.5336  0.8258  0.2906
 8175TIP3   OH224481   0.939   5.462   2.980 -0.7648 -0.1048 -0.3999
 8175TIP3    H124482   0.868   5.465   3.045 -0.7891  0.9665 -0.4577
 8175TIP3    H224483   1.018   5.451   3.032 -0.7975  0.6104 -0.1874
 8176TIP3   OH224484   6.843   2.135   6.398 -0.1536  0.1196  0.4395
 8176TIP3    H124485   6.927   2.163   6.362 -0.4322  1.5262  0.8151
 8176TIP3    H224486   6.778   2.186   6.350 -0.8720 -1.4610 -0.3450
 8177TIP3   OH224487   3.864   1.012   2.435  0.4819 -0.1841 -0.3792
 8177TIP3    H124488   3.817   1.089   2.404 -0.6266 -0.9238 -0.5883
 8177TIP3    H224489   3.953   1.043   2.450  0.3054  0.9039 -1.4172
 8178TIP3   OH224490   7.109   3.866   4.176 -0.2751  0.3171 -0.0571
 8178TIP3    H124491   7.137   3.948   4.216 -0.9438  0.0887  0.9310
 8178TIP3    H224492   7.078   3.813   4.250 -2.7057  0.3389 -0.9762
 8179TIP3   OH224493   5.030   7.202   6.698  0.0100 -0.8117  0.4145
 8179TIP3    H124494   5.034   7.260   6.622  0.4903  0.8636  1.6660
 8179TIP3    H224495   5.118   7.165   6.704  0.8374  1.2053  1.7107
 8180TIP3   OH224496   7.108   4.179   3.995 -0.2010 -0.7297  0.3137
 8180TIP3    H124497   7.194   4.160   4.034  0.2849  0.8961  0.1346
 8180TIP3    H224498   7.126   4.250   3.932 -1.7135 -0.1887  0.4555
 8181TIP3   OH224499   4.220   1.975   5.493  0.1076  0.3060  1.1487
 8181TIP3    H124500   4.151   1.941   5.437  0.8952  0.4922  0.0380
 8181TIP3    H224501   4.173   2.025   5.560 -0.8055  1.0314  0.0051
 8182TIP3   OH224502   2.557   1.898   0.187 -0.0075 -0.6709 -0.2888
 8182TIP3    H124503   2.622   1.938   0.245  0.8610 -2.4496  0.0287
 8182TIP3    H224504   2.497   1.852   0.245 -0.9543  0.0698 -0.6506
 8183TIP3   OH224505   6.473   4.284   5.972  0.1833 -0.0253  0.1505
 8183TIP3    H124506   6.437   4.271   6.060  0.3982  0.8060  0.3682
 8183TIP3    H224507   6.455   4.376   5.951 -1.5222 -0.6559 -1.4475
 8184TIP3   OH224508   8.020   2.462   4.761  0.3365  0.0616  0.4092
 8184TIP3    H124509   7.961   2.405   4.810 -0.4377  1.1914  0.8316
 8184TIP3    H224510   7.983   2.550   4.771  1.2487  0.5903 -0.5878
 8185TIP3   OH224511   3.834   3.362   5.500  0.5585 -0.7076  0.1387
 8185TIP3    H124512   3.750   3.374   5.455  1.1021  1.4384 -0.4061
 8185TIP3    H224513   3.851   3.268   5.493 -1.1283 -0.9753 -0.9685
 8186TIP3   OH224514   7.036   0.180   3.309  0.3046  0.0139  0.4044
 8186TIP3    H124515   6.995   0.171   3.395  0.5685  1.3730  0.6915
 8186TIP3    H224516   7.006   0.264   3.276  0.3021 -0.4364 -0.8033
 8187TIP3   OH224517   3.300   5.018   1.394  0.7091  0.2880 -0.5316
 8187TIP3    H124518   3.346   4.935   1.406 -1.2446 -0.8462 -0.6113
 8187TIP3    H224519   3.207   4.995   1.389 -0.4116  2.7887  3.6877
 8188TIP3   OH224520   8.127   0.760   1.379 -0.5405 -0.2372  0.1524
 8188TIP3    H124521   8.215   0.739   1.411 -1.1481  0.2476  2.2886
 8188TIP3    H224522   8.117   0.706   1.300  0.4156 -2.9467  1.7346
 8189TIP3   OH224523   6.097   2.613   2.431 -0.5329 -0.4485  0.4160
 8189TIP3    H124524   6.152   2.537   2.413  1.0625  0.5616  0.7469
 8189TIP3    H224525   6.113   2.633   2.523 -0.1530  0.8449  0.0907
 8190TIP3   OH224526   6.701   2.896   4.896  0.1162 -0.1066  0.1266
 8190TIP3    H124527   6.646   2.932   4.965  0.4929 -0.2659  0.5152
 8190TIP3    H224528   6.731   2.972   4.846  1.5499  0.2159  1.4143
 8191TIP3   OH224529   1.123   0.327   2.674  0.3058 -0.1635  0.1959
 8191TIP3    H124530   1.175   0.378   2.737 -0.5112  1.9798 -0.7864
 8191TIP3    H224531   1.052   0.386   2.648 -0.5717 -1.7542 -1.1701
 8192TIP3   OH224532   6.090   1.952   5.968 -0.3502  0.4724 -0.3220
 8192TIP3    H124533   6.097   2.032   6.020 -1.4482 -0.1565  0.8523
 8192TIP3    H224534   6.180   1.919   5.962  0.1452  1.8780 -1.0040
 8193TIP3   OH224535   5.150   4.382   2.277 -0.5701 -0.7509 -0.0196
 8193TIP3    H124536   5.132   4.443   2.205  2.5574  0.8907  0.3849
 8193TIP3    H224537   5.135   4.434   2.356  1.6710 -0.5294  0.3334
 8194TIP3   OH224538   1.964   6.592   5.233 -0.3062  0.4549 -0.3088
 8194TIP3    H124539   1.907   6.642   5.291  1.6500  0.2834  1.9068
 8194TIP3    H224540   2.048   6.638   5.235  1.0250 -1.8331  0.3720
 8195TIP3   OH224541   5.200   1.389   0.649  0.5349  0.2366 -0.5342
 8195TIP3    H124542   5.104   1.385   0.658  0.4497  0.4969 -1.2709
 8195TIP3    H224543   5.222   1.316   0.592  0.5752  1.1993 -1.7885
 8196TIP3   OH224544   5.887   2.616   0.792 -0.2214 -0.0855 -0.7274
 8196TIP3    H124545   5.813   2.625   0.732  0.7953 -0.0421 -2.0202
 8196TIP3    H224546   5.929   2.702   0.790 -0.6392  0.1809  0.7191
 8197TIP3   OH224547   2.509   5.850   1.000  0.7772  0.1516 -1.0071
 8197TIP3    H124548   2.553   5.850   1.085 -1.5501 -0.5200  0.2706
 8197TIP3    H224549   2.443   5.919   1.007 -1.2063 -1.6507 -1.2466
 8198TIP3   OH224550   4.102   5.107   3.342  0.3269  0.1418  0.3361
 8198TIP3    H124551   4.150   5.118   3.260  0.6222  1.0136  0.6111
 8198TIP3    H224552   4.153   5.157   3.406 -0.8680  0.9669  0.6650
 8199TIP3   OH224553   7.473   7.567   1.814  0.1791  0.2687  0.0666
 8199TIP3    H124554   7.424   7.649   1.821  0.6903  0.6767 -0.9588
 8199TIP3    H224555   7.560   7.593   1.782  0.2434 -0.6956 -0.5950
 8200TIP3   OH224556   1.157   6.828   6.774  0.2834  0.1584 -0.2444
 8200TIP3    H124557   1.234   6.854   6.723 -0.4014  1.5896 -0.5995
 8200TIP3    H224558   1.083   6.852   6.718 -0.4334 -1.8418 -0.2177
 8201TIP3   OH224559   5.062   3.162   6.509 -0.3024 -0.2395  0.0207
 8201TIP3    H124560   4.979   3.185   6.552 -0.0859 -0.4735  0.5641
 8201TIP3    H224561   5.062   3.066   6.506  0.7180 -0.3232  1.5743
 8202TIP3   OH224562   3.584   4.055   2.583  0.6525  0.3326  0.1836
 8202TIP3    H124563   3.640   3.978   2.580 -0.9241 -0.8526 -0.0427
 8202TIP3    H224564   3.599   4.092   2.670  1.4142 -0.2230  0.2979
 8203TIP3   OH224565   6.637   2.887   5.456 -0.0881 -0.0521 -0.4876
 8203TIP3    H124566   6.580   2.825   5.501  0.6241  0.4510  1.1681
 8203TIP3    H224567   6.708   2.904   5.518  0.8593  0.7932 -1.7500
 8204TIP3   OH224568   8.091   0.810   2.558  0.0442 -0.3185  0.2167
 8204TIP3    H124569   7.998   0.815   2.578  0.2836 -1.4390  1.8592
 8204TIP3    H224570   8.109   0.716   2.549  0.8592 -0.0761 -0.9715
 8205TIP3   OH224571   2.842   1.875   0.950 -0.1940 -0.7536 -0.0802
 8205TIP3    H124572   2.756   1.882   0.991 -0.3157  4.2505 -0.4835
 8205TIP3    H224573   2.823   1.864   0.857 -0.6560  1.9069 -0.3884
 8206TIP3   OH224574   7.286   3.512   2.419  0.5865 -0.1065 -0.0369
 8206TIP3    H124575   7.314   3.468   2.499 -0.0466  0.9104  0.7646
 8206TIP3    H224576   7.207   3.560   2.444 -0.2443 -0.6314 -1.5381
 8207TIP3   OH224577   8.114   2.139   0.389 -0.1420  0.6589 -1.1735
 8207TIP3    H124578   8.025   2.173   0.379 -0.6104 -0.1732 -0.0323
 8207TIP3    H224579   8.134   2.099   0.305 -1.6341 -0.8861 -0.8515
 8208TIP3   OH224580   6.837   6.795   1.997 -0.5806 -0.0436 -0.6474
 8208TIP3    H124581   6.920   6.830   1.966  0.7997 -1.0409  1.6304
 8208TIP3    H224582   6.802   6.746   1.923  1.3215 -0.3670 -1.3920
 8209TIP3   OH224583   6.547   3.151   1.974  0.0802 -0.5450 -0.0359
 8209TIP3    H124584   6.600   3.224   1.941 -1.6259  0.6055 -0.3419
 8209TIP3    H224585   6.591   3.126   2.056  0.3787  1.2399  0.4031
 8210TIP3   OH224586   7.642   0.877   6.570 -0.1404  0.5639 -0.0481
 8210TIP3    H124587   7.559   0.853   6.611 -1.1360  0.1618 -2.1328
 8210TIP3    H224588   7.638   0.973   6.563  0.1961  0.6705  1.0319
 8211TIP3   OH224589   7.217   6.067   6.271 -0.1979  0.3600  0.4639
 8211TIP3    H124590   7.288   6.043   6.212 -0.4611 -2.4934  1.1288
 8211TIP3    H224591   7.152   5.997   6.258 -0.8534  0.4036  3.0951
 8212TIP3   OH224592   7.807   0.516   4.601 -0.1612  0.4063  0.6749
 8212TIP3    H124593   7.834   0.534   4.691  0.2071  1.0423  0.4402
 8212TIP3    H224594   7.794   0.602   4.562 -0.0892  0.1361  0.0438
 8213TIP3   OH224595   5.750   2.377   0.608  0.3165  0.0055 -0.3320
 8213TIP3    H124596   5.749   2.370   0.703  1.2028 -0.6258 -0.3550
 8213TIP3    H224597   5.735   2.470   0.590  0.4641  0.1818  0.4361
 8214TIP3   OH224598   3.764   0.853   3.877  0.2501 -0.4297 -0.7474
 8214TIP3    H124599   3.762   0.866   3.782 -1.0484 -0.0030 -0.6910
 8214TIP3    H224600   3.690   0.906   3.909  0.6716 -0.5690  0.4970
 8215TIP3   OH224601   2.996   0.760   4.054  0.2811 -0.3808 -0.1124
 8215TIP3    H124602   3.055   0.685   4.060  0.3588 -0.3589 -0.6373
 8215TIP3    H224603   2.926   0.740   4.117  0.8089 -0.4345  0.4646
 8216TIP3   OH224604   3.600   2.356   5.464 -0.6727 -0.5779  0.4218
 8216TIP3    H124605   3.651   2.293   5.516  2.1104  1.2616  0.1251
 8216TIP3    H224606   3.634   2.346   5.375 -0.5321  0.9761  0.2774
 8217TIP3   OH224607   6.859   2.638   1.706 -0.0747 -0.6078  0.0737
 8217TIP3    H124608   6.767   2.662   1.691  0.0721  0.0070  0.1690
 8217TIP3    H224609   6.854   2.550   1.743 -0.6261 -0.5813  0.0752
 8218TIP3   OH224610   0.655   1.541   3.160  0.2650 -0.1776  0.3851
 8218TIP3    H124611   0.662   1.610   3.225 -0.2237  0.9661 -0.7389
 8218TIP3    H224612   0.655   1.460   3.211  2.5077  0.5236  1.6379
 8219TIP3   OH224613   3.186   5.355   4.523  0.5636 -0.4385 -0.8096
 8219TIP3    H124614   3.158   5.264   4.515  0.8971 -0.6997  0.6119
 8219TIP3    H224615   3.104   5.405   4.532  0.4033 -0.9826  1.4635
 8220TIP3   OH224616  -0.018   6.190   5.464 -0.4349 -0.1056 -0.1341
 8220TIP3    H124617   0.039   6.239   5.405 -0.9522  0.7455  0.0518
 8220TIP3    H224618   0.037   6.171   5.540 -0.1841  0.0618 -0.2714
 8221TIP3   OH224619   3.940   3.946   1.643  0.4375 -0.3412 -0.1824
 8221TIP3    H124620   3.863   3.890   1.633 -1.5362  2.4145 -1.7854
 8221TIP3    H224621   3.925   3.994   1.725  1.3056 -0.9320  0.3411
 8222TIP3   OH224622   6.535   6.709   5.094  0.2039  0.5249  0.2194
 8222TIP3    H124623   6.516   6.787   5.145  0.7227  1.1938 -0.5980
 8222TIP3    H224624   6.473   6.713   5.021  2.3988  1.9995 -1.7099
 8223TIP3   OH224625   2.128   1.529   2.280  0.3577  0.0561 -0.6326
 8223TIP3    H124626   2.187   1.603   2.298  0.7702  0.1151 -2.1024
 8223TIP3    H224627   2.157   1.495   2.196  1.3303 -2.9403  0.7629
 8224TIP3   OH224628   5.094   2.179   5.400 -0.0773 -0.9555  0.2026
 8224TIP3    H124629   5.024   2.145   5.344 -0.8141  1.1780 -0.2771
 8224TIP3    H224630   5.049   2.215   5.476  0.2634  1.6959 -0.7405
 8225TIP3   OH224631   0.866   6.097   5.758  0.0161 -0.2483  0.6795
 8225TIP3    H124632   0.894   6.171   5.704 -0.7864  1.4052  2.3981
 8225TIP3    H224633   0.771   6.099   5.754 -0.0436 -0.3100  1.8613
 8226TIP3   OH224634   7.356   3.412   1.405  0.0454 -0.4671  0.4709
 8226TIP3    H124635   7.297   3.487   1.413  1.0228  0.4268 -0.5107
 8226TIP3    H224636   7.354   3.371   1.492 -1.9796 -0.4636  0.4789
 8227TIP3   OH224637   7.600   5.948   1.077  0.3598 -0.6320  0.3144
 8227TIP3    H124638   7.596   5.965   1.171 -0.1611 -0.0080  0.1804
 8227TIP3    H224639   7.613   5.853   1.070 -1.8154 -1.0238  0.9787
 8228TIP3   OH224640   1.116   5.973   5.759 -0.4440 -0.9446  0.5987
 8228TIP3    H124641   1.040   5.984   5.817 -1.0243 -1.6405 -0.0174
 8228TIP3    H224642   1.088   5.910   5.693  0.2704 -0.3267 -0.3361
 8229TIP3   OH224643   2.051   0.014   0.642  0.6243  0.2412  0.4990
 8229TIP3    H124644   2.130  -0.041   0.643  1.1603  0.9674 -0.3303
 8229TIP3    H224645   2.076   0.090   0.589 -0.3972  0.8450  0.8696
 8230TIP3   OH224646   2.186   7.575   1.402 -0.2404 -0.0751 -0.2638
 8230TIP3    H124647   2.270   7.531   1.390  1.1652  2.5766 -0.9281
 8230TIP3    H224648   2.163   7.560   1.493  1.9257  0.6639  0.4545
 8231TIP3   OH224649   5.672   4.541   6.026  0.6743  0.3229 -0.5431
 8231TIP3    H124650   5.604   4.586   6.076  3.0053  0.7774  2.5278
 8231TIP3    H224651   5.693   4.601   5.954 -1.2034  0.7444 -0.7844
 8232TIP3   OH224652   7.954   6.158   5.033 -0.0828 -0.1085 -0.8910
 8232TIP3    H124653   8.004   6.234   5.064 -0.8127  0.2772 -0.6242
 8232TIP3    H224654   7.887   6.145   5.100  0.0642 -1.0251 -0.9143
 8233TIP3   OH224655   5.271   7.210   0.620 -0.2672 -0.2393  0.4828
 8233TIP3    H124656   5.232   7.269   0.684  0.2119 -0.4402  0.9654
 8233TIP3    H224657   5.196   7.167   0.578 -0.6272  0.8545 -0.0214
 8234TIP3   OH224658   6.251   1.607   0.162  0.7521 -0.1195 -0.8183
 8234TIP3    H124659   6.244   1.512   0.149  1.6462 -0.2518 -0.4531
 8234TIP3    H224660   6.336   1.618   0.205  0.6934  0.8587 -0.9429
 8235TIP3   OH224661   2.066   2.967   6.405 -0.3210 -0.3234 -0.1142
 8235TIP3    H124662   2.127   2.984   6.477  0.2270  1.6991 -0.9842
 8235TIP3    H224663   2.104   2.892   6.359  0.3717 -0.4076  0.5675
 8236TIP3   OH224664   5.714   3.324   6.437 -0.1376  0.8668 -0.6571
 8236TIP3    H124665   5.686   3.370   6.357 -0.3480  3.1644  0.6605
 8236TIP3    H224666   5.635   3.316   6.490 -0.0424 -0.8436 -0.7175
 8237TIP3   OH224667   2.157   5.049   3.573  0.1159  0.1119 -0.1606
 8237TIP3    H124668   2.094   5.114   3.541 -2.0849 -1.8384 -0.1574
 8237TIP3    H224669   2.174   4.994   3.496 -0.7717 -1.2730  0.5913
 8238TIP3   OH224670   7.693   4.280   3.231  0.0415  0.5584 -0.3801
 8238TIP3    H124671   7.774   4.252   3.273 -0.7156 -1.1662  0.0139
 8238TIP3    H224672   7.656   4.346   3.290  1.0047  1.1879 -0.4519
 8239TIP3   OH224673   2.925   0.772   2.637  0.7690  0.1006  0.1013
 8239TIP3    H124674   2.841   0.816   2.622 -0.1824 -1.5032  0.4866
 8239TIP3    H224675   2.924   0.749   2.730 -0.0824 -3.2042 -0.6102
 8240TIP3   OH224676   0.761   1.352   2.958 -0.0414  0.1640  0.3892
 8240TIP3    H124677   0.719   1.408   3.024 -1.8973 -1.0224  0.3007
 8240TIP3    H224678   0.844   1.325   2.997  0.2618  1.8631  0.9763
 8241TIP3   OH224679   5.045   0.075  -0.012  0.3449  0.0260  0.1764
 8241TIP3    H124680   4.964   0.125  -0.002 -2.0163 -3.7721  2.7603
 8241TIP3    H224681   5.104   0.111   0.054 -1.1414 -0.2776  1.7292
 8242TIP3   OH224682   2.502   5.345   5.386 -0.1387  0.0915 -0.2584
 8242TIP3    H124683   2.511   5.265   5.438 -0.3493  1.2318  1.6250
 8242TIP3    H224684   2.414   5.339   5.348  0.7289 -1.6762 -2.2244
 8243TIP3   OH224685   3.185   1.003   5.667  0.4240 -0.0553  0.0018
 8243TIP3    H124686   3.097   0.980   5.698  0.4552  0.5646  0.5663
 8243TIP3    H224687   3.202   0.941   5.596 -0.0456 -0.8660  0.5846
 8244TIP3   OH224688   3.809   4.651   5.795  0.3063 -0.4693 -0.2790
 8244TIP3    H124689   3.814   4.558   5.774 -1.1709 -0.5349 -0.4483
 8244TIP3    H224690   3.777   4.654   5.885  0.8756 -0.1142 -0.0806
 8245TIP3   OH224691   1.142   2.074   3.408  0.0411  0.6225 -0.3820
 8245TIP3    H124692   1.146   2.064   3.503 -0.2604 -1.2225 -0.5122
 8245TIP3    H224693   1.099   2.158   3.394  2.2975  2.1324  1.0680
 8246TIP3   OH224694   2.623   7.582   4.569 -0.5131 -0.0700 -0.1549
 8246TIP3    H124695   2.693   7.525   4.536 -0.7922 -0.9681  0.7999
 8246TIP3    H224696   2.669   7.663   4.593 -0.1839  0.3396 -1.9570
 8247TIP3   OH224697   4.723   0.602   2.658  0.0087  0.0828  0.0399
 8247TIP3    H124698   4.711   0.688   2.619  3.4471  0.9062  0.5098
 8247TIP3    H224699   4.686   0.610   2.746  2.2147  1.8970  0.8959
 8248TIP3   OH224700   7.634   5.947   3.066  0.0373  0.0218 -0.5251
 8248TIP3    H124701   7.727   5.961   3.046 -0.1825  0.1572 -1.4711
 8248TIP3    H224702   7.612   5.865   3.022 -0.3254  0.0537 -0.4044
 8249TIP3   OH224703   7.434   4.167   0.135 -0.4770  1.0236  0.3950
 8249TIP3    H124704   7.516   4.181   0.087  0.1347 -1.6880  0.4596
 8249TIP3    H224705   7.379   4.117   0.075 -1.6697  1.8563  0.7642
 8250TIP3   OH224706   0.936   0.236   6.125  0.5173 -0.9398 -0.2486
 8250TIP3    H124707   0.966   0.326   6.131  0.2651 -0.9091  0.8585
 8250TIP3    H224708   0.842   0.242   6.108  0.3258 -0.9600  0.7166
 8251TIP3   OH224709   5.246   4.224   4.006  0.7018  0.0784  0.5516
 8251TIP3    H124710   5.175   4.198   3.947  0.2002  1.1771  0.6294
 8251TIP3    H224711   5.311   4.155   3.999  0.2861 -0.2070 -0.6740
 8252TIP3   OH224712   1.214   3.481   1.508  0.4030  0.2065  1.1257
 8252TIP3    H124713   1.256   3.534   1.575  0.3656  1.1788  0.4009
 8252TIP3    H224714   1.176   3.545   1.447 -1.8000 -0.6297  1.5453
 8253TIP3   OH224715   4.323   4.175   1.609 -0.0064  0.0072 -0.1754
 8253TIP3    H124716   4.388   4.110   1.634  0.3720  0.1157 -0.8796
 8253TIP3    H224717   4.256   4.169   1.678  1.0822  0.4053  0.9643
 8254TIP3   OH224718   0.277   7.259   5.765  0.3398 -0.2389  0.4462
 8254TIP3    H124719   0.264   7.214   5.849  1.6739 -1.1475  0.2033
 8254TIP3    H224720   0.281   7.351   5.787 -2.2507 -0.1687  0.9945
 8255TIP3   OH224721   2.424   1.965   2.249 -0.0979  0.1461  0.7353
 8255TIP3    H124722   2.519   1.966   2.265  0.1126 -1.5862 -0.1159
 8255TIP3    H224723   2.414   1.907   2.173 -1.6737  2.0135 -0.5792
 8256TIP3   OH224724   1.424   1.003   6.291  0.1442  0.0970  0.2189
 8256TIP3    H124725   1.491   0.996   6.359 -0.7837  0.7841  1.2413
 8256TIP3    H224726   1.347   0.962   6.329 -0.7609  1.6203  0.1074
 8257TIP3   OH224727   2.614   5.700   1.357  0.1081  0.3247 -1.0107
 8257TIP3    H124728   2.677   5.767   1.330 -0.7021  0.9730 -1.3276
 8257TIP3    H224729   2.529   5.744   1.353 -0.3816 -0.5737 -0.7113
 8258TIP3   OH224730   0.856   5.338   2.113 -1.4414  1.1247  1.0122
 8258TIP3    H124731   0.905   5.309   2.190  0.5357  0.2612 -0.4810
 8258TIP3    H224732   0.771   5.295   2.121 -0.2760 -1.2839  1.3293
 8259TIP3   OH224733   1.404   0.752  -0.019 -0.4674  0.3098 -0.3127
 8259TIP3    H124734   1.376   0.732   0.070  2.4639 -0.3988  0.5572
 8259TIP3    H224735   1.448   0.837  -0.012  1.5178 -0.6330 -0.5880
 8260TIP3   OH224736   7.200   1.598   2.290  0.1314 -0.2544  0.4196
 8260TIP3    H124737   7.201   1.604   2.386  1.7865 -3.5128  0.7394
 8260TIP3    H224738   7.118   1.553   2.270 -0.3934  0.7563  0.2244
 8261TIP3   OH224739   7.096   0.512   3.897  0.1013  0.1501  0.7416
 8261TIP3    H124740   7.019   0.460   3.920  0.1628  0.5269  1.8594
 8261TIP3    H224741   7.098   0.511   3.802 -1.5199  0.4576  0.6796
 8262TIP3   OH224742   3.798   2.748   0.735  0.3364  0.5179  0.4733
 8262TIP3    H124743   3.731   2.681   0.752  1.2179 -0.4285  0.3410
 8262TIP3    H224744   3.876   2.698   0.713  0.9674  1.6164  0.1586
 8263TIP3   OH224745   0.956   3.893   3.930 -0.0713  0.1104 -0.3531
 8263TIP3    H124746   0.934   3.877   4.022  0.0312 -0.4923 -0.4326
 8263TIP3    H224747   1.046   3.923   3.932  0.0878 -0.3683 -0.2975
 8264TIP3   OH224748   3.793   5.044   0.397  0.2543  0.1204 -0.4977
 8264TIP3    H124749   3.785   4.957   0.435 -0.1819  1.0633  1.7324
 8264TIP3    H224750   3.885   5.067   0.410  0.1355  0.3888 -0.1034
 8265TIP3   OH224751   0.224   0.939   6.467  0.3650  0.4405  0.9519
 8265TIP3    H124752   0.236   1.033   6.485 -0.2971  0.3059  2.2501
 8265TIP3    H224753   0.311   0.901   6.482  0.0777  0.5013  3.0625
 8266TIP3   OH224754   6.718   4.535   5.968  0.4798 -0.0413  0.3394
 8266TIP3    H124755   6.707   4.527   5.873 -0.5353 -0.2208  0.4623
 8266TIP3    H224756   6.692   4.624   5.987  1.6038  0.3073  0.3456
 8267TIP3   OH224757   4.706   5.411   0.458  0.6770  0.3999 -0.2494
 8267TIP3    H124758   4.794   5.397   0.494  1.4173 -0.1024 -2.1232
 8267TIP3    H224759   4.712   5.494   0.413 -0.0929  0.7832  0.3379
 8268TIP3   OH224760   1.327   4.848   2.425  0.7777 -0.5724  0.7347
 8268TIP3    H124761   1.314   4.935   2.388  0.1186 -0.8368  0.3237
 8268TIP3    H224762   1.245   4.828   2.469  0.5795 -1.3568  0.0314
 8269TIP3   OH224763   6.123   4.847   6.124  0.1448 -0.1428  0.0425
 8269TIP3    H124764   6.114   4.753   6.138 -1.6838  0.1137  0.7765
 8269TIP3    H224765   6.173   4.854   6.042 -2.6482 -1.7969 -1.9689
 8270TIP3   OH224766   1.273   1.430   6.000  0.4971 -0.9332  0.0819
 8270TIP3    H124767   1.359   1.416   6.040 -0.2050 -0.3429  1.8932
 8270TIP3    H224768   1.237   1.506   6.046 -0.7557 -0.7833 -1.0803
 8271TIP3   OH224769   4.799   2.321   5.859  0.1139 -0.3133 -0.1369
 8271TIP3    H124770   4.893   2.311   5.870  0.4246  1.7498 -0.5709
 8271TIP3    H224771   4.761   2.275   5.934  1.5690  0.8360  1.3814
 8272TIP3   OH224772   1.926   7.751   2.705 -0.2131  0.4115  0.0811
 8272TIP3    H124773   1.978   7.819   2.746  1.4215 -0.7099 -0.0620
 8272TIP3    H224774   1.941   7.673   2.758 -0.0315 -0.4566 -1.1999
 8273TIP3   OH224775   5.565   5.990   5.984 -0.0646 -0.5729  0.1178
 8273TIP3    H124776   5.509   6.059   5.948  0.0248  0.7772  2.3146
 8273TIP3    H224777   5.654   6.016   5.959 -0.1438 -0.7106 -0.3087
 8274TIP3   OH224778   2.530   3.292   3.534 -0.1475  0.4964 -0.8792
 8274TIP3    H124779   2.559   3.364   3.590 -1.5546  0.1145  0.4058
 8274TIP3    H224780   2.598   3.226   3.542  0.8029  1.3668 -1.5057
 8275TIP3   OH224781   5.187   1.493   1.352  0.4205 -0.2203 -0.2512
 8275TIP3    H124782   5.272   1.451   1.346 -0.4220 -2.0442  0.1108
 8275TIP3    H224783   5.207   1.587   1.344  2.7533 -0.3380  2.3789
 8276TIP3   OH224784   5.719  -0.026   4.262  0.1100  0.4101  0.3020
 8276TIP3    H124785   5.701   0.059   4.222 -0.1994  0.0010 -0.4516
 8276TIP3    H224786   5.749  -0.005   4.350  0.8496  1.3433 -0.1496
 8277TIP3   OH224787   6.125   1.284   1.799 -0.8818 -0.0585  0.5105
 8277TIP3    H124788   6.188   1.282   1.870  0.7364  0.7813 -0.8362
 8277TIP3    H224789   6.130   1.374   1.765 -2.2738 -0.1801 -0.1176
 8278TIP3   OH224790   1.089   2.959   4.530  0.3746 -0.9986  0.0902
 8278TIP3    H124791   1.077   3.044   4.488  0.7358 -0.5378  0.8977
 8278TIP3    H224792   1.184   2.944   4.526  0.1369 -2.3579 -1.9287
 8279TIP3   OH224793   1.418   5.640   5.632 -0.0181 -0.1769 -0.0901
 8279TIP3    H124794   1.404   5.642   5.727  0.6816  0.7383  0.0083
 8279TIP3    H224795   1.455   5.726   5.612  0.0434 -0.4465 -1.1676
 8280TIP3   OH224796   2.943   4.864   2.721  1.0431  0.2350  0.0097
 8280TIP3    H124797   2.877   4.797   2.740  0.2088  0.6189 -1.3718
 8280TIP3    H224798   2.973   4.894   2.807  0.4945 -0.9887  0.6533
 8281TIP3   OH224799   2.789   6.247   4.419  0.3271  0.2679  0.2370
 8281TIP3    H124800   2.750   6.275   4.502  1.0751  1.5018  0.2044
 8281TIP3    H224801   2.767   6.317   4.358  2.5417  1.0250  0.2215
 8282TIP3   OH224802   3.705   6.673   3.274 -0.0912  0.6448 -0.0553
 8282TIP3    H124803   3.736   6.598   3.325 -1.2471 -0.5154 -1.0066
 8282TIP3    H224804   3.783   6.725   3.257  0.7141 -0.2920  0.6953
 8283TIP3   OH224805   7.274   7.462   5.951 -0.0726 -0.0609  0.4142
 8283TIP3    H124806   7.271   7.370   5.978  0.1263 -0.1739  0.0551
 8283TIP3    H224807   7.264   7.511   6.033 -0.7768 -0.4001  0.5395
 8284TIP3   OH224808   7.855   3.005   1.744  0.4530  0.0537  0.1629
 8284TIP3    H124809   7.867   3.018   1.839 -0.0583 -0.0446  0.2414
 8284TIP3    H224810   7.929   2.950   1.718  1.4516  1.2958  0.2250
 8285TIP3   OH224811   1.311   1.382   5.725  0.5318  0.6881  0.2719
 8285TIP3    H124812   1.288   1.417   5.811  1.4975  2.3351 -0.1080
 8285TIP3    H224813   1.291   1.452   5.663 -1.8046 -1.0551 -1.1370
 8286TIP3   OH224814   4.528   7.017   0.781  0.3065  0.0496  0.5584
 8286TIP3    H124815   4.478   7.027   0.700  0.1543 -1.0774  0.4925
 8286TIP3    H224816   4.618   7.037   0.756  0.3819 -0.9853 -0.0870
 8287TIP3   OH224817   2.605   4.020   1.550  0.0609 -0.5811 -0.3135
 8287TIP3    H124818   2.664   3.952   1.583  0.1918 -0.1287  0.3993
 8287TIP3    H224819   2.656   4.066   1.483  0.9156  0.4801  1.0264
 8288TIP3   OH224820   3.556   3.340   4.429  0.2452  0.0325  0.0502
 8288TIP3    H124821   3.563   3.427   4.469  1.4217 -0.9971  2.2900
 8288TIP3    H224822   3.465   3.315   4.442  0.6810 -0.4964  2.8459
 8289TIP3   OH224823   5.333   2.683   3.653  0.1460 -0.1812 -0.4847
 8289TIP3    H124824   5.363   2.692   3.744 -0.4879 -0.2110 -0.2657
 8289TIP3    H224825   5.321   2.589   3.642 -0.3511 -0.1275 -0.4082
 8290TIP3   OH224826   4.460   0.893   0.313 -0.4350  0.4121  0.4869
 8290TIP3    H124827   4.517   0.933   0.379  0.1534 -0.8512  0.7681
 8290TIP3    H224828   4.404   0.965   0.283  1.0696  1.6144  0.4528
 8291TIP3   OH224829   7.593   2.013   0.459 -0.1659 -0.3814  0.4377
 8291TIP3    H124830   7.684   1.998   0.485 -0.4095 -1.7672  0.5329
 8291TIP3    H224831   7.577   1.950   0.389 -0.7053  0.6820 -0.4387
 8292TIP3   OH224832   3.014   5.292   1.728  0.0397  0.0172  0.2110
 8292TIP3    H124833   2.972   5.296   1.642  1.3266 -0.4220 -0.4734
 8292TIP3    H224834   2.979   5.214   1.769 -0.2105 -0.0460 -0.1234
 8293TIP3   OH224835   2.425   7.744   3.878  0.1468  0.0631 -0.0218
 8293TIP3    H124836   2.506   7.719   3.834  0.1727 -1.0494  0.6206
 8293TIP3    H224837   2.454   7.796   3.953  0.0916  2.1608 -1.3849
 8294TIP3   OH224838   8.258   1.292   2.128 -0.3385 -0.1693 -0.5694
 8294TIP3    H124839   8.351   1.285   2.105 -0.0810 -0.4492  0.5060
 8294TIP3    H224840   8.244   1.385   2.144 -0.3981 -0.0425 -1.3386
 8295TIP3   OH224841   4.358   5.990   5.797 -0.4042  0.4787 -0.0620
 8295TIP3    H124842   4.302   5.996   5.874 -1.1468 -0.4182 -0.5130
 8295TIP3    H224843   4.437   5.944   5.827 -1.2603 -1.0750 -0.1209
 8296TIP3   OH224844   7.454   4.144   1.142  0.1219 -0.2340  0.2785
 8296TIP3    H124845   7.369   4.188   1.131 -0.4316 -1.3848 -0.2120
 8296TIP3    H224846   7.450   4.070   1.081  1.9433  0.3506 -0.6150
 8297TIP3   OH224847   4.360   0.211   3.266  0.2122  0.3764  0.9252
 8297TIP3    H124848   4.382   0.159   3.188  0.8908  1.0920  0.6252
 8297TIP3    H224849   4.432   0.273   3.275 -1.3190  2.3838  0.2864
 8298TIP3   OH224850   4.969   6.854   5.249 -0.0061  0.1158 -0.0983
 8298TIP3    H124851   5.044   6.879   5.195 -0.3501  2.3478  0.3449
 8298TIP3    H224852   4.954   6.762   5.229  0.3441  0.6317 -3.2688
 8299TIP3   OH224853   4.676   3.716   2.951 -0.4373  0.1250  0.6036
 8299TIP3    H124854   4.760   3.761   2.939 -1.1797  1.6075  0.8009
 8299TIP3    H224855   4.612   3.786   2.958 -1.5067 -0.9277  2.0137
 8300TIP3   OH224856   6.110   2.680   5.195  0.3184 -0.3935  0.3725
 8300TIP3    H124857   6.086   2.677   5.287 -0.1517  0.6029  0.2944
 8300TIP3    H224858   6.173   2.752   5.189 -1.5744  1.2729 -0.4777
 8301TIP3   OH224859   3.001   5.190   2.695 -0.0114 -0.2961  0.0485
 8301TIP3    H124860   3.034   5.263   2.643  0.0162  0.6581  1.3707
 8301TIP3    H224861   3.042   5.113   2.656  0.9517  0.5024 -0.5764
 8302TIP3   OH224862   1.076   0.818   0.077  0.2265  0.1787 -0.4852
 8302TIP3    H124863   1.030   0.867   0.009  1.8903  1.6157 -0.6470
 8302TIP3    H224864   1.168   0.833   0.059  0.7955 -2.2461  0.0943
 8303TIP3   OH224865   6.703   5.498   4.838  0.2750 -0.2200 -0.3566
 8303TIP3    H124866   6.708   5.403   4.849  2.8082  0.0827  2.6228
 8303TIP3    H224867   6.710   5.512   4.744  3.4069 -2.9426 -0.7128
 8304TIP3   OH224868   5.206   3.627   4.683  0.2067 -0.2655 -0.0900
 8304TIP3    H124869   5.248   3.595   4.603 -2.1679 -0.4395 -1.3419
 8304TIP3    H224870   5.207   3.722   4.673 -1.7945 -0.3131 -1.3522
 8305TIP3   OH224871   6.913   5.179   2.583 -0.3399  0.2418  0.4306
 8305TIP3    H124872   6.934   5.260   2.629  2.2270  0.0510 -0.2458
 8305TIP3    H224873   6.917   5.111   2.651  3.3686 -0.0290  0.1466
 8306TIP3   OH224874   4.286   2.872   2.559 -0.0910  0.3793 -0.2994
 8306TIP3    H124875   4.333   2.948   2.592  1.5069 -0.6878 -0.0190
 8306TIP3    H224876   4.353   2.805   2.548 -1.4819 -1.0727 -0.3215
 8307TIP3   OH224877   4.931   1.544   3.309 -0.1940 -0.0537  0.3047
 8307TIP3    H124878   4.854   1.540   3.366  0.4725  0.6997  1.2926
 8307TIP3    H224879   4.966   1.455   3.310 -0.6004 -0.2123  0.4929
 8308TIP3   OH224880   4.417   3.717   0.016 -0.1606 -0.1563 -0.2076
 8308TIP3    H124881   4.453   3.762   0.092 -1.0573 -0.9871  0.7458
 8308TIP3    H224882   4.324   3.710   0.034 -0.1260 -1.9353 -0.5535
 8309TIP3   OH224883   2.175   6.235   2.424  0.8672  0.2387  0.1159
 8309TIP3    H124884   2.150   6.283   2.503  0.1469 -1.2928  0.8614
 8309TIP3    H224885   2.127   6.278   2.353 -1.6165 -0.7627  1.0844
 8310TIP3   OH224886   2.315   7.340   6.127  0.6142  0.0258  0.6386
 8310TIP3    H124887   2.287   7.415   6.178  1.0363  0.8041 -0.2499
 8310TIP3    H224888   2.251   7.271   6.148 -0.9770  1.2341 -0.0567
 8311TIP3   OH224889   0.406   5.404   6.074 -0.0555  0.0631  0.2680
 8311TIP3    H124890   0.354   5.414   6.154 -2.5010  0.6217 -1.3037
 8311TIP3    H224891   0.436   5.493   6.054 -0.6618  0.1663 -0.1986
 8312TIP3   OH224892   5.413   3.165   0.445  0.3133 -0.4152  0.3088
 8312TIP3    H124893   5.447   3.249   0.477  0.0224 -0.0053 -0.4248
 8312TIP3    H224894   5.328   3.187   0.405  0.9786 -0.7623 -1.3937
 8313TIP3   OH224895   4.420   5.265   5.264  0.4052  0.4386 -0.3451
 8313TIP3    H124896   4.455   5.180   5.292 -1.0056  0.3517  1.2767
 8313TIP3    H224897   4.327   5.262   5.286  0.5147  2.7818  0.7147
 8314TIP3   OH224898   2.055   3.382   2.467 -0.6155 -0.5040  0.0996
 8314TIP3    H124899   2.037   3.288   2.471 -0.6294 -0.4844  0.6392
 8314TIP3    H224900   2.086   3.404   2.555  0.6998 -0.2610 -0.4041
 8315TIP3   OH224901   5.013   0.588   6.027  0.5812 -0.0628 -0.4602
 8315TIP3    H124902   5.093   0.542   6.001  0.0183 -2.0221  1.0836
 8315TIP3    H224903   4.951   0.570   5.956  0.8755 -0.2611 -0.6680
 8316TIP3   OH224904   3.439   5.395   0.219 -0.3111  0.2134 -0.2233
 8316TIP3    H124905   3.504   5.435   0.162  1.0205  0.0259  1.0775
 8316TIP3    H224906   3.489   5.368   0.296 -1.9500  0.0609  0.8367
 8317TIP3   OH224907   4.618   7.405   4.546 -0.1248 -0.0157  0.4286
 8317TIP3    H124908   4.669   7.477   4.509 -0.8265 -0.3181 -1.1964
 8317TIP3    H224909   4.674   7.328   4.539 -0.2252 -0.0559  0.0617
 8318TIP3   OH224910   1.505   3.349   5.937  0.1149 -0.2521 -0.1348
 8318TIP3    H124911   1.485   3.401   6.015  0.0755  0.4960 -0.6380
 8318TIP3    H224912   1.569   3.284   5.967 -1.4316 -1.3462  1.0309
 8319TIP3   OH224913   1.368   3.657   1.690  0.0728  0.3428 -0.0306
 8319TIP3    H124914   1.454   3.695   1.669  1.6639 -3.7706 -2.1285
 8319TIP3    H224915   1.329   3.719   1.751  3.9350  3.1489 -0.0065
 8320TIP3   OH224916   3.119   6.087   5.508  0.2305 -0.5965  0.4399
 8320TIP3    H124917   3.211   6.073   5.529  0.0028 -2.1823  0.5179
 8320TIP3    H224918   3.075   6.097   5.593  0.3608  0.5759  0.3921
 8321TIP3   OH224919   6.879   2.720   1.980 -0.1252  0.1904  0.6160
 8321TIP3    H124920   6.936   2.644   1.977  0.5090  0.6824 -0.0499
 8321TIP3    H224921   6.915   2.780   1.915  0.6552  1.9333  2.5454
 8322TIP3   OH224922   0.084   2.849   5.560  0.1804  0.4965  0.1273
 8322TIP3    H124923   0.098   2.860   5.466 -0.0065 -0.0081  0.0388
 8322TIP3    H224924   0.170   2.823   5.594 -0.1774 -1.2079 -0.2035
 8323TIP3   OH224925   4.947   3.989   2.251  0.0245 -0.4007 -0.5959
 8323TIP3    H124926   4.958   4.054   2.320  1.3110  0.5556 -1.6570
 8323TIP3    H224927   4.912   4.037   2.176 -2.8109 -1.6927 -0.2488
 8324TIP3   OH224928   3.287   5.600   2.978 -0.0584 -0.3186  0.2335
 8324TIP3    H124929   3.364   5.549   3.004  0.6844  0.4183 -0.4590
 8324TIP3    H224930   3.240   5.614   3.060  2.8651  3.0382  1.6201
 8325TIP3   OH224931   8.129   5.243   6.641  0.0892 -0.1521  0.1511
 8325TIP3    H124932   8.224   5.257   6.637  0.1723 -0.9054 -1.9653
 8325TIP3    H224933   8.111   5.187   6.566 -1.7987 -1.5309  1.5514
 8326TIP3   OH224934   4.899   0.629   2.141  0.5627  0.1209 -0.2396
 8326TIP3    H124935   4.907   0.715   2.182 -1.2261 -0.0193  0.4804
 8326TIP3    H224936   4.879   0.647   2.049  2.4164  0.4259 -0.6393
 8327TIP3   OH224937   5.907   0.879   6.612 -0.5084 -0.3858  0.3408
 8327TIP3    H124938   5.938   0.956   6.564 -0.5979  0.4181  1.5225
 8327TIP3    H224939   5.964   0.808   6.583 -0.7157  0.0012 -1.1238
 8328TIP3   OH224940   4.197   5.807   2.176 -0.4036 -0.3321 -0.4413
 8328TIP3    H124941   4.136   5.877   2.197 -0.5923 -0.6286  0.0233
 8328TIP3    H224942   4.202   5.755   2.257  2.2951  1.0240  0.4072
 8329TIP3   OH224943   3.648   3.347   0.702  0.1575  0.1803 -0.4601
 8329TIP3    H124944   3.718   3.309   0.754  0.0197  1.7952  1.0036
 8329TIP3    H224945   3.602   3.406   0.763 -1.0020  0.9355 -1.9914
 8330TIP3   OH224946   5.517   2.184   1.444 -0.3328  0.7086  0.0619
 8330TIP3    H124947   5.491   2.093   1.434  1.2073 -0.3185  3.6464
 8330TIP3    H224948   5.551   2.210   1.359 -0.9953 -1.9974 -1.1068
 8331TIP3   OH224949   3.337   5.291   6.105  0.2573 -0.3717  0.0428
 8331TIP3    H124950   3.422   5.324   6.074  1.1480 -1.8783  0.7718
 8331TIP3    H224951   3.359   5.228   6.173 -1.3896 -1.8247 -0.7027
 8332TIP3   OH224952   5.809   5.030   2.210  0.2263  0.1775 -0.1235
 8332TIP3    H124953   5.820   4.941   2.178 -3.0718 -1.0987  1.7144
 8332TIP3    H224954   5.752   5.072   2.146  1.9454  1.1114 -1.0980
 8333TIP3   OH224955   6.109   7.439   4.103 -0.5948 -0.1655 -0.0279
 8333TIP3    H124956   6.035   7.496   4.122 -1.3929 -0.2422 -2.5400
 8333TIP3    H224957   6.184   7.498   4.095 -0.8675  0.2020  0.0959
 8334TIP3   OH224958   0.059   7.823   4.514 -0.3619 -0.3327 -0.1388
 8334TIP3    H124959   0.066   7.728   4.503  0.3274 -0.3993  0.7759
 8334TIP3    H224960  -0.024   7.835   4.559  0.4512 -0.6886  1.5466
 8335TIP3   OH224961   6.423   7.214   6.040  0.5223  0.3609  0.1802
 8335TIP3    H124962   6.388   7.303   6.031 -3.0561 -1.0078 -0.9255
 8335TIP3    H224963   6.415   7.176   5.953  0.0920 -1.6772  1.0648
 8336TIP3   OH224964   7.735   4.524   2.211  0.4298  0.2619  0.5318
 8336TIP3    H124965   7.744   4.429   2.220 -2.8547 -0.1001  1.6839
 8336TIP3    H224966   7.741   4.557   2.301  1.0278  1.1044  0.1956
 8337TIP3   OH224967   5.947   6.199   3.080 -0.3901 -0.3278  0.4625
 8337TIP3    H124968   5.957   6.212   3.174  1.6313  0.6629  0.1669
 8337TIP3    H224969   5.923   6.107   3.070  2.0495 -1.1851  1.8268
 8338TIP3   OH224970   4.305   6.730   4.894 -0.6902 -0.3510 -0.3403
 8338TIP3    H124971   4.280   6.820   4.873  0.3634  0.4504  1.6076
 8338TIP3    H224972   4.261   6.711   4.977 -0.6736 -1.5401 -0.5804
 8339TIP3   OH224973   3.454   2.034   3.971  0.1507  0.4980 -0.0012
 8339TIP3    H124974   3.427   1.947   3.998  2.5681 -0.7885 -1.4238
 8339TIP3    H224975   3.405   2.051   3.891  0.4693 -0.0525 -0.3195
 8340TIP3   OH224976   6.093   1.569   4.274  0.5705 -0.5475  0.0709
 8340TIP3    H124977   6.161   1.533   4.217  0.5074 -2.0625  0.9010
 8340TIP3    H224978   6.074   1.499   4.336 -1.9447 -0.3141 -0.2963
 8341TIP3   OH224979   7.732   3.493   0.258 -0.5369  0.2354 -0.5230
 8341TIP3    H124980   7.715   3.587   0.251  1.0475  0.5591 -0.2810
 8341TIP3    H224981   7.660   3.460   0.313 -1.8409  1.0492 -1.6604
 8342TIP3   OH224982   3.133   6.922   4.357 -0.1548 -0.0310 -0.1800
 8342TIP3    H124983   3.127   6.943   4.450 -1.9101  0.5824 -0.3857
 8342TIP3    H224984   3.178   6.997   4.318  0.2220 -0.1068  0.1020
 8343TIP3   OH224985   7.271   7.372   5.231 -0.1717 -0.4235 -0.4426
 8343TIP3    H124986   7.329   7.372   5.155  0.2479  0.3164 -0.1327
 8343TIP3    H224987   7.328   7.388   5.305 -0.6938 -0.2507 -0.0717
 8344TIP3   OH224988   4.243   6.444   2.588  0.4587  0.1215  0.2810
 8344TIP3    H124989   4.273   6.425   2.677  0.6755  1.3058  0.4792
 8344TIP3    H224990   4.319   6.425   2.532 -0.2013 -2.2866  0.1180
 8345TIP3   OH224991   5.883   3.509   4.510  0.1398  0.8122  0.4569
 8345TIP3    H124992   5.881   3.590   4.563 -2.9437  0.9407  0.3527
 8345TIP3    H224993   5.817   3.524   4.443  0.9073 -1.0910 -0.7850
 8346TIP3   OH224994   3.116   0.026   3.169  0.1988 -0.1237  0.0822
 8346TIP3    H124995   3.188   0.087   3.183  0.3927 -0.2035 -0.5111
 8346TIP3    H224996   3.081   0.009   3.256 -0.8393  2.0039  0.1567
 8347TIP3   OH224997   3.864   0.282   0.862  0.0352 -0.3843 -0.4699
 8347TIP3    H124998   3.802   0.258   0.793 -0.7761  0.6320 -0.1271
 8347TIP3    H224999   3.905   0.199   0.887  0.2594 -0.8024 -2.0636
 8348TIP3   OH225000   1.600   4.012   2.738  0.2232 -0.7055  0.2049
 8348TIP3    H125001   1.598   4.049   2.650  2.1843 -0.0192  0.3977
 8348TIP3    H225002   1.565   4.082   2.794  1.6620 -0.0074  0.2773
 8349TIP3   OH225003   4.907   5.972   3.427  0.2056  0.5858  0.5169
 8349TIP3    H125004   4.937   6.043   3.370 -1.6821  1.3398  0.3856
 8349TIP3    H225005   4.813   5.989   3.438  0.0214 -1.0432  1.7250
 8350TIP3   OH225006   5.098   0.437   2.242  0.5107 -0.7488  0.0388
 8350TIP3    H125007   5.055   0.390   2.313 -0.8607  1.0706  0.4979
 8350TIP3    H225008   5.036   0.507   2.219  3.0103  1.7359  0.4030
 8351TIP3   OH225009   5.090   7.550   4.695  0.2098  0.2026 -0.0664
 8351TIP3    H125010   5.024   7.619   4.688  1.6151  1.7571  1.1275
 8351TIP3    H225011   5.062   7.484   4.632 -2.0451  1.1404 -0.1454
 8352TIP3   OH225012   4.113   7.008   2.430 -1.0312 -0.0371  0.0615
 8352TIP3    H125013   4.053   6.988   2.359 -0.2869 -1.3968 -0.2371
 8352TIP3    H225014   4.199   6.986   2.395 -0.5434  0.2817  1.0284
 8353TIP3   OH225015   1.967   2.799   1.559  0.1603 -0.2799  0.1436
 8353TIP3    H125016   1.969   2.776   1.467 -1.2184 -0.7453  0.2111
 8353TIP3    H225017   1.953   2.894   1.560 -0.2345 -0.3320 -0.1396
 8354TIP3   OH225018   5.713   5.187   2.018 -0.0806  0.6156 -0.6375
 8354TIP3    H125019   5.798   5.199   1.977  0.1006 -1.6911 -1.0958
 8354TIP3    H225020   5.660   5.142   1.952 -0.6879 -0.6300  0.6248
 8355TIP3   OH225021   7.165   5.260   5.194 -0.1062 -0.5322  0.1557
 8355TIP3    H125022   7.076   5.295   5.201  0.1443  0.3620 -0.8022
 8355TIP3    H225023   7.218   5.336   5.170  0.9551 -1.0215  0.8975
 8356TIP3   OH225024   3.473   4.764   1.368  0.5912 -0.8947 -0.2904
 8356TIP3    H125025   3.502   4.755   1.277  0.4429 -0.8333 -0.3437
 8356TIP3    H225026   3.528   4.703   1.417  0.2652 -1.3578 -0.5064
 8357TIP3   OH225027   3.980   5.221   1.764  0.0096  0.4331 -0.2087
 8357TIP3    H125028   3.918   5.151   1.744  0.3294  0.0313  0.1817
 8357TIP3    H225029   4.066   5.180   1.758  0.1780  0.6523  0.5462
 8358TIP3   OH225030   0.584   1.323   6.074  0.3058  0.0462  0.1275
 8358TIP3    H125031   0.670   1.282   6.087  0.9832  1.1909 -0.5841
 8358TIP3    H225032   0.574   1.381   6.149 -0.2720 -0.7502  0.6854
 8359TIP3   OH225033   3.713   7.402   3.917 -0.3103 -0.4071 -0.0032
 8359TIP3    H125034   3.736   7.345   3.991  0.2540  0.5349  0.5643
 8359TIP3    H225035   3.733   7.349   3.840  1.5678 -0.5163  0.4957
 8360TIP3   OH225036   5.697   4.454   2.911  0.0206 -0.7759  0.4453
 8360TIP3    H125037   5.618   4.507   2.907  1.1836  1.0160  0.1599
 8360TIP3    H225038   5.742   4.472   2.828  0.2956 -2.5417  0.1510
 8361TIP3   OH225039   5.974   4.270   4.910  0.2117 -0.2297  0.3581
 8361TIP3    H125040   5.964   4.364   4.923  0.2335  0.0668 -1.5392
 8361TIP3    H225041   5.884   4.237   4.904  0.1948 -0.4208  1.4571
 8362TIP3   OH225042   5.666   0.309   1.659 -0.0733  0.6483 -0.4369
 8362TIP3    H125043   5.757   0.322   1.632  0.7079 -0.1152  1.6365
 8362TIP3    H225044   5.638   0.231   1.611  1.4241 -0.9438  1.1060
 8363TIP3   OH225045   5.080   7.203   4.731 -0.2891  0.0003  0.6124
 8363TIP3    H125046   5.123   7.167   4.653 -0.7187 -0.1147  0.4234
 8363TIP3    H225047   5.012   7.138   4.752 -1.3218  0.8638  0.0488
 8364TIP3   OH225048   6.050   1.064   3.779  0.7547 -0.2373  0.3956
 8364TIP3    H125049   6.061   1.159   3.769 -0.6553  0.0691  1.3423
 8364TIP3    H225050   5.981   1.042   3.716  1.8485 -0.8594 -0.6183
 8365TIP3   OH225051   6.716   4.285   6.277  0.4620 -0.2172  0.8376
 8365TIP3    H125052   6.680   4.296   6.364  1.9947  0.0579  1.4638
 8365TIP3    H225053   6.715   4.191   6.262  2.0788 -0.4626  2.0209
 8366TIP3   OH225054   2.648   0.361   5.411  0.0334  0.5272 -0.1233
 8366TIP3    H125055   2.569   0.337   5.361 -0.0894 -1.8744  1.0822
 8366TIP3    H225056   2.636   0.318   5.496  1.1758  2.8274  1.2959
 8367TIP3   OH225057   1.380   3.423   1.132 -0.1732  0.4178 -0.0966
 8367TIP3    H125058   1.340   3.509   1.145  0.3299  0.7922 -0.9735
 8367TIP3    H225059   1.437   3.434   1.056 -0.4838 -0.8268 -0.5262
 8368TIP3   OH225060  -0.018   1.787   3.754 -0.2151  0.4110 -0.6387
 8368TIP3    H125061   0.048   1.827   3.812  0.6477 -1.3364 -0.3579
 8368TIP3    H225062   0.011   1.809   3.666  0.0335  0.7228 -0.4814
 8369TIP3   OH225063   1.225   0.963   2.485 -0.4885 -0.4209  0.2419
 8369TIP3    H125064   1.236   0.990   2.576 -0.8046 -0.1026  0.1850
 8369TIP3    H225065   1.234   0.868   2.487 -0.7192 -0.4356  0.6401
 8370TIP3   OH225066   5.841   1.446   1.784 -0.2375  0.0834 -0.0549
 8370TIP3    H125067   5.810   1.430   1.873  0.8499  1.3885  0.5911
 8370TIP3    H225068   5.916   1.504   1.795 -0.0287  0.1922 -1.8262
 8371TIP3   OH225069   6.065   4.428   4.190  0.1851 -0.1147 -0.2980
 8371TIP3    H125070   6.148   4.426   4.143 -0.4764 -3.6299 -1.5935
 8371TIP3    H225071   6.083   4.385   4.274 -0.5252 -2.1483 -1.1343
 8372TIP3   OH225072   6.716   4.394   0.486  0.1246 -0.2615 -0.4746
 8372TIP3    H125073   6.808   4.416   0.497 -0.4595  1.9680  0.4515
 8372TIP3    H225074   6.679   4.467   0.436 -1.0990 -1.2181 -1.0276
 8373TIP3   OH225075   2.053  -0.009   4.545  0.1792  0.1484  0.3518
 8373TIP3    H125076   2.072  -0.004   4.639 -1.3621  0.7786  0.6587
 8373TIP3    H225077   2.009   0.074   4.525 -0.4853 -0.4370 -0.6887
 8374TIP3   OH225078   0.193   0.281   2.047 -0.2526 -0.6405  0.8972
 8374TIP3    H125079   0.270   0.332   2.071  0.4274 -0.0989 -2.0775
 8374TIP3    H225080   0.180   0.220   2.120  1.9188  0.4108  2.2427
 8375TIP3   OH225081   7.082   4.877   1.093  0.2724 -0.1462  0.2085
 8375TIP3    H125082   7.166   4.908   1.061  0.0581  0.8090  0.5237
 8375TIP3    H225083   7.031   4.859   1.014  0.0989  1.1872  0.0020
 8376TIP3   OH225084   5.010   3.466   6.275  0.0528  0.4061  0.0819
 8376TIP3    H125085   4.999   3.372   6.286  1.4064  0.1157 -0.9082
 8376TIP3    H225086   5.083   3.476   6.214 -1.0348  2.0661 -1.0547
 8377TIP3   OH225087   2.589   5.209   3.646 -0.5584 -0.1583  0.0376
 8377TIP3    H125088   2.557   5.126   3.610  0.8032  0.2674 -2.3382
 8377TIP3    H225089   2.684   5.199   3.651 -0.3791  1.2161 -0.1653
 8378TIP3   OH225090   1.468   1.006   5.176  0.1853  0.1275  0.6137
 8378TIP3    H125091   1.434   0.944   5.111  2.7134  0.4375 -1.1726
 8378TIP3    H225092   1.390   1.036   5.223 -1.6501 -1.1012 -1.4068
 8379TIP3   OH225093   5.189   5.100   3.362 -0.6248 -0.1033 -0.1863
 8379TIP3    H125094   5.199   5.007   3.342  2.4630  0.7482 -3.8185
 8379TIP3    H225095   5.131   5.133   3.292 -1.9689  0.7428  1.2523
 8380TIP3   OH225096   5.030   2.496   4.070 -0.2462 -0.7327  0.0372
 8380TIP3    H125097   4.949   2.476   4.023  0.4101 -0.3680 -1.3177
 8380TIP3    H225098   5.041   2.591   4.060 -1.0329 -0.2948  2.5786
 8381TIP3   OH225099   1.685   5.473   6.699  0.3180 -0.2840  0.1999
 8381TIP3    H125100   1.650   5.392   6.661 -1.2576  0.3365  0.2751
 8381TIP3    H225101   1.657   5.471   6.790  0.0903  0.4443  0.1520
 8382TIP3   OH225102   7.653   0.250   0.631  0.5359  0.1478  0.3178
 8382TIP3    H125103   7.724   0.252   0.696  0.5308 -1.4462  0.4068
 8382TIP3    H225104   7.697   0.263   0.547  0.8316  0.0058  0.4482
 8383TIP3   OH225105   3.401   7.363   5.303 -0.2465 -0.0792  0.4986
 8383TIP3    H125106   3.372   7.310   5.378 -0.4694  0.9193  1.1388
 8383TIP3    H225107   3.335   7.347   5.236  0.1643 -1.2864  0.3694
 8384TIP3   OH225108   0.462   5.670   2.490  0.0685 -0.8223  0.0332
 8384TIP3    H125109   0.445   5.690   2.582  3.0099  0.6931  0.3690
 8384TIP3    H225110   0.480   5.575   2.489 -0.1181 -0.8784  1.0044
 8385TIP3   OH225111   5.009   0.891   5.408  0.3027  0.5376  0.0843
 8385TIP3    H125112   4.990   0.968   5.355 -0.8494 -0.3368 -0.8455
 8385TIP3    H225113   5.102   0.876   5.397  0.4470  1.5012 -0.1085
 8386TIP3   OH225114   3.881   6.239   0.169 -0.1527 -0.3396  0.5382
 8386TIP3    H125115   3.956   6.266   0.222 -1.0347  0.3805  1.4420
 8386TIP3    H225116   3.901   6.271   0.081  0.5527 -0.0633  0.7945
 8387TIP3   OH225117   7.239   0.878   5.389 -0.2649 -0.0643  0.0069
 8387TIP3    H125118   7.154   0.839   5.408 -0.8686  0.1062 -2.0811
 8387TIP3    H225119   7.249   0.869   5.294  2.2232 -0.4225  0.2233
 8388TIP3   OH225120   7.353   4.734   6.503 -0.2664  0.9620 -0.4900
 8388TIP3    H125121   7.263   4.705   6.514  0.8104 -2.3146  1.1499
 8388TIP3    H225122   7.366   4.800   6.572 -0.6161 -0.8977  1.4517
 8389TIP3   OH225123   0.722   7.458   6.758  0.1666  0.4205  0.8779
 8389TIP3    H125124   0.643   7.479   6.708  0.2103  1.2923  1.1505
 8389TIP3    H225125   0.691   7.415   6.837  0.0194  0.0519  0.6190
 8390TIP3   OH225126   5.400   3.565   3.658  0.2935  0.4419  0.5232
 8390TIP3    H125127   5.401   3.638   3.720 -2.7505 -0.4517  1.8226
 8390TIP3    H225128   5.365   3.602   3.577 -1.4537  0.4731  1.2461
 8391TIP3   OH225129   2.225   2.134   4.319  0.0456  0.4252 -0.2977
 8391TIP3    H125130   2.296   2.181   4.364  0.7092  0.3302 -1.2269
 8391TIP3    H225131   2.261   2.112   4.233 -0.7661 -0.5132 -0.4140
 8392TIP3   OH225132   3.929   6.828   3.173 -0.1385  0.0963 -0.0611
 8392TIP3    H125133   3.905   6.813   3.082 -0.5131  0.5318 -0.0410
 8392TIP3    H225134   3.935   6.923   3.181  1.4055  0.0286 -0.0048
 8393TIP3   OH225135   4.432   5.075   2.894  0.4339  0.2763 -0.2082
 8393TIP3    H125136   4.519   5.112   2.909  0.7016 -0.3464 -0.1931
 8393TIP3    H225137   4.450   4.988   2.858 -0.1604 -0.7816  1.8997
 8394TIP3   OH225138   0.085   5.820   5.528 -0.2503 -0.7212 -0.4548
 8394TIP3    H125139   0.044   5.755   5.470 -0.6935  1.0390 -2.2260
 8394TIP3    H225140   0.152   5.861   5.474  0.3457 -0.0295  0.7802
 8395TIP3   OH225141   4.275   2.544   1.341  0.4668  0.1421 -0.1634
 8395TIP3    H125142   4.318   2.548   1.255 -0.2818  1.0424 -0.5095
 8395TIP3    H225143   4.217   2.468   1.335  2.1866 -1.2638  0.4107
 8396TIP3   OH225144   5.900   7.128   6.476 -0.3171 -0.5642  0.3443
 8396TIP3    H125145   5.993   7.109   6.470 -0.7510 -2.8430 -4.3464
 8396TIP3    H225146   5.891   7.218   6.445  0.2774 -0.8396 -0.6583
 8397TIP3   OH225147   1.692   7.176   3.265 -0.0676  0.5813 -0.1319
 8397TIP3    H125148   1.696   7.142   3.355  1.0000  1.6075  0.2336
 8397TIP3    H225149   1.675   7.099   3.211  1.3105 -0.3875  0.7568
 8398TIP3   OH225150   3.124   6.675   6.465 -0.1308 -0.3357 -0.5196
 8398TIP3    H125151   3.185   6.644   6.531 -0.2015  0.5298 -0.0343
 8398TIP3    H225152   3.178   6.685   6.386  0.0226 -1.0443 -0.5104
 8399TIP3   OH225153   4.475   1.620   4.720  0.0868  0.1512  0.5688
 8399TIP3    H125154   4.461   1.526   4.713  4.0973 -0.6669  1.2307
 8399TIP3    H225155   4.506   1.646   4.633  0.1189  0.6210  0.7150
 8400TIP3   OH225156   3.879   7.646   0.181 -0.7100  0.0753 -0.7699
 8400TIP3    H125157   3.915   7.610   0.100 -1.2774  0.0780 -1.0251
 8400TIP3    H225158   3.886   7.741   0.170  3.3314  0.2126  1.0047
 8401TIP3   OH225159   6.884   3.071   5.100  0.1880 -0.2063 -0.2676
 8401TIP3    H125160   6.862   3.099   5.012  0.1397 -1.1188 -0.5547
 8401TIP3    H225161   6.928   2.987   5.088  0.7206 -0.0527  0.5356
 8402TIP3   OH225162   5.539   3.794   5.975 -0.2521  0.0780  0.8450
 8402TIP3    H125163   5.606   3.734   5.941  0.1536  1.5792 -1.2191
 8402TIP3    H225164   5.563   3.806   6.067 -0.7645 -3.3658  1.5545
 8403TIP3   OH225165   3.913   4.870   1.254 -0.1909 -0.3533  0.7040
 8403TIP3    H125166   3.915   4.949   1.307  2.1838  0.3703 -0.3307
 8403TIP3    H225167   4.005   4.848   1.240 -0.7738 -2.2670 -0.5689
 8404TIP3   OH225168   1.664   1.447   0.862  0.1868  0.3137 -0.3380
 8404TIP3    H125169   1.635   1.502   0.790  0.3630 -0.5518 -1.0963
 8404TIP3    H225170   1.609   1.369   0.855  1.2083 -0.4178 -0.4641
 8405TIP3   OH225171   7.444   6.855   4.839 -0.2834  0.2792 -0.2383
 8405TIP3    H125172   7.483   6.942   4.838 -0.5551  0.4231  0.7482
 8405TIP3    H225173   7.351   6.870   4.825 -0.3234  0.1492 -0.1148
 8406TIP3   OH225174   0.080   4.253   1.588  0.3052 -0.1664  0.2730
 8406TIP3    H125175   0.068   4.160   1.566  1.4232 -0.4662  0.8541
 8406TIP3    H225176   0.170   4.258   1.621  0.4564  1.2431 -0.3220
 8407TIP3   OH225177   4.081   3.536   6.494  0.4229 -0.3756 -0.5631
 8407TIP3    H125178   3.990   3.560   6.508  0.4183 -0.3233 -0.6808
 8407TIP3    H225179   4.129   3.587   6.559  0.3147 -0.8560 -0.1025
 8408TIP3   OH225180   3.967   0.948   0.666 -0.2114 -0.3032  0.3960
 8408TIP3    H125181   4.061   0.935   0.669 -0.1278  0.4227  1.2543
 8408TIP3    H225182   3.933   0.897   0.740 -0.2710  1.0554  1.3418
 8409TIP3   OH225183   4.387   0.558   1.699 -0.0434  0.4798 -0.3260
 8409TIP3    H125184   4.416   0.476   1.740 -1.1869  0.3139  0.1765
 8409TIP3    H225185   4.442   0.625   1.739  0.6362  0.0173 -0.4542
 8410TIP3   OH225186   6.186   0.572   2.300 -0.2172 -0.6192 -0.2951
 8410TIP3    H125187   6.112   0.628   2.324  1.5474  1.3172  0.9507
 8410TIP3    H225188   6.227   0.550   2.384  1.4121 -0.4778 -1.0175
 8411TIP3   OH225189   6.012   0.319   6.303  0.0117  0.1222 -0.2915
 8411TIP3    H125190   5.925   0.350   6.331 -0.0562  0.5874 -0.9734
 8411TIP3    H225191   6.006   0.317   6.207  1.0283  0.9998 -0.3886
 8412TIP3   OH225192   2.068   2.305   2.630 -0.4178 -0.2025 -0.1271
 8412TIP3    H125193   2.056   2.380   2.572  0.2573  0.2246  0.2736
 8412TIP3    H225194   2.159   2.312   2.659 -0.6307 -0.6433  0.6621
 8413TIP3   OH225195   1.448   0.251   1.190 -0.1791  0.2570 -0.1520
 8413TIP3    H125196   1.484   0.289   1.270 -0.3655 -1.8291  1.0150
 8413TIP3    H225197   1.356   0.235   1.211 -0.0037 -1.2175 -0.3841
 8414TIP3   OH225198   0.690   6.009   6.376 -0.2325 -0.2502 -0.4308
 8414TIP3    H125199   0.692   5.914   6.361 -1.7426 -1.0189  3.1060
 8414TIP3    H225200   0.601   6.035   6.354 -1.2824 -0.6881  2.7543
 8415TIP3   OH225201   6.620   6.415   4.190  0.1062 -0.0509 -0.3189
 8415TIP3    H125202   6.581   6.388   4.273 -1.9710  0.6682 -1.0071
 8415TIP3    H225203   6.546   6.444   4.137  1.5620  1.0367 -1.8534
 8416TIP3   OH225204   8.048   0.915   3.260  0.1661  0.3766 -0.3126
 8416TIP3    H125205   8.130   0.933   3.305 -0.1592  0.2589  0.3365
 8416TIP3    H225206   8.074   0.876   3.176  0.7565 -1.3047  0.6087
 8417TIP3   OH225207   0.019   3.980   5.068 -0.2392  0.0312 -0.3854
 8417TIP3    H125208   0.012   4.049   5.135 -0.7349 -0.5121  0.1263
 8417TIP3    H225209  -0.013   4.022   4.988 -0.0830  0.5425 -0.1887
 8418TIP3   OH225210   2.072   2.661   0.325  0.0968 -0.0168  0.6630
 8418TIP3    H125211   2.155   2.690   0.364 -0.2037 -0.4724  1.6653
 8418TIP3    H225212   2.012   2.656   0.399 -0.4467 -1.0703  0.1564
 8419TIP3   OH225213   1.159   4.469   0.561  0.1732 -0.4355 -0.1622
 8419TIP3    H125214   1.091   4.513   0.612 -1.0269 -2.3576 -0.0150
 8419TIP3    H225215   1.117   4.448   0.478  0.0066 -3.0480  0.5089
 8420TIP3   OH225216   0.489   5.980   4.610  0.0114  0.2890 -0.1711
 8420TIP3    H125217   0.526   6.068   4.605 -0.0671  0.3868  0.7368
 8420TIP3    H225218   0.402   5.989   4.571  0.9374  0.0217 -2.4550
 8421TIP3   OH225219   2.930   7.640   0.469 -0.1688 -0.3795  0.5980
 8421TIP3    H125220   2.865   7.652   0.400  1.1969 -0.1714 -0.7185
 8421TIP3    H225221   2.990   7.574   0.434 -0.5338 -1.7926  2.4581
 8422TIP3   OH225222   5.238   0.117   2.243  0.0172 -0.3109  0.1798
 8422TIP3    H125223   5.220   0.211   2.244 -1.9293 -0.6495  0.5286
 8422TIP3    H225224   5.326   0.110   2.280  1.2794  1.5272 -2.1657
 8423TIP3   OH225225   5.923   1.577   5.491 -0.3649 -0.0212  0.2493
 8423TIP3    H125226   5.888   1.525   5.564  0.4457 -1.0388 -0.0540
 8423TIP3    H225227   5.969   1.513   5.436 -0.2274  0.8643 -0.7070
 8424TIP3   OH225228   5.795   4.925   0.746 -0.6030 -0.3753  0.1237
 8424TIP3    H125229   5.852   5.001   0.733  2.1749 -2.0741  1.4931
 8424TIP3    H225230   5.846   4.851   0.713 -1.4121 -2.1690  2.6531
 8425TIP3   OH225231   6.559   2.268   4.723 -0.2166  0.3395 -0.1579
 8425TIP3    H125232   6.620   2.340   4.708 -0.0592 -0.0014 -1.2584
 8425TIP3    H225233   6.472   2.306   4.708 -0.4493  1.2209  2.9192
 8426TIP3   OH225234   1.009   3.781   4.207 -0.1615 -0.1851  0.0149
 8426TIP3    H125235   0.975   3.693   4.226 -0.9293  0.0648 -0.1735
 8426TIP3    H225236   0.956   3.839   4.261 -1.3864  0.3960 -1.7323
 8427TIP3   OH225237   6.074   2.903   1.428 -0.7591 -0.5248 -0.2121
 8427TIP3    H125238   6.085   2.919   1.334  0.3797  0.0439  0.0050
 8427TIP3    H225239   6.060   2.808   1.434  0.3133 -0.7393 -0.8704
 8428TIP3   OH225240   3.840   5.457   4.539  0.1581  0.0621  0.5669
 8428TIP3    H125241   3.821   5.527   4.602  0.2365  0.8085 -0.2129
 8428TIP3    H225242   3.787   5.383   4.569 -1.5265  1.0865  0.2717
 8429TIP3   OH225243   7.697   1.048   1.471  0.0752 -0.4733 -0.2018
 8429TIP3    H125244   7.687   0.997   1.391 -1.9222 -1.2862  0.5065
 8429TIP3    H225245   7.789   1.034   1.497  0.6257 -0.5751 -2.0519
 8430TIP3   OH225246   7.153   6.378   3.997  0.4577  0.0601  0.3559
 8430TIP3    H125247   7.137   6.284   4.009  1.8059 -0.1425  0.8269
 8430TIP3    H225248   7.136   6.416   4.083 -0.3805  0.3026  0.0877
 8431TIP3   OH225249   1.023   0.683   3.260  0.4874 -0.1093  0.2284
 8431TIP3    H125250   0.972   0.611   3.223  2.9187 -2.0930  0.5192
 8431TIP3    H225251   1.096   0.695   3.199  0.3020  1.9657  0.3409
 8432TIP3   OH225252   5.828   7.095   3.631 -0.0677  0.1085  0.3966
 8432TIP3    H125253   5.776   7.174   3.623  0.1978  0.6940  3.4285
 8432TIP3    H225254   5.918   7.124   3.620  0.0492  0.3273  1.7579
 8433TIP3   OH225255   3.314   2.103   1.354 -0.3956  0.0674  0.3097
 8433TIP3    H125256   3.355   2.190   1.354 -2.0951  0.9018  0.6437
 8433TIP3    H225257   3.299   2.084   1.261 -0.1439  0.1979  0.2413
 8434TIP3   OH225258   2.571   5.424   1.994  0.0668  0.4498 -0.7984
 8434TIP3    H125259   2.488   5.388   2.023 -0.7810  2.9452  0.1305
 8434TIP3    H225260   2.556   5.518   1.987  2.5323  0.8763 -1.6087
 8435TIP3   OH225261   6.834   2.128   0.472  0.4070 -0.0840 -0.0892
 8435TIP3    H125262   6.784   2.207   0.493 -0.7191 -0.7087 -0.3731
 8435TIP3    H225263   6.874   2.102   0.555 -0.7585 -0.2871  0.4201
 8436TIP3   OH225264   2.872   6.058   3.616  0.4160  0.1672 -0.2152
 8436TIP3    H125265   2.911   6.082   3.700 -1.1320  0.0857  0.5680
 8436TIP3    H225266   2.861   5.963   3.622  0.0893  0.1912 -0.3987
 8437TIP3   OH225267   7.599   1.182   2.027  0.0449  0.0978  0.6638
 8437TIP3    H125268   7.509   1.174   2.059 -0.3805  0.0190 -0.4854
 8437TIP3    H225269   7.603   1.269   1.988  0.0486 -0.3844 -0.4645
 8438TIP3   OH225270   4.908   4.304   6.378 -0.3280  0.0489  0.3835
 8438TIP3    H125271   4.988   4.354   6.365  0.1034 -0.7414 -0.0570
 8438TIP3    H225272   4.882   4.277   6.290 -0.9215  0.0595  0.5517
 8439TIP3   OH225273   3.082   5.903   1.736 -0.2800  0.0907 -0.4137
 8439TIP3    H125274   2.994   5.867   1.726 -1.1097  1.8581  0.0052
 8439TIP3    H225275   3.141   5.832   1.711 -1.8067 -1.2878 -0.2424
 8440TIP3   OH225276   2.964   5.597   5.743  0.0987  0.3407  0.0450
 8440TIP3    H125277   3.022   5.664   5.707  0.9421  0.0646  0.8402
 8440TIP3    H225278   3.002   5.576   5.828 -0.8523 -0.2698  0.3312
 8441TIP3   OH225279   2.300   0.940   2.561  0.4612  0.2798  0.1246
 8441TIP3    H125280   2.211   0.910   2.577 -0.0624  0.2949 -2.2847
 8441TIP3    H225281   2.348   0.860   2.539  1.0931  0.2548  1.5495
 8442TIP3   OH225282   7.774   3.715   3.683 -0.3363 -0.0136 -0.3486
 8442TIP3    H125283   7.803   3.654   3.614 -0.7447 -1.4456  0.6956
 8442TIP3    H225284   7.837   3.786   3.680  1.0813 -1.2302 -0.6291
 8443TIP3   OH225285   3.574   7.760   4.423 -0.2045 -0.4470 -0.5797
 8443TIP3    H125286   3.612   7.832   4.474 -0.2025 -0.7463 -0.1570
 8443TIP3    H225287   3.649   7.722   4.377 -0.0887 -0.6246 -0.2509
 8444TIP3   OH225288   6.934   5.456   3.664  0.6286 -0.3061  0.2235
 8444TIP3    H125289   6.863   5.518   3.649  1.0830  0.2668  0.3958
 8444TIP3    H225290   6.890   5.373   3.684  0.0156 -0.0728 -0.1178
 8445TIP3   OH225291   7.897   1.588   4.105 -0.2136  0.1882  0.5415
 8445TIP3    H125292   7.911   1.681   4.125  0.1803  0.3761 -0.5568
 8445TIP3    H225293   7.872   1.587   4.013  1.7355 -0.9502 -0.0230
 8446TIP3   OH225294   4.146   2.291   1.301 -0.5821  0.2026 -0.0537
 8446TIP3    H125295   4.073   2.314   1.243  0.7176  1.0998 -1.4098
 8446TIP3    H225296   4.174   2.205   1.271 -1.6649 -0.6033  1.1264
 8447TIP3   OH225297   7.781   2.571   3.270  0.4980  0.2567  0.7514
 8447TIP3    H125298   7.834   2.604   3.198 -0.4337  2.6147  1.0756
 8447TIP3    H225299   7.828   2.598   3.349 -0.0296  0.3724  1.0317
 8448TIP3   OH225300   5.994   3.890   3.625  0.2795  0.3229  0.5319
 8448TIP3    H125301   5.968   3.965   3.571 -0.2341 -0.4921 -0.4017
 8448TIP3    H225302   6.087   3.879   3.607  0.1128  0.0526 -0.2354
 8449TIP3   OH225303   7.757   2.379   2.751 -0.6746  0.5075  0.2286
 8449TIP3    H125304   7.767   2.344   2.839  0.4812  1.0332  0.3275
 8449TIP3    H225305   7.676   2.340   2.718  0.0478 -1.5122  0.6814
 8450TIP3   OH225306   7.434   3.354   5.032 -0.0948 -0.3962 -0.2443
 8450TIP3    H125307   7.474   3.361   4.946  1.2123 -2.4817  0.1210
 8450TIP3    H225308   7.340   3.364   5.016  0.1413 -0.5190 -1.8806
 8451TIP3   OH225309   7.352   0.544   1.866  0.3939  0.1819 -0.4697
 8451TIP3    H125310   7.342   0.475   1.801  0.1230  0.2331 -0.4820
 8451TIP3    H225311   7.391   0.617   1.817  2.6396 -0.6404 -0.0231
 8452TIP3   OH225312   7.534   0.776   2.372  0.3104  0.3040 -0.3510
 8452TIP3    H125313   7.494   0.747   2.454 -1.4292  1.0181 -0.8955
 8452TIP3    H225314   7.506   0.867   2.363  2.2050  0.8911 -0.7316
 8453TIP3   OH225315   2.150   2.357   1.243  0.8016 -0.1278  0.1077
 8453TIP3    H125316   2.182   2.410   1.170  0.2288  0.5784  0.3530
 8453TIP3    H225317   2.161   2.414   1.320  3.3993 -1.6086  0.9614
 8454TIP3   OH225318   2.478   0.267   0.380  0.0559  0.2881 -0.3463
 8454TIP3    H125319   2.449   0.176   0.383 -1.0679  0.6079 -1.1726
 8454TIP3    H225320   2.541   0.274   0.452  0.2543 -1.1679 -0.3503
 8455TIP3   OH225321   2.904   4.307  -0.014  0.2459  0.5633  0.5274
 8455TIP3    H125322   2.859   4.389   0.005 -1.7467 -0.6921  1.4625
 8455TIP3    H225323   2.989   4.317   0.029  0.8865  2.8780 -1.0681
 8456TIP3   OH225324   7.974   3.328   5.772 -0.1257 -0.1129 -0.2612
 8456TIP3    H125325   7.998   3.262   5.837 -1.4432 -0.3721  0.0005
 8456TIP3    H225326   7.923   3.281   5.707 -0.7494  0.5630 -0.2799
 8457TIP3   OH225327   3.883   5.718   1.370  0.0165 -0.3735 -0.0807
 8457TIP3    H125328   3.790   5.738   1.382  0.4543  1.5649  0.3500
 8457TIP3    H225329   3.913   5.690   1.457 -0.0082 -0.2638 -0.0363
 8458TIP3   OH225330   1.426   6.897   0.391 -0.0880 -0.2142  0.1840
 8458TIP3    H125331   1.331   6.891   0.400 -0.1969  1.5180  0.4934
 8458TIP3    H225332   1.440   6.968   0.329  0.9995 -1.9346 -1.6858
 8459TIP3   OH225333   1.399   7.454   1.435  0.4918  0.0942  0.0502
 8459TIP3    H125334   1.484   7.497   1.439  0.5623 -0.1061  0.7620
 8459TIP3    H225335   1.366   7.455   1.525 -0.1209 -0.1085 -0.1629
 8460TIP3   OH225336   2.968   0.636   3.690 -0.5197  0.5138  0.2271
 8460TIP3    H125337   2.885   0.644   3.644 -0.9768  0.1439  0.9681
 8460TIP3    H225338   2.985   0.723   3.727  0.3418  1.0881 -1.4238
 8461TIP3   OH225339   7.127   1.427   1.875  0.0810  0.4339 -0.3069
 8461TIP3    H125340   7.168   1.487   1.812 -2.0386  3.1238  0.6959
 8461TIP3    H225341   7.036   1.420   1.846 -0.2882 -0.4045  0.9707
 8462TIP3   OH225342   0.265   1.969   3.059 -0.3446  0.2879  0.0912
 8462TIP3    H125343   0.217   1.973   3.141 -1.3596  1.1727 -0.5266
 8462TIP3    H225344   0.266   2.059   3.027 -0.0085 -0.0531 -0.9026
 8463TIP3   OH225345   2.303   2.144   5.790  0.0931 -0.0268  0.2557
 8463TIP3    H125346   2.244   2.161   5.716  2.1249 -0.0467 -1.4705
 8463TIP3    H225347   2.382   2.109   5.750  1.4137  0.2736  2.4331
 8464TIP3   OH225348   1.067   5.797   5.571  0.6594  0.3843  0.0667
 8464TIP3    H125349   1.102   5.792   5.482 -2.2437 -0.3409 -1.1351
 8464TIP3    H225350   1.069   5.707   5.603  0.6690  0.4755  0.3338
 8465TIP3   OH225351   6.197   6.833   5.347 -0.0108 -0.2194  0.4218
 8465TIP3    H125352   6.136   6.890   5.394  0.1849 -0.8965  1.5294
 8465TIP3    H225353   6.181   6.851   5.254 -1.8121 -0.2883  0.6952
 8466TIP3   OH225354   3.228   0.497   2.867  0.2885  0.7123  0.4107
 8466TIP3    H125355   3.254   0.406   2.881  0.2786  0.0903 -2.8139
 8466TIP3    H225356   3.273   0.523   2.787 -0.3344  3.3334  0.7965
 8467TIP3   OH225357   5.545   5.390   6.326  0.0559  0.1780 -0.3639
 8467TIP3    H125358   5.579   5.367   6.413  0.8938  0.8955 -0.4805
 8467TIP3    H225359   5.451   5.373   6.331 -0.0025  0.7338  0.8738
 8468TIP3   OH225360   2.368   7.652   1.929 -0.1565  0.7533 -0.5857
 8468TIP3    H125361   2.335   7.654   2.019 -0.3727 -0.4279 -0.6219
 8468TIP3    H225362   2.362   7.742   1.899  1.7486  1.6006  1.2417
 8469TIP3   OH225363   1.161   2.151   6.586 -0.3774 -0.1409  0.2809
 8469TIP3    H125364   1.115   2.214   6.530 -0.3100 -1.0974 -0.9097
 8469TIP3    H225365   1.097   2.083   6.604  0.1929 -0.8703 -0.3717
 8470TIP3   OH225366   6.863   5.056   3.921  0.3956 -0.5251 -0.0489
 8470TIP3    H125367   6.854   4.975   3.870 -1.2474 -0.8730  0.7194
 8470TIP3    H225368   6.952   5.053   3.956  0.2254 -2.2236  0.3215
 8471TIP3   OH225369   1.552   5.181   4.210 -0.1997  0.3623 -0.4709
 8471TIP3    H125370   1.511   5.126   4.276  1.6702 -1.3366 -0.6019
 8471TIP3    H225371   1.644   5.153   4.210  0.3867  2.0968 -1.9979
 8472TIP3   OH225372   7.902   1.798   2.959 -0.2249 -0.1187  0.6771
 8472TIP3    H125373   7.993   1.810   2.935 -0.4301  1.1545  0.4183
 8472TIP3    H225374   7.903   1.791   3.055  0.1710 -0.4250  0.6513
 8473TIP3   OH225375   2.126   3.942   4.452  0.2098 -0.3431 -0.2198
 8473TIP3    H125376   2.049   3.978   4.407 -0.5617 -0.0851  1.2058
 8473TIP3    H225377   2.199   3.957   4.392 -0.3054  2.3808 -0.3247
 8474TIP3   OH225378   1.134   1.679   2.126 -0.2987 -0.4140 -0.0543
 8474TIP3    H125379   1.223   1.715   2.120 -0.3453 -0.5451 -2.4987
 8474TIP3    H225380   1.079   1.755   2.148  0.3358 -0.2720  1.1559
 8475TIP3   OH225381   0.753   5.094   1.663  0.0465  0.3191  0.2198
 8475TIP3    H125382   0.677   5.151   1.652  0.0217  0.6007  1.6777
 8475TIP3    H225383   0.793   5.090   1.576 -0.5023  1.7781 -0.1218
 8476TIP3   OH225384   1.068   4.627   4.299 -0.1565  0.3964 -0.1959
 8476TIP3    H125385   1.061   4.710   4.346 -0.8772 -0.0173  0.4468
 8476TIP3    H225386   1.107   4.566   4.362  0.5548  0.2863 -0.7270
 8477TIP3   OH225387   7.430   2.674   6.139  0.1772  0.0634 -0.2364
 8477TIP3    H125388   7.422   2.660   6.234  1.4461  1.2789  0.1007
 8477TIP3    H225389   7.350   2.720   6.115 -0.6959 -1.2937 -0.0004
 8478TIP3   OH225390   0.120   7.568   5.349  0.0362  0.2173  0.3401
 8478TIP3    H125391   0.109   7.620   5.428  1.6461 -0.0576  0.7809
 8478TIP3    H225392   0.215   7.551   5.344 -0.1339 -0.4749 -1.1880
 8479TIP3   OH225393   6.645   0.554   5.861  0.0571  0.3314 -0.2159
 8479TIP3    H125394   6.736   0.579   5.873  0.1102  0.3306 -0.6041
 8479TIP3    H225395   6.630   0.486   5.927  0.6586 -0.4626 -0.8835
 8480TIP3   OH225396   0.510   3.449   1.543  0.6697 -0.3904 -0.7289
 8480TIP3    H125397   0.418   3.474   1.540  0.4185 -1.3945 -1.9290
 8480TIP3    H225398   0.541   3.481   1.628 -1.2799 -1.7880  0.5742
 8481TIP3   OH225399   7.379   4.634   5.027 -0.2206  0.1379 -0.1686
 8481TIP3    H125400   7.342   4.546   5.020 -1.5729  0.2913  3.2962
 8481TIP3    H225401   7.328   4.687   4.965 -0.2127 -1.2107 -1.3811
 8482TIP3   OH225402   7.140   5.091   0.442 -0.4071  0.2703  0.2885
 8482TIP3    H125403   7.199   5.049   0.505 -0.6987 -0.8823 -0.1738
 8482TIP3    H225404   7.194   5.156   0.398  0.4321 -0.5200  0.1218
 8483TIP3   OH225405   8.206   2.670   2.645 -0.4429 -0.3036  0.0347
 8483TIP3    H125406   8.185   2.580   2.616  1.5960  0.0145 -2.9579
 8483TIP3    H225407   8.145   2.725   2.596 -0.3945  0.0381  0.3595
 8484TIP3   OH225408   1.014   6.566   6.658  0.0172 -0.2076 -0.6914
 8484TIP3    H125409   0.932   6.598   6.622  0.4717  0.9841 -0.6929
 8484TIP3    H225410   0.992   6.481   6.695 -1.8799  1.2516  1.7972
 8485TIP3   OH225411   1.990   5.958   4.663  0.6288 -0.2059 -0.0946
 8485TIP3    H125412   2.000   5.914   4.579  1.4259  0.7059 -0.4975
 8485TIP3    H225413   2.068   6.012   4.671 -0.7428  1.9273 -0.1095
 8486TIP3   OH225414   4.052   7.331   3.723 -0.3673 -0.3361  0.1245
 8486TIP3    H125415   3.967   7.315   3.681 -1.0092 -0.2451  1.3427
 8486TIP3    H225416   4.061   7.426   3.725 -1.5686 -0.1844  2.4332
 8487TIP3   OH225417   4.326   0.794   6.332  0.1681 -0.1511 -0.3782
 8487TIP3    H125418   4.409   0.750   6.353  0.5279  0.8012  0.2681
 8487TIP3    H225419   4.316   0.781   6.238  0.5951 -1.0442 -0.3100
 8488TIP3   OH225420   4.857   2.228   6.602  0.4943  0.8323 -0.0250
 8488TIP3    H125421   4.772   2.269   6.618  0.5328  1.0630 -0.4085
 8488TIP3    H225422   4.845   2.137   6.629 -0.1068  0.6699 -0.7945
 8489TIP3   OH225423   1.733   3.202   0.552 -0.0336 -0.1529 -0.0626
 8489TIP3    H125424   1.816   3.244   0.531 -0.0203  0.2590  0.7870
 8489TIP3    H225425   1.675   3.227   0.480  0.4647 -0.1290 -0.4602
 8490TIP3   OH225426   7.425   7.650   5.172 -0.4534 -0.5284 -0.0032
 8490TIP3    H125427   7.396   7.724   5.119  0.9447 -0.8730 -1.3093
 8490TIP3    H225428   7.496   7.686   5.226 -0.3375 -0.7184 -0.0288
 8491TIP3   OH225429   3.258   5.716   3.353  0.3548  0.0154  0.1827
 8491TIP3    H125430   3.330   5.767   3.390  0.1100  0.0433  0.6317
 8491TIP3    H225431   3.190   5.719   3.420 -0.2877  0.4791 -0.4892
 8492TIP3   OH225432   2.334   3.700   2.849 -0.4312  0.2457 -0.5643
 8492TIP3    H125433   2.247   3.737   2.865 -0.3187 -0.2127  1.2874
 8492TIP3    H225434   2.331   3.613   2.890  1.4035  0.8642  1.0230
 8493TIP3   OH225435   7.564   5.193   0.915 -0.3908 -0.5400 -0.0729
 8493TIP3    H125436   7.606   5.260   0.861 -1.3985  0.6434  0.5434
 8493TIP3    H225437   7.633   5.164   0.975 -0.0390  0.2846 -0.0606
 8494TIP3   OH225438   5.396   1.000   3.058  0.4212 -0.0626 -0.0940
 8494TIP3    H125439   5.320   1.057   3.048 -0.3671 -1.1642 -0.5041
 8494TIP3    H225440   5.465   1.059   3.089 -0.6466  0.9223  0.5204
 8495TIP3   OH225441   2.680   3.115   4.392 -0.2367 -0.3498  0.4904
 8495TIP3    H125442   2.706   3.089   4.303 -0.7305  0.2662  0.1608
 8495TIP3    H225443   2.637   3.037   4.427 -0.2593 -0.5167  0.1017
 8496TIP3   OH225444   0.294   6.049   4.879  0.2343  0.0051 -0.0594
 8496TIP3    H125445   0.241   6.028   4.802  1.0714 -0.9948 -0.3892
 8496TIP3    H225446   0.363   6.107   4.845 -0.5784  1.2772  0.3622
 8497TIP3   OH225447   4.272   3.188   3.381 -0.0433 -0.3561  0.3291
 8497TIP3    H125448   4.305   3.115   3.434  0.0145 -0.6012 -0.0357
 8497TIP3    H225449   4.310   3.266   3.421  0.0116 -0.5388  0.6389
 8498TIP3   OH225450   7.636   1.523   4.496 -0.3762  0.2515 -0.1413
 8498TIP3    H125451   7.704   1.566   4.443 -0.3890 -0.3624 -0.6568
 8498TIP3    H225452   7.658   1.547   4.586  0.0457  0.7364 -0.3686
 8499TIP3   OH225453   2.083   4.104   1.049 -0.2253 -0.1296 -0.3157
 8499TIP3    H125454   2.122   4.152   0.977 -1.7802 -0.2552 -1.2840
 8499TIP3    H225455   2.030   4.169   1.096  1.3818  0.1380  1.2298
 8500TIP3   OH225456   6.289   0.742   0.183  0.4400  0.1616  0.2533
 8500TIP3    H125457   6.243   0.797   0.248 -0.9077 -2.9713  2.2057
 8500TIP3    H225458   6.218   0.701   0.133  1.2501 -1.5461  0.4490
 8501TIP3   OH225459   2.908   0.640   6.103  0.0286 -0.0731  0.8325
 8501TIP3    H125460   2.857   0.674   6.030  1.3399  0.3149  0.0518
 8501TIP3    H225461   2.910   0.711   6.167  0.8918  0.5253  0.1695
 8502TIP3   OH225462   3.297   7.382   2.592 -0.1113 -0.3844 -0.5466
 8502TIP3    H125463   3.251   7.437   2.655  0.3414 -0.3027 -0.2814
 8502TIP3    H225464   3.370   7.436   2.561  1.9890 -1.6970  1.7396
 8503TIP3   OH225465   5.773   7.618   0.520  0.3089 -0.0010 -0.2974
 8503TIP3    H125466   5.751   7.560   0.448  0.1203 -0.6028  0.2381
 8503TIP3    H225467   5.811   7.695   0.478 -0.9043  0.1788 -1.1102
 8504TIP3   OH225468   0.477   6.941   5.133  0.1416  0.5004  0.1347
 8504TIP3    H125469   0.573   6.944   5.128  0.2069  0.5693  1.1475
 8504TIP3    H225470   0.450   7.032   5.119 -0.0289 -0.0178 -3.7072
 8505TIP3   OH225471   2.139   5.110   4.818  0.2610 -0.2100 -0.2862
 8505TIP3    H125472   2.114   5.071   4.734 -0.4367 -0.7564  0.1642
 8505TIP3    H225473   2.184   5.039   4.864  0.7823  0.1375 -0.2645
 8506TIP3   OH225474   8.027   6.429   3.855  0.0296 -0.1051  0.1160
 8506TIP3    H125475   7.980   6.346   3.840  0.5465 -0.4615  0.4164
 8506TIP3    H225476   8.119   6.404   3.852  0.2143  0.6285 -0.7025
 8507TIP3   OH225477   2.490   6.519   4.240  0.2475 -0.2806 -0.0972
 8507TIP3    H125478   2.411   6.571   4.223 -1.2667 -1.6911  2.0573
 8507TIP3    H225479   2.558   6.561   4.188 -1.4782  2.1752 -0.5544
 8508TIP3   OH225480   4.962   7.026   3.245  0.2111  0.5441  0.0148
 8508TIP3    H125481   5.012   6.967   3.302 -1.7472  0.2198  1.4838
 8508TIP3    H225482   4.994   7.113   3.266  0.9417  0.2621  0.0912
 8509TIP3   OH225483   0.684   3.318   6.061  0.5174  0.0516  0.5269
 8509TIP3    H125484   0.778   3.306   6.047  0.7157  2.1641 -0.4263
 8509TIP3    H225485   0.679   3.381   6.134  0.1278  3.5781 -2.2540
 8510TIP3   OH225486   2.424   6.076   4.457 -0.1109  0.0507  0.2334
 8510TIP3    H125487   2.425   6.154   4.402 -0.9671 -0.5438 -0.6566
 8510TIP3    H225488   2.516   6.056   4.473  0.1368  2.0416  1.6717
 8511TIP3   OH225489   6.743   5.783   0.323  0.3156  0.6078 -0.4780
 8511TIP3    H125490   6.779   5.697   0.299  1.3784  0.3992  1.6541
 8511TIP3    H225491   6.794   5.845   0.270  0.9937  0.0469 -0.5060
 8512TIP3   OH225492   0.384   6.198   2.478  0.1491  0.3684  0.1766
 8512TIP3    H125493   0.465   6.147   2.477 -0.5437 -0.7669 -0.5003
 8512TIP3    H225494   0.317   6.135   2.505 -0.9376  0.5815 -1.8686
 8513TIP3   OH225495   7.239   1.443   4.709 -0.6368 -0.2426  0.1327
 8513TIP3    H125496   7.299   1.495   4.656  0.3374 -0.4545  0.9943
 8513TIP3    H225497   7.228   1.361   4.660  0.9236 -0.7853  0.6187
 8514TIP3   OH225498   7.455   3.089   4.671  0.5145 -0.3259 -0.3104
 8514TIP3    H125499   7.543   3.118   4.692  0.2946 -0.0549  0.2778
 8514TIP3    H225500   7.451   2.998   4.701  0.2763 -0.0133  0.6573
 8515TIP3   OH225501   1.558   4.966   3.579  0.3733 -0.0680 -0.0020
 8515TIP3    H125502   1.559   5.059   3.602  0.7966 -0.2656  0.8195
 8515TIP3    H225503   1.469   4.936   3.600 -0.7204  0.7574 -2.9368
 8516TIP3   OH225504   6.099   4.757   5.525  0.4310 -0.9089  0.0449
 8516TIP3    H125505   6.122   4.789   5.438  0.2434 -1.8228 -0.3531
 8516TIP3    H225506   6.150   4.677   5.536  1.4813 -0.1130  1.3384
 8517TIP3   OH225507   6.648   5.326   2.503 -0.4211  0.1343  0.0885
 8517TIP3    H125508   6.697   5.271   2.565 -0.9652 -0.2674  0.1655
 8517TIP3    H225509   6.698   5.408   2.500  0.1285 -0.1865  0.3431
 8518TIP3   OH225510   4.094   3.491   4.595  0.0891  0.0607  0.1130
 8518TIP3    H125511   4.154   3.565   4.586  0.5595 -0.0284  2.0466
 8518TIP3    H225512   4.148   3.414   4.575  0.0478  0.1272 -0.2527
 8519TIP3   OH225513   4.651   2.374   5.637 -0.4263 -0.1543  0.0512
 8519TIP3    H125514   4.655   2.469   5.649  0.7297 -0.2998  0.9857
 8519TIP3    H225515   4.720   2.339   5.694  1.1988 -1.3425 -2.4445
 8520TIP3   OH225516   6.240   0.079   2.025 -0.2600 -0.4920 -0.0067
 8520TIP3    H125517   6.238   0.011   2.092  1.8655 -0.4652  0.1546
 8520TIP3    H225518   6.279   0.037   1.948 -2.7439 -0.5527 -1.3480
 8521TIP3   OH225519   7.542   3.098   5.023  0.3949  0.1153  0.3096
 8521TIP3    H125520   7.465   3.072   5.073  0.2016  0.0510 -0.0209
 8521TIP3    H225521   7.540   3.193   5.023  0.5293  0.1197  0.6303
 8522TIP3   OH225522   6.764   3.201   0.441  0.0808  0.1142  0.5427
 8522TIP3    H125523   6.769   3.111   0.408  1.0001 -0.4858  2.2188
 8522TIP3    H225524   6.728   3.193   0.529 -0.5635  1.4811  0.4341
 8523TIP3   OH225525   8.044   1.926   4.475  0.5282 -0.4899 -0.0810
 8523TIP3    H125526   8.087   1.845   4.449  1.6569 -0.0623  0.3896
 8523TIP3    H225527   8.024   1.969   4.392  1.6760 -0.3751 -0.3166
 8524TIP3   OH225528   1.795   1.886   1.985 -0.1272  0.6280 -0.0864
 8524TIP3    H125529   1.830   1.828   2.053 -0.4313 -1.2120 -1.4281
 8524TIP3    H225530   1.867   1.947   1.967 -0.2251  1.5534  2.2104
 8525TIP3   OH225531   0.057   2.020   2.789 -0.0204  0.6390 -0.9510
 8525TIP3    H125532   0.007   2.086   2.836 -2.1428 -2.0599  0.9067
 8525TIP3    H225533  -0.004   1.984   2.725  0.3717 -0.8448 -0.5431
 8526TIP3   OH225534   4.757   5.644   0.344 -0.2251  0.1070  0.3652
 8526TIP3    H125535   4.803   5.581   0.287  0.3020  1.7143 -1.0677
 8526TIP3    H225536   4.823   5.710   0.365 -0.8871  0.4398  1.4751
 8527TIP3   OH225537   7.039   4.085   4.422 -0.4493  0.0564 -0.0682
 8527TIP3    H125538   6.967   4.035   4.460  0.3376 -1.0965 -0.0522
 8527TIP3    H225539   7.001   4.125   4.343 -1.0952 -0.5848 -0.0935
 8528TIP3   OH225540   7.494   1.594   2.580  0.3545  0.6445  0.0096
 8528TIP3    H125541   7.436   1.669   2.591 -0.8245 -0.2425 -0.0345
 8528TIP3    H225542   7.467   1.555   2.497 -0.5000 -1.0492  1.0211
 8529TIP3   OH225543   3.450   6.262   4.556 -0.5445 -0.1892  0.2824
 8529TIP3    H125544   3.534   6.277   4.598  0.2777 -0.6984 -1.1053
 8529TIP3    H225545   3.421   6.349   4.529  0.4520 -0.1912 -0.8670
 8530TIP3   OH225546   6.667   5.584   3.963  0.2812 -0.3344  0.6189
 8530TIP3    H125547   6.616   5.520   4.013  1.9669 -1.9611  0.3526
 8530TIP3    H225548   6.736   5.612   4.024 -0.0642  0.7741  0.5185
 8531TIP3   OH225549   6.078   6.895   3.588 -0.0038 -0.4870  0.0454
 8531TIP3    H125550   6.015   6.870   3.656 -1.7764 -0.1823 -1.4238
 8531TIP3    H225551   6.157   6.844   3.608 -0.7662 -1.0451  1.8081
 8532TIP3   OH225552   6.205   7.324   5.498  0.4964  0.3061 -0.1471
 8532TIP3    H125553   6.270   7.351   5.433  1.0186  1.8303  0.9662
 8532TIP3    H225554   6.254   7.319   5.580 -0.5198  0.1589  0.4591
 8533TIP3   OH225555   3.325   7.699   1.133 -0.2075  0.2523 -0.4519
 8533TIP3    H125556   3.384   7.624   1.126 -2.0568 -1.3672  0.4362
 8533TIP3    H225557   3.271   7.681   1.210 -0.9558  2.3455 -0.4030
 8534TIP3   OH225558   5.809   2.551   1.610  0.1146 -0.2446 -0.4168
 8534TIP3    H125559   5.798   2.643   1.633 -1.4842  0.1669 -2.5849
 8534TIP3    H225560   5.743   2.505   1.662  1.1478 -0.2696  0.9346
 8535TIP3   OH225561   8.054   1.157   4.532 -0.1641 -0.7921 -0.0930
 8535TIP3    H125562   8.122   1.132   4.595 -0.0072  2.0761  1.0283
 8535TIP3    H225563   8.004   1.226   4.577 -1.0431  0.2515 -2.5169
 8536TIP3   OH225564   1.951   5.646   2.679  0.6290  0.0229 -0.2058
 8536TIP3    H125565   1.911   5.568   2.718  1.7411 -0.8566 -0.7925
 8536TIP3    H225566   1.981   5.697   2.755 -1.7426  0.8496  0.2781
 8537TIP3   OH225567   6.757   2.529   2.504  0.0914  0.2255 -0.2587
 8537TIP3    H125568   6.763   2.525   2.600 -2.5442 -0.3546 -0.0542
 8537TIP3    H225569   6.843   2.497   2.474  0.4552 -1.0572  1.9069
 8538TIP3   OH225570   6.657   4.264   2.157  0.5381  0.1084  0.2653
 8538TIP3    H125571   6.700   4.225   2.081  1.3750  0.7151  0.4091
 8538TIP3    H225572   6.729   4.284   2.217 -0.2093 -1.6367  1.8368
 8539TIP3   OH225573   7.070   1.501   5.424 -0.4830 -0.0003 -0.1581
 8539TIP3    H125574   7.166   1.497   5.426 -0.4366  1.0361  0.5857
 8539TIP3    H225575   7.048   1.578   5.477 -1.7924 -0.8973  0.6462
 8540TIP3   OH225576   6.042   7.726   2.269  0.2028 -0.7989  0.2442
 8540TIP3    H125577   6.098   7.649   2.276 -0.4335 -1.1240  2.4138
 8540TIP3    H225578   5.977   7.703   2.203  2.3754 -0.5118 -2.1391
 8541TIP3   OH225579   8.218   1.834   4.180  0.4516  0.0946 -0.2264
 8541TIP3    H125580   8.247   1.743   4.181  4.4716  1.1528 -0.8446
 8541TIP3    H225581   8.270   1.876   4.250 -0.0584  2.1880 -1.0317
 8542TIP3   OH225582   5.081   4.058   0.460  0.0239 -0.0652 -0.1469
 8542TIP3    H125583   5.161   4.109   0.451  0.2241 -0.0359  1.5401
 8542TIP3    H225584   5.013   4.122   0.477 -0.1578 -0.1879 -0.3982
 8543TIP3   OH225585   6.942   2.159   2.339 -0.3167 -0.4104  0.1511
 8543TIP3    H125586   6.880   2.214   2.291 -0.6452 -1.1590 -0.3105
 8543TIP3    H225587   7.019   2.154   2.282  0.0697  0.2991  0.6025
 8544TIP3   OH225588   0.239   0.983   5.549  0.2605 -0.1991 -0.3492
 8544TIP3    H125589   0.182   0.992   5.473  1.0889 -0.8667 -1.0689
 8544TIP3    H225590   0.191   0.923   5.607 -0.8144  1.0622  0.1181
 8545TIP3   OH225591   8.240   5.237   3.560  0.4531 -0.2607  0.4593
 8545TIP3    H125592   8.216   5.328   3.544  1.9009  0.1147  0.2900
 8545TIP3    H225593   8.258   5.232   3.654 -1.6497 -0.9048  0.8834
 8546TIP3   OH225594   2.942   6.008   5.754  0.5100  0.6160  0.2190
 8546TIP3    H125595   2.892   5.948   5.810 -0.0769  0.6648 -0.2480
 8546TIP3    H225596   2.896   6.007   5.671  1.8854 -0.1394 -0.5692
 8547TIP3   OH225597   2.210   0.262   5.805 -0.2354 -0.1683  0.0491
 8547TIP3    H125598   2.238   0.173   5.782 -1.0976 -0.5700  0.5197
 8547TIP3    H225599   2.278   0.294   5.864 -1.1328 -1.4598  1.8826
 8548TIP3   OH225600   5.523   5.125   1.242  0.3082 -0.2391 -0.2581
 8548TIP3    H125601   5.501   5.096   1.153  1.3539  0.1648 -0.6587
 8548TIP3    H225602   5.460   5.079   1.298 -2.0092  1.3489 -1.3861
 8549TIP3   OH225603   0.877   1.596   1.952  0.0788  0.1337 -0.0604
 8549TIP3    H125604   0.973   1.601   1.954  0.1483 -0.8723  1.9822
 8549TIP3    H225605   0.849   1.681   1.986  0.2517  0.4182 -0.6270
 8550TIP3   OH225606   4.217   2.847   4.660 -0.5497 -0.4340  0.3994
 8550TIP3    H125607   4.216   2.868   4.754 -0.2018  0.7358  0.1614
 8550TIP3    H225608   4.129   2.813   4.642 -0.2631 -1.7429  1.3635
 8551TIP3   OH225609   8.175   6.803   0.758  0.0529 -0.2692 -0.1216
 8551TIP3    H125610   8.269   6.801   0.742  0.3352  0.4997  1.2382
 8551TIP3    H225611   8.150   6.712   0.772  0.7547 -0.3960  0.3163
 8552TIP3   OH225612   2.648   1.999   4.072  0.1422  0.0048 -0.3456
 8552TIP3    H125613   2.732   1.964   4.101 -0.8759 -1.1106  1.5039
 8552TIP3    H225614   2.651   2.092   4.095  0.7735 -0.0911 -0.0252
 8553TIP3   OH225615   6.685   6.183   3.055 -0.1312  0.4360  0.5782
 8553TIP3    H125616   6.723   6.238   2.987 -0.0302 -0.4328 -0.0834
 8553TIP3    H225617   6.734   6.205   3.134 -1.1684  2.4678  0.7066
 8554TIP3   OH225618   7.739   5.155   4.391 -0.5048  0.2500  0.0393
 8554TIP3    H125619   7.806   5.182   4.454 -1.4815 -2.8423  2.6981
 8554TIP3    H225620   7.656   5.174   4.436 -1.2463 -1.2917 -0.6028
 8555TIP3   OH225621   4.123   2.507   6.365  0.1768 -0.3897  0.8540
 8555TIP3    H125622   4.153   2.445   6.431  0.9186 -0.7953  0.1690
 8555TIP3    H225623   4.067   2.456   6.307 -0.2924 -0.0911  1.0376
 8556TIP3   OH225624   0.863   6.669   3.399  0.2332  0.1496 -0.2499
 8556TIP3    H125625   0.852   6.597   3.461 -0.6024  0.7857  0.3687
 8556TIP3    H225626   0.785   6.724   3.411  1.6246  2.0887  0.5327
 8557TIP3   OH225627   2.682   1.407   0.377  0.7090  0.0566  0.0452
 8557TIP3    H125628   2.741   1.346   0.333 -1.1217 -1.3831 -0.5264
 8557TIP3    H225629   2.626   1.352   0.432  0.2489  1.4239  1.0189
 8558TIP3   OH225630   5.821   4.551   6.635 -0.0735 -0.0134 -0.1739
 8558TIP3    H125631   5.874   4.549   6.556 -2.3264 -0.5270 -1.7581
 8558TIP3    H225632   5.731   4.543   6.604 -0.9930 -1.2888  2.5030
 8559TIP3   OH225633   3.332   3.247   1.977 -0.0048 -0.1985  0.4315
 8559TIP3    H125634   3.259   3.208   1.930 -1.0726 -0.5147  2.2682
 8559TIP3    H225635   3.298   3.265   2.064  1.6634  1.1119  0.8700
 8560TIP3   OH225636   2.378   3.442   1.389  0.6731  0.2468  0.1843
 8560TIP3    H125637   2.330   3.489   1.321  1.3185 -2.2648 -2.1662
 8560TIP3    H225638   2.464   3.483   1.390  0.6529  0.3205 -0.5286
 8561TIP3   OH225639   3.560   0.859   5.191 -0.0470 -0.4756 -0.5084
 8561TIP3    H125640   3.609   0.938   5.212 -0.0415 -0.5782 -0.1199
 8561TIP3    H225641   3.595   0.830   5.107  0.2709 -0.3225 -0.4300
 8562TIP3   OH225642   0.705   3.630   4.843  0.2002  0.2215  0.2407
 8562TIP3    H125643   0.682   3.703   4.785 -1.4152  0.4906  1.1740
 8562TIP3    H225644   0.792   3.653   4.876  0.0628  1.3293 -0.1069
 8563TIP3   OH225645   4.157   3.736   4.732 -0.3678 -0.6692 -0.5642
 8563TIP3    H125646   4.186   3.678   4.803 -1.4697 -3.3442 -2.1621
 8563TIP3    H225647   4.235   3.786   4.709  0.7384 -1.7100  0.7160
 8564TIP3   OH225648   7.293   7.768   0.460 -0.1765  0.4068  0.0369
 8564TIP3    H125649   7.374   7.788   0.508 -0.7495 -0.3378  1.3846
 8564TIP3    H225650   7.287   7.837   0.394  0.9107  1.2152  0.7323
 8565TIP3   OH225651   3.304   4.818   2.979 -0.4378  0.3856  0.3070
 8565TIP3    H125652   3.219   4.838   3.019 -0.6435 -0.9251  0.5756
 8565TIP3    H225653   3.283   4.802   2.887 -0.1860  1.9226 -0.0369
 8566TIP3   OH225654   6.315   6.641   3.144  0.2410  0.1756  0.3345
 8566TIP3    H125655   6.371   6.575   3.104  0.1556  0.5150 -0.3737
 8566TIP3    H225656   6.307   6.709   3.076 -0.1334  0.6379  0.8355
 8567TIP3   OH225657   3.017   5.343   0.720 -0.3777  0.4734 -0.0375
 8567TIP3    H125658   2.945   5.384   0.768 -1.1602  2.1694 -2.4806
 8567TIP3    H225659   2.975   5.299   0.647  0.9652  0.3521 -0.7740
 8568TIP3   OH225660   7.259   7.165   3.059  0.1319 -0.3060 -0.2245
 8568TIP3    H125661   7.275   7.101   3.128 -0.7564  0.0137  0.2999
 8568TIP3    H225662   7.218   7.239   3.105 -0.2868 -0.0066 -1.0634
 8569TIP3   OH225663   3.845   3.046   1.342 -0.1711  0.2282  0.1398
 8569TIP3    H125664   3.754   3.071   1.361 -0.4441 -0.6274  0.0274
 8569TIP3    H225665   3.847   3.034   1.247  0.8532  3.2008 -0.3036
 8570TIP3   OH225666   3.449   7.623   2.487 -0.2799 -0.5504  0.5158
 8570TIP3    H125667   3.541   7.648   2.471  0.1787 -2.7493 -0.5640
 8570TIP3    H225668   3.423   7.679   2.561  1.1226  1.8716 -0.6779
 8571TIP3   OH225669   7.008   3.595   5.666  0.0211 -0.2876 -0.5804
 8571TIP3    H125670   7.032   3.660   5.732  0.3311  0.3449 -1.3002
 8571TIP3    H225671   6.969   3.523   5.716 -0.4631  0.5113  0.2144
 8572TIP3   OH225672   1.356   2.497   4.182 -0.1090 -0.4452  0.0861
 8572TIP3    H125673   1.319   2.424   4.232 -0.4509  0.9872  2.0758
 8572TIP3    H225674   1.298   2.571   4.201 -0.0140  0.2998 -2.2011
 8573TIP3   OH225675   5.169   1.763   3.041  0.2165  0.1081 -0.1185
 8573TIP3    H125676   5.185   1.784   2.949  1.1131 -0.7654 -0.1749
 8573TIP3    H225677   5.249   1.720   3.071 -0.2712 -0.1254  0.9255
 8574TIP3   OH225678   5.322   6.958   0.978 -0.2772  0.7499 -0.2196
 8574TIP3    H125679   5.343   6.958   1.072 -0.4148 -0.5633 -0.1757
 8574TIP3    H225680   5.260   7.030   0.968 -1.4507 -0.0456  0.9890
 8575TIP3   OH225681   1.876   3.355   2.224 -0.4115 -0.1854 -0.0192
 8575TIP3    H125682   1.880   3.439   2.179 -1.3605 -1.1134 -1.9662
 8575TIP3    H225683   1.965   3.320   2.218  0.2470  1.0622  1.7018
 8576TIP3   OH225684   0.184   7.198   3.163  0.4155 -0.5245 -0.0956
 8576TIP3    H125685   0.271   7.230   3.141 -0.0130  1.3712  0.7457
 8576TIP3    H225686   0.188   7.104   3.147  2.6303 -0.4939 -0.0155
 8577TIP3   OH225687   6.644   3.146   4.635 -0.2956  0.3572 -0.7001
 8577TIP3    H125688   6.585   3.217   4.657 -0.0733 -0.1067  1.7216
 8577TIP3    H225689   6.594   3.090   4.576 -1.5373  1.0061 -0.2905
 8578TIP3   OH225690   2.447   7.517   4.364  0.4167 -0.0577  0.0489
 8578TIP3    H125691   2.367   7.470   4.387  0.0819  0.8121  0.7225
 8578TIP3    H225692   2.497   7.519   4.446 -0.3821  2.3029  0.5612
 8579TIP3   OH225693   5.362   0.462   4.545  0.7445  0.0100 -0.1107
 8579TIP3    H125694   5.456   0.476   4.557  0.5094  0.2765  1.8218
 8579TIP3    H225695   5.324   0.481   4.631 -1.0740 -0.1939 -0.8196
 8580TIP3   OH225696   3.073   6.466   1.053  0.8511  0.0036 -0.0495
 8580TIP3    H125697   3.167   6.449   1.048  0.5693 -1.9240  0.2470
 8580TIP3    H225698   3.056   6.485   1.145  0.8502 -0.4065  0.0365
 8581TIP3   OH225699   8.251   1.782   5.389 -0.6076  0.1952  0.4969
 8581TIP3    H125700   8.292   1.705   5.351 -2.3831 -0.8930  0.6344
 8581TIP3    H225701   8.158   1.759   5.395 -0.9538  1.7425  2.0270
 8582TIP3   OH225702   2.085   0.742   0.079  0.2313 -0.3387  0.2197
 8582TIP3    H125703   1.996   0.768   0.054 -0.0685 -0.3378  1.2513
 8582TIP3    H225704   2.078   0.649   0.100  0.8474 -0.7658 -1.3427
 8583TIP3   OH225705   0.663   3.393   6.592  0.2935  0.2440  0.4431
 8583TIP3    H125706   0.709   3.470   6.557 -0.9533  1.2171  0.8345
 8583TIP3    H225707   0.586   3.385   6.537 -0.7038  0.6193  1.7290
 8584TIP3   OH225708   0.741   2.260   5.410 -0.1666 -0.0667 -0.3138
 8584TIP3    H125709   0.676   2.313   5.363 -1.7085 -1.5713  0.0009
 8584TIP3    H225710   0.697   2.176   5.423  1.0648 -0.4414  1.8192
 8585TIP3   OH225711   6.111   4.407   5.477 -0.6504 -0.2565  0.7679
 8585TIP3    H125712   6.199   4.427   5.447 -0.7304 -0.8172  0.1130
 8585TIP3    H225713   6.123   4.365   5.562 -0.1503 -1.7334  0.0075
 8586TIP3   OH225714   2.304   5.816   4.080 -0.0806  0.5411 -0.3351
 8586TIP3    H125715   2.231   5.756   4.069 -0.6584  1.5028 -2.0258
 8586TIP3    H225716   2.283   5.866   4.159 -1.1564  0.6824 -0.7041
 8587TIP3   OH225717   6.345   5.419   3.382 -0.8105 -0.1198 -0.0066
 8587TIP3    H125718   6.308   5.482   3.322  0.2415 -0.0858 -0.6523
 8587TIP3    H225719   6.345   5.463   3.467  0.5966  1.0820 -0.5747
 8588TIP3   OH225720   7.178   6.946   6.731 -0.6835  0.2021  0.6164
 8588TIP3    H125721   7.159   6.951   6.637 -1.4272  1.5511  0.8128
 8588TIP3    H225722   7.221   6.861   6.742 -4.2383 -1.9655 -0.3074
 8589TIP3   OH225723   7.696   6.440   1.724  0.0142 -0.0458 -0.6718
 8589TIP3    H125724   7.681   6.501   1.796 -0.9208 -1.6278  0.5505
 8589TIP3    H225725   7.673   6.354   1.760 -0.7127 -0.8786 -2.9379
 8590TIP3   OH225726   4.656   5.180   1.358  0.0052 -0.0767 -0.0070
 8590TIP3    H125727   4.583   5.213   1.410  0.0172  0.0644 -0.0798
 8590TIP3    H225728   4.690   5.257   1.313 -2.0716 -0.6345 -2.8176
 8591TIP3   OH225729   1.333   1.137   3.182  0.4286  0.8001  0.4220
 8591TIP3    H125730   1.330   1.218   3.132  0.5206  1.3715  1.3317
 8591TIP3    H225731   1.413   1.093   3.152  0.3595  1.0181 -0.0934
 8592TIP3   OH225732   4.658   3.219   3.408  0.0923  0.1755 -0.0337
 8592TIP3    H125733   4.745   3.189   3.435  1.3649  2.8547 -0.7944
 8592TIP3    H225734   4.649   3.190   3.317  0.6978  0.8099 -0.3062
 8593TIP3   OH225735   0.280   6.435   4.821 -0.1583  0.4106  0.1496
 8593TIP3    H125736   0.318   6.351   4.793  2.3795  1.7752 -0.8735
 8593TIP3    H225737   0.249   6.475   4.740 -1.6871  0.3714  0.6804
 8594TIP3   OH225738   7.136   6.795   0.362 -0.1162  0.0839  0.1276
 8594TIP3    H125739   7.207   6.857   0.348 -0.5531  0.4794 -0.3468
 8594TIP3    H225740   7.076   6.810   0.290  0.7735 -2.3215 -1.2453
 8595TIP3   OH225741   5.253   7.593   0.926 -0.1404 -0.1712 -0.1291
 8595TIP3    H125742   5.172   7.578   0.877  0.8838 -2.6721 -1.2116
 8595TIP3    H225743   5.314   7.629   0.861 -0.0876  0.8341  0.4550
 8596TIP3   OH225744   2.925   6.610   2.359  0.1136 -0.2993 -0.1762
 8596TIP3    H125745   2.885   6.612   2.446 -0.7256  0.6487 -0.5553
 8596TIP3    H225746   2.980   6.532   2.359  0.9896  0.2667  1.5770
 8597TIP3   OH225747   4.059   0.691   3.352 -0.0996 -0.9339 -1.0387
 8597TIP3    H125748   4.123   0.639   3.400  0.4508  0.4517 -0.1973
 8597TIP3    H225749   3.981   0.635   3.347  0.9923 -2.4726 -1.6899
 8598TIP3   OH225750   5.964   0.600   1.770  0.1286  0.0859 -0.0925
 8598TIP3    H125751   6.060   0.597   1.774  0.1910 -0.0301 -1.4713
 8598TIP3    H225752   5.936   0.550   1.847  1.1751 -2.3995 -1.2180
 8599TIP3   OH225753   6.220   6.452   0.853  0.9930  0.4878  0.0779
 8599TIP3    H125754   6.209   6.380   0.791 -0.6858  0.5881  0.2097
 8599TIP3    H225755   6.278   6.417   0.921 -0.2471 -0.9580  0.4399
 8600TIP3   OH225756   4.635   6.098   3.493  0.5991 -0.0649  0.0708
 8600TIP3    H125757   4.571   6.129   3.556 -0.1959  1.0630 -1.2356
 8600TIP3    H225758   4.600   6.014   3.462  0.5035 -0.1537  0.4223
 8601TIP3   OH225759   6.765   3.595   1.502 -0.5744  0.0850 -0.0624
 8601TIP3    H125760   6.804   3.584   1.415  0.8702  2.2541  0.2173
 8601TIP3    H225761   6.730   3.685   1.501 -0.3845  0.2094  1.6454
 8602TIP3   OH225762   5.315   0.904   0.630 -0.5866 -0.3114  0.2650
 8602TIP3    H125763   5.404   0.889   0.661 -0.1561  0.1248 -0.7300
 8602TIP3    H225764   5.319   0.986   0.580 -0.2746 -2.7624 -4.3522
 8603TIP3   OH225765   4.765   5.466   4.107 -0.1106  0.0235 -0.1703
 8603TIP3    H125766   4.681   5.442   4.068  0.4896  0.5243 -1.8162
 8603TIP3    H225767   4.766   5.562   4.105  0.7462  0.0108 -0.7220
 8604TIP3   OH225768   0.164   1.302   4.169  0.0379  0.0526  0.4650
 8604TIP3    H125769   0.106   1.275   4.240  0.1095  0.2886  0.6146
 8604TIP3    H225770   0.169   1.226   4.111 -1.7413  0.5645 -0.4211
 8605TIP3   OH225771   1.342   3.744   3.867  0.5167 -0.3723  0.3855
 8605TIP3    H125772   1.437   3.744   3.861  0.4491 -1.4900 -1.4962
 8605TIP3    H225773   1.317   3.836   3.863  1.5188 -0.0025  1.8021
 8606TIP3   OH225774   3.624   0.381   4.052 -0.3866 -0.1239  0.1514
 8606TIP3    H125775   3.633   0.418   3.964  0.4153  1.3872  0.8134
 8606TIP3    H225776   3.715   0.369   4.082 -0.6485 -0.7837  0.7045
 8607TIP3   OH225777   6.107   2.971   5.345  0.2908 -0.2300 -0.4140
 8607TIP3    H125778   6.180   2.994   5.402  1.1044  1.1173 -1.9169
 8607TIP3    H225779   6.089   2.879   5.364  2.8800 -0.8199 -0.5239
 8608TIP3   OH225780   6.742   7.384   0.176  0.7546  0.0806 -1.0354
 8608TIP3    H125781   6.822   7.370   0.227 -0.8978 -0.4264  1.5847
 8608TIP3    H225782   6.748   7.319   0.105  2.3162 -0.4421 -0.4776
 8609TIP3   OH225783   0.450   3.943   6.780 -0.7863  0.0746 -0.5321
 8609TIP3    H125784   0.430   3.856   6.816  0.6383  0.8714  2.5477
 8609TIP3    H225785   0.483   3.925   6.692 -1.0591 -2.4604 -0.1976
 8610TIP3   OH225786   6.026   7.121   1.716 -0.0886  0.8975  0.5264
 8610TIP3    H125787   6.003   7.045   1.663  0.1938  0.3481  1.1733
 8610TIP3    H225788   5.960   7.187   1.695 -0.2512  0.5225 -0.1497
 8611TIP3   OH225789   4.336   7.013   6.056  0.0892  0.6623  0.0757
 8611TIP3    H125790   4.275   7.059   6.113  1.1622 -0.4117  2.1916
 8611TIP3    H225791   4.308   6.922   6.059  0.7759  0.4291 -0.3110
 8612TIP3   OH225792   6.859   7.800   0.746 -0.5705  0.4845  0.0205
 8612TIP3    H125793   6.917   7.737   0.789 -0.6099  0.5482  0.1690
 8612TIP3    H225794   6.917   7.851   0.689 -0.2148  1.5146  1.2465
 8613TIP3   OH225795   7.138   1.044   4.004  0.0964 -0.0078  0.1370
 8613TIP3    H125796   7.099   1.131   3.992  1.9740  0.9021  0.1885
 8613TIP3    H225797   7.204   1.057   4.072  2.6368 -0.6583 -2.0297
 8614TIP3   OH225798   3.985   7.617   5.858 -0.3571 -0.7315 -0.7782
 8614TIP3    H125799   4.077   7.601   5.878 -0.8335 -0.4582  2.0625
 8614TIP3    H225800   3.984   7.647   5.767  2.5450  0.8456 -0.3967
 8615TIP3   OH225801   0.535   0.383   3.503  0.1300  0.3123  0.5218
 8615TIP3    H125802   0.563   0.459   3.452  2.4925 -1.0115 -0.3322
 8615TIP3    H225803   0.577   0.309   3.459  0.4487 -1.1541  3.1101
 8616TIP3   OH225804   4.972   4.871   3.916 -0.0885 -0.1158  0.5214
 8616TIP3    H125805   5.022   4.919   3.982 -1.8688  1.8511  0.5510
 8616TIP3    H225806   5.019   4.886   3.834  0.6647 -0.3075  0.9134
 8617TIP3   OH225807   2.445   3.090   0.586  0.2481 -0.6562 -0.3453
 8617TIP3    H125808   2.528   3.084   0.634 -0.3483  1.3104  1.0705
 8617TIP3    H225809   2.383   3.040   0.639  0.0107 -0.0821 -0.0706
 8618TIP3   OH225810   7.574   0.463   6.728  0.3906  0.1338  0.2604
 8618TIP3    H125811   7.606   0.478   6.639  2.2581 -1.4795  0.5876
 8618TIP3    H225812   7.566   0.368   6.735 -1.1220  0.3050  1.3837
 8619TIP3   OH225813   0.592   0.318   0.130 -0.1373 -0.1083 -0.5694
 8619TIP3    H125814   0.554   0.252   0.072 -0.0641 -1.5905  0.9895
 8619TIP3    H225815   0.577   0.284   0.219  2.2441  0.6537  0.2064
 8620TIP3   OH225816   0.168   3.935   0.771 -0.7227  0.1239 -0.1769
 8620TIP3    H125817   0.187   3.977   0.855 -0.3871 -1.5619  0.6283
 8620TIP3    H225818   0.218   3.986   0.707 -0.2478  0.8856  0.7784
 8621TIP3   OH225819   3.477   2.454   6.684 -0.3783  0.2039 -0.2309
 8621TIP3    H125820   3.482   2.373   6.734 -2.1408  0.7605  0.9338
 8621TIP3    H225821   3.450   2.520   6.748  2.9323  2.2041 -0.6644
 8622TIP3   OH225822   3.261   3.240   0.694  0.3463 -0.2721  0.2491
 8622TIP3    H125823   3.313   3.281   0.625 -1.4785 -0.2546 -1.1881
 8622TIP3    H225824   3.233   3.157   0.658 -0.2452 -0.4884  1.1648
 8623TIP3   OH225825   6.809   2.076   5.184 -0.3478 -0.3440  0.1491
 8623TIP3    H125826   6.716   2.089   5.201 -0.4399 -1.3739  0.4809
 8623TIP3    H225827   6.824   1.982   5.198  0.0251 -0.9465 -3.3181
 8624TIP3   OH225828   4.295   5.005   3.695 -0.6049  0.5857 -0.1770
 8624TIP3    H125829   4.281   5.036   3.785  0.7734 -3.4837  1.6980
 8624TIP3    H225830   4.389   4.990   3.689 -1.0071 -1.9808 -1.2050
 8625TIP3   OH225831   4.794   3.838   1.708  0.9093 -0.1691 -0.2391
 8625TIP3    H125832   4.762   3.786   1.634  1.6654 -0.9166 -0.0586
 8625TIP3    H225833   4.867   3.787   1.743  1.1941  0.6623  0.4122
 8626TIP3   OH225834   3.832   4.152   6.667  0.5069 -0.7906  0.1423
 8626TIP3    H125835   3.758   4.162   6.728  1.3038  1.3898  0.8149
 8626TIP3    H225836   3.903   4.202   6.707  1.7750 -1.2399 -1.4703
 8627TIP3   OH225837   7.267   4.823   3.363  0.0368  0.2113  0.8896
 8627TIP3    H125838   7.222   4.905   3.386  0.8369  1.1386 -0.7059
 8627TIP3    H225839   7.209   4.782   3.298  0.6671  0.6012  0.0650
 8628TIP3   OH225840   5.176   4.987   3.680  0.0965 -0.2949  0.6808
 8628TIP3    H125841   5.097   5.013   3.632  0.7066 -0.5502 -0.5220
 8628TIP3    H225842   5.199   4.902   3.642  1.8402  0.5047 -0.1473
 8629TIP3   OH225843   7.018   6.559   3.815 -0.3036  0.1349 -0.2802
 8629TIP3    H125844   7.039   6.489   3.877 -1.8754  0.0282  0.1589
 8629TIP3    H225845   7.102   6.578   3.772  0.4451 -1.0216  0.5987
 8630TIP3   OH225846   7.859   6.826   4.129  0.8998 -0.2966  0.0359
 8630TIP3    H125847   7.764   6.830   4.138  0.8273 -0.0227 -0.7710
 8630TIP3    H225848   7.874   6.777   4.048  1.5155 -2.8637  1.5982
 8631TIP3   OH225849   7.131   6.233   3.722 -0.5904  0.1325  0.1311
 8631TIP3    H125850   7.171   6.284   3.792 -2.7137 -0.6403  2.0297
 8631TIP3    H225851   7.169   6.145   3.730  0.2122  0.3993 -0.6357
 8632TIP3   OH225852   3.187   3.416   6.685 -0.7737 -0.2081 -0.1658
 8632TIP3    H125853   3.125   3.488   6.691  0.7878  1.1725  0.4242
 8632TIP3    H225854   3.138   3.339   6.713 -2.3647  0.6993 -0.3589
 8633TIP3   OH225855   6.576   0.687   2.409  0.6291 -0.2053  0.2876
 8633TIP3    H125856   6.585   0.782   2.397  0.7032 -0.1039  1.1271
 8633TIP3    H225857   6.499   0.677   2.465  0.9106 -0.6181  0.6096
 8634TIP3   OH225858   2.566   1.259   4.236 -0.4373  0.2301  0.6855
 8634TIP3    H125859   2.473   1.277   4.222  0.0970  1.5545 -1.5044
 8634TIP3    H225860   2.568   1.170   4.272 -2.4777 -0.2583 -0.2911
 8635TIP3   OH225861   0.098   0.388   2.346  0.1504 -0.4978 -0.2611
 8635TIP3    H125862   0.104   0.335   2.425 -1.2690  0.0451  0.2371
 8635TIP3    H225863   0.097   0.325   2.274  1.2932 -0.9993  0.1502
 8636TIP3   OH225864   4.628   3.370   3.652  0.3012 -0.0271 -0.1298
 8636TIP3    H125865   4.620   3.324   3.569 -1.9274 -1.1140  0.5969
 8636TIP3    H225866   4.580   3.452   3.639  0.8264  0.2675 -0.2174
 8637TIP3   OH225867   2.305   2.688   4.676  0.6407  0.0361  0.2923
 8637TIP3    H125868   2.288   2.641   4.594  0.6514 -0.1999  0.4261
 8637TIP3    H225869   2.393   2.660   4.701  1.3988  1.4917 -0.5737
 8638TIP3   OH225870   4.416   6.725   1.525 -0.2944 -0.1130 -0.5331
 8638TIP3    H125871   4.370   6.645   1.499  0.9670 -0.7546 -0.8526
 8638TIP3    H225872   4.489   6.695   1.578 -1.5669  1.0453  2.0598
 8639TIP3   OH225873   3.744   1.721   3.063  0.3216 -0.2518  0.6936
 8639TIP3    H125874   3.730   1.785   2.994 -0.1284 -1.2195 -0.1283
 8639TIP3    H225875   3.715   1.638   3.026  0.5760 -0.8850  1.8556
 8640TIP3   OH225876   4.222   4.082   3.517 -0.2618  0.4223 -0.0908
 8640TIP3    H125877   4.283   4.017   3.481  0.9411  1.1120  0.6463
 8640TIP3    H225878   4.135   4.043   3.504  0.3718 -0.9126 -0.4989
 8641TIP3   OH225879   1.178   4.424   0.882  0.2939 -0.2293  0.0789
 8641TIP3    H125880   1.093   4.397   0.846  0.3526  0.2070 -0.4073
 8641TIP3    H225881   1.192   4.511   0.845  1.7090 -0.9547 -1.1839
 8642TIP3   OH225882   7.400   3.977   5.211 -0.1848 -0.2711  0.3584
 8642TIP3    H125883   7.388   4.001   5.119 -1.3978 -0.5086  0.4468
 8642TIP3    H225884   7.342   3.902   5.225 -0.5417  0.1946  1.4951
 8643TIP3   OH225885   7.617   5.342   6.303  0.5265  0.2227  0.2310
 8643TIP3    H125886   7.613   5.273   6.370 -0.3654 -0.6979 -0.7209
 8643TIP3    H225887   7.706   5.376   6.308  1.3412 -1.7587  0.0266
 8644TIP3   OH225888   2.712   5.176   2.596  0.4067  0.0638 -0.3465
 8644TIP3    H125889   2.717   5.217   2.509 -1.0568  3.8903  1.1823
 8644TIP3    H225890   2.803   5.166   2.623  0.8658  1.4156 -1.2733
 8645TIP3   OH225891   0.416   6.998   2.292  0.5386  0.4098 -0.7199
 8645TIP3    H125892   0.378   6.992   2.205  1.0285  1.2038 -0.9953
 8645TIP3    H225893   0.423   7.092   2.309  0.2210  0.2683  0.2756
 8646TIP3   OH225894   0.374   3.087   4.849 -0.5647  0.3376  0.0945
 8646TIP3    H125895   0.322   3.115   4.925 -1.3512  0.5008 -0.4939
 8646TIP3    H225896   0.454   3.053   4.887 -0.5442  1.2913  0.9595
 8647TIP3   OH225897   3.944   2.478   6.643 -0.0272 -0.3677 -0.3901
 8647TIP3    H125898   3.953   2.573   6.637 -0.0610 -0.3066  0.5292
 8647TIP3    H225899   3.868   2.458   6.587 -0.3044  0.1963 -0.2254
 8648TIP3   OH225900   6.012   0.638   3.271  0.0404 -0.1022  0.2644
 8648TIP3    H125901   6.050   0.561   3.229 -1.2774 -0.9833  0.6166
 8648TIP3    H225902   5.925   0.609   3.298  0.4667  0.7287  2.7077
 8649TIP3   OH225903   4.684   6.053   0.709  0.0533  0.3055 -0.2885
 8649TIP3    H125904   4.596   6.028   0.735  0.2826 -1.5689 -1.1179
 8649TIP3    H225905   4.717   6.105   0.782 -1.8440  1.3658 -0.1318
 8650TIP3   OH225906   5.824   1.083   1.271  0.3908 -0.5866 -0.2433
 8650TIP3    H125907   5.914   1.105   1.294  0.5930 -1.6294 -0.0239
 8650TIP3    H225908   5.780   1.168   1.262  0.9737 -0.1006  1.2935
 8651TIP3   OH225909   2.177   4.586   5.012  0.2639  0.0628 -0.1725
 8651TIP3    H125910   2.101   4.529   5.022  0.3364  0.1199  0.7744
 8651TIP3    H225911   2.240   4.534   4.961 -0.3165 -0.0695 -0.7594
 8652TIP3   OH225912   5.420   6.825   1.235 -0.4451 -0.4886  0.0693
 8652TIP3    H125913   5.481   6.883   1.191 -1.5880  0.2615 -0.5806
 8652TIP3    H225914   5.395   6.871   1.315 -0.6355 -0.5014  0.0189
 8653TIP3   OH225915   2.208   1.524   0.584  0.4889 -0.0350  0.5120
 8653TIP3    H125916   2.148   1.595   0.610  1.1401  0.5545  0.4259
 8653TIP3    H225917   2.291   1.568   0.566  0.7010 -0.7372 -0.2762
 8654TIP3   OH225918   4.004   2.424   2.395  0.2111 -0.3956 -0.5575
 8654TIP3    H125919   3.920   2.445   2.355  1.2553  1.6841 -1.8590
 8654TIP3    H225920   4.057   2.502   2.381  1.3021 -0.2572  3.3256
 8655TIP3   OH225921   4.181   6.264   2.862 -0.3483 -0.3551  0.0330
 8655TIP3    H125922   4.154   6.196   2.924  1.5607 -1.1375  0.0721
 8655TIP3    H225923   4.111   6.266   2.797  0.7489 -4.4778 -1.5939
 8656TIP3   OH225924   1.418   1.359   6.477 -0.0569  0.2204 -0.0832
 8656TIP3    H125925   1.328   1.391   6.481  0.0839  0.8349 -1.2215
 8656TIP3    H225926   1.411   1.271   6.440 -0.2334  0.0591  0.3385
 8657TIP3   OH225927   5.016   5.526   6.075  0.7520 -0.6850 -0.1288
 8657TIP3    H125928   4.945   5.567   6.124  0.1793 -2.3609  0.5006
 8657TIP3    H225929   4.974   5.496   5.994  1.6702  1.9978 -1.7507
 8658TIP3   OH225930   7.882   0.995   4.402  0.1287 -0.3132  0.5023
 8658TIP3    H125931   7.935   0.962   4.330 -0.0235  2.2288 -0.8913
 8658TIP3    H225932   7.936   1.063   4.442 -1.1984  0.8194  0.4430
 8659TIP3   OH225933   1.278   2.917   2.139  0.0512  0.3792 -0.2290
 8659TIP3    H125934   1.184   2.904   2.153  0.0861  2.4156  3.1392
 8659TIP3    H225935   1.319   2.870   2.212  1.5473  0.8924 -0.7019
 8660TIP3   OH225936   3.415   5.719   2.747  0.4040  0.2293  0.7676
 8660TIP3    H125937   3.357   5.790   2.718  0.7672  0.5626  0.8476
 8660TIP3    H225938   3.364   5.672   2.813 -0.5291 -0.6846 -0.5462
 8661TIP3   OH225939   2.945   2.166   3.137 -0.3389  0.0935  0.6546
 8661TIP3    H125940   3.011   2.233   3.118 -0.0701 -0.5352 -0.6973
 8661TIP3    H225941   2.929   2.175   3.231 -0.8599  2.5582  0.4135
 8662TIP3   OH225942   5.017   6.653   4.120 -0.2216  0.2697  0.1011
 8662TIP3    H125943   5.095   6.663   4.175 -0.2868 -1.6745  0.5966
 8662TIP3    H225944   4.944   6.654   4.182 -0.4554  0.1321 -0.1724
 8663TIP3   OH225945   0.754   6.231   3.421  0.7850 -0.1559  0.0464
 8663TIP3    H125946   0.664   6.204   3.438  1.3166 -0.7963  2.2043
 8663TIP3    H225947   0.787   6.166   3.358 -1.0647  1.8452 -3.2787
 8664TIP3   OH225948   6.948   6.298   3.513  0.6496  0.3868  0.1302
 8664TIP3    H125949   6.963   6.393   3.519  0.2963  0.5730 -1.5182
 8664TIP3    H225950   7.021   6.259   3.561  1.0514  1.4851  0.4397
 8665TIP3   OH225951   2.741   7.617   3.157 -0.3021  0.0014 -0.1205
 8665TIP3    H125952   2.751   7.548   3.092 -0.1962  1.0954 -1.3022
 8665TIP3    H225953   2.647   7.629   3.165 -0.2988  0.3209 -0.5669
 8666TIP3   OH225954   1.314   7.668   3.345 -0.1161 -0.3572 -0.3787
 8666TIP3    H125955   1.300   7.576   3.323  0.0808 -0.6945  0.8469
 8666TIP3    H225956   1.227   7.700   3.368  0.2419 -1.1445  2.4078
 8667TIP3   OH225957   0.357   5.826   0.886 -0.1360  0.0464 -0.0839
 8667TIP3    H125958   0.407   5.774   0.949  0.8271  0.7494 -0.2446
 8667TIP3    H225959   0.420   5.849   0.818 -0.2874  2.1368  0.4118
 8668TIP3   OH225960   3.712   7.657   5.394  0.6264 -0.2053 -0.5477
 8668TIP3    H125961   3.663   7.702   5.463  1.3508 -1.1718  0.6437
 8668TIP3    H225962   3.653   7.657   5.318 -1.5469 -1.9043  1.0098
 8669TIP3   OH225963   4.231   1.454   2.670 -0.4046  0.1669  0.1365
 8669TIP3    H125964   4.289   1.529   2.683 -0.1605 -0.2355  1.5855
 8669TIP3    H225965   4.277   1.381   2.710 -0.8418 -0.6793 -0.8650
 8670TIP3   OH225966   4.020   3.636   2.546  0.0758  0.3500  0.0707
 8670TIP3    H125967   4.082   3.708   2.535 -1.8211  2.0483 -0.0996
 8670TIP3    H225968   4.059   3.581   2.614  2.1689  0.8320 -0.6645
 8671TIP3   OH225969   1.740   1.675   1.489  0.8186  0.3198 -0.3024
 8671TIP3    H125970   1.823   1.656   1.533  0.2109 -1.3607  0.2315
 8671TIP3    H225971   1.686   1.716   1.557  0.5393 -0.4917 -0.0159
 8672TIP3   OH225972   7.220   3.145   5.902  0.3835  0.1214  0.4847
 8672TIP3    H125973   7.144   3.192   5.869 -0.7597 -0.8636  1.5863
 8672TIP3    H225974   7.281   3.213   5.931  0.5202  0.9536 -1.5863
 8673TIP3   OH225975   4.961   3.482   3.415  0.1927 -0.5144 -0.0652
 8673TIP3    H125976   5.044   3.449   3.382 -0.3317 -0.8543 -1.0946
 8673TIP3    H225977   4.911   3.506   3.337  0.2504  2.0752  0.6086
 8674TIP3   OH225978   4.197   2.280   2.900  0.2129  0.3235  0.2110
 8674TIP3    H125979   4.181   2.230   2.819 -2.8471  0.1023  0.8594
 8674TIP3    H225980   4.226   2.366   2.870 -0.5358  0.1312 -1.1374
 8675TIP3   OH225981   2.596   2.524   6.694  0.8599  0.0212  0.5697
 8675TIP3    H125982   2.554   2.549   6.776 -1.2154 -0.8952 -0.1241
 8675TIP3    H225983   2.665   2.463   6.719  0.4160 -0.0483  1.6546
 8676TIP3   OH225984   7.211   0.529   6.370  0.7804 -0.4902 -0.1652
 8676TIP3    H125985   7.228   0.622   6.381 -1.0661 -0.0395 -0.7090
 8676TIP3    H225986   7.201   0.496   6.460  3.6375 -0.6860  0.1573
 8677TIP3   OH225987   4.486   7.376   2.204  0.1924 -0.2039  0.2079
 8677TIP3    H125988   4.555   7.432   2.240  2.4922 -2.5902 -0.1968
 8677TIP3    H225989   4.439   7.345   2.281  0.3865  0.4608  0.6038
 8678TIP3   OH225990   3.490   3.695   5.282  0.4225 -0.2048 -0.6130
 8678TIP3    H125991   3.537   3.618   5.251  0.4938 -0.7279  0.7342
 8678TIP3    H225992   3.401   3.665   5.299  0.3730  0.0800 -0.3528
 8679TIP3   OH225993   1.206   7.152   5.301 -0.3585  0.5279  0.3355
 8679TIP3    H125994   1.121   7.196   5.297 -1.3315 -1.3511 -0.6801
 8679TIP3    H225995   1.270   7.224   5.304 -1.9577  1.9750  1.2743
 8680TIP3   OH225996   2.195   4.327   0.887  0.1251 -0.0066  0.1001
 8680TIP3    H125997   2.272   4.271   0.875 -0.7728 -1.0288 -1.1110
 8680TIP3    H225998   2.203   4.359   0.977  1.0026 -1.5661  0.6098
 8681TIP3   OH225999   2.315   4.006   1.141 -0.3278 -0.0140 -0.3530
 8681TIP3    H126000   2.310   3.926   1.194 -0.4220  0.7834  0.9059
 8681TIP3    H226001   2.223   4.030   1.126 -0.3039  0.1042 -0.3152
 8682TIP3   OH226002   8.237   7.691   2.007  0.6344 -0.5918 -0.1458
 8682TIP3    H126003   8.254   7.720   1.917  0.2003 -0.5971 -0.2347
 8682TIP3    H226004   8.308   7.631   2.027  1.2635  0.1402 -0.1430
 8683TIP3   OH226005   2.952   7.416   6.639  0.1344 -0.2460  0.2073
 8683TIP3    H126006   2.917   7.350   6.580  0.9104 -0.2828 -0.2253
 8683TIP3    H226007   3.022   7.458   6.590 -1.1316  1.7684 -0.0059
 8684TIP3   OH226008   5.370   5.129   0.625 -0.2097 -0.3759  0.4549
 8684TIP3    H126009   5.439   5.063   0.630  0.3512  0.1303 -0.4133
 8684TIP3    H226010   5.384   5.184   0.702  0.2455 -0.3768  0.3750
 8685TIP3   OH226011   2.450   5.102   3.211  0.2413  0.4485 -0.0710
 8685TIP3    H126012   2.503   5.062   3.280  1.0683  0.2027 -0.8372
 8685TIP3    H226013   2.427   5.188   3.246 -1.1260 -0.4460  1.3820
 8686TIP3   OH226014   2.439   5.513   1.557  0.0537  0.4373 -0.2337
 8686TIP3    H126015   2.478   5.458   1.625 -0.7982  0.4306  0.2691
 8686TIP3    H226016   2.511   5.534   1.498  0.3675 -1.4498 -0.5938
 8687TIP3   OH226017   3.605   6.817   3.549  0.7796 -0.0174 -0.1019
 8687TIP3    H126018   3.642   6.857   3.471 -0.5973 -0.5814 -1.0998
 8687TIP3    H226019   3.510   6.816   3.532  0.2949  1.1172  2.1786
 8688TIP3   OH226020   7.862   5.761   1.341 -0.3968 -0.1756 -0.3248
 8688TIP3    H126021   7.865   5.688   1.403  2.4945  1.1102  1.1981
 8688TIP3    H226022   7.935   5.744   1.281  0.3902  1.4784  0.1239
 8689TIP3   OH226023   4.558   4.761   2.389 -0.2239  0.3082 -0.0277
 8689TIP3    H126024   4.639   4.738   2.434 -0.4132  0.6350  0.4934
 8689TIP3    H226025   4.587   4.808   2.311  0.1972 -2.4095 -1.6098
 8690TIP3   OH226026   1.790   5.803   2.384 -0.1897 -0.6671 -0.6887
 8690TIP3    H126027   1.851   5.858   2.432 -1.2888 -0.3266  0.3611
 8690TIP3    H226028   1.748   5.749   2.451 -2.7358  0.7596 -1.0206
 8691TIP3   OH226029   5.561   7.395   2.409 -0.5114 -0.0112 -0.2442
 8691TIP3    H126030   5.477   7.360   2.382 -0.3885  0.4604 -1.2680
 8691TIP3    H226031   5.589   7.451   2.337  0.9276 -0.5732 -0.1660
 8692TIP3   OH226032   7.522   6.704   5.692  0.1615  0.1232  0.7274
 8692TIP3    H126033   7.441   6.670   5.731  0.1929 -0.3005  0.4244
 8692TIP3    H226034   7.587   6.636   5.708 -0.1396 -0.7034 -1.2684
 8693TIP3   OH226035   5.524   3.217   3.985 -0.4286  0.1900  0.7830
 8693TIP3    H126036   5.491   3.227   3.896  1.4076  1.7037  0.2120
 8693TIP3    H226037   5.605   3.167   3.975  0.3551  1.2776  1.4560
 8694TIP3   OH226038   5.757   0.886   3.497  0.3039 -0.5410 -0.3170
 8694TIP3    H126039   5.732   0.830   3.571  0.8002  1.5658  1.5598
 8694TIP3    H226040   5.851   0.873   3.488  0.3689 -0.2446 -0.0763
 8695TIP3   OH226041   6.034   0.847   3.455  0.1217 -0.3668 -0.2362
 8695TIP3    H126042   6.096   0.912   3.423  0.0183 -0.7861 -1.3340
 8695TIP3    H226043   6.069   0.763   3.425 -0.4312 -0.6989  0.0232
 8696TIP3   OH226044   3.136   7.056   6.306 -0.2289  0.3156 -0.0202
 8696TIP3    H126045   3.190   7.024   6.233  0.3588 -1.4003  1.1050
 8696TIP3    H226046   3.050   7.016   6.292  0.0894 -0.6207  0.5831
 8697TIP3   OH226047   0.674   7.284   0.939  0.4140  0.4324 -0.6451
 8697TIP3    H126048   0.716   7.348   0.882  0.1849  0.9613 -0.2306
 8697TIP3    H226049   0.613   7.335   0.992 -0.3768 -0.2507 -0.8753
 8698TIP3   OH226050   2.355   5.558   3.758  0.3302 -0.6236  0.1050
 8698TIP3    H126051   2.357   5.470   3.794  1.1349 -2.2382 -3.4784
 8698TIP3    H226052   2.383   5.548   3.667  1.2901  3.4632 -0.2551
 8699TIP3   OH226053   2.712   7.218   2.202  0.5948 -0.9454 -0.4347
 8699TIP3    H126054   2.645   7.268   2.155  0.1536  0.5036  1.6137
 8699TIP3    H226055   2.772   7.284   2.237 -0.2164 -1.6944  2.7108
 8700TIP3   OH226056   4.273   6.410   4.560 -0.3028  0.1487 -0.0104
 8700TIP3    H126057   4.349   6.363   4.526 -1.5187 -0.4268 -2.1002
 8700TIP3    H226058   4.286   6.411   4.655  2.1790 -0.1137 -0.2767
 8701TIP3   OH226059   4.672   0.613   0.499  0.1830  0.1228  0.1002
 8701TIP3    H126060   4.728   0.680   0.540  1.2027 -1.2080  0.9670
 8701TIP3    H226061   4.721   0.586   0.421  0.3846 -0.4750  0.4254
 8702TIP3   OH226062   3.096   5.932   2.291 -0.5294 -0.0212 -0.1614
 8702TIP3    H126063   3.098   5.912   2.198 -0.1898  0.7822 -0.3383
 8702TIP3    H226064   3.031   6.002   2.299 -1.9517 -1.3584  0.4865
 8703TIP3   OH226065   6.412   3.913   5.801 -0.1285 -0.0299 -0.0049
 8703TIP3    H126066   6.394   3.874   5.716 -1.5690  0.5273  0.0097
 8703TIP3    H226067   6.496   3.958   5.790 -0.2008 -0.1338 -1.0737
 8704TIP3   OH226068   7.100   3.670   6.479  0.1039  0.3396  0.4473
 8704TIP3    H126069   7.093   3.703   6.389  2.3632  0.5963  0.3126
 8704TIP3    H226070   7.018   3.697   6.520 -0.7302  0.7395 -1.3580
 8705TIP3   OH226071   6.681   1.059   4.578 -0.0828  0.2481 -0.6653
 8705TIP3    H126072   6.664   0.986   4.520  0.8708 -0.4519 -0.0917
 8705TIP3    H226073   6.764   1.095   4.548 -1.2564  2.0992 -1.9176
 8706TIP3   OH226074   1.309   2.550   6.312  0.0587 -0.1793 -0.1312
 8706TIP3    H126075   1.260   2.595   6.381 -0.7065  0.2973 -0.9713
 8706TIP3    H226076   1.243   2.521   6.249  0.7981  0.0203 -1.0325
 8707TIP3   OH226077   2.382   5.841   1.295 -0.0907 -0.0209  0.2798
 8707TIP3    H126078   2.369   5.781   1.222  0.6117  1.0161 -0.7279
 8707TIP3    H226079   2.309   5.903   1.288  0.3256  0.4484  0.0752
 8708TIP3   OH226080   6.853   0.894   0.865 -0.2427  0.3033  0.2245
 8708TIP3    H126081   6.858   0.854   0.778 -1.4726 -1.1437  0.7712
 8708TIP3    H226082   6.847   0.988   0.849  2.1289  0.2822 -1.1423
 8709TIP3   OH226083   7.119   6.741   2.856 -0.0664 -0.3480 -0.9698
 8709TIP3    H126084   7.143   6.706   2.942  0.1048 -0.0771 -0.9085
 8709TIP3    H226085   7.170   6.821   2.847  0.1241 -0.5212 -1.4436
 8710TIP3   OH226086   2.502   1.827   4.745 -0.9037 -0.2450  0.5570
 8710TIP3    H126087   2.526   1.871   4.826 -1.0158 -0.0838  0.5030
 8710TIP3    H226088   2.410   1.851   4.730 -0.6634  0.3423 -0.0160
 8711TIP3   OH226089   2.096   7.684   1.170  0.2963 -0.1007  0.1209
 8711TIP3    H126090   2.172   7.657   1.117 -1.2334 -0.7461 -1.8777
 8711TIP3    H226091   2.086   7.614   1.234  0.4325 -0.8267 -0.6358
 8712TIP3   OH226092   4.035   4.994   4.480 -0.1352  0.0036  0.0034
 8712TIP3    H126093   3.974   4.929   4.515  0.7327 -1.4114 -1.0150
 8712TIP3    H226094   4.099   5.007   4.550  0.2363 -0.9871 -0.1438
 8713TIP3   OH226095   0.183   3.717   1.036  0.0471 -0.6105  0.1492
 8713TIP3    H126096   0.264   3.667   1.029 -0.5421 -1.7537  1.1945
 8713TIP3    H226097   0.208   3.798   1.080  0.4585 -1.4454  1.5191
 8714TIP3   OH226098   2.651   1.623   5.751  0.0725  0.1867  0.2242
 8714TIP3    H126099   2.607   1.631   5.836  1.0149 -0.1495  0.7587
 8714TIP3    H226100   2.678   1.532   5.747 -1.0230 -0.1043 -0.9907
 8715TIP3   OH226101   7.352   3.833   6.054 -0.9942  0.3329  0.1104
 8715TIP3    H126102   7.411   3.894   6.098 -0.7371  1.2245 -1.4136
 8715TIP3    H226103   7.273   3.885   6.036 -0.7171  0.2719 -1.3343
 8716TIP3   OH226104   1.500   6.513   3.656  0.5556  0.1836  0.6616
 8716TIP3    H126105   1.448   6.515   3.576  1.4590  0.8311  0.0747
 8716TIP3    H226106   1.443   6.470   3.720  0.0161 -0.8100 -0.4439
 8717TIP3   OH226107   3.719   1.570   6.701 -0.0137  0.1794  0.3851
 8717TIP3    H126108   3.691   1.555   6.791  1.1588 -1.3123  0.5484
 8717TIP3    H226109   3.809   1.600   6.708 -0.0899  0.5916 -0.2800
 8718TIP3   OH226110   4.074   4.036   6.372 -0.1830 -0.2634 -0.3364
 8718TIP3    H126111   4.057   4.115   6.423  0.8214  0.3134 -0.8530
 8718TIP3    H226112   4.073   4.067   6.281  4.7494  0.2326 -0.4983
 8719TIP3   OH226113   6.638   1.681   6.102  0.9221 -0.2960  0.0523
 8719TIP3    H126114   6.607   1.721   6.184  1.2426  2.1034 -0.9031
 8719TIP3    H226115   6.560   1.643   6.063 -0.0792  1.8811 -0.2586
 8720TIP3   OH226116   4.174   3.462   4.088 -0.1471  0.7248  0.4811
 8720TIP3    H126117   4.079   3.459   4.096 -0.3842  0.5590 -1.8148
 8720TIP3    H226118   4.197   3.552   4.112 -0.9630  0.9669  0.3818
 8721TIP3   OH226119   7.811   6.486   0.431 -0.2832  0.9207 -0.2489
 8721TIP3    H126120   7.856   6.568   0.450 -1.3553  1.3960  0.3450
 8721TIP3    H226121   7.825   6.472   0.337 -0.2308  1.8822 -0.3939
 8722TIP3   OH226122   2.649   1.360   1.669 -0.0678  0.2178 -0.6482
 8722TIP3    H126123   2.572   1.389   1.620  0.0912 -0.2336 -1.1702
 8722TIP3    H226124   2.633   1.267   1.686 -0.0748  0.3457  0.0758
 8723TIP3   OH226125   2.727   5.427   6.475  0.5057  0.0066  0.1642
 8723TIP3    H126126   2.633   5.438   6.485  0.3054 -0.3159 -1.2537
 8723TIP3    H226127   2.751   5.363   6.542 -0.2495  0.1630  0.5925
 8724TIP3   OH226128   7.405   2.758   4.104 -0.1242 -0.1638  0.0159
 8724TIP3    H126129   7.442   2.747   4.192  1.1519  1.4318 -0.2644
 8724TIP3    H226130   7.350   2.837   4.112 -0.0619 -0.0558 -0.5922
 8725TIP3   OH226131   4.134   7.128   5.020  0.6326  0.3376 -0.1433
 8725TIP3    H126132   4.109   7.078   5.098 -0.3287  2.1853  0.7897
 8725TIP3    H226133   4.060   7.117   4.960 -0.3592  1.9346  0.7293
 8726TIP3   OH226134   6.524   3.388   4.709 -0.3794  0.1092 -0.3157
 8726TIP3    H126135   6.512   3.433   4.792  0.9896 -1.2487  0.6731
 8726TIP3    H226136   6.437   3.353   4.688 -1.1984  2.1340 -0.5310
 8727TIP3   OH226137   4.686   3.337   4.694 -0.2669  0.4815 -0.0258
 8727TIP3    H126138   4.657   3.274   4.627 -0.1734  0.1590  0.2326
 8727TIP3    H226139   4.778   3.352   4.673  0.1482 -0.6688  0.8212
 8728TIP3   OH226140   5.181   6.908   5.088  0.9089  0.1263  0.1576
 8728TIP3    H126141   5.166   6.883   4.997  0.3882  1.5349 -0.1678
 8728TIP3    H226142   5.236   6.838   5.124 -1.3314 -2.0598 -0.3725
 8729TIP3   OH226143   0.092   0.631   6.145 -0.1210  0.0368 -0.0219
 8729TIP3    H126144   0.065   0.722   6.136  0.4729  0.2140 -0.0899
 8729TIP3    H226145   0.011   0.581   6.140 -0.4726  0.5741  0.1960
 8730TIP3   OH226146   2.475   6.438   1.099  0.3051  0.0094  0.2587
 8730TIP3    H126147   2.396   6.493   1.095 -0.7188 -1.2780  1.4922
 8730TIP3    H226148   2.449   6.356   1.056  1.2652 -0.1180 -0.0935
 8731TIP3   OH226149   3.297   2.491   5.380 -0.3181  0.2480  0.3580
 8731TIP3    H126150   3.270   2.410   5.338  0.1489 -0.2928  1.0862
 8731TIP3    H226151   3.313   2.468   5.471  2.0981  0.6132  0.0960
 8732TIP3   OH226152   5.255   0.141   3.265  0.9152 -0.6588  0.4110
 8732TIP3    H126153   5.168   0.119   3.301 -0.8562  1.9004 -1.9256
 8732TIP3    H226154   5.276   0.225   3.304  0.6549  0.4047 -1.6266
 8733TIP3   OH226155   4.774   7.541   6.778 -0.1047 -0.1760  0.3234
 8733TIP3    H126156   4.739   7.621   6.739 -0.8411 -0.1600  0.9685
 8733TIP3    H226157   4.864   7.535   6.746  0.0074  0.9852  0.3769
 8734TIP3   OH226158   5.072   6.329   4.653 -0.1960 -0.5282  0.8138
 8734TIP3    H126159   5.130   6.384   4.704  1.0220 -0.1263 -0.9215
 8734TIP3    H226160   4.989   6.378   4.650  0.7301  1.0503 -0.3408
 8735TIP3   OH226161   4.377   2.386   1.113  0.1539  0.0894 -0.6920
 8735TIP3    H126162   4.310   2.410   1.049  1.0629 -0.1434 -1.7731
 8735TIP3    H226163   4.431   2.321   1.067  0.5996 -0.3817  0.4609
 8736TIP3   OH226164   0.118   2.592   2.913 -0.2072  0.2756 -0.0919
 8736TIP3    H126165   0.106   2.523   2.848 -1.9567 -1.0122  1.4917
 8736TIP3    H226166   0.146   2.546   2.992 -1.5139  1.3210  1.0353
 8737TIP3   OH226167   1.980   7.814   5.898 -0.0730 -0.3832  0.6796
 8737TIP3    H126168   1.987   7.741   5.836  0.0516 -0.6810  1.0385
 8737TIP3    H226169   2.049   7.796   5.963 -1.1540 -0.8732  1.7267
 8738TIP3   OH226170   1.479   5.783   5.001 -0.1284  0.0825  0.5354
 8738TIP3    H126171   1.440   5.696   4.999 -3.4854  1.4413 -1.9007
 8738TIP3    H226172   1.419   5.834   5.057  1.2404  1.0892  1.1319
 8739TIP3   OH226173   1.225   3.806   3.601  0.1976 -0.5627 -0.3122
 8739TIP3    H126174   1.224   3.790   3.507 -0.4419 -2.6194 -0.0214
 8739TIP3    H226175   1.298   3.752   3.633  0.2910 -0.0327  0.3913
 8740TIP3   OH226176   7.525   1.602   3.118 -0.5482 -0.4733  0.0959
 8740TIP3    H126177   7.468   1.675   3.140  0.3949  0.8110 -1.5339
 8740TIP3    H226178   7.470   1.524   3.130 -1.3098  0.3752  2.6950
 8741TIP3   OH226179   7.152   6.960   4.933 -0.2553 -0.0353 -0.5995
 8741TIP3    H126180   7.171   7.002   5.017  0.4464 -0.8491 -0.3350
 8741TIP3    H226181   7.120   7.031   4.877  0.6248  0.7927 -0.0845
 8742TIP3   OH226182   4.423   1.751   1.663  0.3674  0.9150 -0.6352
 8742TIP3    H126183   4.364   1.814   1.703 -0.9015 -0.3705 -0.4068
 8742TIP3    H226184   4.494   1.740   1.726 -1.6863 -1.2314  1.5026
 8743TIP3   OH226185   7.990   2.953   3.522  0.3197  0.5237  0.1321
 8743TIP3    H126186   7.978   3.041   3.486 -0.5857  0.7907  1.0362
 8743TIP3    H226187   7.984   2.966   3.617 -1.9928 -0.7922  0.2312
 8744TIP3   OH226188   3.082   1.633   1.175  0.0946  0.1073 -0.7122
 8744TIP3    H126189   3.102   1.723   1.150 -1.3987  0.8784  0.6917
 8744TIP3    H226190   3.158   1.605   1.226  0.6570  0.4955 -1.3185
 8745TIP3   OH226191   2.775   4.003   0.536  0.3529 -0.4797 -0.4580
 8745TIP3    H126192   2.779   3.965   0.624 -0.5309  0.6029  0.0884
 8745TIP3    H226193   2.866   4.009   0.508  0.9834  2.0593  1.7256
 8746TIP3   OH226194   2.532   7.074   2.322  0.2243 -0.4236  0.1741
 8746TIP3    H126195   2.543   6.988   2.363 -0.1867  0.6909  2.7684
 8746TIP3    H226196   2.620   7.095   2.289  0.3363 -1.7909 -0.4933
 8747TIP3   OH226197   6.891   3.372   2.990  0.1926 -0.2084 -0.3932
 8747TIP3    H126198   6.985   3.356   2.988  0.4030  0.4652  1.5922
 8747TIP3    H226199   6.850   3.287   2.975  1.1551 -0.8840  0.7192
 8748TIP3   OH226200   7.596   6.683   6.421  0.2534  0.6906  0.3439
 8748TIP3    H126201   7.586   6.736   6.342  0.7466  1.7935  1.0020
 8748TIP3    H226202   7.577   6.743   6.493  0.1145 -0.2185  1.0874
 8749TIP3   OH226203   5.123   2.873   1.249  0.2331  0.1084 -0.4396
 8749TIP3    H126204   5.107   2.814   1.176 -1.4102 -3.2435  2.2884
 8749TIP3    H226205   5.049   2.933   1.249  0.9259  1.0108 -2.1825
 8750TIP3   OH226206   7.138   4.040   6.082 -0.0207  0.0442  0.3411
 8750TIP3    H126207   7.124   4.088   6.001  1.0591  1.6146  1.0376
 8750TIP3    H226208   7.055   3.993   6.097 -1.0130  1.4453 -0.5358
 8751TIP3   OH226209   4.001   3.798   4.524 -0.9106  0.1599  0.5409
 8751TIP3    H126210   4.056   3.780   4.600 -0.2340 -2.4039 -0.4290
 8751TIP3    H226211   4.050   3.863   4.474  0.2567 -0.5320  0.7467
 8752TIP3   OH226212   4.707   6.085   5.138  0.1519 -0.7274  0.4111
 8752TIP3    H126213   4.797   6.091   5.171  0.5154  1.1374 -0.7567
 8752TIP3    H226214   4.689   5.991   5.134  2.5097 -1.2196 -0.4827
 8753TIP3   OH226215   7.657   6.875   2.871 -0.4803  0.2573  0.5909
 8753TIP3    H126216   7.629   6.966   2.865  0.8170  0.5938 -1.1439
 8753TIP3    H226217   7.752   6.879   2.863 -0.4227 -1.2688  0.1878
 8754TIP3   OH226218   0.163   5.452   1.012  0.3590  0.1836  0.1433
 8754TIP3    H126219   0.149   5.390   0.941 -0.1338  0.9610 -0.4542
 8754TIP3    H226220   0.258   5.457   1.021  0.6057  2.2255 -2.4520
 8755TIP3   OH226221   3.325   6.318   1.466 -0.3779 -0.0753  0.2120
 8755TIP3    H126222   3.400   6.265   1.495 -1.0468 -0.0428  2.1758
 8755TIP3    H226223   3.249   6.260   1.479 -0.7273 -0.0511 -1.5895
 8756TIP3   OH226224   0.142   6.479   6.360 -0.0325 -0.0308  0.0211
 8756TIP3    H126225   0.140   6.416   6.289  0.2889 -0.2201  0.1793
 8756TIP3    H226226   0.078   6.546   6.335 -0.8789 -0.7641  0.1806
 8757TIP3   OH226227   0.638   6.906   1.522 -0.1197  0.5291  0.2441
 8757TIP3    H126228   0.642   6.985   1.467  0.1096  0.0082 -0.5080
 8757TIP3    H226229   0.644   6.939   1.611  2.2801  1.2306 -0.0936
 8758TIP3   OH226230   5.444   2.659   6.667  0.0329 -0.1079 -0.2056
 8758TIP3    H126231   5.383   2.590   6.641  0.7407 -0.3719 -1.2272
 8758TIP3    H226232   5.388   2.733   6.693 -0.7296  0.0484 -2.1597
 8759TIP3   OH226233   6.560   5.334   1.886 -0.1833 -0.1981  0.2355
 8759TIP3    H126234   6.492   5.349   1.951 -2.7043  0.1754 -2.3026
 8759TIP3    H226235   6.583   5.241   1.895 -1.4558 -0.4765  0.7553
 8760TIP3   OH226236   5.979   5.120   0.671  0.6173  0.1499 -0.8004
 8760TIP3    H126237   5.973   5.091   0.580 -0.7816  0.2050 -0.7422
 8760TIP3    H226238   6.021   5.206   0.666 -0.8286  0.8568 -1.5712
 8761TIP3   OH226239   7.550   6.455   3.692 -0.2715 -0.6204  0.1274
 8761TIP3    H126240   7.524   6.367   3.666  0.0321 -0.6690 -0.0212
 8761TIP3    H226241   7.602   6.442   3.771  1.3062 -0.7626 -0.8761
 8762TIP3   OH226242   5.023   6.879   6.455 -0.5583 -0.3971  0.1966
 8762TIP3    H126243   5.006   6.794   6.414 -0.4595  0.1233 -0.9721
 8762TIP3    H226244   4.942   6.901   6.501 -0.8171 -0.8207 -0.0498
 8763TIP3   OH226245   3.597   2.440   0.999  0.0519  0.2650 -0.1079
 8763TIP3    H126246   3.544   2.509   1.040 -1.7601 -1.8204  1.3346
 8763TIP3    H226247   3.555   2.426   0.914 -0.4640  0.0239  0.1780
 8764TIP3   OH226248   2.076   4.178   3.061  0.2427 -0.1054  0.2328
 8764TIP3    H126249   2.156   4.226   3.038 -1.5598  2.3668 -1.3861
 8764TIP3    H226250   2.070   4.109   2.995  0.1477  0.8189 -0.7489
 8765TIP3   OH226251   7.003   4.417   2.049  0.1699  0.4452  0.4020
 8765TIP3    H126252   6.925   4.464   2.018 -2.1461 -2.4995  1.2787
 8765TIP3    H226253   7.058   4.408   1.972 -1.3190  0.8524 -0.7591
 8766TIP3   OH226254   1.250   0.164   6.781  0.1926 -0.3796 -0.7205
 8766TIP3    H126255   1.199   0.245   6.782 -2.3312 -1.8454 -1.6236
 8766TIP3    H226256   1.333   0.188   6.739  0.7590  2.3177  1.6775
 8767TIP3   OH226257   5.114   6.429   3.787  0.2392  0.0161  0.4156
 8767TIP3    H126258   5.085   6.517   3.761  0.1794 -0.4784 -1.3662
 8767TIP3    H226259   5.173   6.402   3.716 -0.1806 -1.5979  0.6520
 8768TIP3   OH226260   2.915   3.074   1.001 -0.1754  0.1405 -0.4401
 8768TIP3    H126261   2.937   3.036   0.916  1.3554 -0.4238  0.1716
 8768TIP3    H226262   2.879   3.001   1.052  0.9871 -0.0769  0.1059
 8769TIP3   OH226263   2.951   7.621   5.252  0.3236  0.2244  0.0590
 8769TIP3    H126264   2.970   7.560   5.323  0.1007  1.0628  0.8652
 8769TIP3    H226265   2.871   7.665   5.281  1.1414  1.7437  0.0802
 8770TIP3   OH226266   7.927   3.662   5.624 -1.1981  0.3251 -0.2918
 8770TIP3    H126267   7.861   3.598   5.653 -0.9762  0.6953  1.1206
 8770TIP3    H226268   7.980   3.678   5.702 -0.5760  1.4230 -0.9217
 8771TIP3   OH226269   0.241   6.579   6.703 -0.7921 -0.6793  0.3599
 8771TIP3    H126270   0.315   6.623   6.746 -0.2250 -1.4824  0.2392
 8771TIP3    H226271   0.191   6.650   6.663  0.5552 -0.1989 -0.5312
 8772TIP3   OH226272   2.231   5.324   1.592 -0.0346  0.0540  0.2938
 8772TIP3    H126273   2.301   5.389   1.578 -0.5579  0.6340  0.3390
 8772TIP3    H226274   2.227   5.313   1.687  1.2498 -1.3881  0.2247
 8773TIP3   OH226275   5.758   2.451   0.255 -0.2625  0.2998  0.0030
 8773TIP3    H126276   5.748   2.544   0.234 -1.2213  0.8391  2.4416
 8773TIP3    H226277   5.687   2.408   0.208 -0.0495  0.8540 -0.8450
 8774TIP3   OH226278   0.318   4.642   6.723  0.0773 -0.3578  0.6410
 8774TIP3    H126279   0.256   4.637   6.795  0.0411 -0.2250  0.6210
 8774TIP3    H226280   0.269   4.612   6.647  0.6944 -2.4374  0.9990
 8775TIP3   OH226281   7.856   2.242   5.962  0.2836  0.1781  0.4401
 8775TIP3    H126282   7.793   2.198   5.904  1.3369 -0.1610 -0.4906
 8775TIP3    H226283   7.810   2.250   6.045 -1.3181  0.7345 -0.4360
 8776TIP3   OH226284   7.051   4.018   3.611 -0.4453 -0.2237  0.2495
 8776TIP3    H126285   7.129   4.010   3.666  1.2653  1.0946 -1.8320
 8776TIP3    H226286   7.048   3.936   3.562 -0.7608 -0.5264  0.7591
 8777TIP3   OH226287   1.232   3.330   3.971  0.0972  0.2313  0.2718
 8777TIP3    H126288   1.180   3.376   4.038  0.5277 -0.3633  1.0350
 8777TIP3    H226289   1.199   3.363   3.888  0.2510  1.7918  0.7833
 8778TIP3   OH226290   6.497   5.782   3.329  0.3084 -0.6202  0.6869
 8778TIP3    H126291   6.569   5.720   3.312  0.2659 -0.4833 -0.0280
 8778TIP3    H226292   6.464   5.804   3.242 -1.0500 -1.1986  1.0238
 8779TIP3   OH226293   2.254   6.957   0.187 -0.0502  0.3308 -0.5986
 8779TIP3    H126294   2.240   7.050   0.202  0.3003  0.2109  0.6384
 8779TIP3    H226295   2.334   6.936   0.237 -1.3363 -1.0448  1.0243
 8780TIP3   OH226296   0.469   2.378   2.936  0.0418 -0.2971 -0.1712
 8780TIP3    H126297   0.511   2.370   3.021  0.2770 -2.2176 -0.4288
 8780TIP3    H226298   0.388   2.327   2.944 -1.3610  1.7572 -0.2819
 8781TIP3   OH226299   7.913   3.233   0.603  0.0945  0.7936 -0.3689
 8781TIP3    H126300   7.830   3.185   0.608  0.5750  0.0089  0.2694
 8781TIP3    H226301   7.896   3.315   0.651 -1.1887  2.0104 -2.7491
 8782TIP3   OH226302   1.170   5.397   6.509  0.4621 -0.2798  0.0741
 8782TIP3    H126303   1.198   5.468   6.567  1.4406  0.0365 -0.7517
 8782TIP3    H226304   1.249   5.345   6.494  0.9786  1.1191 -3.0183
 8783TIP3   OH226305   2.610   5.187   0.762 -0.4939  0.1483 -0.7398
 8783TIP3    H126306   2.564   5.262   0.725 -1.4989  0.7761  1.6545
 8783TIP3    H226307   2.678   5.225   0.818 -0.6081 -0.7371  0.0171
 8784TIP3   OH226308   4.001   5.104   5.261 -0.1939  0.8040 -0.2101
 8784TIP3    H126309   4.033   5.023   5.300 -0.8769  0.4796 -0.2981
 8784TIP3    H226310   4.063   5.171   5.289 -0.7383  0.6233  1.5578
 8785TIP3   OH226311   4.255   4.078   4.651  0.5815  0.9877  0.1610
 8785TIP3    H126312   4.222   4.061   4.562 -1.0278  0.8698  0.7464
 8785TIP3    H226313   4.345   4.045   4.649  0.2122 -0.0665 -1.1040
 8786TIP3   OH226314   0.997   2.172   1.875  0.0641  0.2446  0.9944
 8786TIP3    H126315   0.913   2.207   1.903 -0.3544 -0.4767  0.6751
 8786TIP3    H226316   1.044   2.154   1.956 -0.3293  0.0883  1.1879
 8787TIP3   OH226317   5.114   1.339   2.651 -0.2913  0.3813  0.0058
 8787TIP3    H126318   5.087   1.418   2.697 -0.2474  0.9900 -0.9933
 8787TIP3    H226319   5.097   1.357   2.558  0.7211 -0.3554 -0.3534
 8788TIP3   OH226320   6.806   4.627   4.144 -0.4122  0.4297 -0.5770
 8788TIP3    H126321   6.756   4.639   4.063  0.3169  1.0037 -0.9589
 8788TIP3    H226322   6.739   4.621   4.212 -1.0367  0.0175 -1.2072
 8789TIP3   OH226323   2.892   6.629   0.726  0.5202  0.4671 -0.3791
 8789TIP3    H126324   2.980   6.626   0.765  0.7221  3.2937 -0.4166
 8789TIP3    H226325   2.838   6.674   0.791 -0.8938 -0.9599 -0.4928
 8790TIP3   OH226326   7.438   6.238   3.614 -0.2265  0.6921 -0.1942
 8790TIP3    H126327   7.362   6.180   3.624 -0.7466  1.1827 -1.1303
 8790TIP3    H226328   7.511   6.178   3.594  0.1692  0.0016  2.8737
 8791TIP3   OH226329   2.294   2.583   3.660 -0.3085 -0.4726 -0.8224
 8791TIP3    H126330   2.252   2.652   3.609  0.0310 -0.9964 -1.8458
 8791TIP3    H226331   2.384   2.613   3.673  0.0276 -1.0087 -1.8464
 8792TIP3   OH226332   4.927   5.201   4.026 -0.3099 -0.7673  0.7372
 8792TIP3    H126333   4.942   5.288   4.062  0.2623 -0.7365  0.4368
 8792TIP3    H226334   5.011   5.175   3.989  0.0039 -2.1279  2.2502
 8793TIP3   OH226335   0.410   4.926   3.503 -0.5550  0.1924 -0.2913
 8793TIP3    H126336   0.347   4.952   3.570 -0.0277 -0.1667  0.3493
 8793TIP3    H226337   0.413   4.831   3.508  1.5095  0.2668  1.0799
 8794TIP3   OH226338   6.858   6.121   1.879  0.3324 -0.1900 -0.0425
 8794TIP3    H126339   6.869   6.026   1.870 -0.7847 -0.3067 -0.3736
 8794TIP3    H226340   6.886   6.139   1.969  0.0129 -0.9260  0.2196
 8795TIP3   OH226341   7.987   5.307   4.834 -0.0445 -0.2250 -0.6954
 8795TIP3    H126342   7.931   5.249   4.783  0.0541 -0.0148 -1.0494
 8795TIP3    H226343   8.072   5.264   4.834 -0.5037 -1.2237  0.9798
 8796TIP3   OH226344   8.297   3.573   5.578 -0.1159 -0.0054 -0.6943
 8796TIP3    H126345   8.306   3.524   5.660 -2.1492 -0.7800 -0.8947
 8796TIP3    H226346   8.212   3.547   5.543 -0.9285  3.0136 -1.2640
 8797TIP3   OH226347   3.135   3.916   4.666 -0.4492 -0.4366 -0.7264
 8797TIP3    H126348   3.052   3.925   4.713 -0.3055 -0.0555 -0.5341
 8797TIP3    H226349   3.110   3.906   4.574 -0.6901  1.0190 -0.8493
 8798TIP3   OH226350   0.554   2.071   3.386  0.2689 -0.0304  0.1914
 8798TIP3    H126351   0.535   2.012   3.313  0.0183 -0.5233  0.6417
 8798TIP3    H226352   0.648   2.063   3.400  0.4205  0.5491 -0.4823
 8799TIP3   OH226353   0.195   3.211   1.431  0.3324 -0.1012  0.6545
 8799TIP3    H126354   0.202   3.293   1.381 -0.1604 -0.4060  0.0710
 8799TIP3    H226355   0.283   3.175   1.430 -0.2306 -1.8418 -3.0540
 8800TIP3   OH226356   5.528   0.365   3.175 -0.6285  0.1894 -0.8252
 8800TIP3    H126357   5.443   0.407   3.169 -1.4555 -1.2018  0.5520
 8800TIP3    H226358   5.518   0.284   3.124  0.1838  0.4472 -1.4285
 8801TIP3   OH226359   0.469   7.717   3.424 -0.3081 -0.0212  0.2705
 8801TIP3    H126360   0.402   7.754   3.481 -1.5163 -2.0678  0.2907
 8801TIP3    H226361   0.550   7.761   3.449 -1.2764  0.9955  1.7287
 8802TIP3   OH226362   3.215   1.335   4.893  0.0777 -0.5747  0.4670
 8802TIP3    H126363   3.200   1.404   4.828  1.2730 -1.0522 -0.3516
 8802TIP3    H226364   3.218   1.381   4.977 -0.0730  0.2411  0.0327
 8803TIP3   OH226365   5.135   7.086   2.490 -0.5785 -0.2233 -0.1299
 8803TIP3    H126366   5.102   7.165   2.533 -2.7156 -1.6509  1.0711
 8803TIP3    H226367   5.056   7.040   2.462  0.5939 -2.0123 -0.6124
 8804TIP3   OH226368   2.193   3.069   0.097  0.3278 -0.1577  0.0140
 8804TIP3    H126369   2.243   3.008   0.042  0.3874  0.8513 -1.0792
 8804TIP3    H226370   2.235   3.154   0.083 -1.2117  0.5794 -0.3342
 8805TIP3   OH226371   3.730   4.268   3.593 -0.3052  0.7646  0.5980
 8805TIP3    H126372   3.797   4.286   3.527 -0.1052  0.0747  0.6038
 8805TIP3    H226373   3.672   4.343   3.589 -0.6556  0.4512 -0.8333
 8806TIP3   OH226374   1.138   1.683   1.818  0.5674  0.2032 -0.0758
 8806TIP3    H126375   1.176   1.732   1.891 -0.3073  0.8751 -0.0580
 8806TIP3    H226376   1.209   1.678   1.754  0.1902  3.1690 -0.8971
 8807TIP3   OH226377   5.575   4.967   3.474  0.3187 -0.3446 -0.0339
 8807TIP3    H126378   5.589   4.956   3.380  1.8495  1.0460 -0.0336
 8807TIP3    H226379   5.577   4.879   3.510  3.0008 -0.7544 -0.9531
 8808TIP3   OH226380   2.144   7.288   2.734 -0.7274  0.2316 -0.0022
 8808TIP3    H126381   2.083   7.240   2.790  0.4099  0.0231  1.1086
 8808TIP3    H226382   2.189   7.220   2.684 -0.1613  0.2416  0.4848
 8809TIP3   OH226383   5.050   3.385   2.315  0.0852  0.5724  0.3910
 8809TIP3    H126384   5.107   3.458   2.340  0.9601 -0.7900  2.6718
 8809TIP3    H226385   5.109   3.309   2.312 -1.0686 -0.3339 -0.4389
 8810TIP3   OH226386   5.241   1.734   1.911  0.2132  0.3325 -0.3372
 8810TIP3    H126387   5.260   1.790   1.835 -0.2613  1.3073  0.2475
 8810TIP3    H226388   5.150   1.706   1.898  0.6201 -0.7735 -0.9082
 8811TIP3   OH226389   6.127   0.448   3.806 -0.2460 -0.0225 -0.0444
 8811TIP3    H126390   6.221   0.463   3.815  0.1050 -0.9743 -1.6249
 8811TIP3    H226391   6.111   0.367   3.854 -1.0450  2.0391  3.4836
 8812TIP3   OH226392   2.921   4.351   5.331 -0.4716  0.3368  0.0027
 8812TIP3    H126393   2.982   4.317   5.397  0.3303  0.0712 -0.8692
 8812TIP3    H226394   2.874   4.421   5.377 -0.6572 -0.5201  1.1692
 8813TIP3   OH226395   6.330   4.136   4.760 -0.5848 -0.1106 -0.4640
 8813TIP3    H126396   6.369   4.216   4.724 -2.6712  1.5191  0.6811
 8813TIP3    H226397   6.292   4.092   4.684  0.2075  0.2035 -1.0578
 8814TIP3   OH226398   3.534   3.451   5.878 -0.5101 -0.0818  0.1601
 8814TIP3    H126399   3.627   3.475   5.879 -0.8328  1.3203 -0.7884
 8814TIP3    H226400   3.493   3.516   5.820 -2.1459 -0.4470  0.8535
 8815TIP3   OH226401   3.581   6.447   5.191 -0.0630  0.3932  0.3879
 8815TIP3    H126402   3.538   6.361   5.190 -0.4513  0.5799 -1.0285
 8815TIP3    H226403   3.518   6.505   5.149  1.5557  0.6780 -1.7515
 8816TIP3   OH226404   6.364   3.383   2.226 -0.2868  0.5722 -0.3769
 8816TIP3    H126405   6.430   3.321   2.255 -0.5572 -0.1922 -1.3221
 8816TIP3    H226406   6.310   3.399   2.303  0.0178 -0.0902 -0.0184
 8817TIP3   OH226407   0.729   0.167   2.707 -0.6357 -0.2477 -0.6248
 8817TIP3    H126408   0.712   0.076   2.729  0.9444 -0.4868 -0.2530
 8817TIP3    H226409   0.782   0.163   2.627  0.7410  0.2533  0.2389
 8818TIP3   OH226410   1.507   5.080   4.638  0.0979  0.1526  0.5818
 8818TIP3    H126411   1.551   5.001   4.668  1.5490  0.6819 -0.0573
 8818TIP3    H226412   1.479   5.124   4.719 -1.1452 -1.2001  0.9296
 8819TIP3   OH226413   3.677   5.612   2.691 -0.2125 -0.6730  0.2892
 8819TIP3    H126414   3.590   5.651   2.701 -0.8370 -2.3542  1.8296
 8819TIP3    H226415   3.727   5.644   2.765 -0.1449 -1.2647  0.5058
 8820TIP3   OH226416   6.288   1.289   3.314 -0.1560 -0.2145  0.2728
 8820TIP3    H126417   6.304   1.216   3.374  1.3201 -0.3777 -0.2926
 8820TIP3    H226418   6.276   1.365   3.371 -1.6744 -0.8439  0.8716
 8821TIP3   OH226419   1.720   5.193   2.905  0.3510 -0.2040  0.3248
 8821TIP3    H126420   1.756   5.241   2.980  1.5814 -0.0979 -0.3211
 8821TIP3    H226421   1.630   5.226   2.898  0.3657  0.1377  1.4523
 8822TIP3   OH226422   4.696   2.324   3.572 -0.0523 -0.3589 -0.2738
 8822TIP3    H126423   4.618   2.271   3.587 -1.5021  1.3045 -1.4853
 8822TIP3    H226424   4.675   2.410   3.608  1.8349 -0.2469  0.7258
 8823TIP3   OH226425   1.168   5.568   1.365 -0.0689 -0.3303 -0.3523
 8823TIP3    H126426   1.233   5.534   1.426 -1.2463 -1.6962  0.2184
 8823TIP3    H226427   1.121   5.635   1.414 -0.4966 -0.8750 -0.0049
 8824TIP3   OH226428   0.385   2.065   0.957  0.3295  0.2209  0.6632
 8824TIP3    H126429   0.320   2.118   0.910  0.3280  0.0447  0.4642
 8824TIP3    H226430   0.462   2.067   0.900  1.1204  1.8870  1.7072
 8825TIP3   OH226431   4.277   7.068   3.240 -0.1110 -0.2843  0.2320
 8825TIP3    H126432   4.250   7.060   3.331 -1.1966 -0.1109 -0.0615
 8825TIP3    H226433   4.363   7.111   3.244  0.4619 -1.4788  1.2224
 8826TIP3   OH226434   3.654   2.452   6.201  0.5253  0.5661 -0.4723
 8826TIP3    H126435   3.596   2.489   6.134  0.2286  1.6436  0.3415
 8826TIP3    H226436   3.628   2.497   6.282  1.3559 -0.1851  0.2310
 8827TIP3   OH226437   6.248   5.249   5.057 -0.0366 -0.6244 -0.0110
 8827TIP3    H126438   6.197   5.172   5.082 -0.7073 -0.3120 -0.3952
 8827TIP3    H226439   6.234   5.311   5.129  0.1439 -0.6915  0.0832
 8828TIP3   OH226440   0.734   2.773   3.514 -0.3994 -0.6336  0.3034
 8828TIP3    H126441   0.683   2.808   3.587 -0.0005  0.4288  0.0945
 8828TIP3    H226442   0.721   2.836   3.443  0.5566 -0.7630 -0.0041
 8829TIP3   OH226443   2.245   2.621   2.991  0.2451 -0.2996  0.2758
 8829TIP3    H126444   2.155   2.648   3.010 -0.0499 -1.7318  1.0538
 8829TIP3    H226445   2.265   2.555   3.058  2.4306  1.0962  1.1210
 8830TIP3   OH226446   4.604   3.788   4.092  0.4885  0.5985 -0.1136
 8830TIP3    H126447   4.620   3.728   4.019  2.5816 -0.2304  0.9519
 8830TIP3    H226448   4.563   3.734   4.159 -0.1080  1.0175 -0.1370
 8831TIP3   OH226449   5.362   6.288   2.280 -0.4275  0.5710 -0.8851
 8831TIP3    H126450   5.425   6.269   2.349 -1.0011  2.8017  0.3774
 8831TIP3    H226451   5.292   6.225   2.294 -0.2860  0.6360  0.2901
 8832TIP3   OH226452   3.576   0.268   1.053 -0.3542  0.5719  0.0335
 8832TIP3    H126453   3.661   0.241   1.089 -0.1770  0.3815 -0.5206
 8832TIP3    H226454   3.583   0.363   1.042  0.8498  0.2625 -2.6708
 8833TIP3   OH226455   5.573   1.400   4.521 -0.1435 -0.4803  0.1268
 8833TIP3    H126456   5.560   1.490   4.550  1.3874 -0.4744  0.9032
 8833TIP3    H226457   5.631   1.409   4.445 -0.2356 -0.7867  0.0222
 8834TIP3   OH226458   4.905   5.023   3.542 -0.0206 -0.3285 -0.0607
 8834TIP3    H126459   4.887   4.938   3.581 -2.7784  0.6429  1.0556
 8834TIP3    H226460   4.886   5.011   3.449  0.1191 -1.0503  0.0011
 8835TIP3   OH226461   8.098   3.264   2.326 -0.6435  0.0211  0.2038
 8835TIP3    H126462   8.053   3.343   2.296  0.4132 -0.0068 -1.6215
 8835TIP3    H226463   8.037   3.193   2.307 -0.0890  0.0261 -1.8528
 8836TIP3   OH226464   1.292   0.229   5.412  0.3008 -0.2025  0.2072
 8836TIP3    H126465   1.223   0.257   5.472 -0.8945 -0.0054 -1.1995
 8836TIP3    H226466   1.295   0.298   5.345  2.4191  0.2001  0.6244
 8837TIP3   OH226467   2.584   7.595   5.896 -0.1244  0.6213 -0.0070
 8837TIP3    H126468   2.533   7.619   5.973  0.4498  0.9443  0.2780
 8837TIP3    H226469   2.675   7.612   5.921  0.2341 -0.9969 -0.1187
 8838TIP3   OH226470   6.502   4.679   0.581 -0.0954 -0.3616 -0.1784
 8838TIP3    H126471   6.429   4.740   0.569 -0.4681 -0.8898 -0.6390
 8838TIP3    H226472   6.555   4.688   0.501  0.9941  0.8621  0.6439
 8839TIP3   OH226473   0.757   5.023   5.574 -0.3277 -0.0204 -0.3987
 8839TIP3    H126474   0.683   4.986   5.527 -1.4139 -0.5705  1.6288
 8839TIP3    H226475   0.733   5.114   5.589 -0.0260  0.1283 -0.7964
 8840TIP3   OH226476   4.925   6.183   2.861 -0.2283 -0.1778  0.2123
 8840TIP3    H126477   4.880   6.102   2.881 -0.1534 -0.4706 -0.7480
 8840TIP3    H226478   4.921   6.190   2.765  0.8710  0.3041  0.1861
 8841TIP3   OH226479   0.729   4.827   3.848  0.0336 -0.0534 -0.0787
 8841TIP3    H126480   0.764   4.746   3.884  0.7374 -0.2057 -1.0685
 8841TIP3    H226481   0.639   4.804   3.822  0.0242 -0.3410  0.1951
 8842TIP3   OH226482   1.314   1.023   5.413  0.3109  0.5949 -0.2397
 8842TIP3    H126483   1.248   1.060   5.471  1.0820  1.1102  0.3247
 8842TIP3    H226484   1.396   1.028   5.463  0.6314 -0.8461 -0.5774
 8843TIP3   OH226485   3.062   6.813   2.533 -0.4275 -0.0231  0.3411
 8843TIP3    H126486   3.023   6.875   2.594 -0.7326  1.7582 -1.5812
 8843TIP3    H226487   2.988   6.766   2.496 -0.1633 -2.2136  2.3456
 8844TIP3   OH226488   4.216   3.528   3.360 -0.1511  0.1637 -0.9074
 8844TIP3    H126489   4.285   3.517   3.294  0.7373 -1.0006  0.1527
 8844TIP3    H226490   4.224   3.619   3.388  0.2219  0.3526 -1.5823
 8845TIP3   OH226491   7.657   2.053   4.049 -0.3828  0.2207 -0.2580
 8845TIP3    H126492   7.571   2.082   4.081 -0.2983  1.5175 -1.1225
 8845TIP3    H226493   7.649   1.958   4.042 -0.6053 -0.0994  2.9244
 8846TIP3   OH226494   8.127   1.136   4.164 -0.0006  1.0030 -0.4647
 8846TIP3    H126495   8.061   1.205   4.159 -0.8334  0.1721 -1.4267
 8846TIP3    H226496   8.168   1.147   4.250 -3.2332 -0.0871  1.3830
 8847TIP3   OH226497   5.618   7.097   2.245 -0.0430  0.2167  0.3096
 8847TIP3    H126498   5.633   7.027   2.307 -1.3354 -0.2623  0.1216
 8847TIP3    H226499   5.704   7.136   2.231  0.8026 -1.6297  0.0499
 8848TIP3   OH226500   5.535   5.474   2.298 -0.7686  0.5909 -0.2240
 8848TIP3    H126501   5.521   5.417   2.222 -0.4843 -0.0583  0.2029
 8848TIP3    H226502   5.536   5.415   2.373 -0.6294  1.1787  0.2470
 8849TIP3   OH226503   3.205   7.113   2.540 -0.4484 -0.1934 -0.0148
 8849TIP3    H126504   3.231   7.205   2.549 -1.6305  0.3041 -1.2706
 8849TIP3    H226505   3.170   7.089   2.626 -0.4845  0.6470  0.2132
 8850TIP3   OH226506   2.133   6.125   0.631 -0.3558  0.2948  0.0361
 8850TIP3    H126507   2.140   6.191   0.562  0.4741  1.0646  0.8157
 8850TIP3    H226508   2.208   6.067   0.617 -0.1516  0.4872  0.3058
 8851TIP3   OH226509   7.939   2.544   4.283 -0.2228  0.2300 -0.2974
 8851TIP3    H126510   7.917   2.599   4.358 -1.0509  2.0407 -1.7965
 8851TIP3    H226511   7.914   2.456   4.310  1.3354  0.4636  2.2683
 8852TIP3   OH226512   7.575   3.632   6.197  0.0082 -0.6272 -0.5474
 8852TIP3    H126513   7.506   3.568   6.212  0.4105 -1.0681 -0.5548
 8852TIP3    H226514   7.598   3.623   6.105  0.3519 -0.7655 -0.4510
 8853TIP3   OH226515   5.110   1.749   3.513  0.2987 -0.1232 -0.1361
 8853TIP3    H126516   5.050   1.733   3.439  0.8383 -2.0797 -0.2235
 8853TIP3    H226517   5.175   1.810   3.479 -0.7025  0.7185 -0.5691
 8854TIP3   OH226518   2.451   0.372   2.753 -0.0206 -0.2960  0.4241
 8854TIP3    H126519   2.504   0.304   2.794 -0.4337  1.1273  3.5525
 8854TIP3    H226520   2.515   0.438   2.725  0.0926 -0.0628  1.2233
 8855TIP3   OH226521   0.083   2.374   0.189  0.9684 -0.0050  0.1738
 8855TIP3    H126522   0.129   2.450   0.224 -0.9258  1.1764  0.1935
 8855TIP3    H226523  -0.009   2.399   0.189  0.4315 -1.7889 -1.1341
 8856TIP3   OH226524   0.888   4.530   1.514  0.2231  0.1128 -0.0908
 8856TIP3    H126525   0.846   4.585   1.448 -1.1882  0.7778  1.2713
 8856TIP3    H226526   0.817   4.472   1.544  0.2843  1.0647  2.0845
 8857TIP3   OH226527   5.750   2.351   4.058  0.7635 -0.1255  0.3570
 8857TIP3    H126528   5.829   2.356   4.113  1.8773 -0.1043 -1.1747
 8857TIP3    H226529   5.782   2.316   3.975 -0.7343  0.5374 -0.5239
 8858TIP3   OH226530   7.290   3.332   2.215  0.8275  0.2242 -0.5998
 8858TIP3    H126531   7.282   3.395   2.286  0.9875  0.9790 -1.2428
 8858TIP3    H226532   7.369   3.358   2.168  1.2730 -0.8575 -0.4924
 8859TIP3   OH226533   0.828   0.017   3.472 -0.5878  0.7235  0.0636
 8859TIP3    H126534   0.910   0.002   3.521 -0.3629  0.0048 -0.5089
 8859TIP3    H226535   0.836   0.106   3.438 -0.6729  1.1752  1.1816
 8860TIP3   OH226536   3.218   3.305   4.871 -0.0351 -1.0115 -0.3872
 8860TIP3    H126537   3.140   3.282   4.820  0.3648 -1.8541 -0.6363
 8860TIP3    H226538   3.215   3.249   4.948  0.6009 -1.4361 -0.6625
 8861TIP3   OH226539   1.513   6.468   1.884 -0.0969  0.2052 -0.0368
 8861TIP3    H126540   1.501   6.552   1.839  0.6904 -0.1941 -1.0153
 8861TIP3    H226541   1.608   6.455   1.886 -0.1235  0.1178  1.5876
 8862TIP3   OH226542   5.277   7.262   4.403 -0.0027 -0.5411  0.2485
 8862TIP3    H126543   5.336   7.307   4.463 -0.3221 -0.0321  0.1911
 8862TIP3    H226544   5.296   7.300   4.317  1.0780 -1.8903 -0.1559
 8863TIP3   OH226545   2.008   4.289   2.429  0.1384  0.4759  0.0434
 8863TIP3    H126546   2.030   4.336   2.348 -0.6704 -0.5544 -0.8177
 8863TIP3    H226547   2.027   4.351   2.499  0.9699  1.3642 -0.9294
 8864TIP3   OH226548   6.454   0.850   3.449 -0.2139 -0.4898 -0.3267
 8864TIP3    H126549   6.456   0.909   3.374  0.7994 -0.9031 -0.6349
 8864TIP3    H226550   6.368   0.807   3.443 -1.7124  2.0713  0.8366
 8865TIP3   OH226551   1.505   7.317   2.815  0.2244 -0.2088  0.2196
 8865TIP3    H126552   1.599   7.329   2.803  0.2207 -0.3638  0.0143
 8865TIP3    H226553   1.466   7.398   2.785  0.3036 -0.0748  0.4748
 8866TIP3   OH226554   3.334   2.505   4.076 -0.0191  0.4540  0.7519
 8866TIP3    H126555   3.386   2.553   4.141  1.7896  0.2725 -0.4919
 8866TIP3    H226556   3.375   2.418   4.074  0.0583  0.5105 -0.7212
 8867TIP3   OH226557   4.732   0.224   6.600  0.0705  0.2914  0.1082
 8867TIP3    H126558   4.671   0.297   6.589 -0.5961 -0.0880  1.1888
 8867TIP3    H226559   4.818   0.265   6.600 -0.0998  0.7858 -1.9407
 8868TIP3   OH226560   4.470   0.396   4.471  0.2692  0.1067  0.0292
 8868TIP3    H126561   4.471   0.362   4.560  0.4914  0.1737  0.0547
 8868TIP3    H226562   4.549   0.359   4.430 -0.5911 -1.1092 -0.5984
 8869TIP3   OH226563   4.956   6.665   6.250 -0.3618 -0.0625  0.4772
 8869TIP3    H126564   4.905   6.586   6.235  1.2730 -1.5141  2.0689
 8869TIP3    H226565   4.988   6.690   6.164  1.6352 -3.0042  0.2172
 8870TIP3   OH226566   5.368   4.367   6.565 -0.0819  0.5774  0.1333
 8870TIP3    H126567   5.310   4.293   6.546 -0.0852 -0.0369  2.2416
 8870TIP3    H226568   5.447   4.350   6.513 -0.7559  0.0320 -0.7375
 8871TIP3   OH226569   6.031   1.621   1.188 -0.1272  0.2212 -0.1201
 8871TIP3    H126570   6.099   1.634   1.122 -0.7858  0.8951 -0.6756
 8871TIP3    H226571   5.971   1.694   1.177  0.3724  1.0388  2.0206
 8872TIP3   OH226572   5.270   7.828   2.751  0.2670 -0.1713 -0.4336
 8872TIP3    H126573   5.303   7.834   2.840  0.0449 -0.5716 -0.3225
 8872TIP3    H226574   5.316   7.753   2.713 -0.0904 -0.3814 -0.4588
 8873TIP3   OH226575   0.101   5.123   2.200 -0.0396 -0.2819  0.1354
 8873TIP3    H126576   0.019   5.079   2.220 -1.4222  2.6078  1.4233
 8873TIP3    H226577   0.079   5.184   2.130  0.8641  0.8530  0.8085
 8874TIP3   OH226578   3.648   7.276   3.038 -0.4466 -0.2452 -1.0266
 8874TIP3    H126579   3.553   7.279   3.051 -0.5962 -0.0967 -2.0830
 8874TIP3    H226580   3.667   7.351   2.981  0.8822  2.3587  2.4664
 8875TIP3   OH226581   3.956   5.505   6.182 -0.0424  0.1581  0.0635
 8875TIP3    H126582   3.864   5.478   6.171 -0.4048  0.0589  2.6785
 8875TIP3    H226583   3.971   5.568   6.112 -1.6745 -0.8130 -1.2486
 8876TIP3   OH226584   6.274   0.073   1.045  0.0476 -0.4407  0.2829
 8876TIP3    H126585   6.310   0.048   0.960 -0.0016 -1.3291  0.5122
 8876TIP3    H226586   6.211   0.004   1.065 -0.7482  0.3425  0.5398
 8877TIP3   OH226587   2.263   1.231   0.047  0.0556 -0.2168 -0.4766
 8877TIP3    H126588   2.200   1.302   0.039  0.9738  0.4318 -2.5734
 8877TIP3    H226589   2.211   1.151   0.034 -0.6352  0.1933 -0.2598
 8878TIP3   OH226590   1.016   0.108   5.324 -0.3406 -0.1076 -0.1246
 8878TIP3    H126591   1.098   0.138   5.361 -0.4472 -1.3545  1.1850
 8878TIP3    H226592   1.034   0.020   5.291 -0.3525  0.7752 -2.7925
 8879TIP3   OH226593   0.057   0.984   3.745  0.7576 -0.0317  0.1785
 8879TIP3    H126594   0.068   0.894   3.716  0.1277 -0.0366 -0.0511
 8879TIP3    H226595  -0.013   0.980   3.809 -0.3760  0.5112 -0.9792
 8880TIP3   OH226596   1.632   5.471   1.365 -0.5622  0.4247 -0.6424
 8880TIP3    H126597   1.592   5.495   1.281 -0.2610 -0.3357 -1.0103
 8880TIP3    H226598   1.603   5.381   1.380 -2.5038  1.2484  1.2027
 8881TIP3   OH226599   6.728   5.862   5.599 -0.2986  0.3022  0.5057
 8881TIP3    H126600   6.812   5.868   5.645 -0.1198 -1.9615  0.5770
 8881TIP3    H226601   6.721   5.945   5.551  1.6080  0.8556  1.0909
 8882TIP3   OH226602   4.219   0.909   3.315  0.0426 -0.4106 -0.2749
 8882TIP3    H126603   4.231   0.896   3.221 -2.0152  3.2146 -1.2176
 8882TIP3    H226604   4.150   0.849   3.339 -1.6919  0.8085 -1.9112
 8883TIP3   OH226605   1.361   3.878   6.583  0.1098  0.4765 -0.3470
 8883TIP3    H126606   1.270   3.849   6.576  0.5619 -0.6906 -2.2882
 8883TIP3    H226607   1.403   3.812   6.639 -0.3099  1.2672  0.9243
 8884TIP3   OH226608   1.032   5.303   2.774  0.0249  0.1733  0.5014
 8884TIP3    H126609   1.036   5.220   2.821  0.3641  0.6789  1.3888
 8884TIP3    H226610   0.980   5.360   2.831 -0.8130  0.3650 -0.4370
 8885TIP3   OH226611   5.687   7.326   2.801  0.1862  1.1401 -0.1177
 8885TIP3    H126612   5.700   7.364   2.714  0.8554  0.4561 -0.3259
 8885TIP3    H226613   5.599   7.289   2.798  0.5193  0.3726 -0.8005
 8886TIP3   OH226614   6.303   3.637   6.146  0.2573 -0.5185  0.0277
 8886TIP3    H126615   6.271   3.680   6.067 -0.0699 -0.9506 -0.0786
 8886TIP3    H226616   6.224   3.622   6.199  0.6703  1.3811  1.2525
 8887TIP3   OH226617   3.573   1.398   0.226  1.0763 -0.0075 -0.5536
 8887TIP3    H126618   3.583   1.469   0.162  0.2272 -0.0281 -0.7190
 8887TIP3    H226619   3.650   1.405   0.282  1.0629  0.9648 -0.6486
 8888TIP3   OH226620   2.456   0.861   5.997  0.2165  0.0696  0.2172
 8888TIP3    H126621   2.422   0.865   6.086 -0.4575 -0.4216 -0.0050
 8888TIP3    H226622   2.384   0.824   5.946  0.6598  0.1712 -0.4977
 8889TIP3   OH226623   1.698   6.302   3.446  0.1925  0.1720 -0.3888
 8889TIP3    H126624   1.615   6.285   3.491  0.4970  2.8667  1.3662
 8889TIP3    H226625   1.701   6.235   3.377 -3.0127 -0.5592  0.0069
 8890TIP3   OH226626   3.386   0.765   2.006 -0.1613 -0.1520 -0.4101
 8890TIP3    H126627   3.378   0.717   2.088  1.2793  0.3305  0.0419
 8890TIP3    H226628   3.313   0.828   2.007  2.0540  2.7090  2.5038
 8891TIP3   OH226629   6.158   0.174   5.926 -0.1545  0.0186  0.4610
 8891TIP3    H126630   6.204   0.254   5.902  2.6002 -1.3173  0.8639
 8891TIP3    H226631   6.143   0.128   5.843 -0.3306  0.2529  0.3649
 8892TIP3   OH226632   2.509   6.171   5.314  0.0577 -0.4281 -0.0822
 8892TIP3    H126633   2.430   6.118   5.298 -0.0693 -0.5335  0.8498
 8892TIP3    H226634   2.508   6.237   5.244 -0.8083 -0.4874 -0.1399
 8893TIP3   OH226635   7.591   6.348   0.316  0.2101  0.7537 -0.3125
 8893TIP3    H126636   7.628   6.304   0.240 -0.1987  1.5452 -0.9757
 8893TIP3    H226637   7.667   6.380   0.365  0.6363 -2.1342  1.1196
 8894TIP3   OH226638   2.993   2.232   5.661  0.0001  0.1098  0.1118
 8894TIP3    H126639   2.993   2.324   5.636  0.7728  0.2788  0.6906
 8894TIP3    H226640   2.904   2.216   5.693  0.3588  1.1747  1.7845
 8895TIP3   OH226641   7.781   7.321   6.009 -0.2677 -0.2184  0.5148
 8895TIP3    H126642   7.761   7.336   6.102  0.2923  1.1999  0.4352
 8895TIP3    H226643   7.717   7.374   5.962  0.1211 -0.0895  0.1275
 8896TIP3   OH226644   5.413   4.735   0.032 -0.3029  0.0056  0.9212
 8896TIP3    H126645   5.465   4.658   0.009  2.5853  2.2653 -0.9628
 8896TIP3    H226646   5.458   4.773   0.107 -0.8956  0.5761  0.9974
 8897TIP3   OH226647   2.726   6.544   6.393 -0.1298  0.5034 -0.8241
 8897TIP3    H126648   2.802   6.600   6.376 -0.4256  1.5076  0.9002
 8897TIP3    H226649   2.756   6.482   6.459 -0.1920 -0.5571 -1.7632
 8898TIP3   OH226650   7.984   6.801   1.481 -0.3262 -0.0679 -0.0892
 8898TIP3    H126651   7.915   6.738   1.461 -0.0161 -0.9882  1.5149
 8898TIP3    H226652   7.943   6.887   1.470 -1.7354 -0.5958  0.7930
 8899TIP3   OH226653   3.391   7.473   4.802 -0.5321  0.4686 -0.4824
 8899TIP3    H126654   3.466   7.510   4.849 -1.2570 -0.0410  1.1336
 8899TIP3    H226655   3.374   7.536   4.732 -0.8369  2.5168  1.3032
 8900TIP3   OH226656   7.196   3.673   0.792  0.2643  0.2880 -0.0397
 8900TIP3    H126657   7.186   3.692   0.886  2.2804  2.2646 -0.1144
 8900TIP3    H226658   7.155   3.748   0.749 -3.3748 -2.0375 -0.9506
 8901TIP3   OH226659   0.641   0.824   2.167 -0.0289  0.2109  0.0722
 8901TIP3    H126660   0.653   0.738   2.127  1.4369  0.7699 -0.7945
 8901TIP3    H226661   0.576   0.811   2.236  0.7872 -1.7782  0.5267
 8902TIP3   OH226662   3.751   0.565   4.303 -0.4697  0.0623  0.2462
 8902TIP3    H126663   3.808   0.499   4.264 -0.5576  0.3483 -0.3833
 8902TIP3    H226664   3.769   0.561   4.397  0.4319  0.0106  0.0722
 8903TIP3   OH226665   4.310   5.265   0.348 -0.2817  0.2688  0.0821
 8903TIP3    H126666   4.314   5.361   0.351 -0.5890  0.2562  1.5246
 8903TIP3    H226667   4.354   5.237   0.428 -1.8665 -0.7299  0.6398
 8904TIP3   OH226668   6.619   3.537   3.167 -0.5384  0.2037 -0.2553
 8904TIP3    H126669   6.706   3.577   3.173 -1.3689  2.0982  0.0684
 8904TIP3    H226670   6.632   3.447   3.196  1.1403  0.7394  0.8301
 8905TIP3   OH226671   2.912   6.632   3.986 -0.3196 -0.1138  0.5621
 8905TIP3    H126672   3.006   6.615   3.991  0.0225  0.6646 -1.9085
 8905TIP3    H226673   2.887   6.606   3.897 -2.1514  1.0389  0.6784
 8906TIP3   OH226674   0.165   5.025   3.622 -0.3547 -0.3099 -0.3245
 8906TIP3    H126675   0.128   5.102   3.578  0.9151  1.0259  0.8405
 8906TIP3    H226676   0.099   4.957   3.609 -1.1863  0.7331 -2.0436
 8907TIP3   OH226677   5.379   0.151   6.054  0.3352  0.4404  0.6021
 8907TIP3    H126678   5.379   0.189   5.966 -0.6142 -0.6487  0.0962
 8907TIP3    H226679   5.467   0.118   6.066  0.2559 -0.1284 -0.2894
 8908TIP3   OH226680   1.697   7.139   2.196  0.0462  0.1546  0.4249
 8908TIP3    H126681   1.716   7.045   2.190  1.2500  0.4558 -1.2613
 8908TIP3    H226682   1.607   7.142   2.227 -0.8105 -1.6692 -1.5290
 8909TIP3   OH226683   8.251   5.431   5.740  0.4898  0.5206 -0.0093
 8909TIP3    H126684   8.338   5.467   5.752  0.3400  0.8209  0.2020
 8909TIP3    H226685   8.208   5.443   5.825  1.4505 -3.0154  1.1742
 8910TIP3   OH226686   1.024   5.223   0.584  0.0816  0.0472  0.4428
 8910TIP3    H126687   1.014   5.266   0.669 -2.2491  0.8108 -0.1536
 8910TIP3    H226688   1.028   5.130   0.604 -2.2204  0.0952  1.3182
 8911TIP3   OH226689   7.343   0.701   5.884 -0.5276 -0.0845 -0.0179
 8911TIP3    H126690   7.418   0.669   5.834 -0.7607  1.3813 -1.3934
 8911TIP3    H226691   7.378   0.773   5.936 -1.0792  1.1101 -1.2404
 8912TIP3   OH226692   0.524   6.000   1.324  0.1405 -0.0220 -0.0258
 8912TIP3    H126693   0.592   6.002   1.391 -0.6724  1.6874  0.8366
 8912TIP3    H226694   0.451   6.049   1.363 -0.8214 -0.0457 -1.6861
 8913TIP3   OH226695   6.990   4.712   4.769 -0.3476  0.1457 -0.0282
 8913TIP3    H126696   6.970   4.805   4.754  1.4311  1.0050  2.2717
 8913TIP3    H226697   7.061   4.713   4.833 -1.2311 -2.8576  1.1790
 8914TIP3   OH226698   5.115   2.104   0.798 -0.3321 -0.1311 -0.0341
 8914TIP3    H126699   5.133   2.025   0.849  0.6546 -0.6768 -1.1708
 8914TIP3    H226700   5.030   2.089   0.758 -0.2564 -0.5082 -0.0526
 8915TIP3   OH226701   1.224   4.978   3.262  0.4861  0.2185  0.2218
 8915TIP3    H126702   1.175   4.919   3.320 -1.9486 -1.4369 -3.1410
 8915TIP3    H226703   1.285   4.920   3.216 -0.3095  0.6722 -1.4879
 8916TIP3   OH226704   6.161   7.405   2.567 -0.7393  0.0836 -0.0982
 8916TIP3    H126705   6.245   7.381   2.527 -0.4012 -1.8239  1.5766
 8916TIP3    H226706   6.132   7.481   2.517  1.1809 -0.1966 -1.8016
 8917TIP3   OH226707   5.333   5.911   3.939  0.8059  0.1976  0.1925
 8917TIP3    H126708   5.341   5.900   3.845 -1.4273 -1.3814  0.0897
 8917TIP3    H226709   5.239   5.915   3.955  1.1241  2.9856  2.1596
 8918TIP3   OH226710   4.651   4.713   4.846 -0.5018  0.1986  0.1662
 8918TIP3    H126711   4.651   4.794   4.794  1.2290  0.7775  1.0110
 8918TIP3    H226712   4.721   4.660   4.808 -1.0994 -0.5887  0.1387
 8919TIP3   OH226713   4.358   0.435   3.025 -0.1499  0.2116  0.3000
 8919TIP3    H126714   4.296   0.504   3.000  0.1071 -0.1723 -1.5066
 8919TIP3    H226715   4.389   0.398   2.942  0.6745 -1.2406  1.1988
 8920TIP3   OH226716   4.476   2.001   2.296  0.2175 -0.0056 -0.2226
 8920TIP3    H126717   4.554   1.947   2.313  0.1726 -0.1928 -0.6027
 8920TIP3    H226718   4.450   2.033   2.382  0.9716  0.4069 -0.1425
 8921TIP3   OH226719   1.006   1.828   5.560 -0.2419  0.0666 -0.6612
 8921TIP3    H126720   1.048   1.748   5.528  1.2569  1.3193 -2.0202
 8921TIP3    H226721   1.068   1.863   5.624 -0.7626  0.2873 -0.2713
 8922TIP3   OH226722   7.946   0.179   3.258  0.2467  0.5003  0.0888
 8922TIP3    H126723   7.859   0.143   3.246 -0.0380  0.7416  1.3185
 8922TIP3    H226724   7.932   0.259   3.308  1.0762  1.1397 -0.6608
 8923TIP3   OH226725   1.407   2.350   1.983  0.1487 -0.1774 -0.6480
 8923TIP3    H126726   1.449   2.420   2.033 -0.1667 -0.6550  0.3184
 8923TIP3    H226727   1.321   2.385   1.959 -0.0060 -0.2241 -0.1715
 8924TIP3   OH226728   5.505   3.853   4.760 -0.1710 -0.2181 -0.2698
 8924TIP3    H126729   5.461   3.920   4.708 -4.1503 -0.8723  1.7630
 8924TIP3    H226730   5.540   3.900   4.836 -1.3951 -0.1396  0.2749
 8925TIP3   OH226731   3.327   2.570   1.736  0.5054  0.2553  0.6263
 8925TIP3    H126732   3.353   2.602   1.650  2.6783 -0.8877  0.7935
 8925TIP3    H226733   3.284   2.486   1.718  0.9346  0.0299  0.6263
 8926TIP3   OH226734   4.421   7.348   1.572  0.4212 -0.0520  1.0008
 8926TIP3    H126735   4.452   7.288   1.503  0.4386  0.3328  0.6716
 8926TIP3    H226736   4.355   7.402   1.529  1.4459  1.1527  0.8981
 8927TIP3   OH226737   0.157   7.519   2.704 -0.1939  0.2886  0.7853
 8927TIP3    H126738   0.190   7.522   2.614  2.6804 -0.0945  1.7268
 8927TIP3    H226739   0.201   7.592   2.748 -2.3946  1.1541  1.6682
 8928TIP3   OH226740   0.729   1.355   0.821 -0.2091 -0.3353  0.2498
 8928TIP3    H126741   0.802   1.308   0.781  0.5241  0.7865  0.2078
 8928TIP3    H226742   0.767   1.439   0.848 -1.1248 -0.3138  1.5961
 8929TIP3   OH226743   5.956   4.039   0.957  0.0454 -0.1956  0.0130
 8929TIP3    H126744   5.929   3.993   1.037  0.5671  0.8068  0.7933
 8929TIP3    H226745   5.956   3.971   0.890 -0.6974 -1.0105  0.7904
 8930TIP3   OH226746   7.815   5.136   4.729 -0.1867  0.1432 -1.0123
 8930TIP3    H126747   7.731   5.151   4.773  0.9657 -0.1352  1.4753
 8930TIP3    H226748   7.816   5.042   4.710 -0.8953  0.3472 -2.1843
 8931TIP3   OH226749   2.936   3.323   4.043  0.1026  0.8606  0.8107
 8931TIP3    H126750   2.932   3.229   4.060 -0.7910  0.9186  0.9880
 8931TIP3    H226751   2.995   3.332   3.968 -0.3718  0.0890  0.3385
 8932TIP3   OH226752   3.010   2.506   5.604 -0.1714  0.4081  0.1856
 8932TIP3    H126753   2.989   2.577   5.544 -3.1021 -1.4044 -1.1837
 8932TIP3    H226754   3.036   2.550   5.686  0.1692  2.9555 -1.1854
 8933TIP3   OH226755   4.757   1.490   0.900  0.3288  0.7617  0.1196
 8933TIP3    H126756   4.729   1.398   0.903  0.0564  0.8009 -0.8865
 8933TIP3    H226757   4.739   1.517   0.811 -2.2211  2.6312  1.0897
 8934TIP3   OH226758   2.754   6.526   0.231  0.1135  0.0862  0.4302
 8934TIP3    H126759   2.781   6.607   0.274  0.4859 -0.4733  1.2904
 8934TIP3    H226760   2.835   6.490   0.195 -0.0562  0.1154  0.0207
 8935TIP3   OH226761   0.437   1.330   4.739 -0.6453 -0.4536 -0.2003
 8935TIP3    H126762   0.523   1.307   4.776 -1.4394 -0.7259  1.5853
 8935TIP3    H226763   0.457   1.383   4.663  1.1436 -1.7421 -0.6958
 8936TIP3   OH226764   5.942   2.897   4.814  0.1142 -0.6396 -0.0371
 8936TIP3    H126765   5.922   2.866   4.903  0.0044 -0.7792 -0.1102
 8936TIP3    H226766   5.969   2.818   4.767 -2.0545 -1.0242 -0.7800
 8937TIP3   OH226767   5.922   6.361   1.744 -0.4455  0.2201 -0.2970
 8937TIP3    H126768   5.993   6.419   1.771  0.4413 -1.5136  1.3840
 8937TIP3    H226769   5.851   6.381   1.806 -0.6029  0.3913 -0.5330
 8938TIP3   OH226770   4.181   6.344   1.625  0.1435 -0.5921 -0.6452
 8938TIP3    H126771   4.274   6.329   1.642  0.5690  1.0532 -1.2878
 8938TIP3    H226772   4.151   6.394   1.701 -0.0478 -0.5357 -0.7578
 8939TIP3   OH226773   5.294   5.485   4.842  0.5168  0.3216  0.3556
 8939TIP3    H126774   5.256   5.423   4.780 -1.6252  1.7526  0.1302
 8939TIP3    H226775   5.374   5.442   4.873 -0.5557 -2.2687 -0.2104
 8940TIP3   OH226776   4.941   1.270   1.281  0.4074 -0.1164 -1.0216
 8940TIP3    H126777   4.976   1.296   1.196 -0.7014  0.5219 -1.2997
 8940TIP3    H226778   4.903   1.349   1.317 -0.5122 -0.7261 -0.6197
 8941TIP3   OH226779   0.930   6.521   2.961  0.5050 -0.1705  1.1179
 8941TIP3    H126780   0.868   6.452   2.984 -0.0515  0.2482  0.9090
 8941TIP3    H226781   0.997   6.476   2.910  1.9174 -1.1646  3.6906
 8942TIP3   OH226782   0.054   4.331   4.700 -0.6074  0.1824 -0.3704
 8942TIP3    H126783   0.097   4.380   4.630  0.0456  0.9625  0.5610
 8942TIP3    H226784   0.092   4.244   4.696  2.4245  1.2882  1.5145
 8943TIP3   OH226785   7.712   2.779   2.232 -0.6937 -0.2290 -0.0602
 8943TIP3    H126786   7.711   2.816   2.321 -1.0291 -1.9712  0.7117
 8943TIP3    H226787   7.803   2.759   2.215 -0.7935 -1.1858  0.4816
 8944TIP3   OH226788   1.210   5.936   5.056 -0.0881 -0.3863  0.1189
 8944TIP3    H126789   1.124   5.969   5.080 -0.1180  1.1872 -1.9657
 8944TIP3    H226790   1.226   5.969   4.968  2.1881 -1.5723 -0.0015
 8945TIP3   OH226791   5.527   6.815   6.273  0.3942  0.2583 -0.3265
 8945TIP3    H126792   5.507   6.871   6.198 -1.3452 -0.4572 -0.4631
 8945TIP3    H226793   5.449   6.821   6.329  1.5507  0.5808  1.3235
 8946TIP3   OH226794   2.832   4.124   4.926  0.0007  0.2437  0.1292
 8946TIP3    H126795   2.882   4.205   4.926  1.2997 -0.5251 -0.2122
 8946TIP3    H226796   2.796   4.117   5.014  1.9032  0.0071  0.9330
 8947TIP3   OH226797   6.579  -0.017   4.235  0.3921  0.3657 -0.9636
 8947TIP3    H126798   6.540   0.042   4.170  0.4798  0.4093 -0.9769
 8947TIP3    H226799   6.671   0.008   4.238  0.0599  1.6000  0.4839
 8948TIP3   OH226800   0.756   0.620   4.205  0.3165 -0.0227  0.1309
 8948TIP3    H126801   0.686   0.571   4.161  0.2040 -0.4867  0.8098
 8948TIP3    H226802   0.774   0.569   4.284  1.5617 -0.0129 -0.1380
 8949TIP3   OH226803   4.309   0.917   3.051  0.8358 -0.0817 -0.3217
 8949TIP3    H126804   4.285   0.982   2.985 -0.8360 -0.4586 -0.1247
 8949TIP3    H226805   4.400   0.895   3.031  0.3106 -0.3728 -2.6949
 8950TIP3   OH226806   3.355   0.166   3.889 -0.4213 -0.5781  0.3976
 8950TIP3    H126807   3.441   0.129   3.904 -0.2789 -0.3434  0.1609
 8950TIP3    H226808   3.364   0.217   3.809 -0.0901  1.6182  1.7507
 8951TIP3   OH226809   0.977   6.929   1.187 -0.6591  0.2577  0.4880
 8951TIP3    H126810   1.007   6.941   1.277  0.5354  1.5354 -0.0200
 8951TIP3    H226811   0.955   7.018   1.157  1.4042  0.3004 -1.2194
 8952TIP3   OH226812   1.294   6.447   2.164  0.5534  0.0056 -1.3275
 8952TIP3    H126813   1.262   6.506   2.096 -1.2123 -0.1657 -0.7176
 8952TIP3    H226814   1.231   6.458   2.236  1.9373 -0.3563 -0.0032
 8953TIP3   OH226815   5.911   0.551   1.289  0.0204 -0.3976 -0.1467
 8953TIP3    H126816   5.914   0.645   1.311 -0.0930 -0.5964  0.7674
 8953TIP3    H226817   5.993   0.534   1.244 -0.5497  0.4303 -1.5834
 8954TIP3   OH226818   4.255   0.230   6.004 -0.2613 -0.1079  0.5037
 8954TIP3    H126819   4.272   0.169   6.075  0.9565  1.0448  1.2570
 8954TIP3    H226820   4.239   0.174   5.928  3.2708 -1.4936  0.5636
 8955TIP3   OH226821   7.808   6.786   0.216 -0.7692 -0.1349  0.9940
 8955TIP3    H126822   7.866   6.823   0.284 -2.5572 -0.1537  2.5946
 8955TIP3    H226823   7.774   6.863   0.170  0.0433 -0.0975  0.4370
 8956TIP3   OH226824   6.572   5.252   2.883  0.1457  0.0494 -0.2733
 8956TIP3    H126825   6.537   5.249   2.972  0.9911 -1.0674  0.0476
 8956TIP3    H226826   6.617   5.337   2.878  1.6064 -0.6078  0.9867
 8957TIP3   OH226827   8.155   5.378   3.193  0.2964  0.1755 -0.5625
 8957TIP3    H126828   8.191   5.440   3.129 -1.8839  0.4621 -1.5993
 8957TIP3    H226829   8.208   5.299   3.183  1.1048  0.8161 -1.4943
 8958TIP3   OH226830   4.893   6.591   4.427  0.1717  0.4445  0.3220
 8958TIP3    H126831   4.801   6.619   4.425 -0.7978 -2.1828  2.3278
 8958TIP3    H226832   4.890   6.502   4.461  3.4863  0.1281  0.0784
 8959TIP3   OH226833   8.205   5.387   1.129  0.1839  0.1857  0.0807
 8959TIP3    H126834   8.190   5.359   1.039  2.6294 -0.2607 -0.2630
 8959TIP3    H226835   8.283   5.443   1.124 -1.1284  2.3253  1.5917
 8960TIP3   OH226836   4.352   2.636   0.447  0.1457  0.2204  0.0415
 8960TIP3    H126837   4.327   2.667   0.534 -3.0962  1.0061 -1.0330
 8960TIP3    H226838   4.413   2.702   0.414  0.4576  0.5447  1.2294
 8961TIP3   OH226839   0.225   6.589   4.589  0.0768  0.1760  0.1599
 8961TIP3    H126840   0.134   6.598   4.614 -0.3756  0.9286 -1.6009
 8961TIP3    H226841   0.232   6.500   4.554 -0.3122  0.5189 -0.8365
 8962TIP3   OH226842   2.621   1.946   1.616  0.0320  0.0020 -0.1829
 8962TIP3    H126843   2.529   1.968   1.609  0.2185  1.3171  1.1146
 8962TIP3    H226844   2.665   2.028   1.638  1.5552 -0.5417 -0.9887
 8963TIP3   OH226845   0.418   0.807   0.629 -0.1498 -0.1450  0.4582
 8963TIP3    H126846   0.347   0.870   0.643 -0.3089  0.0982 -1.2218
 8963TIP3    H226847   0.494   0.861   0.610  0.4868 -0.4148  2.0644
 8964TIP3   OH226848   6.242   2.101   6.223 -0.0047  0.1347 -0.4007
 8964TIP3    H126849   6.306   2.169   6.243 -0.4290  0.6648 -0.8306
 8964TIP3    H226850   6.255   2.035   6.291  0.3595  0.6795  0.0647
 8965TIP3   OH226851   3.739   3.908   6.534 -0.0812  0.0326 -0.1752
 8965TIP3    H126852   3.713   3.948   6.450  2.0642  0.6964 -0.5747
 8965TIP3    H226853   3.780   3.978   6.583  1.7188 -1.1037  0.0482
 8966TIP3   OH226854   2.829   3.921   0.092  0.0651  0.2273  0.4026
 8966TIP3    H126855   2.881   3.991   0.130  0.3117  0.6325 -0.6328
 8966TIP3    H226856   2.867   3.908   0.005 -1.8899  0.9540 -0.6353
 8967TIP3   OH226857   5.825   4.126   4.031 -0.3208 -0.3173 -0.0653
 8967TIP3    H126858   5.788   4.076   3.958  0.9470  1.2620 -1.9058
 8967TIP3    H226859   5.772   4.206   4.034  0.1473 -0.0109  0.2119
 8968TIP3   OH226860   7.516   4.987   1.241 -0.2558  0.1861 -0.3368
 8968TIP3    H126861   7.513   4.977   1.337 -1.2561 -2.4779 -0.5499
 8968TIP3    H226862   7.508   5.081   1.227  0.8581  0.7600  2.2135
 8969TIP3   OH226863   7.534   1.588   4.253  0.4990 -0.6217  0.2105
 8969TIP3    H126864   7.494   1.675   4.263  2.3752  0.2664  0.4935
 8969TIP3    H226865   7.540   1.555   4.343 -0.4666 -1.1852  0.0774
 8970TIP3   OH226866   7.831   2.299   0.570 -0.1796  0.3393  0.0475
 8970TIP3    H126867   7.784   2.301   0.654 -1.6767  1.3681 -0.7585
 8970TIP3    H226868   7.819   2.210   0.538 -1.1476  0.4370  0.1109
 8971TIP3   OH226869   2.647   2.712   0.067 -0.2204  0.5227 -0.5724
 8971TIP3    H126870   2.674   2.629   0.028  2.2100  1.0398 -0.1860
 8971TIP3    H226871   2.616   2.689   0.155 -0.2132 -0.0593 -0.7241
 8972TIP3   OH226872   6.482   0.997   5.542 -0.1762 -0.2677  0.1717
 8972TIP3    H126873   6.470   1.024   5.633  0.7201 -0.2666  0.2957
 8972TIP3    H226874   6.504   1.077   5.495  0.8730 -0.5008  0.2432
 8973TIP3   OH226875   7.128   1.165   1.911  0.0620 -0.3174 -0.6347
 8973TIP3    H126876   7.151   1.258   1.906 -0.3706 -0.1631  0.0749
 8973TIP3    H226877   7.088   1.146   1.825 -1.7757  0.7068 -0.0690
 8974TIP3   OH226878   5.960   0.590   3.649 -0.6484 -0.3201  0.0018
 8974TIP3    H126879   6.019   0.604   3.575  0.0335  1.4242  0.8114
 8974TIP3    H226880   6.005   0.525   3.703 -0.1094 -0.0103 -0.0670
 8975TIP3   OH226881   4.885   6.616   2.375 -0.3386  0.2638 -0.2746
 8975TIP3    H126882   4.928   6.653   2.298 -0.8363 -0.5903 -0.9762
 8975TIP3    H226883   4.800   6.587   2.343 -1.3449  1.6428  1.0119
 8976TIP3   OH226884   5.577   3.447   2.475  0.0469  0.5583 -0.4629
 8976TIP3    H126885   5.626   3.389   2.532  0.8295 -0.2724 -1.9188
 8976TIP3    H226886   5.574   3.530   2.522  0.5195 -0.1320  0.8327
 8977TIP3   OH226887   7.920   3.360   1.824  0.0486 -0.1145  0.6257
 8977TIP3    H126888   7.949   3.270   1.842 -0.5379 -0.2561  0.8877
 8977TIP3    H226889   7.973   3.414   1.883  1.9974 -0.0445 -1.0708
 8978TIP3   OH226890   3.531   2.591   4.302 -0.7259 -0.0889  0.2412
 8978TIP3    H126891   3.583   2.512   4.315 -0.7976 -0.0897  0.5189
 8978TIP3    H226892   3.587   2.662   4.332 -0.6584 -0.0306 -0.0161
 8979TIP3   OH226893   6.562   0.689   6.438 -0.1049  0.2522 -0.1382
 8979TIP3    H126894   6.530   0.771   6.400  0.7165  0.5432 -0.2183
 8979TIP3    H226895   6.617   0.651   6.369 -2.1878 -1.4658 -0.9594
 8980TIP3   OH226896   4.917   3.049   2.166 -0.1448 -0.8008  0.1317
 8980TIP3    H126897   5.012   3.046   2.152 -0.2604 -2.6247 -0.4925
 8980TIP3    H226898   4.880   3.020   2.083 -1.3298  0.9654 -0.0242
 8981TIP3   OH226899   0.185   6.671   1.131  0.0555  0.7760 -0.1759
 8981TIP3    H126900   0.136   6.744   1.094 -2.3207 -0.1862  0.8938
 8981TIP3    H226901   0.218   6.705   1.214 -1.2317  0.6087  0.4260
 8982TIP3   OH226902   6.998   4.453   0.837  0.6137  0.7330 -0.3920
 8982TIP3    H126903   6.999   4.365   0.874 -2.4378  0.4704 -0.6426
 8982TIP3    H226904   7.023   4.511   0.909  1.8371 -0.2494 -0.0023
 8983TIP3   OH226905   0.807   2.049   4.065  0.9029  0.6435  0.2111
 8983TIP3    H126906   0.809   2.009   3.978  0.0422 -0.4598  0.6764
 8983TIP3    H226907   0.718   2.035   4.096  0.8977  1.9885  0.8449
 8984TIP3   OH226908   8.269   5.905   4.290 -0.3006 -0.0385  0.7417
 8984TIP3    H126909   8.183   5.907   4.249 -0.2881 -0.3554  0.6974
 8984TIP3    H226910   8.264   5.972   4.358 -0.2290  0.6793  0.0540
 8985TIP3   OH226911   0.784   2.725   6.563  0.4538 -0.0595  0.2861
 8985TIP3    H126912   0.812   2.809   6.601 -1.3444 -0.0300  1.6674
 8985TIP3    H226913   0.776   2.666   6.638  0.8498 -1.2466 -0.5691
 8986TIP3   OH226914   7.506   5.628   5.645  0.4292 -0.2525 -0.7550
 8986TIP3    H126915   7.453   5.551   5.624  0.3047 -0.3039 -0.2696
 8986TIP3    H226916   7.595   5.602   5.623  0.3007 -0.2904 -1.2425
 8987TIP3   OH226917   0.135   4.672   4.445 -0.2575 -0.3683 -0.0913
 8987TIP3    H126918   0.145   4.752   4.495 -0.8742  0.2503 -0.9345
 8987TIP3    H226919   0.200   4.679   4.375  1.6690 -1.9164  1.4174
 8988TIP3   OH226920   5.646   6.256   0.949  1.2070  0.2357  0.1948
 8988TIP3    H126921   5.731   6.246   0.907  0.2686  2.1868 -2.4352
 8988TIP3    H226922   5.585   6.208   0.893 -0.0407  2.6089 -0.6101
 8989TIP3   OH226923   1.331   6.993   4.790 -0.3515  0.3611 -0.4591
 8989TIP3    H126924   1.277   6.969   4.715  3.3015 -0.5298 -3.0446
 8989TIP3    H226925   1.395   6.923   4.797  0.3750  1.1874  2.6244
 8990TIP3   OH226926   1.462   5.508   5.070 -0.4982  0.7589  0.3757
 8990TIP3    H126927   1.470   5.547   5.157  1.1914  2.4084 -0.4184
 8990TIP3    H226928   1.531   5.442   5.067 -2.0417 -0.9426  1.0220
 8991TIP3   OH226929   2.523   5.679   6.639  0.1682 -0.3283  0.1302
 8991TIP3    H126930   2.572   5.748   6.594  0.3248 -1.7735 -2.0590
 8991TIP3    H226931   2.457   5.650   6.576 -2.1265  0.0478  2.2230
 8992TIP3   OH226932   2.072   3.720   6.264  0.4542 -0.7172  0.0983
 8992TIP3    H126933   2.126   3.797   6.282 -0.8055  0.4749 -0.9361
 8992TIP3    H226934   2.037   3.737   6.176  0.5152 -2.7176 -0.3469
 8993TIP3   OH226935   8.088   7.206   4.301  0.2780  0.1110  0.0141
 8993TIP3    H126936   8.094   7.110   4.306 -1.0992  0.0119  0.3736
 8993TIP3    H226937   8.134   7.229   4.220 -1.1260 -1.0803 -1.2034
 8994TIP3   OH226938   7.386   0.482   5.405 -0.5364  0.2013 -0.6221
 8994TIP3    H126939   7.414   0.391   5.399 -0.9399 -0.0626  0.8207
 8994TIP3    H226940   7.392   0.516   5.316  1.3494 -0.7013 -0.8865
 8995TIP3   OH226941   1.131   1.380   6.486 -0.4466 -0.8240 -0.5785
 8995TIP3    H126942   1.113   1.474   6.482 -0.6766 -0.8655 -0.5162
 8995TIP3    H226943   1.073   1.347   6.555  1.2402 -0.6379  1.0060
 8996TIP3   OH226944   6.380   1.633   3.519 -0.0232 -0.3390  0.1717
 8996TIP3    H126945   6.471   1.608   3.502  0.0405 -0.3313  0.4798
 8996TIP3    H226946   6.386   1.724   3.549 -0.3029  0.2355 -1.4192
 8997TIP3   OH226947   0.813   5.861   3.607 -0.1619 -0.0245 -0.0261
 8997TIP3    H126948   0.820   5.894   3.697  1.1460 -1.1180  0.3183
 8997TIP3    H226949   0.730   5.814   3.605 -1.4037  2.0832 -0.1436
 8998TIP3   OH226950   3.759   2.768   4.846  0.0229  0.1251  0.2506
 8998TIP3    H126951   3.665   2.760   4.864 -0.1008  1.5099  0.2825
 8998TIP3    H226952   3.774   2.709   4.772 -1.0359  0.5257 -0.2969
 8999TIP3   OH226953   1.765   6.772   4.846 -0.4361  0.1119  0.2520
 8999TIP3    H126954   1.838   6.775   4.785 -0.7455  0.4022 -0.1069
 8999TIP3    H226955   1.695   6.821   4.803 -0.5203  0.6823  1.0199
 9000TIP3   OH226956   8.236   2.765   6.673 -0.5303 -0.0746  0.1238
 9000TIP3    H126957   8.239   2.670   6.682 -0.0023 -0.0054  0.7698
 9000TIP3    H226958   8.230   2.781   6.579  0.9410 -0.7160 -0.0950
 9001TIP3   OH226959   3.937   3.253   0.725 -0.2607  0.2898 -0.4065
 9001TIP3    H126960   3.949   3.310   0.648  1.1149 -1.2563 -1.3962
 9001TIP3    H226961   4.002   3.184   0.714 -2.1309 -1.7223  0.5354
 9002TIP3   OH226962   0.672   0.446   3.243 -0.7912  0.0198 -0.2215
 9002TIP3    H126963   0.748   0.457   3.186 -0.9498 -1.1019 -0.6603
 9002TIP3    H226964   0.602   0.495   3.200 -1.0087 -1.1192 -1.1980
 9003TIP3   OH226965   8.302   1.606   2.435 -0.3918 -0.0410  0.1580
 9003TIP3    H126966   8.348   1.647   2.361  1.0016 -1.1829  0.3504
 9003TIP3    H226967   8.233   1.554   2.394  0.3546 -0.6490 -0.3611
 9004TIP3   OH226968   6.950   5.666   3.324 -0.5413 -0.0198  0.1855
 9004TIP3    H126969   6.861   5.668   3.359 -0.5120  1.2825  0.2236
 9004TIP3    H226970   6.947   5.724   3.248 -0.2194 -1.6064 -1.0863
 9005TIP3   OH226971   5.778   6.352   1.994  0.1591  0.3217  0.0781
 9005TIP3    H126972   5.733   6.308   2.066 -1.0340 -0.3286 -1.0216
 9005TIP3    H226973   5.725   6.429   1.975 -0.3509 -0.2849 -1.0301
 9006TIP3   OH226974   3.894   0.982   4.572  0.0536  0.4789 -0.0692
 9006TIP3    H126975   3.910   1.060   4.626  0.0533  0.6733 -0.3430
 9006TIP3    H226976   3.799   0.973   4.570  0.0857 -0.0982  0.7527
 9007TIP3   OH226977   2.009   5.205   5.267  0.2710 -0.1262  0.4006
 9007TIP3    H126978   1.917   5.228   5.283 -0.3550 -1.5003 -0.9473
 9007TIP3    H226979   2.005   5.126   5.214  2.2409  0.2415 -0.3907
 9008TIP3   OH226980   1.918   7.176   3.947 -0.3145 -0.1719  0.1613
 9008TIP3    H126981   1.904   7.112   3.877 -0.1402  0.9307 -0.9141
 9008TIP3    H226982   1.901   7.261   3.906  1.1599  0.6131  1.0888
 9009TIP3   OH226983   4.413   7.609   0.522 -0.4081 -0.0694 -0.6367
 9009TIP3    H126984   4.386   7.557   0.598 -1.0721 -0.5514 -1.1886
 9009TIP3    H226985   4.478   7.555   0.478  0.1058  0.2868 -0.3180
 9010TIP3   OH226986   6.097   2.240   0.107  0.2158  0.3466  0.2807
 9010TIP3    H126987   6.074   2.190   0.029 -0.4223  1.0454  0.0121
 9010TIP3    H226988   6.189   2.265   0.094  0.7585 -1.2805  0.7174
 9011TIP3   OH226989   7.107   3.888   3.904  0.1517  0.4131  0.1597
 9011TIP3    H126990   7.094   3.847   3.989 -0.9571  1.1648  0.3770
 9011TIP3    H226991   7.136   3.977   3.925 -0.3805  0.6851 -0.2347
 9012TIP3   OH226992   6.341   2.797   3.731  0.4304  0.9734  0.2423
 9012TIP3    H126993   6.246   2.788   3.726  0.2299  1.8381  1.7909
 9012TIP3    H226994   6.372   2.709   3.752 -0.1553  0.9294  0.9591
 9013TIP3   OH226995   4.927   3.022   4.640 -0.4517 -0.2064  0.0848
 9013TIP3    H126996   4.915   3.100   4.693 -2.3113 -0.1025 -0.4122
 9013TIP3    H226997   4.922   2.949   4.702 -0.8458 -0.0200  0.2713
 9014TIP3   OH226998   1.285   7.399   5.015 -0.1478  0.5956  0.3356
 9014TIP3    H126999   1.207   7.390   4.960  1.4275  3.0467 -2.5974
 9014TIP3    H227000   1.264   7.470   5.075 -0.0642  1.5643 -0.7520
 9015TIP3   OH227001   5.606   3.697   2.538  0.4237  0.0920  0.5699
 9015TIP3    H127002   5.517   3.728   2.526  0.8237  0.4857 -1.7120
 9015TIP3    H227003   5.659   3.776   2.546  0.8460 -0.0828 -0.4181
 9016TIP3   OH227004   5.939   4.890   5.675 -0.2225 -0.8174 -0.0429
 9016TIP3    H127005   6.002   4.842   5.621  2.0266  1.0760  0.7454
 9016TIP3    H227006   5.899   4.953   5.616  0.9077  0.0344  0.0748
 9017TIP3   OH227007   1.017   3.195   4.758 -0.2359 -0.2518 -0.1589
 9017TIP3    H127008   1.028   3.106   4.792 -1.8729  0.3132  2.1547
 9017TIP3    H227009   1.105   3.226   4.742  0.4759 -1.6689  0.7902
 9018TIP3   OH227010   2.198   3.904   0.063  0.4408  0.2713 -0.0612
 9018TIP3    H127011   2.217   3.844   0.136 -0.7314 -0.8804 -0.6551
 9018TIP3    H227012   2.278   3.906   0.012  0.8895  0.1548  0.6266
 9019TIP3   OH227013   4.990   6.308   5.620  0.6247 -0.3080  0.1803
 9019TIP3    H127014   4.937   6.315   5.700  0.4147 -1.3085  0.1486
 9019TIP3    H227015   5.073   6.271   5.650  1.2309  1.0024  0.1880
 9020TIP3   OH227016   4.823   2.181   0.717  0.2025  0.3690 -0.3159
 9020TIP3    H127017   4.813   2.274   0.740  0.6606  0.1753  0.7202
 9020TIP3    H227018   4.741   2.140   0.745  0.4215  0.2808  0.2007
 9021TIP3   OH227019   0.788   0.409   3.948 -0.3133 -0.3355 -0.1066
 9021TIP3    H127020   0.780   0.344   3.878 -0.2199  0.6033 -1.0150
 9021TIP3    H227021   0.820   0.487   3.904 -0.6638  0.4080  0.9240
 9022TIP3   OH227022   4.920   0.463   5.149 -0.6540 -0.0189  0.1752
 9022TIP3    H127023   4.832   0.469   5.111  0.1655  0.0900 -1.8778
 9022TIP3    H227024   4.926   0.540   5.206 -1.2633  1.0687 -1.1504
 9023TIP3   OH227025   2.793   4.126   1.330 -0.1781  0.0405  0.1213
 9023TIP3    H127026   2.872   4.072   1.343 -0.8450 -0.8907  0.4236
 9023TIP3    H227027   2.827   4.214   1.317  1.0649 -0.6791 -2.1253
 9024TIP3   OH227028   3.036   7.358   3.889 -0.2793 -0.6386 -0.4317
 9024TIP3    H127029   2.977   7.299   3.843 -2.9968  1.4720  0.1194
 9024TIP3    H227030   3.026   7.335   3.981  2.9362 -2.8909 -0.4741
 9025TIP3   OH227031   6.313   3.207   4.985  0.1952  0.3900 -0.5287
 9025TIP3    H127032   6.266   3.290   4.990 -0.3090  0.0520  3.0927
 9025TIP3    H227033   6.250   3.147   4.945 -0.5105  1.1339 -0.5686
 9026TIP3   OH227034   5.988   7.114   3.151 -0.1447 -0.0544 -0.2397
 9026TIP3    H127035   5.945   7.140   3.070 -1.5628 -1.6494 -0.0641
 9026TIP3    H227036   5.916   7.099   3.212  0.8483  0.1086  1.0112
 9027TIP3   OH227037   3.327   7.818   3.623  0.7443 -0.0197 -0.1604
 9027TIP3    H127038   3.376   7.868   3.688  0.4795  0.0102  0.0167
 9027TIP3    H227039   3.334   7.727   3.652  2.1480 -0.2475 -1.0679
 9028TIP3   OH227040   6.393   5.737   3.578 -0.5836  0.4028 -0.4299
 9028TIP3    H127041   6.409   5.772   3.490 -1.7680  0.5521 -0.6095
 9028TIP3    H227042   6.316   5.681   3.567 -1.5848  1.4853  0.7704
 9029TIP3   OH227043   7.976   0.958   5.759 -0.3415  0.4566  0.0074
 9029TIP3    H127044   8.037   0.969   5.686  1.2755 -0.5514  1.1520
 9029TIP3    H227045   7.977   1.043   5.805  0.1613  0.4514  0.0023
 9030TIP3   OH227046   2.644   3.496   0.130  0.2545  0.4262  0.1685
 9030TIP3    H127047   2.561   3.459   0.158  0.2309  0.8608  0.6604
 9030TIP3    H227048   2.622   3.582   0.095  0.0697 -0.5827 -2.4863
 9031TIP3   OH227049   5.143   3.229   1.825  0.4119 -0.1280  0.8517
 9031TIP3    H127050   5.155   3.294   1.756  0.0086 -1.0047 -0.0784
 9031TIP3    H227051   5.227   3.225   1.870 -0.3136  3.0007  2.7678
 9032TIP3   OH227052   3.215   2.198   5.813  0.2068 -0.3721  0.5078
 9032TIP3    H127053   3.127   2.188   5.777 -0.1526 -1.1297  1.5623
 9032TIP3    H227054   3.262   2.252   5.748 -1.5964  1.7769  0.8677
 9033TIP3   OH227055   1.364   4.135   6.499  0.3088 -0.2467  0.4310
 9033TIP3    H127056   1.381   4.046   6.532  1.3397  0.0054  0.5871
 9033TIP3    H227057   1.351   4.123   6.405 -0.5155 -0.6842  0.5889
 9034TIP3   OH227058   6.113   4.233   5.745 -0.1327 -0.0100  0.3293
 9034TIP3    H127059   6.196   4.282   5.746  0.2884 -0.7212  1.5863
 9034TIP3    H227060   6.136   4.147   5.711 -0.4142 -0.1335  0.4512
 9035TIP3   OH227061   2.273   4.241   1.488 -0.3190  1.1118 -0.7450
 9035TIP3    H127062   2.303   4.300   1.558 -0.7600 -0.0956  0.5230
 9035TIP3    H227063   2.178   4.254   1.485 -0.2556  1.4409 -1.4043
 9036TIP3   OH227064   8.182   3.595   4.727  0.0926 -0.1824 -0.3634
 9036TIP3    H127065   8.234   3.607   4.806 -1.6239 -0.2895  0.8474
 9036TIP3    H227066   8.235   3.634   4.657  1.3086  0.6462  0.9603
 9037TIP3   OH227067   4.765   1.331   4.858 -0.0225  0.3354  0.2413
 9037TIP3    H127068   4.813   1.365   4.782  2.5729 -1.6443  0.8797
 9037TIP3    H227069   4.830   1.325   4.927 -2.2690  1.9080  2.6860
 9038TIP3   OH227070   5.804   0.386   5.702  0.8371 -0.1868 -0.6714
 9038TIP3    H127071   5.763   0.301   5.717  0.9813 -0.1593 -0.1036
 9038TIP3    H227072   5.887   0.365   5.658  0.5193 -0.2862 -1.2217
 9039TIP3   OH227073   2.675   1.619   3.457  0.2917  0.4234  0.2548
 9039TIP3    H127074   2.742   1.685   3.472 -1.0277  1.9401 -0.3032
 9039TIP3    H227075   2.679   1.602   3.363 -0.0770  0.4968  0.2251
 9040TIP3   OH227076   3.269   7.460   4.345  0.1229  0.1790  0.3015
 9040TIP3    H127077   3.359   7.484   4.326  0.2944 -1.0739 -0.6111
 9040TIP3    H227078   3.220   7.488   4.268  0.2008 -1.5337 -0.4199
 9041TIP3   OH227079   1.846   6.918   3.830 -0.3843 -0.1345 -0.3420
 9041TIP3    H127080   1.764   6.880   3.801 -0.7245  0.5364 -0.2641
 9041TIP3    H227081   1.913   6.857   3.799 -0.9092 -0.6960 -0.3812
 9042TIP3   OH227082   1.880   5.828   6.200  0.0489  0.0222  0.1667
 9042TIP3    H127083   1.815   5.812   6.268  1.2364 -0.2077  1.2937
 9042TIP3    H227084   1.885   5.745   6.152  0.5339 -0.4510  1.0063
 9043TIP3   OH227085   6.082   5.235   5.684 -0.4980  0.1396 -0.0559
 9043TIP3    H127086   6.158   5.283   5.652 -0.7356 -0.7563 -2.1478
 9043TIP3    H227087   6.077   5.158   5.628 -1.4079 -1.2078  1.7686
 9044TIP3   OH227088   5.528   5.788   2.143  0.1123  0.0180 -0.1089
 9044TIP3    H127089   5.488   5.762   2.225 -1.4886  2.2260 -0.1044
 9044TIP3    H227090   5.503   5.719   2.081 -0.1632 -0.7516  0.8393
 9045TIP3   OH227091   1.438   4.083   0.839  0.2858  0.6244 -0.3982
 9045TIP3    H127092   1.485   4.013   0.794  0.6527  0.7225 -0.1779
 9045TIP3    H227093   1.388   4.127   0.770 -0.0754  0.0486 -0.5092
 9046TIP3   OH227094   6.869   7.709   1.285 -0.3005  0.1148 -0.0784
 9046TIP3    H127095   6.826   7.792   1.263  0.4384  0.2781 -1.0091
 9046TIP3    H227096   6.931   7.695   1.213 -1.1329 -1.7651 -0.4983
 9047TIP3   OH227097   2.903   2.266   1.871 -0.5535 -0.4523 -0.3573
 9047TIP3    H127098   2.845   2.267   1.794  0.5502  0.8388 -1.2294
 9047TIP3    H227099   2.978   2.213   1.844 -1.3769 -2.3531  0.8660
 9048TIP3   OH227100   4.467   3.662   1.440 -0.2063  0.2033  0.7941
 9048TIP3    H127101   4.387   3.651   1.491  0.2918 -0.0874  1.5311
 9048TIP3    H227102   4.537   3.630   1.497  0.1409 -2.5016 -0.9868
 9049TIP3   OH227103   0.573   3.512   0.534 -0.2799  0.2494 -0.0875
 9049TIP3    H127104   0.491   3.506   0.484  0.0355  0.7123 -0.6732
 9049TIP3    H227105   0.641   3.516   0.467  0.3426 -1.5323  0.3979
 9050TIP3   OH227106   2.397   1.385   0.784 -0.1513 -0.0423  0.2541
 9050TIP3    H127107   2.327   1.431   0.738  0.1743 -0.5764 -0.8172
 9050TIP3    H227108   2.352   1.322   0.840 -0.5458 -1.3050 -1.4065
 9051TIP3   OH227109   4.249   3.262   4.833 -0.2015 -0.4008 -0.8442
 9051TIP3    H127110   4.274   3.184   4.783  0.6275 -1.4872  1.1570
 9051TIP3    H227111   4.179   3.233   4.891  1.6940 -0.3541  1.5990
 9052TIP3   OH227112   1.983   3.377   5.729  0.1874  0.1600 -0.3799
 9052TIP3    H127113   2.058   3.362   5.672  1.4174 -0.0082  1.2196
 9052TIP3    H227114   1.944   3.290   5.740  1.3805 -0.2475  0.9079
 9053TIP3   OH227115   5.528   3.432   5.720  0.3794  0.0218 -0.2557
 9053TIP3    H127116   5.559   3.341   5.724 -1.1305 -0.5079  0.2741
 9053TIP3    H227117   5.602   3.485   5.748  1.1852 -1.0737 -0.2680
 9054TIP3   OH227118   7.042   7.171   1.918  0.6872 -0.2305 -0.5749
 9054TIP3    H127119   7.038   7.259   1.879  1.1990 -0.4719 -1.1893
 9054TIP3    H227120   7.022   7.112   1.846 -2.3394 -0.5436  0.3912
 9055TIP3   OH227121   6.336   1.233   2.531 -0.6207  0.3099 -0.3994
 9055TIP3    H127122   6.265   1.297   2.532 -2.2307 -1.3990  1.4104
 9055TIP3    H227123   6.372   1.235   2.619 -0.9996 -1.5692 -0.1728
 9056TIP3   OH227124   1.977   6.987   1.082  0.2964  0.3353 -0.2056
 9056TIP3    H127125   1.924   7.061   1.112  1.7734  1.3591 -0.0141
 9056TIP3    H227126   1.914   6.928   1.042 -0.8223  2.2089 -1.3838
 9057TIP3   OH227127   7.350   0.628   3.460  0.4382 -0.5209 -0.1181
 9057TIP3    H127128   7.420   0.567   3.438  0.3721 -0.4866 -0.4248
 9057TIP3    H227129   7.380   0.712   3.427  0.1021 -0.5698 -0.5645
 9058TIP3   OH227130   4.412   6.627   3.576 -0.2582  0.3685 -0.5218
 9058TIP3    H127131   4.506   6.644   3.571 -0.2702  0.6419  0.0663
 9058TIP3    H227132   4.402   6.576   3.657 -0.5869  0.1508 -0.7004
 9059TIP3   OH227133   8.053   2.256   6.754  0.2287  1.0168 -0.0936
 9059TIP3    H127134   8.029   2.347   6.773 -2.1217  0.3862  0.3216
 9059TIP3    H227135   7.969   2.211   6.743  1.3448 -0.9414 -1.1749
 9060TIP3   OH227136   3.587   1.725   0.750 -0.0207  0.4099  0.4728
 9060TIP3    H127137   3.507   1.778   0.747  1.0177  1.9938  0.1022
 9060TIP3    H227138   3.658   1.788   0.756  1.2442 -0.9665  0.4630
 9061TIP3   OH227139   3.421   6.637   3.404 -0.1489 -0.4229 -0.0488
 9061TIP3    H127140   3.514   6.650   3.422 -0.3001 -1.1635  1.4026
 9061TIP3    H227141   3.418   6.561   3.347  0.1663 -0.0697 -0.5391
 9062TIP3   OH227142   1.945   0.473   5.030 -0.9055 -0.3753 -0.0389
 9062TIP3    H127143   1.875   0.510   5.084  1.5062  3.0043  1.1774
 9062TIP3    H227144   1.930   0.510   4.943 -0.6780  0.3593  0.2239
 9063TIP3   OH227145   5.322   2.185   2.331  0.2651 -0.1830 -0.3994
 9063TIP3    H127146   5.258   2.212   2.266  0.0793  0.6765  0.1313
 9063TIP3    H227147   5.346   2.265   2.376  0.5813 -0.7271  0.4219
 9064TIP3   OH227148   7.108   2.228   6.408 -1.0972  0.4327 -0.1302
 9064TIP3    H127149   7.107   2.281   6.487 -1.8743 -0.0091  0.1737
 9064TIP3    H227150   7.156   2.149   6.433 -1.5151  0.2053 -0.0278
 9065TIP3   OH227151   7.241   4.358   0.138  0.1563  0.2682  0.0013
 9065TIP3    H127152   7.313   4.304   0.170  0.4219 -0.4018 -1.5982
 9065TIP3    H227153   7.283   4.429   0.089 -0.2317 -0.3543 -1.2945
 9066TIP3   OH227154   8.028   1.263   1.937 -0.5833  0.4901 -0.1813
 9066TIP3    H127155   7.956   1.248   1.998 -0.9494  1.5679 -0.3188
 9066TIP3    H227156   8.107   1.248   1.989 -0.8458 -2.5417 -0.5027
 9067TIP3   OH227157   5.240   2.952   4.450  0.4017 -0.1232 -0.1914
 9067TIP3    H127158   5.287   3.032   4.428  1.1418 -0.9770 -1.9002
 9067TIP3    H227159   5.205   2.921   4.366 -0.8828 -0.9754  0.6181
 9068TIP3   OH227160   4.848   0.366   1.529 -0.3657  0.1192  0.7546
 9068TIP3    H127161   4.933   0.362   1.572  0.1692 -0.1764 -0.3144
 9068TIP3    H227162   4.812   0.278   1.537 -0.6071  0.2577  1.2541
 9069TIP3   OH227163   4.878   6.765   3.123 -0.3327 -0.1723 -0.2461
 9069TIP3    H127164   4.892   6.772   3.218 -1.1284  0.7802 -0.1889
 9069TIP3    H227165   4.953   6.714   3.092  0.5817  0.5250  0.7370
 9070TIP3   OH227166   1.873   4.137   1.697  0.0147  0.5608 -0.1221
 9070TIP3    H127167   1.796   4.127   1.754 -0.7481  0.9387 -1.0598
 9070TIP3    H227168   1.887   4.050   1.660  2.9947 -0.8526  3.5854
 9071TIP3   OH227169   0.794   0.058   4.967  0.2501 -0.2551 -0.0780
 9071TIP3    H127170   0.781   0.144   4.928  2.4774  1.4905  2.5729
 9071TIP3    H227171   0.715   0.042   5.019 -0.3128  0.0004 -0.8421
 9072TIP3   OH227172   0.190   1.472   2.158 -0.7801 -0.0448 -0.1754
 9072TIP3    H127173   0.251   1.403   2.184 -1.6458 -0.6365  0.3305
 9072TIP3    H227174   0.215   1.493   2.068 -0.0813 -0.5424 -0.1074
 9073TIP3   OH227175   2.614   4.335   4.601 -0.0747  0.1559 -0.1439
 9073TIP3    H127176   2.547   4.343   4.533 -0.4047 -1.9469 -0.1163
 9073TIP3    H227177   2.568   4.296   4.675  1.1522 -1.3125 -0.1185
 9074TIP3   OH227178   7.325   3.614   1.755 -0.3777 -0.3768 -0.0487
 9074TIP3    H127179   7.290   3.650   1.836  0.9619 -0.7566  0.7433
 9074TIP3    H227180   7.408   3.660   1.742  0.7429 -2.1753  0.2835
 9075TIP3   OH227181   4.201   1.384   5.856  0.0253  0.0977  0.5398
 9075TIP3    H127182   4.256   1.378   5.778  2.4210 -2.1828  2.2265
 9075TIP3    H227183   4.115   1.352   5.827  0.5267  0.3593 -1.3856
 9076TIP3   OH227184   4.585   1.838   0.039 -0.5886  0.0089  0.1302
 9076TIP3    H127185   4.552   1.750   0.019  1.3432 -0.3657 -1.8772
 9076TIP3    H227186   4.670   1.823   0.080 -0.2401  0.9283 -0.2320
 9077TIP3   OH227187   7.659   2.257   5.616  0.0808 -0.5033  0.3171
 9077TIP3    H127188   7.754   2.255   5.625  0.2669  0.5632 -1.0390
 9077TIP3    H227189   7.628   2.311   5.689  0.7957  1.4449 -0.7447
 9078TIP3   OH227190   3.230   4.150   5.176 -0.1321 -0.3891  0.1003
 9078TIP3    H127191   3.324   4.150   5.161 -0.2554 -0.5282 -0.7450
 9078TIP3    H227192   3.220   4.172   5.268  0.6872  1.1886 -0.1496
 9079TIP3   OH227193   5.609   6.225   2.164 -0.2970  0.1980  0.0416
 9079TIP3    H127194   5.644   6.182   2.242  0.7871  0.5196 -0.2493
 9079TIP3    H227195   5.514   6.223   2.176 -0.2579 -1.7915  0.2954
 9080TIP3   OH227196   0.394   1.195   5.908  0.2644  0.4142  0.0441
 9080TIP3    H127197   0.441   1.233   5.982 -0.7376 -2.1383  2.1087
 9080TIP3    H227198   0.457   1.135   5.868 -0.1847 -0.6489  0.8845
 9081TIP3   OH227199   5.559   6.230   3.550 -0.1575  0.1163 -0.4566
 9081TIP3    H127200   5.572   6.194   3.638 -1.8313  1.5754  0.4704
 9081TIP3    H227201   5.497   6.170   3.509  2.4743 -1.9482 -1.6332
 9082TIP3   OH227202   7.775   3.851   5.169 -0.0269  0.1035  0.1786
 9082TIP3    H127203   7.742   3.939   5.154 -1.8959 -0.9529 -2.7902
 9082TIP3    H227204   7.754   3.833   5.261 -3.3068  1.3577 -0.2019
 9083TIP3   OH227205   8.038   3.713   0.052 -0.0596 -0.3212 -0.2271
 9083TIP3    H127206   8.128   3.724   0.021 -0.6523  2.9041 -1.1531
 9083TIP3    H227207   8.034   3.765   0.132 -1.0369 -0.6416 -0.0599
 9084TIP3   OH227208   5.441   0.098   1.105  0.5821 -0.0078 -0.8040
 9084TIP3    H127209   5.470   0.187   1.082 -1.1957  0.6132 -0.8498
 9084TIP3    H227210   5.390   0.110   1.185 -1.2748 -0.6651 -1.8316
 9085TIP3   OH227211   6.615   5.652   6.572 -0.1371 -0.0202  0.1039
 9085TIP3    H127212   6.540   5.595   6.555 -0.2367  0.1217  0.0641
 9085TIP3    H227213   6.576   5.735   6.598  0.0016 -0.3851  1.5707
 9086TIP3   OH227214   2.661   5.198   5.951  0.4364 -0.0233 -0.7663
 9086TIP3    H127215   2.624   5.242   5.875 -1.8597 -3.4220 -1.8345
 9086TIP3    H227216   2.752   5.179   5.927  0.4525  1.0767 -1.6229
 9087TIP3   OH227217   5.196   2.232   2.959  0.1300 -0.0313  0.6749
 9087TIP3    H127218   5.237   2.247   3.044  0.7632  1.4069  0.1458
 9087TIP3    H227219   5.117   2.182   2.979 -0.1851  1.0038  2.2132
 9088TIP3   OH227220   4.425   1.857   1.119  0.4954 -0.1298  0.1505
 9088TIP3    H127221   4.424   1.930   1.181  0.2096  0.6196 -0.7213
 9088TIP3    H227222   4.515   1.825   1.122  0.9125  0.9566 -0.2544
 9089TIP3   OH227223   5.533   2.085   6.553 -0.1641 -0.2002  0.2069
 9089TIP3    H127224   5.584   2.013   6.514 -0.2934  0.7488 -1.8765
 9089TIP3    H227225   5.448   2.079   6.508 -1.7881 -1.3952  3.1852
 9090TIP3   OH227226   7.350   3.398   5.948  0.3634  0.2299  0.3719
 9090TIP3    H127227   7.431   3.352   5.969 -0.0630  0.1442  1.9259
 9090TIP3    H227228   7.364   3.431   5.859  0.9069 -2.3568 -0.5888
 9091TIP3   OH227229   8.097   0.849   6.728 -0.0054 -0.2642 -0.0262
 9091TIP3    H127230   8.008   0.833   6.758  0.5667 -0.3041  1.7852
 9091TIP3    H227231   8.089   0.863   6.634 -2.2170  1.9968  0.4007
 9092TIP3   OH227232   7.665   5.272   2.978 -0.3647 -0.5310 -0.1061
 9092TIP3    H127233   7.697   5.240   3.062 -1.3600  0.5773  0.7154
 9092TIP3    H227234   7.727   5.341   2.954 -0.4829 -0.3685  0.0578
 9093TIP3   OH227235   5.282   0.866   0.904 -0.3580  0.0412 -0.0619
 9093TIP3    H127236   5.264   0.941   0.960 -0.6805  0.7781 -1.1217
 9093TIP3    H227237   5.256   0.894   0.816 -3.4144 -2.2825 -0.1031
 9094TIP3   OH227238   5.592   3.160   1.676 -0.4878 -0.8386  0.0931
 9094TIP3    H127239   5.620   3.244   1.711 -1.4321 -1.2168  1.9049
 9094TIP3    H227240   5.595   3.171   1.581 -1.0072  1.3846  0.2837
 9095TIP3   OH227241   5.696   6.644   2.276 -0.4999 -0.2296  0.3425
 9095TIP3    H127242   5.744   6.581   2.329  0.6200  1.3894  1.3279
 9095TIP3    H227243   5.758   6.671   2.209 -0.3483  1.0796  0.9799
 9096TIP3   OH227244   7.626   7.124   1.013 -0.5748 -0.1974  0.6981
 9096TIP3    H127245   7.581   7.097   0.933 -0.8963 -1.1231  1.1724
 9096TIP3    H227246   7.637   7.043   1.062  0.1551  0.2705  1.3265
 9097TIP3   OH227247   7.408   6.501   6.057  0.1918 -0.0220  0.0018
 9097TIP3    H127248   7.463   6.431   6.020  1.0041  0.3449  0.4873
 9097TIP3    H227249   7.352   6.457   6.120 -0.2481 -0.4427 -0.6737
 9098TIP3   OH227250   4.915   4.537   3.703 -0.1112 -0.4148 -0.2569
 9098TIP3    H127251   4.945   4.490   3.626  1.9771  0.1872  0.0969
 9098TIP3    H227252   4.946   4.484   3.777 -1.0379 -0.3844  0.1636
 9099TIP3   OH227253   8.065   0.483   6.447  0.4019 -0.3129 -0.6410
 9099TIP3    H127254   8.041   0.495   6.539  1.4678 -0.8333 -0.2738
 9099TIP3    H227255   8.151   0.524   6.440  1.8056 -3.0554 -0.5996
 9100TIP3   OH227256   6.684   7.665   0.009  0.2936  0.5611  0.0719
 9100TIP3    H127257   6.707   7.573  -0.001  3.2660  1.2412 -0.2483
 9100TIP3    H227258   6.609   7.665   0.069  1.2332 -1.9672  1.3910
 9101TIP3   OH227259   1.269   6.729   2.950  0.2588 -0.0026  0.6000
 9101TIP3    H127260   1.320   6.725   2.870 -0.3676  0.2877  0.1724
 9101TIP3    H227261   1.202   6.796   2.932 -0.8485 -1.0141  0.7920
 9102TIP3   OH227262   7.229   2.200   1.969  0.0743  0.2281 -0.5324
 9102TIP3    H127263   7.195   2.193   2.058  0.7287  0.5282 -0.2595
 9102TIP3    H227264   7.279   2.119   1.956  1.2985  0.8879 -0.0590
 9103TIP3   OH227265   5.216   4.245   0.713 -0.3163  0.3571  0.1987
 9103TIP3    H127266   5.261   4.255   0.629  0.8758 -0.9479  0.6496
 9103TIP3    H227267   5.131   4.209   0.691  1.1650 -3.1983 -0.3131
 9104TIP3   OH227268   3.873   4.646   0.748 -0.4314 -0.1811 -0.0692
 9104TIP3    H127269   3.826   4.723   0.716  0.5436 -0.6588 -2.8901
 9104TIP3    H227270   3.804   4.584   0.772 -1.3130 -0.2644 -2.5790
 9105TIP3   OH227271   4.673   0.354   2.420 -0.0984  0.5290  0.0716
 9105TIP3    H127272   4.737   0.361   2.491  0.7987  0.8481 -0.7539
 9105TIP3    H227273   4.672   0.261   2.399  1.2671  0.7155 -0.9450
 9106TIP3   OH227274   2.968   2.873   2.589 -0.2457  0.1833 -0.3032
 9106TIP3    H127275   2.936   2.930   2.659 -1.5900 -1.5849  0.6062
 9106TIP3    H227276   3.049   2.915   2.559  0.0773  1.2951  1.9081
 9107TIP3   OH227277   2.641   2.636   1.955 -0.0584  0.5972  0.4584
 9107TIP3    H127278   2.611   2.610   2.042  0.5422  2.8829  1.4031
 9107TIP3    H227279   2.734   2.655   1.966 -0.4523  3.1699 -0.0711
 9108TIP3   OH227280   6.778   3.438   3.544  0.1335 -0.1352 -0.3755
 9108TIP3    H127281   6.851   3.452   3.605  0.5200 -0.8339 -0.6703
 9108TIP3    H227282   6.707   3.405   3.599 -0.7179  2.5598  0.2992
 9109TIP3   OH227283   4.195   2.017   1.179 -0.2564  0.1243  0.2692
 9109TIP3    H127284   4.185   1.993   1.087 -0.6975  1.4476 -0.0386
 9109TIP3    H227285   4.115   1.983   1.220 -0.8626  0.9923 -0.1592
 9110TIP3   OH227286   5.186   7.509   1.693  0.5177 -0.1800 -0.2179
 9110TIP3    H127287   5.254   7.559   1.647  1.8672 -0.2885  1.5403
 9110TIP3    H227288   5.235   7.452   1.753 -1.1330 -0.4743  0.9103
 9111TIP3   OH227289   5.721   5.296   2.784  0.3107 -0.0781 -0.0811
 9111TIP3    H127290   5.726   5.248   2.867  0.5203  1.3317  0.7729
 9111TIP3    H227291   5.748   5.385   2.808 -0.5210  0.5758 -1.4911
 9112TIP3   OH227292   5.734   5.801   0.500  0.2121  0.2208 -0.1493
 9112TIP3    H127293   5.766   5.862   0.433  0.0727 -0.6689 -1.0616
 9112TIP3    H227294   5.814   5.759   0.533  0.2644  0.5074  0.0887
 9113TIP3   OH227295   3.233   4.780   2.699  0.5026 -0.0741 -0.0476
 9113TIP3    H127296   3.219   4.691   2.666  0.1758 -0.8598  2.0744
 9113TIP3    H227297   3.146   4.820   2.698  0.6851  0.3263 -1.2134
 9114TIP3   OH227298   6.790   0.646   4.207 -0.1698 -0.4066 -0.3813
 9114TIP3    H127299   6.760   0.737   4.209 -0.1097 -0.3023 -2.6853
 9114TIP3    H227300   6.713   0.596   4.180  0.6379 -0.5848 -2.5560
 9115TIP3   OH227301   1.700   5.531   4.239 -0.2114 -0.5549 -0.5653
 9115TIP3    H127302   1.651   5.514   4.320 -0.3262  1.5785 -0.1252
 9115TIP3    H227303   1.768   5.463   4.238 -2.7792 -3.3314 -0.9672
 9116TIP3   OH227304   3.008   5.046   6.393  0.2457 -0.5809 -0.0492
 9116TIP3    H127305   2.934   4.998   6.356  0.1740  0.1983 -0.9593
 9116TIP3    H227306   3.002   5.133   6.354  0.3091  0.2269  1.6409
 9117TIP3   OH227307   6.707  -0.014   1.467 -0.0012 -0.4246 -0.4075
 9117TIP3    H127308   6.772   0.025   1.525  1.2707  1.6552 -2.9865
 9117TIP3    H227309   6.627   0.038   1.481 -0.2900 -1.1414  0.7323
 9118TIP3   OH227310   6.900   0.693   1.432 -0.3672 -0.6369 -0.2196
 9118TIP3    H127311   6.921   0.610   1.476  0.7565 -0.2827 -0.0594
 9118TIP3    H227312   6.984   0.739   1.428 -1.1979  1.0799  0.9174
 9119TIP3   OH227313   5.657   1.597   6.228  0.0556 -0.2563  0.0955
 9119TIP3    H127314   5.578   1.650   6.234 -0.5922 -1.3508  1.6247
 9119TIP3    H227315   5.698   1.626   6.146 -0.5867  2.1181  0.5464
 9120TIP3   OH227316   5.375   0.125   4.824  0.4153 -0.2472  0.0236
 9120TIP3    H127317   5.425   0.204   4.806  0.6850 -0.1750  1.0172
 9120TIP3    H227318   5.425   0.080   4.893  0.6113 -1.6037 -0.9581
 9121TIP3   OH227319   0.407   4.133   5.527  0.2134 -0.4230  0.2276
 9121TIP3    H127320   0.418   4.161   5.436 -2.0141 -1.4748 -0.4321
 9121TIP3    H227321   0.471   4.063   5.538  0.7910 -0.0111 -0.3716
 9122TIP3   OH227322   2.462   4.542   0.501  0.1312  0.0561  0.1024
 9122TIP3    H127323   2.405   4.467   0.483 -0.8056  0.8250 -0.2227
 9122TIP3    H227324   2.475   4.539   0.596  0.4246 -0.7408  0.0420
 9123TIP3   OH227325   0.897   0.090   0.517  0.0441  0.0893 -0.4965
 9123TIP3    H127326   0.887  -0.003   0.538 -1.0981  0.4621  0.7130
 9123TIP3    H227327   0.979   0.116   0.558  1.7446 -0.9204 -2.9754
 9124TIP3   OH227328   6.407   4.125   5.503 -0.4315  0.5110 -0.1508
 9124TIP3    H127329   6.369   4.126   5.415  0.3405 -0.2638 -0.5123
 9124TIP3    H227330   6.425   4.032   5.520 -3.3684  0.1965  2.1017
 9125TIP3   OH227331   3.388   2.305   0.682  0.0422  0.6611 -0.3480
 9125TIP3    H127332   3.471   2.331   0.642 -0.2077  1.4593 -0.3610
 9125TIP3    H227333   3.380   2.212   0.661  0.9953  0.5424 -0.2348
 9126TIP3   OH227334   3.449   6.460   2.587 -0.1002 -0.1974 -0.4285
 9126TIP3    H127335   3.504   6.405   2.530  0.2324  1.5725 -1.9110
 9126TIP3    H227336   3.467   6.428   2.675  0.0987 -2.4209 -1.2221
 9127TIP3   OH227337   2.782   4.131   3.266 -0.4315  0.1500  0.4516
 9127TIP3    H127338   2.743   4.059   3.217  1.3289 -1.2750  1.0574
 9127TIP3    H227339   2.707   4.184   3.293 -1.6241 -0.3048 -1.7263
 9128TIP3   OH227340   2.595   5.781   1.742 -0.0624  1.2942  0.0370
 9128TIP3    H127341   2.591   5.749   1.832 -1.0950  1.9621  0.2445
 9128TIP3    H227342   2.634   5.709   1.693  1.2163  1.1882  1.1277
 9129TIP3   OH227343   6.925   7.549   5.417 -0.2821  0.1437 -0.2159
 9129TIP3    H127344   6.834   7.521   5.412 -0.1625 -0.4030  0.5584
 9129TIP3    H227345   6.928   7.630   5.365 -0.7252 -1.0091 -2.1331
 9130TIP3   OH227346   2.328   0.222   6.493  0.4960 -0.0064  0.0618
 9130TIP3    H127347   2.376   0.200   6.413  1.4374 -1.9396  1.0771
 9130TIP3    H227348   2.236   0.205   6.471  0.8936 -2.1260 -0.1759
 9131TIP3   OH227349   0.899   6.468   1.464 -0.1109 -0.5400 -0.1401
 9131TIP3    H127350   0.909   6.395   1.402  2.5586 -0.0341 -0.4505
 9131TIP3    H227351   0.953   6.444   1.539 -1.2712  0.0023  0.9040
 9132TIP3   OH227352   2.220   2.934   1.549 -0.1312 -0.9103  0.3172
 9132TIP3    H127353   2.269   2.854   1.565  0.1482 -0.3529  2.6180
 9132TIP3    H227354   2.130   2.905   1.532  0.2107 -1.7573 -0.0510
 9133TIP3   OH227355   3.666   1.932   3.645  0.0992  0.1713 -0.6144
 9133TIP3    H127356   3.628   1.873   3.579  0.7576  1.9051 -2.6502
 9133TIP3    H227357   3.663   1.881   3.726 -0.3185 -2.2653 -2.0380
 9134TIP3   OH227358   3.867   2.391   2.144 -0.2460 -0.3985  0.2424
 9134TIP3    H127359   3.866   2.407   2.050  1.1869  1.3047  0.4633
 9134TIP3    H227360   3.833   2.472   2.183  0.7818 -0.4158  1.2338
 9135TIP3   OH227361   4.939   5.570   5.795  0.6704 -0.0799  0.4507
 9135TIP3    H127362   4.977   5.507   5.733 -0.8050 -0.3493 -0.2233
 9135TIP3    H227363   4.975   5.654   5.768  0.7816 -0.3193 -0.1874
 9136TIP3   OH227364   6.326   2.177   5.732  0.1390  0.7653  0.1509
 9136TIP3    H127365   6.318   2.213   5.820  0.2947 -0.0608  0.5135
 9136TIP3    H227366   6.398   2.227   5.692 -1.0312  2.3002 -0.1220
 9137TIP3   OH227367   4.576   5.299   6.482 -0.1799  0.2300  0.3236
 9137TIP3    H127368   4.524   5.259   6.552 -0.8266  1.6848  0.7190
 9137TIP3    H227369   4.620   5.373   6.524  0.5410  0.2831 -0.4992
 9138TIP3   OH227370   6.751   1.710   6.556  0.0563  0.5354  0.1924
 9138TIP3    H127371   6.702   1.720   6.475 -0.1573 -0.1329  0.2282
 9138TIP3    H227372   6.797   1.793   6.568  0.4557  0.4674 -0.8472
 9139TIP3   OH227373   4.223   1.506   6.106 -0.0303 -0.2570  0.0166
 9139TIP3    H127374   4.284   1.439   6.075 -1.6599 -1.9602  0.3000
 9139TIP3    H227375   4.145   1.493   6.052 -1.2633 -0.2488  1.7267
 9140TIP3   OH227376   0.784   7.577   5.608  0.2974  0.0466  0.1583
 9140TIP3    H127377   0.854   7.554   5.669  0.3402  1.4302  0.6722
 9140TIP3    H227378   0.729   7.638   5.657  0.2386  1.0667 -1.1227
 9141TIP3   OH227379   2.956   7.486   0.850 -0.3283 -0.2147 -0.3870
 9141TIP3    H127380   2.870   7.455   0.820 -0.3656 -1.6803  1.0790
 9141TIP3    H227381   3.018   7.428   0.807 -0.3046 -1.3792  1.1342
 9142TIP3   OH227382   1.983   2.640   3.051  0.6073 -0.1942  0.0237
 9142TIP3    H127383   1.918   2.697   3.093  1.4678  1.1665 -0.4326
 9142TIP3    H227384   1.948   2.551   3.062 -0.4249  0.3501  1.3759
 9143TIP3   OH227385   1.673   6.145   0.387 -0.1642  0.2536 -0.0933
 9143TIP3    H127386   1.724   6.109   0.459 -0.1694 -0.4956 -0.4524
 9143TIP3    H227387   1.670   6.075   0.322 -2.0648  0.0975  0.1076
 9144TIP3   OH227388   2.535   3.844   3.352  0.4298 -0.2604 -0.3351
 9144TIP3    H127389   2.478   3.769   3.369  0.2308 -0.0295  0.0218
 9144TIP3    H227390   2.577   3.861   3.437 -0.5801  0.9185 -0.0472
 9145TIP3   OH227391   0.494   0.584   2.906  0.1594  0.2203  0.1597
 9145TIP3    H127392   0.580   0.582   2.864 -0.4795  0.2453 -1.1775
 9145TIP3    H227393   0.432   0.593   2.834 -0.9997 -0.2516  1.0718
 9146TIP3   OH227394   5.481   1.792   6.115  0.8958  0.1883 -0.1818
 9146TIP3    H127395   5.438   1.841   6.045  0.3563  2.6611  1.7242
 9146TIP3    H227396   5.569   1.829   6.120  1.1839 -0.4960 -0.0266
 9147TIP3   OH227397   0.837   3.019   3.649  0.2095  0.5217  0.0989
 9147TIP3    H127398   0.838   3.012   3.553 -2.5731 -0.5935  0.0664
 9147TIP3    H227399   0.745   3.006   3.673  0.9815 -0.2249  3.0084
 9148TIP3   OH227400   6.961   1.961   3.122 -0.2320 -0.0016 -0.1096
 9148TIP3    H127401   6.866   1.950   3.115 -0.2654 -0.9136  1.3508
 9148TIP3    H227402   6.979   1.953   3.216  1.0305  2.4838 -0.0547
 9149TIP3   OH227403   3.167   3.479   6.357  0.6802  0.3594 -0.2726
 9149TIP3    H127404   3.248   3.449   6.315  0.6443 -1.4559  0.8336
 9149TIP3    H227405   3.124   3.399   6.386 -1.7540  1.2469 -1.1560
 9150TIP3   OH227406   5.950   2.807   2.949  0.1291  0.4199  0.2893
 9150TIP3    H127407   6.014   2.772   3.011  1.0548  1.4132 -0.0929
 9150TIP3    H227408   5.971   2.765   2.866 -1.3912 -1.2557  0.6783
 9151TIP3   OH227409   7.452   2.002   2.819 -0.5362  0.2726  0.3717
 9151TIP3    H127410   7.529   1.957   2.855 -0.9628 -1.4173 -0.6981
 9151TIP3    H227411   7.393   2.013   2.893 -0.0639 -0.1759  0.8223
 9152TIP3   OH227412   5.184   7.173   0.063 -0.3824  0.0196  0.7759
 9152TIP3    H127413   5.239   7.223   0.123  0.4413 -2.6132  2.4262
 9152TIP3    H227414   5.242   7.104   0.030 -0.8603  1.2033 -3.0356
 9153TIP3   OH227415   4.250   7.590   2.751  0.0701  0.1377  0.2193
 9153TIP3    H127416   4.316   7.593   2.819  1.1908  0.8903 -0.8575
 9153TIP3    H227417   4.237   7.682   2.726 -1.8204  0.0762  0.7914
 9154TIP3   OH227418   3.896   7.072   1.757 -0.1502  0.4786  0.1511
 9154TIP3    H127419   3.808   7.059   1.720  0.3933 -0.4843 -0.8788
 9154TIP3    H227420   3.944   7.119   1.688  1.0449 -1.8393 -0.7076
 9155TIP3   OH227421   0.249   3.136   0.280 -0.4957  0.5051  0.4499
 9155TIP3    H127422   0.173   3.194   0.291  0.0260  0.9958  1.7071
 9155TIP3    H227423   0.281   3.155   0.192 -2.6735 -0.7878 -0.7092
 9156TIP3   OH227424   3.804   0.801   0.860 -0.1976  0.9263 -0.0601
 9156TIP3    H127425   3.708   0.797   0.863 -0.1988  0.4302  2.7120
 9156TIP3    H227426   3.832   0.717   0.895  1.2521  1.1438 -0.6425
 9157TIP3   OH227427   7.485   0.800   0.201  0.2035 -0.1231 -0.4101
 9157TIP3    H127428   7.440   0.847   0.132 -0.3352 -0.8236 -0.5386
 9157TIP3    H227429   7.551   0.747   0.156  1.8257  1.5565 -0.1712
 9158TIP3   OH227430   6.317   1.527   6.355 -0.1075 -0.1582  0.0164
 9158TIP3    H127431   6.263   1.449   6.364  0.2495 -0.2960  1.1035
 9158TIP3    H227432   6.406   1.494   6.343  0.2484  0.0394  1.7766
 9159TIP3   OH227433   7.015   5.400   2.814 -0.4803  0.7172 -0.1485
 9159TIP3    H127434   7.099   5.386   2.770 -0.9447  0.6008 -1.0107
 9159TIP3    H227435   7.038   5.449   2.893  0.5008 -0.0611  0.0738
 9160TIP3   OH227436   8.111   5.733   0.137  0.2666 -0.0199 -0.0826
 9160TIP3    H127437   8.186   5.765   0.187 -0.5421  0.1824  1.0295
 9160TIP3    H227438   8.125   5.766   0.048  1.2885  0.3433  0.2078
 9161TIP3   OH227439   0.358   0.052   0.479  0.0689  0.5223 -0.2173
 9161TIP3    H127440   0.394   0.131   0.438  0.4135  0.6469  0.3056
 9161TIP3    H227441   0.372   0.066   0.573  0.3241 -0.2476 -0.1317
 9162TIP3   OH227442   8.004   4.694   0.882 -0.5525  1.2036 -0.9526
 9162TIP3    H127443   7.954   4.776   0.879 -3.7664 -0.6002 -1.2810
 9162TIP3    H227444   7.942   4.628   0.853  2.1626 -1.2958 -1.5120
 9163TIP3   OH227445   3.545   6.305   5.987  0.2812 -0.1167 -0.0545
 9163TIP3    H127446   3.495   6.300   5.905 -0.8212  2.5402  0.3719
 9163TIP3    H227447   3.595   6.386   5.980  0.1804  0.1558  1.9093
 9164TIP3   OH227448   3.599   6.091   3.449 -0.0424  0.0451 -0.5023
 9164TIP3    H127449   3.605   6.168   3.505 -3.3938  1.1335 -1.3917
 9164TIP3    H227450   3.631   6.121   3.364  1.8044 -0.6129 -0.0913
 9165TIP3   OH227451   5.656   1.377   4.152  0.3003  0.6263 -0.0892
 9165TIP3    H127452   5.582   1.347   4.205  0.9087  0.3192  0.6253
 9165TIP3    H227453   5.713   1.421   4.215  0.6339  1.0151 -0.6621
 9166TIP3   OH227454   4.885   7.465   3.010  0.3689 -0.2561 -0.3589
 9166TIP3    H127455   4.817   7.495   3.070  1.8110  1.8356  0.3616
 9166TIP3    H227456   4.938   7.543   2.993  3.4013 -2.0325  0.2151
 9167TIP3   OH227457   1.267   5.366   4.498  0.1176  0.2511  0.4493
 9167TIP3    H127458   1.284   5.454   4.532 -2.5218  1.1508 -0.3109
 9167TIP3    H227459   1.267   5.377   4.403 -0.0746 -0.6160  0.3426
 9168TIP3   OH227460   7.079   7.610   0.475  0.3764  0.7099  0.4885
 9168TIP3    H127461   7.014   7.640   0.412  0.4155 -0.5918 -0.2062
 9168TIP3    H227462   7.142   7.682   0.481  0.5835  0.7199 -1.2731
 9169TIP3   OH227463   0.237   3.365   5.523  0.2152 -0.2522 -0.3162
 9169TIP3    H127464   0.215   3.439   5.579  0.9744  0.0034 -0.3518
 9169TIP3    H227465   0.281   3.303   5.582 -1.5054 -1.2459  0.0066
 9170TIP3   OH227466   8.266   1.373   1.782 -0.1383  0.3694 -0.4650
 9170TIP3    H127467   8.211   1.296   1.771 -0.3451  0.3091  0.8068
 9170TIP3    H227468   8.333   1.365   1.714  0.5807 -1.5784  0.4012
 9171TIP3   OH227469   3.386   7.325   5.921 -0.1182 -0.5215  0.3183
 9171TIP3    H127470   3.441   7.266   5.973  0.5561 -0.2747 -0.1013
 9171TIP3    H227471   3.434   7.336   5.839  0.3705  1.5450  0.8259
 9172TIP3   OH227472   0.398   2.001   4.401 -0.7396  0.2556  0.4056
 9172TIP3    H127473   0.348   2.082   4.416 -3.1459 -0.9728 -0.4419
 9172TIP3    H227474   0.361   1.939   4.464 -2.3802 -1.4801 -2.0646
 9173TIP3   OH227475   6.137   4.974   5.877  0.2400  0.3860 -0.5887
 9173TIP3    H127476   6.102   5.063   5.881  2.3375  1.2743 -0.4309
 9173TIP3    H227477   6.084   4.929   5.811 -2.8284  0.7748  1.4275
 9174TIP3   OH227478   2.630   1.755   2.725 -0.2446 -0.1172 -0.6929
 9174TIP3    H127479   2.535   1.765   2.716 -0.2310 -0.9566 -2.1327
 9174TIP3    H227480   2.658   1.836   2.767 -1.7771 -0.5756  1.3716
 9175TIP3   OH227481   2.237   4.926   3.147  0.2453  0.2358 -0.4095
 9175TIP3    H127482   2.326   4.952   3.169 -0.0681  1.4512 -0.5022
 9175TIP3    H227483   2.209   4.988   3.081 -0.7807  0.0639 -0.1660
 9176TIP3   OH227484   6.894   4.917   0.470 -0.0991 -0.3172 -0.5557
 9176TIP3    H127485   6.954   4.992   0.470 -1.1469  0.6005 -2.8379
 9176TIP3    H227486   6.811   4.953   0.503  0.4228 -1.5439  2.4302
 9177TIP3   OH227487   2.518   4.914   1.296 -0.6312  0.0542 -0.7244
 9177TIP3    H127488   2.447   4.852   1.280  0.1424 -1.1260  0.2058
 9177TIP3    H227489   2.475   4.989   1.336 -1.6644  0.4023 -2.4054
 9178TIP3   OH227490   7.203   1.802   4.916 -0.0846  0.6838  0.1068
 9178TIP3    H127491   7.273   1.777   4.855  0.2893  1.1547  0.3408
 9178TIP3    H227492   7.123   1.797   4.863 -0.0573 -1.1235  0.1645
 9179TIP3   OH227493   2.324   0.174   0.187  0.0138  0.2159  0.1050
 9179TIP3    H127494   2.276   0.248   0.148  0.9861  0.4810 -0.6253
 9179TIP3    H227495   2.381   0.214   0.252 -1.1149 -0.1588  1.3686
 9180TIP3   OH227496   3.645   6.274   3.204 -0.2623  0.4560  0.5855
 9180TIP3    H127497   3.702   6.335   3.250 -0.0665 -0.2951  1.3674
 9180TIP3    H227498   3.673   6.277   3.113  1.8091 -0.7200  1.1184
 9181TIP3   OH227499   3.544   4.895   5.505  0.4878  0.0933 -0.2480
 9181TIP3    H127500   3.529   4.862   5.594  0.6415  1.3138  0.2478
 9181TIP3    H227501   3.625   4.852   5.477  0.2144 -0.6270  0.0309
 9182TIP3   OH227502   2.697   7.533   6.620 -0.2447  0.1312  0.0073
 9182TIP3    H127503   2.635   7.468   6.653  0.9190 -0.8435  0.3510
 9182TIP3    H227504   2.782   7.503   6.651  0.3589  1.7246  0.0079
 9183TIP3   OH227505   6.522   2.961   4.192  0.3713 -0.0025 -0.1665
 9183TIP3    H127506   6.503   2.972   4.099  0.8682  1.9341 -0.0808
 9183TIP3    H227507   6.617   2.951   4.197  0.1509 -3.3511 -0.0635
 9184TIP3   OH227508   7.109   1.443   5.744  0.4185  0.1052  0.2930
 9184TIP3    H127509   7.095   1.376   5.811  0.3786  0.2187  0.3998
 9184TIP3    H227510   7.159   1.512   5.790  1.6584 -0.4547 -0.1674
 9185TIP3   OH227511   7.313   6.541   3.025 -0.5807 -0.4067  0.6361
 9185TIP3    H127512   7.275   6.591   3.097  1.6293 -1.2320  2.5051
 9185TIP3    H227513   7.359   6.607   2.973 -3.0235  0.3476 -0.7160
 9186TIP3   OH227514   7.898   0.498   1.305 -0.1751  0.9571  0.0085
 9186TIP3    H127515   7.952   0.419   1.300 -2.2261 -0.5653  0.5653
 9186TIP3    H227516   7.910   0.530   1.394  0.0256  0.7707  0.0490
 9187TIP3   OH227517   1.520   7.578   5.734  0.4902 -0.0188 -0.0112
 9187TIP3    H127518   1.571   7.535   5.803  1.1946 -0.2195 -0.6482
 9187TIP3    H227519   1.515   7.670   5.761  1.2281  0.0080  0.0321
 9188TIP3   OH227520   0.810   1.925   3.797  0.4068 -0.6251  0.1226
 9188TIP3    H127521   0.718   1.947   3.781  0.5760 -0.8240 -1.2884
 9188TIP3    H227522   0.816   1.830   3.782  0.9260 -0.5352 -0.3011
 9189TIP3   OH227523   2.984   7.715   3.316 -0.3301  0.3323 -0.3338
 9189TIP3    H127524   3.019   7.774   3.249 -1.8331  1.3731 -0.2518
 9189TIP3    H227525   2.902   7.683   3.278 -1.1925  0.9238  0.9819
 9190TIP3   OH227526   7.438   2.185   3.747  0.2070 -0.0181  0.1594
 9190TIP3    H127527   7.531   2.181   3.768  0.4178  1.0126 -0.5110
 9190TIP3    H227528   7.395   2.204   3.830  0.4820 -1.4554  0.6603
 9191TIP3   OH227529   0.703   5.480   3.175 -0.4316 -0.0991 -0.2588
 9191TIP3    H127530   0.703   5.387   3.200 -2.9329  0.1213  0.8460
 9191TIP3    H227531   0.629   5.488   3.115  0.6016  0.9644 -1.4479
 9192TIP3   OH227532   5.595   7.005   1.131 -0.2534  0.1217  0.1362
 9192TIP3    H127533   5.597   7.075   1.197 -1.3224  0.4595 -0.1674
 9192TIP3    H227534   5.631   7.045   1.052  4.0127 -1.1224  1.1667
 9193TIP3   OH227535   1.808   6.130   4.943  0.2339  0.2142  0.1430
 9193TIP3    H127536   1.777   6.122   5.033  1.7740  0.0348  0.6875
 9193TIP3    H227537   1.902   6.111   4.948  0.0425 -1.6775 -1.7752
 9194TIP3   OH227538   0.915   4.874   1.502 -0.1910 -0.2579  0.4228
 9194TIP3    H127539   0.976   4.908   1.568 -2.5177  3.8117  0.8033
 9194TIP3    H227540   0.854   4.820   1.552 -0.2510  0.4261  1.1035
 9195TIP3   OH227541   6.265   5.958   4.360  0.4129 -0.4547  0.5812
 9195TIP3    H127542   6.310   5.881   4.324  1.3484  0.7244 -0.8700
 9195TIP3    H227543   6.295   6.031   4.306 -0.8658  0.8683  1.5850
 9196TIP3   OH227544   7.340   2.422   1.345 -0.1332  0.0829  0.5079
 9196TIP3    H127545   7.392   2.425   1.425  0.4492 -0.5576  0.1644
 9196TIP3    H227546   7.305   2.333   1.342  0.3962 -0.1124 -0.2764
 9197TIP3   OH227547   4.360   6.852   3.103  0.1333  0.6060 -0.0412
 9197TIP3    H127548   4.448   6.814   3.115  0.4890  1.1076 -0.9579
 9197TIP3    H227549   4.364   6.935   3.150 -0.0729  0.3190  0.4861
 9198TIP3   OH227550   5.619   4.354   6.345 -0.0566  0.6871 -0.3297
 9198TIP3    H127551   5.701   4.343   6.298 -0.3429  1.5292 -1.0540
 9198TIP3    H227552   5.554   4.311   6.289 -0.4197  1.8047 -0.7940
 9199TIP3   OH227553   0.228   5.195   4.105 -0.4542  0.5323 -0.1530
 9199TIP3    H127554   0.284   5.145   4.046 -1.6985 -3.4011  1.6276
 9199TIP3    H227555   0.142   5.194   4.062 -0.8630 -0.4171  0.6534
 9200TIP3   OH227556   4.932   5.521   0.627  0.1584 -0.3066 -0.2115
 9200TIP3    H127557   4.903   5.607   0.656 -0.3456  0.1953 -2.1065
 9200TIP3    H227558   4.934   5.469   0.707  0.2879  1.3932  0.9480
 9201TIP3   OH227559   4.871   1.790   4.677 -0.0284 -0.0336 -0.1152
 9201TIP3    H127560   4.822   1.835   4.747 -1.6176 -2.0791  0.1911
 9201TIP3    H227561   4.962   1.812   4.694 -0.6441  2.4745  0.3977
 9202TIP3   OH227562   0.090   1.470   2.921 -0.4628 -0.0630  0.1629
 9202TIP3    H127563   0.122   1.548   2.877  1.0702 -0.4535  0.5159
 9202TIP3    H227564   0.021   1.436   2.864  0.3024  0.3837 -1.0559
 9203TIP3   OH227565   1.316   4.515   0.021 -0.4820  0.5035  0.1895
 9203TIP3    H127566   1.237   4.556   0.055 -0.9034  0.0088 -0.1755
 9203TIP3    H227567   1.296   4.422   0.018 -0.6730  0.5452 -1.8665
 9204TIP3   OH227568   0.535   6.030   1.721  0.1225  0.3202  0.3066
 9204TIP3    H127569   0.589   6.071   1.789  1.3787  0.1500 -0.5443
 9204TIP3    H227570   0.534   6.093   1.649  0.2529 -0.2160 -0.1768
 9205TIP3   OH227571   3.895   0.887   3.515 -0.1793 -1.0225 -0.2960
 9205TIP3    H127572   3.926   0.848   3.433 -0.0659  1.5861 -1.5962
 9205TIP3    H227573   3.830   0.952   3.488 -0.6835 -0.5986  1.7503
 9206TIP3   OH227574   3.972   5.575   3.616  0.0432  0.3065 -0.2732
 9206TIP3    H127575   3.959   5.563   3.522  0.9866 -0.0191 -0.3740
 9206TIP3    H227576   3.910   5.514   3.657 -1.6026  1.6756 -0.6306
 9207TIP3   OH227577   8.232   4.784   4.963  0.4940  0.1988 -0.0903
 9207TIP3    H127578   8.326   4.786   4.949  0.6006 -0.7155  0.4464
 9207TIP3    H227579   8.198   4.852   4.905  1.3657 -0.2637 -1.1845
 9208TIP3   OH227580   2.481   5.567   0.917 -0.0823  0.1128 -0.0239
 9208TIP3    H127581   2.468   5.526   0.832 -2.5403 -0.8673  0.7259
 9208TIP3    H227582   2.472   5.661   0.900  0.1992 -0.0178 -0.9494
 9209TIP3   OH227583   0.417   6.477   2.521  0.1787  0.2840 -0.4420
 9209TIP3    H127584   0.477   6.491   2.593 -0.9335 -1.0597  0.8163
 9209TIP3    H227585   0.420   6.382   2.505 -1.5184  0.1844 -0.3831
 9210TIP3   OH227586   6.208   4.151   0.863  0.3063 -0.2573  0.5564
 9210TIP3    H127587   6.120   4.114   0.864  0.0317  0.3810  0.7432
 9210TIP3    H227588   6.208   4.214   0.936  0.3417  1.0507 -0.5441
 9211TIP3   OH227589   3.200   6.388   4.155 -0.8262 -0.2538  0.1111
 9211TIP3    H127590   3.237   6.475   4.147 -1.8619  0.1131 -1.1666
 9211TIP3    H227591   3.153   6.389   4.239  1.0292 -0.3692  1.1995
 9212TIP3   OH227592   6.179   6.065   3.974  0.0173 -0.2859  0.1821
 9212TIP3    H127593   6.089   6.068   4.006  0.2261  1.0774  0.6610
 9212TIP3    H227594   6.171   6.082   3.880 -0.0076  3.3498  0.7089
 9213TIP3   OH227595   3.182   1.929   0.783 -0.2301 -0.1768 -0.5191
 9213TIP3    H127596   3.133   1.997   0.736  2.8423  2.0707 -0.7820
 9213TIP3    H227597   3.215   1.871   0.715 -0.2349 -0.0876 -0.5974
 9214TIP3   OH227598   6.768   3.876   5.054  0.0890 -0.4621  0.5374
 9214TIP3    H127599   6.728   3.884   5.141  0.9825 -1.2735  1.0432
 9214TIP3    H227600   6.695   3.854   4.996 -0.4376 -0.4122  1.1737
 9215TIP3   OH227601   4.585   7.393   5.711  0.0564  0.6034 -0.4399
 9215TIP3    H127602   4.660   7.384   5.769 -0.1354  1.7974  0.0104
 9215TIP3    H227603   4.523   7.326   5.741  0.9255 -0.4125 -0.8387
 9216TIP3   OH227604   2.883   3.799   6.582  0.0216 -0.0432 -0.2646
 9216TIP3    H127605   2.849   3.721   6.627  1.3344 -0.2873  0.3725
 9216TIP3    H227606   2.916   3.767   6.499 -0.0411 -0.0514 -0.2863
 9217TIP3   OH227607   2.580   4.044   0.107  0.4339 -0.0675 -0.1417
 9217TIP3    H127608   2.672   4.038   0.134  1.0878  1.7366 -1.7191
 9217TIP3    H227609   2.582   4.023   0.013 -0.5999  1.0692 -0.4350
 9218TIP3   OH227610   5.279   3.427   0.992 -0.7689 -0.3817 -0.0330
 9218TIP3    H127611   5.196   3.379   0.994 -0.8452 -0.2472  1.4073
 9218TIP3    H227612   5.344   3.363   0.963 -1.3328 -0.5359 -0.9957
 9219TIP3   OH227613   2.460   4.828   0.354  0.0613  0.1495  0.8830
 9219TIP3    H127614   2.520   4.754   0.359  0.8484  0.7091 -0.0788
 9219TIP3    H227615   2.373   4.789   0.360  0.3185 -1.2035 -2.3596
 9220TIP3   OH227616   4.081   6.265   1.954 -0.1343  0.0867  0.1744
 9220TIP3    H127617   4.036   6.283   1.872 -0.7180  0.3068  0.5334
 9220TIP3    H227618   4.018   6.213   2.005  0.4980 -0.6735  0.2013
 9221TIP3   OH227619   5.261   6.533   3.997  0.0587 -0.0302  0.8280
 9221TIP3    H127620   5.301   6.446   3.997  1.3608  0.5064 -1.1483
 9221TIP3    H227621   5.202   6.532   3.922  0.8380  1.0870  0.1751
 9222TIP3   OH227622   1.037   3.921   1.404  0.0584  0.2117 -0.7026
 9222TIP3    H127623   1.076   3.953   1.322  1.1890  1.0763  0.1474
 9222TIP3    H227624   1.065   3.830   1.410 -2.6088 -0.8816 -2.7957
 9223TIP3   OH227625   7.555   3.874   5.768 -0.3591  0.0856 -0.1355
 9223TIP3    H127626   7.500   3.855   5.844 -1.6610  1.3624 -0.6954
 9223TIP3    H227627   7.609   3.948   5.795 -1.0437  0.7411 -0.5303
 9224TIP3   OH227628   4.030   0.275   3.585 -0.1738  0.2930  0.2280
 9224TIP3    H127629   4.081   0.229   3.652 -1.0015  0.3851  0.9430
 9224TIP3    H227630   4.086   0.276   3.508  0.5161 -0.4492  0.7075
 9225TIP3   OH227631   4.666   3.556   0.409 -0.3897  0.6085  0.2255
 9225TIP3    H127632   4.599   3.616   0.376  1.1457  2.2106 -0.1366
 9225TIP3    H227633   4.694   3.506   0.332 -0.6266  0.4735  0.2261
 9226TIP3   OH227634   4.928   2.994   2.655  0.0652  0.1799  0.3190
 9226TIP3    H127635   4.942   3.038   2.739  0.7354  0.4827  0.0516
 9226TIP3    H227636   5.010   3.004   2.608  0.9055 -2.9142  0.9374
 9227TIP3   OH227637   3.298   6.864   0.487  0.1536 -0.1585  0.4416
 9227TIP3    H127638   3.387   6.898   0.476  0.1888  0.1525  1.6144
 9227TIP3    H227639   3.280   6.818   0.405  1.1444  0.3394 -0.0705
 9228TIP3   OH227640   7.928   4.349   5.428 -0.0346 -0.1628  0.5247
 9228TIP3    H127641   7.937   4.262   5.388  0.4448 -0.2819  0.8859
 9228TIP3    H227642   7.950   4.335   5.520  2.5651  0.7926  0.1250
 9229TIP3   OH227643   5.644   5.718   0.120  0.2486 -0.1942  0.4649
 9229TIP3    H127644   5.653   5.677   0.034 -0.4829 -0.4571  0.5089
 9229TIP3    H227645   5.551   5.714   0.139  0.3344  0.3342  1.0448
 9230TIP3   OH227646   2.290   5.858   5.991 -0.6343 -0.3457 -0.3776
 9230TIP3    H127647   2.204   5.885   6.025 -0.4798  0.8831 -0.9328
 9230TIP3    H227648   2.275   5.769   5.959 -1.6789 -0.1907 -0.3719
 9231TIP3   OH227649   4.717   1.416   6.661 -0.3989 -0.0662 -0.1560
 9231TIP3    H127650   4.777   1.401   6.587  0.3074 -3.0645  0.8875
 9231TIP3    H227651   4.765   1.475   6.719  0.6076 -0.5951 -0.4231
 9232TIP3   OH227652   7.677   6.952   5.754 -0.4489  0.3186  0.1082
 9232TIP3    H127653   7.664   6.997   5.837  1.5845  1.4302 -0.1078
 9232TIP3    H227654   7.631   6.869   5.763 -1.5543  1.0799  1.7506
 9233TIP3   OH227655   7.159   6.315   6.052  0.0399  0.1362 -0.0420
 9233TIP3    H127656   7.082   6.260   6.041 -0.8845  1.6026 -1.2365
 9233TIP3    H227657   7.182   6.307   6.144 -1.9788  0.2350  0.4978
 9234TIP3   OH227658   7.092   7.321   0.807 -0.1343 -0.5375 -0.5171
 9234TIP3    H127659   7.106   7.329   0.713 -2.1924  0.3038 -0.7982
 9234TIP3    H227660   7.061   7.407   0.835 -2.0346 -1.4438  0.4149
 9235TIP3   OH227661   0.314   0.174   1.796  0.2623  0.0344  0.5152
 9235TIP3    H127662   0.283   0.227   1.870  0.0747 -0.6534  0.9365
 9235TIP3    H227663   0.399   0.141   1.824  0.6214  0.5445  0.0365
 9236TIP3   OH227664   0.213   4.855   2.774  1.0309  0.3022  0.3719
 9236TIP3    H127665   0.131   4.848   2.822  1.4367 -0.0133  1.0273
 9236TIP3    H227666   0.235   4.764   2.750 -0.0184  0.5663 -1.8955
 9237TIP3   OH227667   5.321   7.466   3.290 -0.3637 -0.1240  0.3273
 9237TIP3    H127668   5.354   7.382   3.323  0.0479 -0.5775 -1.1325
 9237TIP3    H227669   5.244   7.484   3.343 -1.2684 -2.1285 -0.1828
 9238TIP3   OH227670   7.284   1.993   1.653 -0.7318 -0.2110  0.0134
 9238TIP3    H127671   7.330   2.062   1.701 -0.2506  0.9874 -2.0785
 9238TIP3    H227672   7.300   1.914   1.705  1.8173  0.5714  0.5643
 9239TIP3   OH227673   4.812   0.976   2.954 -0.1334 -0.2766 -0.5972
 9239TIP3    H127674   4.841   1.045   3.013 -0.3285 -1.5146  1.0355
 9239TIP3    H227675   4.851   0.998   2.870  1.5495  0.6697  0.3716
 9240TIP3   OH227676   0.603   6.795   3.371 -0.7899  0.0556 -0.4218
 9240TIP3    H127677   0.561   6.775   3.287 -0.8422  0.5400 -0.5165
 9240TIP3    H227678   0.545   6.860   3.411 -0.3837  0.3681 -0.3358
 9241TIP3   OH227679   4.708   5.237   5.018 -0.1066  0.0332  0.0058
 9241TIP3    H127680   4.736   5.229   4.927 -0.7723 -0.4027 -0.1679
 9241TIP3    H227681   4.752   5.316   5.049  0.3752  0.0132 -0.5997
 9242TIP3   OH227682   4.367   2.902   1.837  0.0649 -0.1088 -0.1191
 9242TIP3    H127683   4.340   2.973   1.778  1.4090  0.8815  0.3928
 9242TIP3    H227684   4.309   2.829   1.815 -0.1815  0.5688 -1.9246
 9243TIP3   OH227685   5.090   0.010   4.981 -0.5236  0.5278  0.0102
 9243TIP3    H127686   5.036  -0.048   4.927  0.0643 -0.7834  0.7829
 9243TIP3    H227687   5.047   0.095   4.975 -2.0844 -0.2469 -0.2062
 9244TIP3   OH227688   7.046   6.899   0.121  0.0232 -0.3928  0.2365
 9244TIP3    H127689   6.962   6.868   0.155 -0.2956 -0.4622 -0.6142
 9244TIP3    H227690   7.038   6.894   0.026  1.6852 -2.2306  0.1344
 9245TIP3   OH227691   2.135   5.283   1.846 -0.0096  0.5102 -0.8104
 9245TIP3    H127692   2.071   5.214   1.857  0.2591  0.6220  2.5915
 9245TIP3    H227693   2.084   5.359   1.818 -0.5323 -0.5918 -3.0145
 9246TIP3   OH227694   5.500   1.366   0.287 -0.1514  0.2679  0.1830
 9246TIP3    H127695   5.461   1.420   0.219  0.1215  1.0486  0.6383
 9246TIP3    H227696   5.513   1.280   0.245 -1.9320  0.1122 -0.0937
 9247TIP3   OH227697   2.973   0.334   5.504 -0.0529  0.1849 -0.4335
 9247TIP3    H127698   2.947   0.262   5.447 -0.3523 -0.0151 -0.0478
 9247TIP3    H227699   3.014   0.398   5.445 -1.9091  0.7557 -1.1668
 9248TIP3   OH227700   6.892   0.139   3.541 -0.0169 -0.4757 -0.3624
 9248TIP3    H127701   6.921   0.058   3.584  1.1643  0.5258  0.8338
 9248TIP3    H227702   6.805   0.118   3.507 -1.0579 -1.3720  2.5425
 9249TIP3   OH227703   6.519   1.790   2.574  0.4009  0.3655  0.5737
 9249TIP3    H127704   6.510   1.837   2.491 -1.1019  0.9654  1.0479
 9249TIP3    H227705   6.613   1.773   2.582  0.4724 -0.6969 -1.7691
 9250TIP3   OH227706   7.135   2.899   5.140 -0.3973 -0.1938  0.2990
 9250TIP3    H127707   7.223   2.862   5.138  0.1214  0.9358  0.8777
 9250TIP3    H227708   7.099   2.883   5.053  0.6897  0.0319 -0.2074
 9251TIP3   OH227709   4.021   3.848   4.967 -0.1229 -0.2109 -0.4525
 9251TIP3    H127710   4.057   3.798   4.894  0.4620 -1.2992  0.5427
 9251TIP3    H227711   4.073   3.821   5.043  1.2850  3.0185 -0.0723
 9252TIP3   OH227712   4.521   1.133   2.979  0.1018  0.0487  0.3889
 9252TIP3    H127713   4.606   1.094   3.000 -0.0974 -1.6883 -1.7265
 9252TIP3    H227714   4.500   1.188   3.055  1.6046 -1.9890  2.3927
 9253TIP3   OH227715   1.099   3.691   5.420  0.4206 -0.1382  0.5479
 9253TIP3    H127716   1.056   3.634   5.483 -1.4248  2.6273  1.9785
 9253TIP3    H227717   1.091   3.645   5.336 -0.9690 -1.9185  1.5939
 9254TIP3   OH227718   6.340   1.134   1.145  0.1317 -0.1197 -0.6564
 9254TIP3    H127719   6.254   1.128   1.186  0.3975  0.6370  0.0446
 9254TIP3    H227720   6.357   1.046   1.112 -1.6521  0.1046 -2.3751
 9255TIP3   OH227721   3.067   6.649   3.013 -0.0595 -0.3549 -0.2117
 9255TIP3    H127722   3.136   6.646   3.079  0.3653 -2.1799 -0.6712
 9255TIP3    H227723   3.113   6.640   2.930 -0.7247  0.1978 -0.6513
 9256TIP3   OH227724   8.060   4.994   0.498  0.0560  0.1672  0.0803
 9256TIP3    H127725   8.118   5.018   0.571 -0.1192  1.0559 -0.0610
 9256TIP3    H227726   8.097   5.038   0.422 -0.9306  0.9408  0.0333
 9257TIP3   OH227727   7.969   6.460   4.166  0.3536 -0.0443 -0.2723
 9257TIP3    H127728   8.017   6.454   4.084 -0.7071 -2.1196 -0.8213
 9257TIP3    H227729   8.015   6.526   4.217 -0.2152  2.9875 -3.3426
 9258TIP3   OH227730   2.472   3.301   5.654  0.2565  0.0116  0.1901
 9258TIP3    H127731   2.459   3.235   5.723 -2.9291 -0.2922 -0.5286
 9258TIP3    H227732   2.473   3.384   5.701 -2.1821 -0.1617  0.7035
 9259TIP3   OH227733   4.995   4.580   0.982 -0.2063  0.1549  0.2113
 9259TIP3    H127734   5.063   4.621   0.929  0.2070 -1.3279 -0.4582
 9259TIP3    H227735   4.985   4.637   1.057 -2.1598  3.4245 -2.2514
 9260TIP3   OH227736   6.658   3.590   2.498 -0.3933  0.3611 -0.0686
 9260TIP3    H127737   6.571   3.625   2.479 -0.7311 -0.2209  0.3557
 9260TIP3    H227738   6.641   3.506   2.540  0.3245  1.0025  1.6011
 9261TIP3   OH227739   0.607   5.873   2.009  0.0182 -0.3643  0.0439
 9261TIP3    H127740   0.601   5.948   1.950  0.2523 -1.0616 -0.8742
 9261TIP3    H227741   0.524   5.874   2.057 -0.9579 -0.8230 -1.5700
 9262TIP3   OH227742   1.349   7.256   6.582 -0.5997  0.6459  0.0923
 9262TIP3    H127743   1.301   7.174   6.592  0.3416  0.2105  1.2275
 9262TIP3    H227744   1.341   7.300   6.667  0.5907  0.7688  0.1675
 9263TIP3   OH227745   5.322   6.260   0.341  0.0463 -0.1695  0.3869
 9263TIP3    H127746   5.342   6.167   0.326  1.0742  0.0183  0.5009
 9263TIP3    H227747   5.383   6.286   0.410  3.2981  1.7969 -2.8488
 9264TIP3   OH227748   8.067   2.635   1.201 -0.4940  0.3132 -0.5090
 9264TIP3    H127749   7.987   2.655   1.250 -0.1525  0.9869 -0.2036
 9264TIP3    H227750   8.138   2.656   1.263 -0.0857 -1.5920 -0.2666
 9265TIP3   OH227751   7.254   7.691   0.871 -0.8304 -0.4290 -0.5039
 9265TIP3    H127752   7.248   7.786   0.876 -0.0370 -0.4034  0.1113
 9265TIP3    H227753   7.336   7.674   0.825 -0.1795 -0.8175  0.7757
 9266TIP3   OH227754   1.662   7.467   4.143 -0.5722 -0.1975  0.0667
 9266TIP3    H127755   1.684   7.511   4.225 -0.6563  0.7362 -0.3991
 9266TIP3    H227756   1.706   7.520   4.076  0.0013 -1.2966 -0.4476
 9267TIP3   OH227757   4.665   7.781   2.389 -0.6003 -0.0253 -0.4613
 9267TIP3    H127758   4.694   7.872   2.381 -1.2452  0.1756 -0.5997
 9267TIP3    H227759   4.571   7.787   2.401 -0.5824 -0.6610  0.0742
 9268TIP3   OH227760   7.900   4.712   5.596 -0.5876  0.2261 -0.4610
 9268TIP3    H127761   7.880   4.695   5.504 -1.7916 -0.4048 -0.1097
 9268TIP3    H227762   7.846   4.788   5.618  0.8224  1.3217 -0.6429
 9269TIP3   OH227763   2.074   4.520   1.919  0.4040 -0.2028 -0.0964
 9269TIP3    H127764   2.019   4.474   1.855 -0.2095  1.8470 -1.1238
 9269TIP3    H227765   2.154   4.540   1.870  0.3054  0.5685  0.0537
 9270TIP3   OH227766   5.639   3.233   1.428  0.0041  0.2612 -0.0956
 9270TIP3    H127767   5.593   3.248   1.346  0.4289  0.6084 -0.2705
 9270TIP3    H227768   5.730   3.256   1.410  0.0433  0.6578  0.5606
 9271TIP3   OH227769   8.231   4.480   3.300 -0.3361 -0.0303  0.2031
 9271TIP3    H127770   8.136   4.468   3.299 -0.5962  1.5192  1.7090
 9271TIP3    H227771   8.262   4.420   3.368 -0.4045  0.2853  0.5212
 9272TIP3   OH227772   5.488   1.167   0.494  0.5512  0.1794 -0.0155
 9272TIP3    H127773   5.507   1.241   0.552 -1.7520  2.0702 -1.5166
 9272TIP3    H227774   5.491   1.203   0.406 -0.0471 -1.6796 -0.8502
 9273TIP3   OH227775   2.692   6.002   4.482 -0.2267 -0.2020 -0.5122
 9273TIP3    H127776   2.749   5.931   4.509  0.0991 -0.7372 -2.4559
 9273TIP3    H227777   2.751   6.075   4.464 -0.3145 -0.1998 -0.8045
 9274TIP3   OH227778   5.005   3.604   3.665 -0.2156  0.0091  0.4233
 9274TIP3    H127779   4.958   3.553   3.730 -1.8164 -0.1826 -0.8166
 9274TIP3    H227780   4.975   3.569   3.581  0.7887  1.1216 -0.4388
 9275TIP3   OH227781   3.922   4.282   3.411 -0.0067  0.2661 -0.7866
 9275TIP3    H127782   3.995   4.320   3.459  0.2062  1.3376 -1.9028
 9275TIP3    H227783   3.963   4.228   3.343 -0.2851 -0.1472 -0.6340
 9276TIP3   OH227784   6.606   2.106   0.109  0.2855  0.2551 -0.5346
 9276TIP3    H127785   6.585   2.185   0.160 -1.8910 -0.7904  0.3533
 9276TIP3    H227786   6.573   2.125   0.021 -1.7751 -0.1747  0.0740
 9277TIP3   OH227787   6.372   7.064   3.730 -0.3966 -0.4382 -0.3698
 9277TIP3    H127788   6.384   7.137   3.669  0.5384 -0.6260 -0.4362
 9277TIP3    H227789   6.328   7.103   3.805 -0.0237  0.1810 -0.4564
 9278TIP3   OH227790   3.583   2.260   3.367  0.6727 -0.0978 -0.3276
 9278TIP3    H127791   3.602   2.260   3.461 -0.3363 -0.0718 -0.1201
 9278TIP3    H227792   3.547   2.173   3.350 -0.6108  0.4223 -0.3789
 9279TIP3   OH227793   6.495   6.715   2.297  0.9635  0.3637 -0.0455
 9279TIP3    H127794   6.433   6.672   2.238  1.3618  0.3229 -0.4434
 9279TIP3    H227795   6.535   6.783   2.243  0.6821  0.9232  0.4425
 9280TIP3   OH227796   2.315   2.638   1.670 -0.1683  0.4800 -0.0984
 9280TIP3    H127797   2.396   2.586   1.674 -0.3370  0.0791 -1.3942
 9280TIP3    H227798   2.291   2.650   1.761  1.6717  1.1206  0.3515
 9281TIP3   OH227799   7.632   6.864   1.755  0.2173 -0.2622 -0.0159
 9281TIP3    H127800   7.681   6.929   1.705  0.9689  0.7287  1.9257
 9281TIP3    H227801   7.696   6.797   1.777 -0.0091 -0.4728  0.0068
 9282TIP3   OH227802   7.238   0.178   3.827 -0.1759  0.1028  0.0757
 9282TIP3    H127803   7.225   0.218   3.913 -0.8626 -0.3681  0.2010
 9282TIP3    H227804   7.333   0.182   3.813 -0.0140 -0.1551  1.0263
 9283TIP3   OH227805   5.699   7.545   5.921 -0.1275  0.0597  0.2383
 9283TIP3    H127806   5.655   7.462   5.939 -0.6170  0.2090 -0.2536
 9283TIP3    H227807   5.726   7.538   5.829 -2.3074  1.3905 -0.5754
 9284TIP3   OH227808   2.141   1.035   5.901 -0.3366 -0.1079  0.0857
 9284TIP3    H127809   2.205   1.073   5.961 -0.3798  0.4169 -0.1930
 9284TIP3    H227810   2.111   1.109   5.849 -0.3072 -0.5577 -0.5778
 9285TIP3   OH227811   3.722   7.648   1.887  0.5319  0.1304 -0.8082
 9285TIP3    H127812   3.682   7.728   1.852 -1.2152 -0.7192 -0.8627
 9285TIP3    H227813   3.648   7.593   1.912  1.6859 -1.5868 -0.9957
 9286TIP3   OH227814   0.390   0.548   5.849  0.4371 -0.5968 -0.3343
 9286TIP3    H127815   0.326   0.485   5.881  0.0028 -0.4419 -0.8761
 9286TIP3    H227816   0.350   0.585   5.770  0.3382  0.8991  0.3715
 9287TIP3   OH227817   3.511   4.842   1.101  0.4123 -0.3530  0.5518
 9287TIP3    H127818   3.516   4.816   1.009  0.2064  1.9816 -0.1883
 9287TIP3    H227819   3.499   4.937   1.098 -2.8135 -0.5274  2.9423
 9288TIP3   OH227820   0.776   6.367   6.070 -0.4607  0.4564 -0.1434
 9288TIP3    H127821   0.784   6.392   6.162  0.7300 -1.0341  0.2073
 9288TIP3    H227822   0.865   6.378   6.035 -1.3579  3.4633 -1.8517
 9289TIP3   OH227823   7.162   4.672   0.090  0.1680  0.0139 -0.3108
 9289TIP3    H127824   7.134   4.713   0.008  0.5537  0.7151 -0.1087
 9289TIP3    H227825   7.093   4.610   0.111  0.7509 -1.2409 -1.9147
 9290TIP3   OH227826   5.326   1.438   3.470 -0.6481  0.4048 -0.3450
 9290TIP3    H127827   5.264   1.381   3.424 -1.5714  2.6154 -1.9930
 9290TIP3    H227828   5.277   1.470   3.546  0.1708 -1.5561  1.1151
 9291TIP3   OH227829   7.391   7.722   1.593  0.2645 -0.5068  0.1249
 9291TIP3    H127830   7.395   7.737   1.499  0.6181  0.1838  0.2445
 9291TIP3    H227831   7.365   7.630   1.602  1.3183 -0.9034 -0.6511
 9292TIP3   OH227832   7.157   5.112   3.998  0.2586 -0.0021  0.1057
 9292TIP3    H127833   7.218   5.185   3.986 -1.1143  0.9656 -1.3218
 9292TIP3    H227834   7.166   5.061   3.917  0.7610 -1.1242  0.8358
 9293TIP3   OH227835   1.066   3.018   2.552  0.2269  0.3531  0.1451
 9293TIP3    H127836   1.049   2.929   2.582 -0.7108  0.8321  1.0816
 9293TIP3    H227837   1.059   3.072   2.631  0.5944  1.2870 -0.4396
 9294TIP3   OH227838   0.391   0.051   5.521  0.3739 -0.0022  0.2125
 9294TIP3    H127839   0.442   0.079   5.597 -0.2694  0.5217  0.4540
 9294TIP3    H227840   0.353   0.132   5.486  0.1397 -0.3214 -0.2842
 9295TIP3   OH227841   7.315   1.851   2.630 -0.4476  0.1159 -0.1775
 9295TIP3    H127842   7.223   1.854   2.655 -0.2401  1.1363  0.5263
 9295TIP3    H227843   7.362   1.878   2.709  0.4182  0.2844 -0.7378
 9296TIP3   OH227844   3.534   7.543   1.163  0.0267 -0.3574  0.0681
 9296TIP3    H127845   3.617   7.582   1.136  0.0863 -0.6480 -0.1690
 9296TIP3    H227846   3.556   7.490   1.240 -0.1804  0.6387  0.8334
 9297TIP3   OH227847   3.608   7.571   4.991  0.0666  0.1323 -0.2485
 9297TIP3    H127848   3.665   7.497   5.011  0.0229  0.3102  0.6036
 9297TIP3    H227849   3.662   7.630   4.938  0.2342 -0.3160 -0.5761
 9298TIP3   OH227850   5.196   3.893   4.662  0.6447  0.5673  0.0305
 9298TIP3    H127851   5.139   3.949   4.610  0.3330 -0.5296 -0.8489
 9298TIP3    H227852   5.216   3.945   4.740  2.5584  2.9878 -1.9176
 9299TIP3   OH227853   0.907   6.993   0.759  0.2985 -0.2066 -0.0913
 9299TIP3    H127854   0.901   7.084   0.729  0.7196 -0.9431 -2.6876
 9299TIP3    H227855   0.818   6.972   0.787  0.6732  1.6477  2.8703
 9300TIP3   OH227856   4.898   7.050   5.968  0.3220 -0.1438 -0.3406
 9300TIP3    H127857   4.897   7.145   5.980  0.1930 -0.2086  0.1637
 9300TIP3    H227858   4.941   7.015   6.046  0.8998 -0.4664 -0.7969
 9301TIP3   OH227859   6.843   2.753   3.367 -0.4004  0.1848 -0.3077
 9301TIP3    H127860   6.795   2.773   3.287  0.9487  1.2861 -0.8971
 9301TIP3    H227861   6.824   2.661   3.385 -0.7340 -0.0795 -1.8990
 9302TIP3   OH227862   5.913   4.198   2.164  0.2068  0.2883 -0.4667
 9302TIP3    H127863   5.916   4.230   2.074  3.2433 -0.1229 -0.6367
 9302TIP3    H227864   5.920   4.103   2.156  0.9723  0.2795  0.1760
 9303TIP3   OH227865   7.010   1.992   3.603 -0.1919  0.4057  0.0819
 9303TIP3    H127866   6.996   1.907   3.644  1.3608  1.0085  2.0292
 9303TIP3    H227867   6.923   2.018   3.572 -0.9267 -1.3251  0.5499
 9304TIP3   OH227868   3.040   0.998   2.475  0.3327  0.3350  0.4360
 9304TIP3    H127869   2.994   0.930   2.523 -0.7111  1.1545  0.6325
 9304TIP3    H227870   3.085   0.951   2.404  0.7520 -0.7042  1.3690
 9305TIP3   OH227871   0.792   6.009   3.862 -0.3389  0.2213 -0.3532
 9305TIP3    H127872   0.842   6.031   3.941  0.7706  0.5652 -1.1380
 9305TIP3    H227873   0.701   6.012   3.891 -0.0099  1.3512  0.6836
 9306TIP3   OH227874   7.007   6.813   3.996  0.3551 -0.0008 -0.2025
 9306TIP3    H127875   6.958   6.774   4.068  1.8385  2.4931  2.3378
 9306TIP3    H227876   7.076   6.750   3.977  0.0706 -0.6068  0.7156
 9307TIP3   OH227877   1.220   4.147   6.254  0.8138 -0.1367 -0.0934
 9307TIP3    H127878   1.129   4.165   6.228  0.7962  1.6249  1.0407
 9307TIP3    H227879   1.236   4.058   6.223 -0.7050  0.1529 -1.9279
 9308TIP3   OH227880   2.307   5.334   0.785 -0.1044 -0.0014 -0.1916
 9308TIP3    H127881   2.294   5.297   0.872 -0.6238  0.1924 -0.1850
 9308TIP3    H227882   2.237   5.399   0.775 -0.5756 -0.6247 -1.0881
 9309TIP3   OH227883   5.807   5.904   3.113  0.4060 -0.8300 -0.6936
 9309TIP3    H127884   5.833   5.845   3.183 -0.9106 -0.5507  0.0751
 9309TIP3    H227885   5.740   5.856   3.064 -1.2847  0.2507  0.4373
 9310TIP3   OH227886   6.960   6.996   6.256  0.2850  0.4008  0.3371
 9310TIP3    H127887   7.043   7.015   6.301  0.7122  0.8242 -0.6031
 9310TIP3    H227888   6.950   6.901   6.264  1.2200  0.2543 -0.1401
 9311TIP3   OH227889   5.220   5.303   2.895  0.1909 -1.1088  0.1635
 9311TIP3    H127890   5.284   5.315   2.966 -0.6029 -1.6070  0.9782
 9311TIP3    H227891   5.263   5.243   2.834  0.8712 -0.6988  0.2271
 9312TIP3   OH227892   4.958   4.321   0.460 -0.5525  0.2107 -0.4161
 9312TIP3    H127893   4.957   4.358   0.549 -1.8514 -0.2392 -0.2258
 9312TIP3    H227894   4.963   4.398   0.403  3.0814  0.4525  0.0117
 9313TIP3   OH227895   2.169   7.090   3.071  0.1689  0.0554 -0.0048
 9313TIP3    H127896   2.158   6.996   3.055  0.8213 -0.4156  2.0123
 9313TIP3    H227897   2.130   7.104   3.158 -0.7665  1.8543 -0.6703
 9314TIP3   OH227898   0.607   5.414   3.868 -0.5168  0.2330 -0.3122
 9314TIP3    H127899   0.600   5.361   3.789 -1.3575  1.2379 -0.9446
 9314TIP3    H227900   0.690   5.461   3.857  0.3219 -1.0398  0.3387
 9315TIP3   OH227901   1.597   7.396   3.137 -1.0452 -0.0925  0.2468
 9315TIP3    H127902   1.642   7.349   3.207  1.9569 -0.0685 -1.4653
 9315TIP3    H227903   1.544   7.330   3.093  0.9523 -1.3282 -0.4252
 9316TIP3   OH227904   1.656   2.997   1.674 -0.1997 -1.0726  0.0334
 9316TIP3    H127905   1.600   3.064   1.636  1.3364  0.0860 -0.3161
 9316TIP3    H227906   1.702   2.959   1.599  1.7262  0.1664  0.5133
 9317TIP3   OH227907   4.638   6.535   5.103 -0.0886 -0.0888  0.4659
 9317TIP3    H127908   4.722   6.544   5.147 -1.1731  1.1528  2.4561
 9317TIP3    H227909   4.624   6.440   5.098  0.8522 -0.2975  1.2896
 9318TIP3   OH227910   0.432   7.588   2.003  0.5241 -0.8092 -0.0191
 9318TIP3    H127911   0.468   7.520   1.945  1.7153 -0.9187  0.8124
 9318TIP3    H227912   0.498   7.598   2.071  0.8591  1.8876 -0.6340
 9319TIP3   OH227913   8.194   1.658   0.104  0.9270 -0.0338  0.0664
 9319TIP3    H127914   8.257   1.629   0.038 -0.2252 -0.6324 -0.8006
 9319TIP3    H227915   8.133   1.715   0.056 -0.1983 -0.8390  0.4970
 9320TIP3   OH227916   2.352   1.315   4.597 -0.4357  0.2384 -0.5190
 9320TIP3    H127917   2.366   1.396   4.548  0.2915 -0.1153 -0.9099
 9320TIP3    H227918   2.379   1.336   4.686 -1.1578  0.6959 -0.3954
 9321TIP3   OH227919   4.239   0.988   5.914 -0.1136  0.0163  0.2725
 9321TIP3    H127920   4.311   0.942   5.870 -1.2730 -2.6874  0.9613
 9321TIP3    H227921   4.169   0.989   5.849 -0.5026 -0.3306  0.6799
 9322TIP3   OH227922   7.055   6.581   6.069  0.1284  0.3960 -0.5544
 9322TIP3    H127923   7.109   6.502   6.070 -0.3372  0.0598 -1.2090
 9322TIP3    H227924   7.057   6.613   6.159 -0.5436 -0.9651 -0.0257
 9323TIP3   OH227925   3.485   0.444   5.531 -0.2018 -0.0320 -0.1695
 9323TIP3    H127926   3.494   0.522   5.476  0.3275  1.0895  1.4301
 9323TIP3    H227927   3.536   0.465   5.609 -0.3486 -1.8637  0.4479
 9324TIP3   OH227928   1.658   3.498   5.772 -0.1164  0.3273  0.2349
 9324TIP3    H127929   1.585   3.458   5.819 -0.6705 -1.5523 -2.0452
 9324TIP3    H227930   1.734   3.445   5.798 -0.4659 -0.8789 -1.0631
 9325TIP3   OH227931   2.129   7.574   5.385 -0.0639 -0.2740  0.0056
 9325TIP3    H127932   2.174   7.524   5.317 -1.2068  0.3181 -1.2430
 9325TIP3    H227933   2.040   7.586   5.351 -1.0301 -0.9189  2.1177
 9326TIP3   OH227934   4.410   6.206   3.603  0.4253 -0.2414 -0.5746
 9326TIP3    H127935   4.368   6.268   3.543  0.5949 -0.4283 -0.8884
 9326TIP3    H227936   4.451   6.261   3.670 -0.0102 -0.0434 -0.4659
 9327TIP3   OH227937   4.750   0.907   2.607  0.5179  0.1537  0.2323
 9327TIP3    H127938   4.828   0.961   2.619 -0.6701  2.5979 -2.1476
 9327TIP3    H227939   4.676   0.967   2.622 -0.8728 -0.6396 -2.6988
 9328TIP3   OH227940   2.261   5.964   0.284 -0.4252  0.5188 -0.0337
 9328TIP3    H127941   2.306   5.904   0.225  0.1056  0.9056 -0.0250
 9328TIP3    H227942   2.168   5.950   0.265 -0.3243 -0.4111  0.0769
 9329TIP3   OH227943   2.036   4.840   2.519  0.6034 -0.5498  0.1311
 9329TIP3    H127944   2.008   4.750   2.500  0.8846 -0.7054  0.4518
 9329TIP3    H227945   2.131   4.838   2.508  0.8377 -0.7484  1.9662
 9330TIP3   OH227946   6.906   4.746   0.246 -0.1194 -0.2045 -0.1178
 9330TIP3    H127947   6.883   4.821   0.191  0.0033  1.4205  1.9187
 9330TIP3    H227948   6.934   4.785   0.329  2.4434 -2.4247  0.1764
 9331TIP3   OH227949   8.129   3.338   6.203 -0.0317 -0.1003  0.0052
 9331TIP3    H127950   8.115   3.323   6.297  0.2191 -1.7332 -0.1849
 9331TIP3    H227951   8.224   3.332   6.193 -0.1496 -1.3832 -0.5451
 9332TIP3   OH227952   3.192   3.621   6.005  0.1470  0.5961  0.0276
 9332TIP3    H127953   3.155   3.671   5.932  0.8392  1.1431  0.0531
 9332TIP3    H227954   3.243   3.684   6.055 -0.9907  0.4180  1.4809
 9333TIP3   OH227955   4.194   1.042   6.321  0.3610  0.4027 -0.2874
 9333TIP3    H127956   4.251   1.051   6.245 -0.3731 -0.3521 -0.9477
 9333TIP3    H227957   4.228   0.966   6.368  0.4439  0.5047 -0.1800
 9334TIP3   OH227958   3.285   1.921   4.196 -0.2187 -0.4242  0.2762
 9334TIP3    H127959   3.289   1.840   4.248  0.2563 -0.0326  0.8773
 9334TIP3    H227960   3.357   1.974   4.231 -0.9536  0.5326  0.3657
 9335TIP3   OH227961   4.518   3.326   0.036 -0.4381 -0.0647 -0.2506
 9335TIP3    H127962   4.442   3.269   0.047 -1.3016  1.0173 -0.4892
 9335TIP3    H227963   4.483   3.405  -0.004  0.7913  0.5219 -0.1985
 9336TIP3   OH227964   1.205   1.593   1.529 -0.4812  0.4224  0.1231
 9336TIP3    H127965   1.277   1.530   1.527 -1.5738 -1.0212  2.3165
 9336TIP3    H227966   1.127   1.539   1.543 -1.5950  2.1693  1.0054
 9337TIP3   OH227967   5.354   4.964   5.795  0.2598  0.0997  0.0875
 9337TIP3    H127968   5.272   5.011   5.812  0.2867  0.3687 -0.5258
 9337TIP3    H227969   5.405   5.023   5.740  0.5441 -0.4015 -0.1898
 9338TIP3   OH227970   2.334   6.436   4.678 -0.1650 -0.0192  0.3599
 9338TIP3    H127971   2.271   6.507   4.693 -0.2350  0.1629 -0.7065
 9338TIP3    H227972   2.335   6.425   4.583 -0.1471 -1.4469  0.5060
 9339TIP3   OH227973   0.366   3.387   4.776  0.0063  0.6126 -0.6930
 9339TIP3    H127974   0.342   3.423   4.690  0.2826  3.6142  0.3868
 9339TIP3    H227975   0.282   3.381   4.822  0.0810  0.8703 -0.5239
 9340TIP3   OH227976   2.441   7.084   6.245 -0.5972 -0.0171 -0.3341
 9340TIP3    H127977   2.379   7.028   6.292 -0.1661 -1.5166 -1.4702
 9340TIP3    H227978   2.433   7.057   6.153  0.3385  1.1228 -0.7788
 9341TIP3   OH227979   1.186   6.903   4.573  0.0502 -0.2732 -0.4966
 9341TIP3    H127980   1.174   6.905   4.478  0.8213 -1.0115 -0.6212
 9341TIP3    H227981   1.200   6.811   4.594  1.5934  0.0713  0.0974
 9342TIP3   OH227982   2.266   3.511   6.172 -0.2318  0.0127  0.0394
 9342TIP3    H127983   2.221   3.429   6.195 -0.4958  0.6053  1.7507
 9342TIP3    H227984   2.206   3.580   6.200  0.9709  0.8097  0.7107
 9343TIP3   OH227985   5.941   6.263   1.356  0.4465 -0.4322 -0.4606
 9343TIP3    H127986   6.000   6.338   1.344 -0.8156  0.5631 -0.6965
 9343TIP3    H227987   5.858   6.302   1.385 -0.4594 -1.6613 -1.2583
 9344TIP3   OH227988   4.054   2.693   1.929 -0.6164  0.3842 -0.4649
 9344TIP3    H127989   3.965   2.670   1.905 -0.0678 -0.5144 -1.7929
 9344TIP3    H227990   4.048   2.782   1.964 -2.3085 -0.4018  1.4626
 9345TIP3   OH227991   3.363   3.709   2.510 -0.5103 -0.5712  0.3731
 9345TIP3    H127992   3.276   3.717   2.471 -0.3373 -2.1665 -0.4348
 9345TIP3    H227993   3.423   3.709   2.435  0.0371 -1.1491  0.7966
 9346TIP3   OH227994   5.834   0.492   2.938  0.4043  0.0659 -0.1061
 9346TIP3    H127995   5.815   0.561   3.003 -0.7254 -0.5932  0.2941
 9346TIP3    H227996   5.748   0.465   2.907  0.7527 -1.8207  0.4346
 9347TIP3   OH227997   5.548   2.154   4.925 -0.4528 -0.8559  0.1437
 9347TIP3    H127998   5.614   2.142   4.994  0.3274 -0.2875 -0.4861
 9347TIP3    H227999   5.473   2.103   4.955 -0.0289 -0.8364  1.2835
 9348TIP3   OH228000   6.945   1.138   5.405 -0.0769  0.6213 -0.2183
 9348TIP3    H128001   7.024   1.132   5.458  0.2075  1.3340 -0.5577
 9348TIP3    H228002   6.891   1.064   5.435  1.4520 -0.9770 -1.2166
 9349TIP3   OH228003   0.139   7.341   6.388  0.1557  0.8615  0.4530
 9349TIP3    H128004   0.202   7.270   6.372 -0.8152 -0.1795  1.0631
 9349TIP3    H228005   0.095   7.353   6.304 -2.9068 -2.5751  1.2920
 9350TIP3   OH228006   4.029   0.513   2.720  0.4372 -0.0002  0.2835
 9350TIP3    H128007   3.995   0.595   2.685 -0.4676  0.1594  1.5068
 9350TIP3    H228008   4.123   0.515   2.697  0.4869  1.4894  0.5287
 9351TIP3   OH228009   1.556   1.247   2.259  0.8887 -0.0199  0.6762
 9351TIP3    H128010   1.630   1.300   2.286  1.2336  0.3985 -0.9932
 9351TIP3    H228011   1.491   1.310   2.227  1.7332 -0.5585 -2.3693
 9352TIP3   OH228012   3.658   7.772   3.367  0.5011 -0.2534  0.1417
 9352TIP3    H128013   3.687   7.736   3.283  1.6131  0.2686  0.2931
 9352TIP3    H228014   3.679   7.703   3.430 -1.8442 -1.3622 -0.1677
 9353TIP3   OH228015   1.621   6.509   3.018  0.1786  0.6333  0.5914
 9353TIP3    H128016   1.560   6.439   2.994  1.8034 -0.3697 -0.8288
 9353TIP3    H228017   1.600   6.580   2.958  0.8670  0.0040 -0.4310
 9354TIP3   OH228018   2.534   2.357   1.465  0.3245  0.6196 -0.3823
 9354TIP3    H128019   2.619   2.343   1.425  0.5313  1.7485 -0.3672
 9354TIP3    H228020   2.509   2.446   1.439 -1.0550  0.1520 -0.7564
 9355TIP3   OH228021   3.957   6.037   5.159 -0.6146  0.4409 -0.7412
 9355TIP3    H128022   3.991   6.122   5.131 -1.1740  1.0214  0.2613
 9355TIP3    H228023   3.921   6.053   5.246 -0.9560 -0.7752 -0.6322
 9356TIP3   OH228024   2.966   3.349   0.755  0.1761  0.2105  0.2447
 9356TIP3    H128025   3.023   3.420   0.726 -1.6871  2.0236  0.7876
 9356TIP3    H228026   2.993   3.273   0.703  0.5572  1.9545 -2.2631
 9357TIP3   OH228027   5.262   1.565   0.413 -0.0633 -0.2631 -0.2336
 9357TIP3    H128028   5.246   1.476   0.445 -0.2833 -0.4298 -0.7934
 9357TIP3    H228029   5.204   1.620   0.466  2.3526  0.0136  2.4083
 9358TIP3   OH228030   5.110   1.408   6.753  0.2888 -0.1096  0.3237
 9358TIP3    H128031   5.174   1.370   6.692  0.0199  1.2630 -0.8726
 9358TIP3    H228032   5.163   1.438   6.827  0.9296  0.2416 -0.2635
 9359TIP3   OH228033   6.805   0.845   5.766  0.0891 -0.0796 -0.2257
 9359TIP3    H128034   6.889   0.819   5.729  0.6618  1.2786  0.0394
 9359TIP3    H228035   6.799   0.939   5.748 -1.1428 -0.0521  0.2016
 9360TIP3   OH228036   1.985   7.213   3.243 -0.1389  0.5237  1.0025
 9360TIP3    H128037   1.950   7.291   3.201 -0.3501 -0.0963 -0.0229
 9360TIP3    H228038   1.912   7.177   3.293  0.1292  1.2984  1.9754
 9361TIP3   OH228039   4.573   0.396   4.090 -0.3938  0.6085 -0.1912
 9361TIP3    H128040   4.541   0.464   4.149  0.4232  2.4912 -1.8145
 9361TIP3    H228041   4.556   0.314   4.137  0.3510  1.9811  2.7011
 9362TIP3   OH228042   3.847   2.804   5.442 -0.2191 -0.0466 -0.0383
 9362TIP3    H128043   3.769   2.753   5.464  0.4307 -1.0575 -0.0087
 9362TIP3    H228044   3.825   2.849   5.360 -0.4625 -1.1721 -0.6034
 9363TIP3   OH228045   0.213   4.285   3.277 -0.2190  0.6113 -0.1014
 9363TIP3    H128046   0.148   4.232   3.232 -0.1022 -0.8653  1.3843
 9363TIP3    H228047   0.230   4.358   3.217 -0.7658 -0.7326 -1.9773
 9364TIP3   OH228048   4.438   3.781   0.689 -0.3434  0.2049 -0.2415
 9364TIP3    H128049   4.482   3.863   0.712 -2.6929  1.6445 -0.5890
 9364TIP3    H228050   4.377   3.765   0.761 -1.3903 -0.0719 -1.1617
 9365TIP3   OH228051   7.558   7.115   6.576  0.4300 -0.0979  0.0096
 9365TIP3    H128052   7.509   7.189   6.540  0.1396 -0.2142  0.1640
 9365TIP3    H228053   7.636   7.109   6.520  0.7323  0.6684  0.3398
 9366TIP3   OH228054   3.906   7.229   0.929  0.1681  0.6506  0.1900
 9366TIP3    H128055   3.976   7.196   0.984 -0.2739 -1.1127 -0.2456
 9366TIP3    H228056   3.827   7.186   0.961 -0.2450  0.3260 -1.1651
 9367TIP3   OH228057   8.245   6.635   0.403  0.1064  0.0108  0.1396
 9367TIP3    H128058   8.171   6.593   0.445  1.6555 -2.4818  0.5749
 9367TIP3    H228059   8.217   6.725   0.389 -3.4059 -1.0526 -0.7398
 9368TIP3   OH228060   5.244   4.002   6.753  0.3363  0.0949 -0.8276
 9368TIP3    H128061   5.195   4.024   6.673  0.3384  3.0663 -0.1024
 9368TIP3    H228062   5.182   4.018   6.824  0.2153 -2.8606 -0.1082
 9369TIP3   OH228063   1.825   3.653   5.075 -0.0791 -0.1544  0.0799
 9369TIP3    H128064   1.786   3.624   5.157 -0.6886 -0.7649 -0.4142
 9369TIP3    H228065   1.886   3.722   5.100 -0.6767  0.0543  0.9881
 9370TIP3   OH228066   7.934   3.902   6.524  0.3803 -0.0310 -0.5038
 9370TIP3    H128067   7.884   3.941   6.596  2.3674  0.8477  0.4818
 9370TIP3    H228068   7.902   3.812   6.519 -0.1255  0.0098  1.1936
 9371TIP3   OH228069   8.037   6.155   4.750  0.0186 -0.1566  0.6991
 9371TIP3    H128070   7.999   6.133   4.835 -0.0896 -1.1306  0.4115
 9371TIP3    H228071   7.983   6.107   4.687  0.3041  0.2945  0.0972
 9372TIP3   OH228072   5.028   0.277   4.963 -0.1180 -0.3153 -0.0928
 9372TIP3    H128073   5.015   0.345   5.030 -1.1679 -0.9577  0.3936
 9372TIP3    H228074   5.009   0.320   4.880  0.2212  0.2401  0.1171
 9373TIP3   OH228075   4.999   3.391   4.669 -0.2918 -0.0190  0.6478
 9373TIP3    H128076   5.050   3.460   4.711 -0.3086  0.4896 -0.1504
 9373TIP3    H228077   5.062   3.343   4.616 -0.4662  0.0239  0.3997
 9374TIP3   OH228078   1.721   6.518   3.833  0.1797  0.0088 -0.6685
 9374TIP3    H128079   1.685   6.498   3.747 -1.9646  2.2789 -0.4075
 9374TIP3    H228080   1.807   6.556   3.815  0.3743 -0.8570 -1.6701
 9375TIP3   OH228081   5.458   5.888   2.802  0.1068  0.4269 -0.2778
 9375TIP3    H128082   5.385   5.897   2.741  1.4733  0.5229 -1.9666
 9375TIP3    H228083   5.535   5.883   2.746  1.3675 -0.1227  1.4404
 9376TIP3   OH228084   4.561   0.865   2.980 -0.3983  0.1998  0.6425
 9376TIP3    H128085   4.524   0.818   2.905 -1.5909  0.2833  1.1565
 9376TIP3    H228086   4.654   0.875   2.958 -0.6582 -0.0498 -0.6794
 9377TIP3   OH228087   4.103   3.111   5.506 -0.0931 -0.0972 -0.1111
 9377TIP3    H128088   4.096   3.206   5.495 -1.0423 -0.2496 -0.9708
 9377TIP3    H228089   4.024   3.086   5.553 -0.1462 -0.5329 -0.4236
 9378TIP3   OH228090   0.095   3.255   4.795  0.0886 -0.8230  0.9031
 9378TIP3    H128091   0.089   3.295   4.709  0.9513  1.0290  1.6608
 9378TIP3    H228092   0.161   3.186   4.785 -0.1378 -0.9198  0.0050
 9379TIP3   OH228093   6.906   5.964   4.564 -0.0588 -0.1359  0.0326
 9379TIP3    H128094   6.938   6.049   4.535  0.5994 -0.6857 -0.8876
 9379TIP3    H228095   6.959   5.944   4.641  0.0542  0.1038  0.0189
 9380TIP3   OH228096   6.836   5.289   1.809 -0.0184  0.3676 -0.0952
 9380TIP3    H128097   6.870   5.227   1.874  1.3248  2.6664  1.5297
 9380TIP3    H228098   6.764   5.333   1.853 -1.5238 -0.5515 -1.5399
 9381TIP3   OH228099   7.454   4.806   4.072 -0.2850 -0.0130  0.3149
 9381TIP3    H128100   7.385   4.758   4.118 -1.2455 -0.0772 -1.1535
 9381TIP3    H228101   7.447   4.896   4.106 -2.3960  0.4521 -1.1747
 9382TIP3   OH228102   4.772   6.981   3.733  0.0687  0.1411 -0.0946
 9382TIP3    H128103   4.739   6.940   3.813 -0.1529  3.2717  1.5775
 9382TIP3    H228104   4.696   7.025   3.695  0.6440  0.6459 -0.6940
 9383TIP3   OH228105   3.811   7.546   4.330 -0.2703  0.4017  0.5153
 9383TIP3    H128106   3.723   7.516   4.312  0.2768 -1.3322  0.5641
 9383TIP3    H228107   3.822   7.624   4.275 -0.7537 -1.1635 -1.9360
 9384TIP3   OH228108   4.200   5.738   3.642  0.6878  0.7461 -0.2041
 9384TIP3    H128109   4.175   5.753   3.733 -0.0626 -0.4963 -0.1789
 9384TIP3    H228110   4.119   5.711   3.599  1.6935 -2.4773 -0.3514
 9385TIP3   OH228111   8.207   1.753   0.426 -0.3241 -0.4612  0.2067
 9385TIP3    H128112   8.232   1.663   0.403 -1.4931 -1.0573  1.1799
 9385TIP3    H228113   8.115   1.759   0.401 -0.0911  0.6962 -0.4518
 9386TIP3   OH228114   1.479   6.912   1.942  0.3895  0.2323 -0.5745
 9386TIP3    H128115   1.490   6.829   1.896 -0.2682  0.0514 -0.4159
 9386TIP3    H228116   1.563   6.926   1.987  0.8795  0.1945 -1.4602
 9387TIP3   OH228117   3.425   6.247   0.404  0.5369  0.1984 -0.5860
 9387TIP3    H128118   3.473   6.239   0.486  1.7762 -0.4694 -1.3462
 9387TIP3    H228119   3.431   6.340   0.381 -1.1031  0.6922  0.7916
 9388TIP3   OH228120   1.996   2.789   1.290  0.5676  0.7901  0.1140
 9388TIP3    H128121   1.934   2.857   1.262  0.3981 -0.2499 -2.2871
 9388TIP3    H228122   2.075   2.808   1.239  0.3351 -1.0586 -1.0113
 9389TIP3   OH228123   3.371   6.650   5.774  0.1110 -0.8255  0.6680
 9389TIP3    H128124   3.284   6.624   5.807  0.3881 -1.1470  1.1630
 9389TIP3    H228125   3.377   6.608   5.688 -0.9692  0.7261 -0.2071
 9390TIP3   OH228126   3.039   6.150   4.610  0.1770 -0.1375  0.3951
 9390TIP3    H128127   2.972   6.183   4.670 -1.9555 -0.5132 -1.6265
 9390TIP3    H228128   3.069   6.227   4.561 -1.4091 -0.4078 -1.1031
 9391TIP3   OH228129   3.952   2.718   4.432  0.3818 -0.0859 -0.6071
 9391TIP3    H128130   3.966   2.677   4.517  1.6827  0.4372 -0.5424
 9391TIP3    H228131   4.011   2.671   4.373  2.1665  1.8214 -0.4632
 9392TIP3   OH228132   3.772   6.700   2.866  0.0187 -0.6829 -0.5840
 9392TIP3    H128133   3.845   6.666   2.918  1.1158  0.9083 -0.9896
 9392TIP3    H228134   3.814   6.757   2.801 -1.4964 -0.8109 -1.7212
 9393TIP3   OH228135   1.576   5.753   3.597  0.2174  0.4554  0.3033
 9393TIP3    H128136   1.596   5.699   3.673  0.5485  0.9129  0.5427
 9393TIP3    H228137   1.504   5.809   3.626  0.5435  0.8390  0.3812
 9394TIP3   OH228138   5.044   1.866   6.217 -0.2424  0.1110  0.3870
 9394TIP3    H128139   4.962   1.915   6.213 -0.0360  0.4155 -0.2358
 9394TIP3    H228140   5.092   1.894   6.140  0.6009  0.1992  0.9389
 9395TIP3   OH228141   0.883   2.669   6.119  0.1639 -0.3092  0.0142
 9395TIP3    H128142   0.848   2.583   6.094 -2.7805  0.2717  1.5828
 9395TIP3    H228143   0.956   2.650   6.177 -0.6925 -1.8094  0.6608
 9396TIP3   OH228144   0.441   2.725   0.300  0.0043 -0.7548 -0.5588
 9396TIP3    H128145   0.460   2.804   0.250 -0.2868 -0.6176 -0.4521
 9396TIP3    H228146   0.457   2.751   0.391  1.0588 -1.1543 -0.6173
 9397TIP3   OH228147   7.265   5.662   3.860 -0.1494  0.4262  0.4573
 9397TIP3    H128148   7.360   5.652   3.849 -0.2203 -0.4835  0.5798
 9397TIP3    H228149   7.229   5.639   3.774 -0.2753  0.5954  0.4644
 9398TIP3   OH228150   6.367   7.349   0.770  0.0338 -0.1695  0.3017
 9398TIP3    H128151   6.424   7.272   0.765 -0.3137 -0.4628  0.7236
 9398TIP3    H228152   6.357   7.377   0.680  1.7981  0.6001  0.3026
 9399TIP3   OH228153   6.583   0.237   2.745  0.0176  0.0535 -0.0390
 9399TIP3    H128154   6.533   0.319   2.743 -1.7873 -0.8826  2.5001
 9399TIP3    H228155   6.583   0.207   2.654  0.9326  2.9079 -1.0941
 9400TIP3   OH228156   1.204   6.230   5.688  0.1487 -0.2411  0.1821
 9400TIP3    H128157   1.291   6.245   5.651 -0.7752  0.5001 -1.8521
 9400TIP3    H228158   1.198   6.134   5.695  0.5098 -0.4037 -1.3285
 9401TIP3   OH228159   4.951   0.983   6.682 -0.3823  0.1064 -0.2281
 9401TIP3    H128160   4.970   0.901   6.727  0.6409  0.3959 -0.1170
 9401TIP3    H228161   4.911   0.956   6.599 -2.4768 -0.4299  0.8773
 9402TIP3   OH228162   0.864   2.035   3.048  0.0628  0.2760 -0.0056
 9402TIP3    H128163   0.900   2.122   3.064  2.2175 -0.6138  0.4247
 9402TIP3    H228164   0.791   2.049   2.988  0.0433  2.4084  0.4507
 9403TIP3   OH228165   6.824   5.178   1.045  0.1241  0.0334  0.0584
 9403TIP3    H128166   6.768   5.132   1.107  0.2368  1.7889  1.5339
 9403TIP3    H228167   6.900   5.206   1.096  1.6738 -0.9920 -1.5640
 9404TIP3   OH228168   7.837   4.507   0.235  0.2638 -0.3386  0.2048
 9404TIP3    H128169   7.815   4.478   0.323  1.5359 -2.2733 -0.0512
 9404TIP3    H228170   7.867   4.428   0.190 -0.8655  0.4868 -2.1627
 9405TIP3   OH228171   3.026   5.761   1.108  0.1137  0.1277 -0.1304
 9405TIP3    H128172   3.113   5.753   1.147 -0.2678 -0.6045  0.5912
 9405TIP3    H228173   3.039   5.815   1.030  0.9769  1.1864  0.7294
 9406TIP3   OH228174  -0.021   1.010   3.363  0.0648  0.2259  0.3347
 9406TIP3    H128175  -0.001   1.039   3.452  0.1130  0.6109  0.2017
 9406TIP3    H228176   0.023   1.074   3.306  2.3562 -1.5362 -0.0071
 9407TIP3   OH228177   1.908   5.884   3.337 -0.4490  0.1128 -0.8047
 9407TIP3    H128178   1.817   5.888   3.308 -0.5229 -0.9106 -0.7753
 9407TIP3    H228179   1.903   5.874   3.432 -0.4650 -2.9974 -1.0239
 9408TIP3   OH228180   2.951   3.088   0.407  0.1278  0.0239 -0.2651
 9408TIP3    H128181   2.880   3.026   0.426  0.4914  0.0963  1.4830
 9408TIP3    H228182   2.936   3.114   0.316 -1.0326 -1.3207 -0.4988
 9409TIP3   OH228183   3.106   4.263   1.129 -0.7182  0.6083  0.3317
 9409TIP3    H128184   3.118   4.223   1.215 -1.5798  0.5381  0.4329
 9409TIP3    H228185   3.128   4.193   1.067 -2.7948 -0.2895  0.5017
 9410TIP3   OH228186   2.610   1.563   4.719 -0.2949 -0.4232 -0.5492
 9410TIP3    H128187   2.568   1.485   4.756  1.5017 -0.5397  1.4553
 9410TIP3    H228188   2.545   1.632   4.728 -0.2635 -0.6428  2.2220
 9411TIP3   OH228189   4.102   7.372   1.949 -0.3392  0.4137  0.4512
 9411TIP3    H128190   4.108   7.457   1.905 -1.9286  0.3892  0.1217
 9411TIP3    H228191   4.041   7.388   2.022  0.7479 -0.0234  1.4910
 9412TIP3   OH228192   5.382   5.645   0.384 -0.4105 -0.6610 -0.0523
 9412TIP3    H128193   5.372   5.703   0.308 -0.2924 -0.5701  0.0025
 9412TIP3    H228194   5.294   5.608   0.397 -0.4287 -0.6877 -0.2416
 9413TIP3   OH228195   4.726   1.277   4.002 -0.3020  0.0955  0.1846
 9413TIP3    H128196   4.664   1.273   3.930 -1.5102 -0.1421  1.2049
 9413TIP3    H228197   4.779   1.198   3.993 -1.7028 -0.9227  0.6384
 9414TIP3   OH228198   2.602   7.488   5.641 -0.1270 -0.4372  0.0659
 9414TIP3    H128199   2.611   7.530   5.727 -2.3837  0.9027 -0.2703
 9414TIP3    H228200   2.508   7.475   5.630  0.2018 -1.6825 -1.7225
 9415TIP3   OH228201   0.292   0.995   6.212 -0.2025 -0.5258  0.0511
 9415TIP3    H128202   0.267   0.946   6.290 -0.7973 -0.8517 -0.3306
 9415TIP3    H228203   0.264   1.084   6.230 -0.4310 -0.6200  0.1711
 9416TIP3   OH228204   3.198   3.183   0.363 -0.2467 -0.5752  0.3756
 9416TIP3    H128205   3.179   3.276   0.348  1.2621 -0.4825 -1.3595
 9416TIP3    H228206   3.120   3.149   0.406 -2.5104  0.6612 -2.4268
 9417TIP3   OH228207   3.611   6.274   1.844  0.2345 -0.2270  0.3391
 9417TIP3    H128208   3.530   6.244   1.804  0.1068 -0.7652  0.9963
 9417TIP3    H228209   3.589   6.359   1.882 -0.2326 -0.7062  1.1671
 9418TIP3   OH228210   5.069   0.930   1.989 -0.4211 -0.2183  0.7244
 9418TIP3    H128211   5.025   0.924   1.904 -0.3283 -0.3683  0.6878
 9418TIP3    H228212   5.101   1.020   1.993  0.4938 -0.5129  0.1511
 9419TIP3   OH228213   1.158   6.337   3.780  0.4070  0.3653  0.5252
 9419TIP3    H128214   1.089   6.284   3.740 -0.1154  0.5593  1.1378
 9419TIP3    H228215   1.110   6.409   3.823  0.9834  0.4615  1.0145
 9420TIP3   OH228216   6.243   6.326   5.354 -0.1256 -0.1493 -0.1220
 9420TIP3    H128217   6.256   6.411   5.311 -0.6155 -0.3431 -0.6644
 9420TIP3    H228218   6.263   6.261   5.286 -1.0462 -0.4589 -0.1149
 9421TIP3   OH228219   4.522   5.364   4.001 -0.3001  0.7125 -0.2222
 9421TIP3    H128220   4.442   5.403   3.965 -1.5691 -2.1803 -0.7936
 9421TIP3    H228221   4.552   5.304   3.933  1.2130  0.2342  0.8142
 9422TIP3   OH228222   2.605   1.272   1.122  0.1847 -0.6792 -0.6295
 9422TIP3    H128223   2.591   1.310   1.035 -0.3364  0.8817  0.0986
 9422TIP3    H228224   2.523   1.224   1.139  0.2312 -0.8725 -0.9247
 9423TIP3   OH228225   6.715   4.912   2.558 -0.2629 -0.0715  0.3800
 9423TIP3    H128226   6.807   4.916   2.584  0.1455  0.2543 -0.9918
 9423TIP3    H228227   6.666   4.938   2.635  0.7765 -0.6117  1.2485
 9424TIP3   OH228228   4.288   2.284   4.567 -0.3566 -0.2315 -0.2862
 9424TIP3    H128229   4.195   2.271   4.546 -0.4749 -0.4857  0.3646
 9424TIP3    H228230   4.314   2.203   4.612  0.5493 -0.7414 -1.6630
 9425TIP3   OH228231   2.576   0.663   5.505  0.0401 -0.0914  0.7131
 9425TIP3    H128232   2.498   0.692   5.458  0.7057  1.2050  0.3641
 9425TIP3    H228233   2.543   0.621   5.584 -0.9969  0.5914  0.6512
 9426TIP3   OH228234   4.204   2.559   0.968  0.1276  0.4240 -0.0987
 9426TIP3    H128235   4.185   2.628   1.031  0.7369  1.5530 -1.1065
 9426TIP3    H228236   4.119   2.520   0.948 -0.0499 -0.0921  1.5380
 9427TIP3   OH228237   2.390   0.034   4.323 -0.6145 -0.1381  0.0297
 9427TIP3    H128238   2.418   0.110   4.374 -2.5621  1.0457 -0.5674
 9427TIP3    H228239   2.439  -0.039   4.361 -0.3484  1.0302  2.1084
 9428TIP3   OH228240   2.285   7.134   3.630 -0.2036 -0.7477 -0.8621
 9428TIP3    H128241   2.375   7.159   3.650 -0.5265  0.4299 -0.8267
 9428TIP3    H228242   2.231   7.189   3.687 -0.9412 -1.8584 -0.4464
 9429TIP3   OH228243   0.882   5.231   4.388  0.5528  0.1242 -0.4658
 9429TIP3    H128244   0.912   5.219   4.478 -0.0502  0.3172 -0.2304
 9429TIP3    H228245   0.787   5.216   4.393  0.1103  2.5463 -0.5928
 9430TIP3   OH228246   1.936   3.664   0.621 -0.0812 -0.1674  0.6421
 9430TIP3    H128247   1.943   3.759   0.614 -0.9035  0.0682  2.3267
 9430TIP3    H228248   2.025   3.632   0.609  0.3758  0.9070  0.9841
 9431TIP3   OH228249   5.762   7.233   2.514  0.1407  0.4724 -0.1188
 9431TIP3    H128250   5.720   7.296   2.456 -1.5029 -0.6187 -0.1815
 9431TIP3    H228251   5.806   7.172   2.455  1.5881  1.4059 -0.0623
 9432TIP3   OH228252   7.392   3.790   0.513  0.7481  0.4308 -0.0867
 9432TIP3    H128253   7.301   3.759   0.508  0.6001  0.6382  1.0681
 9432TIP3    H228254   7.387   3.869   0.567  1.4936  0.9775 -0.8001
 9433TIP3   OH228255   2.338   1.652   3.353  0.3692 -0.7416  0.0663
 9433TIP3    H128256   2.411   1.592   3.341  0.8361 -0.2502  0.4135
 9433TIP3    H228257   2.378   1.738   3.363 -0.0069 -0.7755  3.1007
 9434TIP3   OH228258   3.790   1.771   4.740  0.0819 -0.2637  0.2285
 9434TIP3    H128259   3.885   1.770   4.725 -0.0272 -0.3152 -0.5155
 9434TIP3    H228260   3.759   1.846   4.689 -0.3971 -0.8525 -0.3656
 9435TIP3   OH228261   1.385   3.000   0.651 -0.2877 -0.2779  0.2857
 9435TIP3    H128262   1.311   2.943   0.670 -1.3989  1.2940  0.8285
 9435TIP3    H228263   1.356   3.055   0.578 -0.2076  1.2878  1.3809
 9436TIP3   OH228264   8.031   2.756   2.412  0.7147 -0.5679  0.5332
 9436TIP3    H128265   7.950   2.739   2.459  1.9983 -2.7083  2.1838
 9436TIP3    H228266   8.013   2.730   2.322 -0.5927 -0.3253  0.7037
 9437TIP3   OH228267   3.148   5.407   5.906  0.0995  0.5356  0.5685
 9437TIP3    H128268   3.197   5.345   5.959  0.2418  0.1348 -0.0173
 9437TIP3    H228269   3.210   5.436   5.839 -0.6339 -0.5087 -0.6124
 9438TIP3   OH228270   0.796   0.710   4.542 -0.2242  0.0009 -0.3926
 9438TIP3    H128271   0.741   0.730   4.466  0.5812  1.9933 -0.5279
 9438TIP3    H228272   0.799   0.792   4.591  1.1427 -0.5852  0.5637
 9439TIP3   OH228273   8.055   2.492   0.275 -0.1394  0.6088 -0.1822
 9439TIP3    H128274   8.006   2.410   0.271  1.4905 -0.4116 -0.2914
 9439TIP3    H228275   8.086   2.498   0.365  1.6366 -0.1218 -0.6837
 9440TIP3   OH228276   2.823   5.304   2.001 -0.3097 -0.2656 -0.1677
 9440TIP3    H128277   2.740   5.312   2.049 -0.7851 -0.6653 -0.9112
 9440TIP3    H228278   2.800   5.259   1.920  1.0749 -3.1314  0.8694
 9441TIP3   OH228279   4.944   2.682   2.128 -0.2586 -0.2646 -0.3466
 9441TIP3    H128280   4.879   2.719   2.068 -2.0111  1.7733  2.5335
 9441TIP3    H228281   4.899   2.679   2.212  1.6639 -4.0989  0.7498
 9442TIP3   OH228282   7.349   7.106   6.137 -0.6871  0.4088 -0.1330
 9442TIP3    H128283   7.325   7.014   6.142  0.0592  0.0665 -1.9976
 9442TIP3    H228284   7.270   7.150   6.108 -0.9183  0.3096  0.3288
 9443TIP3   OH228285   4.072   0.276   4.683 -0.3993  0.0420 -0.2910
 9443TIP3    H128286   4.030   0.190   4.674  0.2120 -0.3014  0.0947
 9443TIP3    H228287   4.029   0.316   4.758 -1.4051  0.5100 -1.0858
 9444TIP3   OH228288   4.700   4.096   1.680 -0.1681 -0.2393  0.4097
 9444TIP3    H128289   4.679   4.003   1.671 -0.3384 -0.1451 -0.2380
 9444TIP3    H228290   4.703   4.129   1.590 -1.3071  0.6505  0.6731
 9445TIP3   OH228291   5.919   2.918   2.577 -0.8539 -0.3112  0.1141
 9445TIP3    H128292   6.000   2.893   2.534 -1.2386  0.0173 -0.8350
 9445TIP3    H228293   5.919   3.014   2.574 -0.5776 -0.2494  1.4533
 9446TIP3   OH228294   3.827   2.623   0.161  0.2060 -0.2603  0.0083
 9446TIP3    H128295   3.843   2.639   0.068 -0.0564 -0.5154 -0.0799
 9446TIP3    H228296   3.870   2.696   0.205 -0.5891  0.4418 -0.3690
 9447TIP3   OH228297   8.044   6.146   6.394  0.2396  0.2550  0.5819
 9447TIP3    H128298   7.961   6.109   6.363  1.2241 -0.3631 -1.4900
 9447TIP3    H228299   8.044   6.237   6.364  0.0423  0.4396  1.1381
 9448TIP3   OH228300   6.723   0.823   6.033 -0.2477 -0.1744 -0.1871
 9448TIP3    H128301   6.637   0.782   6.044 -1.1648  1.6692 -0.0422
 9448TIP3    H228302   6.748   0.802   5.943  0.2872 -2.6790  0.4585
 9449TIP3   OH228303   6.405   2.184   0.466  0.1237  0.2266 -0.0797
 9449TIP3    H128304   6.421   2.227   0.550  0.8818  1.0474 -0.6212
 9449TIP3    H228305   6.353   2.106   0.487  1.4425 -0.3173  1.3021
 9450TIP3   OH228306   3.688   1.131   3.667 -0.4195  0.3359  0.1326
 9450TIP3    H128307   3.758   1.139   3.602 -0.1329 -1.2015  0.2118
 9450TIP3    H228308   3.615   1.093   3.618 -0.3853 -0.3052  0.5701
 9451TIP3   OH228309   0.799   5.146   5.878  0.1852  0.2708 -0.4704
 9451TIP3    H128310   0.860   5.080   5.912  1.0730  0.7484 -1.0943
 9451TIP3    H228311   0.800   5.133   5.783  1.6092  2.1691 -0.7846
 9452TIP3   OH228312   5.594   4.135   0.406 -0.1304 -0.3441 -0.4218
 9452TIP3    H128313   5.678   4.169   0.375 -0.1935  0.6123  0.3800
 9452TIP3    H228314   5.602   4.040   0.399  1.0061 -0.2631 -0.3918
 9453TIP3   OH228315   7.369   4.335   5.709 -0.1994  0.0160  0.3396
 9453TIP3    H128316   7.300   4.289   5.757 -1.3555 -0.1731 -1.4292
 9453TIP3    H228317   7.324   4.376   5.636  1.4950  0.3797 -0.5497
 9454TIP3   OH228318   4.523   2.736   0.099  0.1793 -0.1060  0.0374
 9454TIP3    H128319   4.615   2.747   0.076  0.0111 -0.5666 -0.8950
 9454TIP3    H228320   4.520   2.754   0.193  1.3927 -1.1003  0.2993
 9455TIP3   OH228321   1.003   1.233   5.382  0.2721  0.3385  0.4657
 9455TIP3    H128322   1.003   1.181   5.301 -0.7888  1.0613 -0.0203
 9455TIP3    H228323   1.000   1.168   5.452  0.1496 -0.2777 -0.1011
 9456TIP3   OH228324   1.738   4.420   0.377 -0.7079 -0.2495  0.5664
 9456TIP3    H128325   1.737   4.469   0.459 -0.6936 -1.4714  1.3154
 9456TIP3    H228326   1.816   4.364   0.383  1.3131  2.0508 -1.7664
 9457TIP3   OH228327   2.004   1.720   3.345  0.1093 -0.1020 -0.2088
 9457TIP3    H128328   2.046   1.707   3.259 -0.4679 -1.1398 -0.3481
 9457TIP3    H228329   1.914   1.744   3.323 -0.3893 -1.5900  0.0841
 9458TIP3   OH228330   2.975   5.842   3.803 -1.0283 -0.2116  0.4661
 9458TIP3    H128331   3.065   5.868   3.822 -0.5966 -1.2665 -0.0571
 9458TIP3    H228332   2.949   5.790   3.879 -0.7769 -0.8795  0.1062
 9459TIP3   OH228333   3.727   1.965   4.049  0.3958 -0.1460  0.4528
 9459TIP3    H128334   3.731   2.035   4.115  1.1106 -0.1740  0.4491
 9459TIP3    H228335   3.637   1.933   4.054  0.3137  0.1593  1.0990
 9460TIP3   OH228336   2.288   5.367   5.668  0.0959 -0.1948  0.1454
 9460TIP3    H128337   2.273   5.323   5.584 -1.5628  2.3200 -0.9766
 9460TIP3    H228338   2.267   5.301   5.734 -1.5713 -1.3219 -1.4279
 9461TIP3   OH228339   6.386   0.055   1.302 -0.6734 -0.2880 -0.4352
 9461TIP3    H128340   6.463   0.011   1.265 -1.4827 -1.2847 -0.9725
 9461TIP3    H228341   6.333   0.078   1.225 -1.0995  0.0438 -0.0443
 9462TIP3   OH228342   6.636   5.708   2.973 -0.8539 -0.1109 -0.0170
 9462TIP3    H128343   6.680   5.623   2.972  0.7934  0.7091  0.0746
 9462TIP3    H228344   6.549   5.691   2.936  0.5939 -1.2245 -3.1537
 9463TIP3   OH228345   6.869   2.204   3.323  0.4802  0.1410 -0.2084
 9463TIP3    H128346   6.964   2.195   3.325  0.3165 -2.2677 -0.3657
 9463TIP3    H228347   6.837   2.129   3.372 -1.3662  1.2765  0.4226
 9464TIP3   OH228348   4.134   2.741   6.243 -0.8103  0.5789 -0.1309
 9464TIP3    H128349   4.129   2.663   6.298  0.2174  0.1997 -0.5450
 9464TIP3    H228350   4.228   2.756   6.232 -0.9924  0.6446 -1.7804
 9465TIP3   OH228351   2.166   4.799   5.703  0.5564 -0.6229 -0.4032
 9465TIP3    H128352   2.198   4.751   5.780  2.0441 -0.6925 -1.0397
 9465TIP3    H228353   2.241   4.850   5.673  0.0155 -0.6176 -1.8382
 9466TIP3   OH228354   5.350   1.754   5.666  0.1376 -0.1902 -0.5538
 9466TIP3    H128355   5.262   1.717   5.670  1.5801 -4.3969 -1.9394
 9466TIP3    H228356   5.355   1.796   5.580 -0.2366 -0.7971 -0.8740
 9467TIP3   OH228357   5.260   4.451   4.454 -0.5417  0.5618 -0.2334
 9467TIP3    H128358   5.221   4.518   4.510 -2.0161 -1.3484  1.1804
 9467TIP3    H228359   5.334   4.417   4.504  0.9012  1.8545 -1.4341
 9468TIP3   OH228360   0.555   5.647   5.472  0.1785  0.4678  0.1514
 9468TIP3    H128361   0.630   5.683   5.519 -0.3080  1.0346  0.5100
 9468TIP3    H228362   0.582   5.559   5.446  1.1296  0.8290 -0.1158
 9469TIP3   OH228363   0.609   2.207   6.130 -0.5029 -0.3659 -0.6058
 9469TIP3    H128364   0.628   2.149   6.204 -2.1213  0.8434  0.8563
 9469TIP3    H228365   0.677   2.275   6.136 -0.7797 -0.1308 -0.0538
 9470TIP3   OH228366   4.768   0.245   0.700 -0.0301 -0.0092  0.3798
 9470TIP3    H128367   4.828   0.253   0.626 -0.6265  0.0422 -0.1031
 9470TIP3    H228368   4.701   0.311   0.684 -0.6189 -0.5550  0.5250
 9471TIP3   OH228369   3.408   1.519   1.465  0.5804 -0.7605  0.4504
 9471TIP3    H128370   3.326   1.470   1.459  0.4876 -0.5847  0.2817
 9471TIP3    H228371   3.381   1.609   1.483  0.8011 -0.9985  2.0854
 9472TIP3   OH228372   6.156   5.758   4.063 -0.2516 -0.1487 -0.3126
 9472TIP3    H128373   6.063   5.743   4.050 -0.6420 -0.3077  2.2425
 9472TIP3    H228374   6.171   5.848   4.032 -1.1269 -0.2742 -1.1427
 9473TIP3   OH228375   1.130   3.540   3.809 -0.5182 -0.4670 -0.0460
 9473TIP3    H128376   1.177   3.615   3.846 -0.2540  0.0067 -1.3042
 9473TIP3    H228377   1.039   3.555   3.833 -0.3381 -0.2268  0.4964
 9474TIP3   OH228378   6.817   1.312   6.559  0.2284 -0.1251  0.6984
 9474TIP3    H128379   6.754   1.287   6.491 -0.2485 -0.2552  1.1885
 9474TIP3    H228380   6.763   1.332   6.635  0.8085 -0.6612  1.2546
 9475TIP3   OH228381   3.182   5.904   0.670 -0.5466 -0.4807 -0.1947
 9475TIP3    H128382   3.127   5.882   0.745  1.1143  1.2350  1.6395
 9475TIP3    H228383   3.151   5.990   0.641  1.1422  0.5902  0.9702
 9476TIP3   OH228384   6.567   5.063   1.924  0.4718 -0.1002  0.1276
 9476TIP3    H128385   6.500   5.034   1.862  1.5139 -1.1697 -0.5374
 9476TIP3    H228386   6.528   5.047   2.010 -0.0963 -0.8223 -0.2509
 9477TIP3   OH228387   1.535   5.919   5.832  0.5008  0.1888  0.0964
 9477TIP3    H128388   1.536   5.919   5.928  1.3614  1.2781  0.1207
 9477TIP3    H228389   1.618   5.878   5.807 -0.7242 -2.1973 -0.2532
 9478TIP3   OH228390   0.695   2.784   2.190  0.7412  0.2075  0.2997
 9478TIP3    H128391   0.771   2.750   2.237  2.1658  1.1484 -1.2362
 9478TIP3    H228392   0.697   2.740   2.105 -1.2209 -0.7306  0.6809
 9479TIP3   OH228393   0.872   7.500   1.585 -0.9276  0.2095 -0.0250
 9479TIP3    H128394   0.905   7.459   1.666  1.6265  0.9060 -0.6149
 9479TIP3    H228395   0.938   7.478   1.519 -1.4324  2.1075 -1.2322
 9480TIP3   OH228396   5.865   1.317   4.619  0.0554  0.2693 -0.2261
 9480TIP3    H128397   5.789   1.372   4.599 -0.2618 -0.3016 -0.6276
 9480TIP3    H228398   5.926   1.375   4.663 -2.3008 -0.1423  4.1535
 9481TIP3   OH228399   7.999   0.944   2.007 -0.2478  0.0937 -0.0750
 9481TIP3    H128400   7.965   1.001   2.076 -1.4149 -0.5259 -0.1081
 9481TIP3    H228401   8.040   1.004   1.944 -1.4091  0.8997 -0.0903
 9482TIP3   OH228402   2.388   1.689   1.166  0.0901 -0.8381 -0.3763
 9482TIP3    H128403   2.405   1.683   1.260  1.1764 -1.0812 -0.5662
 9482TIP3    H228404   2.293   1.688   1.158 -0.2039  3.0182  0.9669
 9483TIP3   OH228405   5.805   3.644   0.575 -0.3233  0.3260 -0.0662
 9483TIP3    H128406   5.716   3.608   0.573 -0.4078  0.5511 -0.8030
 9483TIP3    H228407   5.854   3.589   0.513 -0.4226  1.3666 -1.1151
 9484TIP3   OH228408   4.736   3.131   4.896 -1.2378  0.7146 -0.0958
 9484TIP3    H128409   4.735   3.183   4.976 -2.4051  0.2315  0.2231
 9484TIP3    H228410   4.755   3.194   4.826 -2.4290  1.5511  0.3006
 9485TIP3   OH228411   4.301   4.822   2.458 -0.5863 -0.3506  0.3040
 9485TIP3    H128412   4.387   4.788   2.436  0.8904  1.1090  3.3278
 9485TIP3    H228413   4.310   4.917   2.449 -1.9812 -0.1793  0.4389
 9486TIP3   OH228414   6.800   7.474   0.474 -0.0985 -0.0337  0.1894
 9486TIP3    H128415   6.799   7.382   0.502  0.8460  0.1828  0.9811
 9486TIP3    H228416   6.880   7.483   0.423 -1.5914 -0.3197 -2.3838
 9487TIP3   OH228417   2.296   0.566   6.393 -0.3922  0.0160 -0.4769
 9487TIP3    H128418   2.267   0.475   6.382  1.8258 -0.7072 -0.8558
 9487TIP3    H228419   2.300   0.601   6.304  0.3726 -0.0835 -0.4913
 9488TIP3   OH228420   0.807   5.572   2.475  0.0711 -0.0443 -0.3048
 9488TIP3    H128421   0.876   5.506   2.463  0.8841  0.5502  0.9280
 9488TIP3    H228422   0.785   5.566   2.568 -2.1786 -0.8170 -0.8413
 9489TIP3   OH228423   0.272   6.066   0.062 -0.5299  0.5689  0.4179
 9489TIP3    H128424   0.342   6.092   0.122  0.5733  0.5267 -0.8108
 9489TIP3    H228425   0.261   6.142   0.004 -1.2494  0.4340  0.3701
 9490TIP3   OH228426   2.440   1.441   5.793  0.2289  0.7210  0.0220
 9490TIP3    H128427   2.475   1.358   5.825  0.0783  0.3639 -0.7164
 9490TIP3    H228428   2.455   1.439   5.698  0.9721  1.9022  0.0899
 9491TIP3   OH228429   4.735   7.633   0.405 -0.5253  0.2701 -0.2413
 9491TIP3    H128430   4.778   7.682   0.476  1.9464  0.7069 -1.9239
 9491TIP3    H228431   4.668   7.692   0.373  0.2127  1.2293 -0.0797
 9492TIP3   OH228432   4.453   4.938   1.702  0.3404 -0.0063  1.1840
 9492TIP3    H128433   4.491   4.865   1.752 -0.8356 -1.2398  0.3849
 9492TIP3    H228434   4.494   4.933   1.616  0.7769  0.7314  1.3500
 9493TIP3   OH228435   7.217   3.485   4.649  0.4490 -0.3653 -0.0921
 9493TIP3    H128436   7.177   3.488   4.562  1.0553  1.4999 -0.3360
 9493TIP3    H228437   7.228   3.391   4.666 -1.1083 -0.8249 -1.3384
 9494TIP3   OH228438   7.966   6.825   3.495  0.0958 -0.3040  0.5866
 9494TIP3    H128439   7.888   6.844   3.442 -0.4818 -0.2795  1.4199
 9494TIP3    H228440   7.947   6.867   3.579  1.5417  0.7602  0.4114
 9495TIP3   OH228441   7.862   1.443   0.052  0.3297 -0.7710 -0.2242
 9495TIP3    H128442   7.783   1.404   0.090 -0.4188 -0.5522 -1.4984
 9495TIP3    H228443   7.929   1.431   0.119 -0.0929 -3.3858 -0.1773
 9496TIP3   OH228444   2.145   4.873   6.506 -0.3743 -0.0592  0.1895
 9496TIP3    H128445   2.204   4.891   6.433  0.4209 -0.5337  0.6945
 9496TIP3    H228446   2.173   4.933   6.575  0.9140 -1.6542  1.1464
 9497TIP3   OH228447   4.099   3.396   5.541  0.1366 -0.0743 -0.7045
 9497TIP3    H128448   4.139   3.453   5.476 -1.0900  0.4546 -1.0158
 9497TIP3    H228449   4.007   3.392   5.516 -0.2087 -0.4634  0.5701
 9498TIP3   OH228450   5.016   4.590   2.425 -0.1903  0.1621 -0.3252
 9498TIP3    H128451   4.949   4.635   2.374 -1.2720 -0.4974  0.4566
 9498TIP3    H228452   4.985   4.597   2.515  1.3572  0.7642  0.1786
 9499TIP3   OH228453   5.837   1.866   1.211  0.1471 -0.1446 -0.3074
 9499TIP3    H128454   5.764   1.831   1.262  2.2104 -1.7992  1.7138
 9499TIP3    H228455   5.842   1.958   1.235  1.1854 -0.9000  2.8513
 9500TIP3   OH228456   4.868   0.748   0.654 -0.0454  0.4788  0.8203
 9500TIP3    H128457   4.855   0.802   0.732  0.2210  1.7996 -0.0102
 9500TIP3    H228458   4.924   0.676   0.683 -0.7463  0.4012  2.0579
 9501TIP3   OH228459   1.748   6.989   5.905 -0.1700 -0.0599  0.2859
 9501TIP3    H128460   1.773   6.937   5.829 -1.0360  0.0450 -0.0788
 9501TIP3    H228461   1.654   6.974   5.915  0.0855 -0.8188  1.9180
 9502TIP3   OH228462   2.576   6.084   1.862  0.1354 -0.4900 -0.5470
 9502TIP3    H128463   2.513   6.015   1.841 -1.2691  0.1313  1.3406
 9502TIP3    H228464   2.532   6.138   1.927  1.5553  1.6854 -1.2887
 9503TIP3   OH228465   1.849   3.374   1.636  0.3852  0.7055  0.3548
 9503TIP3    H128466   1.936   3.397   1.603  0.1392  0.8765 -0.1978
 9503TIP3    H228467   1.864   3.303   1.697  0.9184  0.7571  0.2867
 9504TIP3   OH228468   0.914   3.592   1.102 -0.0604  0.0935 -0.6702
 9504TIP3    H128469   0.979   3.558   1.041  0.9614 -0.9252  0.9226
 9504TIP3    H228470   0.849   3.523   1.109  0.4029 -0.2728  0.2024
 9505TIP3   OH228471   7.719   6.936   5.239  0.2668  0.1643 -0.2707
 9505TIP3    H128472   7.653   7.005   5.242 -0.5414 -0.4233 -2.3784
 9505TIP3    H228473   7.688   6.870   5.300 -0.2380  0.5908 -0.0580
 9506TIP3   OH228474   2.543   0.961   2.798 -0.0596  0.0769  0.5318
 9506TIP3    H128475   2.453   0.992   2.788  0.4215  1.2620 -0.4406
 9506TIP3    H228476   2.535   0.870   2.827 -1.5478  0.8476  2.7180
 9507TIP3   OH228477   3.552   0.775   0.300  0.4535  0.2076 -0.1216
 9507TIP3    H128478   3.465   0.741   0.322  0.2403  1.4210  1.0261
 9507TIP3    H228479   3.588   0.711   0.238 -0.5129 -1.2874  0.8028
 9508TIP3   OH228480   3.393   2.881   6.291  0.0038 -0.1602  0.1254
 9508TIP3    H128481   3.483   2.889   6.321  0.9286 -0.1886 -2.4525
 9508TIP3    H228482   3.347   2.953   6.334  1.9728  1.8495 -0.9518
 9509TIP3   OH228483   7.550   7.477   3.442 -0.0342 -0.4212  0.0418
 9509TIP3    H128484   7.610   7.550   3.426  0.2485 -0.2709  1.6351
 9509TIP3    H228485   7.526   7.485   3.535  0.6525 -2.8323  0.4951
 9510TIP3   OH228486   3.144   4.776   1.815  0.3206  0.7548 -0.2105
 9510TIP3    H128487   3.212   4.769   1.748 -0.6778  2.5936 -1.4963
 9510TIP3    H228488   3.177   4.723   1.888  3.2095  1.6721 -0.7096
 9511TIP3   OH228489   6.352   7.324   5.741 -0.5110 -0.3609  0.1025
 9511TIP3    H128490   6.320   7.407   5.778  0.7627  0.7026 -1.0952
 9511TIP3    H228491   6.447   7.333   5.741 -0.3820 -1.5825 -0.6136
 9512TIP3   OH228492   1.276   0.823   5.705 -0.4240  0.4309  0.2656
 9512TIP3    H128493   1.185   0.800   5.723 -0.4933  0.5601  0.0818
 9512TIP3    H228494   1.317   0.826   5.791 -0.0035 -2.0517  0.2324
 9513TIP3   OH228495   3.895   3.893   0.506 -0.7394  0.7921 -0.1497
 9513TIP3    H128496   3.835   3.921   0.438 -0.6501  1.9215  0.2183
 9513TIP3    H228497   3.954   3.967   0.519 -0.3647  0.3659  0.7221
 9514TIP3   OH228498   4.751   0.534   6.177  0.7983  0.2893  0.1290
 9514TIP3    H128499   4.734   0.444   6.150 -0.4510 -0.0737  1.9201
 9514TIP3    H228500   4.838   0.531   6.217  1.0626  0.0488 -0.4549
 9515TIP3   OH228501   1.789   0.214   3.919  0.2496 -0.2210  0.2409
 9515TIP3    H128502   1.745   0.296   3.896 -1.1730 -0.8580  0.5853
 9515TIP3    H228503   1.767   0.154   3.848  0.7058 -0.5104  0.3404
 9516TIP3   OH228504   4.614   0.521   2.924  0.2527  0.5230  0.5000
 9516TIP3    H128505   4.618   0.426   2.935 -0.2605  0.5687  1.2023
 9516TIP3    H228506   4.703   0.551   2.941  0.8731  0.0160 -1.5644
 9517TIP3   OH228507   0.205   1.034   0.952 -0.3361 -0.1646 -0.3005
 9517TIP3    H128508   0.291   0.994   0.967 -0.0866 -0.3478 -1.9522
 9517TIP3    H228509   0.196   1.099   1.021  0.7578 -0.7321  0.4043
 9518TIP3   OH228510   6.953   2.256   3.964  1.0474 -0.5778 -0.0647
 9518TIP3    H128511   7.020   2.201   3.924  0.3364 -0.5089 -1.4190
 9518TIP3    H228512   6.969   2.344   3.929  1.0099 -0.3091  0.5787
 9519TIP3   OH228513   6.400   2.329   4.180  0.4321  0.0673 -0.5658
 9519TIP3    H128514   6.387   2.336   4.274  1.3946 -1.4503 -0.2894
 9519TIP3    H228515   6.424   2.417   4.152  0.4519  0.4614  0.6537
 9520TIP3   OH228516   1.173   1.365   2.040  0.4828 -0.1872 -0.3775
 9520TIP3    H128517   1.157   1.422   1.964 -1.2774 -1.3170 -0.9226
 9520TIP3    H228518   1.226   1.293   2.006 -0.6062 -0.8809 -0.6702
 9521TIP3   OH228519   6.832   0.192   2.857  0.3404  0.5696 -0.3901
 9521TIP3    H128520   6.855   0.285   2.861 -0.9473  0.8673  0.5607
 9521TIP3    H228521   6.744   0.190   2.821  0.8768 -0.4053 -1.7723
 9522TIP3   OH228522   2.597   7.582   0.804 -0.4352 -0.3419 -0.1574
 9522TIP3    H128523   2.515   7.534   0.818 -1.0979  0.8776  0.3734
 9522TIP3    H228524   2.659   7.516   0.773 -1.7884 -1.1807 -1.1938
 9523TIP3   OH228525   1.978   3.676   1.780 -0.2098 -0.0782 -0.4040
 9523TIP3    H128526   1.993   3.745   1.846 -0.1062 -0.5258  0.0509
 9523TIP3    H228527   1.885   3.654   1.790 -0.2621  0.0475 -0.6045
 9524TIP3   OH228528   7.335   4.878   0.285 -0.0810  0.5899  0.7766
 9524TIP3    H128529   7.385   4.824   0.347  0.6089 -0.5025 -0.6806
 9524TIP3    H228530   7.401   4.928   0.238 -0.3768 -0.2397 -0.5837
 9525TIP3   OH228531   1.382   6.377   1.576 -0.6947 -0.1744  0.4609
 9525TIP3    H128532   1.477   6.362   1.572 -0.5926  0.5772 -0.0811
 9525TIP3    H228533   1.345   6.290   1.592  0.0262 -0.6198 -0.2427
 9526TIP3   OH228534   0.651   7.775   5.772 -0.0015  0.3583 -0.4748
 9526TIP3    H128535   0.737   7.817   5.765  1.8001 -2.7991  0.8798
 9526TIP3    H228536   0.631   7.776   5.865 -0.4955 -0.6934 -0.5563
 9527TIP3   OH228537   8.150   2.158   4.986  0.0717 -0.2155  0.2018
 9527TIP3    H128538   8.162   2.248   4.954 -0.9331  0.1912  0.9063
 9527TIP3    H228539   8.234   2.115   4.969  1.4229  1.5043  1.9939
 9528TIP3   OH228540   5.612   6.852   3.686 -0.8346 -0.2830 -0.2735
 9528TIP3    H128541   5.701   6.817   3.681 -0.6919 -0.3648  1.7512
 9528TIP3    H228542   5.623   6.947   3.681 -0.4673 -0.2236  1.2439
 9529TIP3   OH228543   7.375   6.756   2.354 -0.2800 -0.0105  0.1331
 9529TIP3    H128544   7.421   6.719   2.429 -0.3900  0.0965  0.2558
 9529TIP3    H228545   7.435   6.821   2.318  0.5181 -1.3087 -0.9700
 9530TIP3   OH228546   1.662   2.843   0.926  0.7119  0.1873 -0.2209
 9530TIP3    H128547   1.642   2.869   0.836 -1.1727  2.4020  0.7504
 9530TIP3    H228548   1.594   2.778   0.947 -1.6008  2.8037  0.8967
 9531TIP3   OH228549   0.762   5.916   4.570  0.3395 -0.2555  0.0393
 9531TIP3    H128550   0.667   5.919   4.582  0.3879  0.8766  0.2790
 9531TIP3    H228551   0.778   5.833   4.525 -0.6876 -0.7765  0.5951
 9532TIP3   OH228552   0.606   7.404   5.770 -0.3437 -0.0530  0.2479
 9532TIP3    H128553   0.673   7.416   5.703  0.1212  0.6081  0.8186
 9532TIP3    H228554   0.545   7.341   5.732  0.6291 -0.7089 -0.2539
 9533TIP3   OH228555   3.301   5.528   6.519 -0.6678  0.0927  0.3054
 9533TIP3    H128556   3.233   5.593   6.502  0.3036  0.6623 -1.6856
 9533TIP3    H228557   3.263   5.445   6.492 -1.8043 -0.2048  2.5774
 9534TIP3   OH228558   0.814   4.652   2.074  0.2915  0.5195 -0.3320
 9534TIP3    H128559   0.852   4.666   1.988  1.6696 -0.7982  0.0105
 9534TIP3    H228560   0.750   4.582   2.061  0.5028  0.3174 -0.2954
 9535TIP3   OH228561   2.897   0.337   1.011  0.4610 -0.1248  0.3769
 9535TIP3    H128562   2.918   0.285   1.089 -0.1761 -1.3585 -0.2452
 9535TIP3    H228563   2.963   0.313   0.947  0.6194  0.4229  0.3312
 9536TIP3   OH228564   5.400   2.119   5.712  0.5149  0.0146 -0.6570
 9536TIP3    H128565   5.407   2.073   5.629 -1.2107  0.8753 -1.3360
 9536TIP3    H228566   5.368   2.206   5.689  0.2838  0.3765  0.8889
 9537TIP3   OH228567   3.315   1.689   1.668 -0.5024 -0.5928  0.2222
 9537TIP3    H128568   3.229   1.666   1.632 -0.9469  0.8815  0.2762
 9537TIP3    H228569   3.300   1.771   1.714  1.1036  0.1458 -0.4906
 9538TIP3   OH228570   6.348   6.143   5.183 -0.3443  0.2796 -0.0409
 9538TIP3    H128571   6.303   6.116   5.103 -1.0362  1.0884  0.0572
 9538TIP3    H228572   6.387   6.062   5.217 -0.8524 -0.2517 -0.6839
 9539TIP3   OH228573   4.831   6.779   5.993 -0.4069 -0.3957 -0.1161
 9539TIP3    H128574   4.750   6.788   6.042 -1.2357  2.5969 -1.8334
 9539TIP3    H228575   4.866   6.868   5.985  2.4345 -1.4174 -0.4892
 9540TIP3   OH228576   7.317   6.823   3.511 -0.2693  0.4113 -0.5134
 9540TIP3    H128577   7.269   6.781   3.583 -0.5270  0.8496 -0.4234
 9540TIP3    H228578   7.352   6.751   3.460 -1.0120  0.0846 -0.5692
 9541TIP3   OH228579   1.210   6.484   4.715 -0.0138 -0.0584 -0.1114
 9541TIP3    H128580   1.206   6.389   4.719 -0.4074 -0.0248  0.3448
 9541TIP3    H228581   1.240   6.510   4.802 -0.8971  0.2867  0.0938
 9542TIP3   OH228582   5.910   5.954   5.259 -0.2350  0.1859 -0.2473
 9542TIP3    H128583   5.957   5.884   5.304  0.0057  0.3868 -0.1831
 9542TIP3    H228584   5.964   5.973   5.182  0.0305  0.7214  0.0606
 9543TIP3   OH228585   5.739   0.882   0.950  0.2511 -0.3020  0.4345
 9543TIP3    H128586   5.685   0.926   1.016  2.5259  2.1013  0.9092
 9543TIP3    H228587   5.733   0.938   0.873  0.2904 -1.2403 -0.2689
 9544TIP3   OH228588   6.499   2.661   4.501  0.5495  0.1960  0.7303
 9544TIP3    H128589   6.517   2.642   4.593  1.5451 -0.1819  0.4764
 9544TIP3    H228590   6.570   2.720   4.474  1.1270 -0.8443 -0.1571
 9545TIP3   OH228591   5.462   3.408   6.508  0.5793 -0.4897  0.4469
 9545TIP3    H128592   5.417   3.385   6.426  0.3471 -2.6918  1.1309
 9545TIP3    H228593   5.394   3.404   6.575  0.4353  2.7520  0.6488
 9546TIP3   OH228594   1.883   7.697   5.417 -0.3218  0.4034  0.3362
 9546TIP3    H128595   1.886   7.710   5.322  0.9486 -0.7573  0.1831
 9546TIP3    H228596   1.832   7.616   5.428  0.0592  0.1978  0.6011
 9547TIP3   OH228597   0.532   0.647   4.780 -0.0707  0.7980  0.1473
 9547TIP3    H128598   0.588   0.679   4.709  0.6825 -1.0993 -0.1790
 9547TIP3    H228599   0.478   0.579   4.739 -0.6369  0.6555  1.0885
 9548TIP3   OH228600   1.792   7.623   6.110 -0.1953 -0.4634  0.6695
 9548TIP3    H128601   1.800   7.698   6.050 -0.5384 -0.4788  0.6003
 9548TIP3    H228602   1.858   7.639   6.177  0.2169 -0.4609  0.2702
 9549TIP3   OH228603   3.977   2.929   1.559  0.0854 -0.5546  0.0400
 9549TIP3    H128604   4.035   2.853   1.556 -0.2993 -0.8654  0.3292
 9549TIP3    H228605   3.936   2.931   1.473 -1.1222 -1.6548  0.5539
 9550TIP3   OH228606   7.065   0.608   0.511 -0.5469 -0.3230 -0.5746
 9550TIP3    H128607   7.141   0.666   0.514  0.2751 -1.4122  0.0180
 9550TIP3    H228608   7.095   0.531   0.464 -1.2656 -0.7949 -0.2767
 9551TIP3   OH228609   3.540   2.878   6.031  0.3340  0.3291 -0.4346
 9551TIP3    H128610   3.482   2.946   6.065 -0.7607 -0.5242 -0.5477
 9551TIP3    H228611   3.485   2.824   5.975  1.1757 -0.6388 -0.3746
 9552TIP3   OH228612   7.678   5.566   3.583  0.0540  0.1666 -0.0713
 9552TIP3    H128613   7.610   5.526   3.529 -0.2767 -0.4302  0.7678
 9552TIP3    H228614   7.729   5.618   3.522 -0.3038 -0.4966 -0.9599
 9553TIP3   OH228615   6.587   2.803   0.972 -0.8839  1.0360  0.0511
 9553TIP3    H128616   6.536   2.726   0.947 -0.8211  0.8272  0.5636
 9553TIP3    H228617   6.629   2.779   1.055  0.2647  1.1113 -0.4968
 9554TIP3   OH228618   1.062   0.334   5.003 -0.6274  0.3802 -0.1313
 9554TIP3    H128619   1.072   0.430   5.004  0.4918  0.2788 -0.5776
 9554TIP3    H228620   0.973   0.320   5.034 -0.5165  1.5286  0.8021
 9555TIP3   OH228621   3.634   5.472   1.327  0.6316  0.0076 -0.5608
 9555TIP3    H128622   3.597   5.388   1.354  0.6381  0.2530  0.2178
 9555TIP3    H228623   3.667   5.456   1.238 -0.0559 -0.5991 -0.7178
 9556TIP3   OH228624   3.809   5.429   1.760 -0.1088 -0.5235  0.5593
 9556TIP3    H128625   3.867   5.353   1.750 -0.4612 -0.7415  0.1132
 9556TIP3    H228626   3.863   5.504   1.734  0.2823 -0.6031  1.1345
 9557TIP3   OH228627   5.242   0.529   4.781  0.1205 -0.2385  0.1112
 9557TIP3    H128628   5.166   0.576   4.815  1.7019  2.2946  0.3607
 9557TIP3    H228629   5.294   0.508   4.859  0.0339 -1.3493 -0.1154
 9558TIP3   OH228630   6.598   7.522   0.964 -0.2230 -0.6140  0.3693
 9558TIP3    H128631   6.608   7.551   0.874 -0.0875 -2.2859 -0.1881
 9558TIP3    H228632   6.605   7.602   1.016 -0.0227  0.3402 -1.0742
 9559TIP3   OH228633   7.677   1.379   1.211  0.2344  0.2405  0.4994
 9559TIP3    H128634   7.764   1.362   1.175 -0.2066  0.4358 -0.7413
 9559TIP3    H228635   7.623   1.398   1.134 -0.5973  1.4802  1.3399
 9560TIP3   OH228636   1.155   6.000   2.727  0.2224 -0.4985  0.0070
 9560TIP3    H128637   1.181   5.908   2.716 -0.5217 -0.7118 -0.0483
 9560TIP3    H228638   1.234   6.050   2.707  0.7211 -1.1380  0.3391
 9561TIP3   OH228639   8.151   4.898   6.012 -0.1761  0.4750 -0.2979
 9561TIP3    H128640   8.166   4.974   5.955 -0.6229 -0.8100 -2.2129
 9561TIP3    H228641   8.099   4.838   5.959  0.4851 -1.3439  1.0221
 9562TIP3   OH228642   5.297   3.093   6.284  0.1864 -0.2390 -0.2102
 9562TIP3    H128643   5.389   3.066   6.293  0.8730  1.7292 -0.7841
 9562TIP3    H228644   5.302   3.185   6.259 -1.8956 -0.7998 -3.1934
 9563TIP3   OH228645   5.780   1.959   4.035 -0.3114  0.3802 -0.7614
 9563TIP3    H128646   5.685   1.970   4.041 -0.2459  0.4410  0.5180
 9563TIP3    H228647   5.792   1.864   4.026 -0.4938  0.3495 -0.6988
 9564TIP3   OH228648   0.511   0.973   3.567 -0.3779 -0.0585  0.5587
 9564TIP3    H128649   0.489   1.058   3.606 -0.4293 -0.3262  1.1313
 9564TIP3    H228650   0.596   0.951   3.603 -0.8268 -0.7309  1.2537
 9565TIP3   OH228651   6.328   6.611   6.450 -0.0714 -0.0279 -0.1905
 9565TIP3    H128652   6.343   6.579   6.540 -1.6851 -1.9972 -0.5549
 9565TIP3    H228653   6.254   6.671   6.458  0.5720  0.7814 -0.0710
 9566TIP3   OH228654   1.898   3.835   1.286 -0.4651 -0.4462  0.2668
 9566TIP3    H128655   1.822   3.893   1.281 -0.3351 -0.1765  1.2916
 9566TIP3    H228656   1.866   3.758   1.333  0.2049  0.2204  1.8918
 9567TIP3   OH228657   8.136   1.421   5.887 -0.1459  0.1977 -0.1594
 9567TIP3    H128658   8.044   1.448   5.888  0.0294  0.8928 -1.0064
 9567TIP3    H228659   8.178   1.477   5.952 -0.0155  1.1445 -1.0264
 9568TIP3   OH228660   4.126   0.333   3.326 -0.2937  0.0768 -0.5185
 9568TIP3    H128661   4.208   0.287   3.309  0.4032  0.6188  1.1613
 9568TIP3    H228662   4.152   0.424   3.341 -1.4729  0.7265 -2.1537
 9569TIP3   OH228663   5.195   1.043   1.088  0.1510  0.1740  0.3812
 9569TIP3    H128664   5.230   1.084   1.168 -0.3957  0.3094  0.5539
 9569TIP3    H228665   5.120   0.992   1.118 -0.8694  1.2691 -0.2017
 9570TIP3   OH228666   4.535   4.022   4.452  0.4058  1.1864  0.2603
 9570TIP3    H128667   4.607   4.085   4.451  0.7357  0.8144 -0.4522
 9570TIP3    H228668   4.510   4.014   4.360 -0.5960  1.3615  0.5061
 9571TIP3   OH228669   4.868   7.469   4.834  0.6088  0.3848  0.0815
 9571TIP3    H128670   4.851   7.385   4.877 -2.1338  0.1863 -1.2280
 9571TIP3    H228671   4.955   7.458   4.795  0.5191 -1.6610  0.3262
 9572TIP3   OH228672   8.108   7.720   5.454  0.1381 -0.2668 -0.0600
 9572TIP3    H128673   8.138   7.737   5.365 -1.1935 -0.1736 -0.5158
 9572TIP3    H228674   8.102   7.624   5.459 -0.0728 -0.2608 -0.1772
 9573TIP3   OH228675   0.028   2.370   1.522 -0.5008 -0.4074  0.4855
 9573TIP3    H128676  -0.015   2.445   1.482 -0.7129 -0.4206  0.6846
 9573TIP3    H228677   0.115   2.369   1.483  0.2127  1.1126  1.9253
 9574TIP3   OH228678   4.612   5.847   4.632 -0.2522  0.5736 -0.9051
 9574TIP3    H128679   4.613   5.780   4.564 -0.4499  0.8020 -1.1377
 9574TIP3    H228680   4.691   5.830   4.684 -0.4547 -0.0092 -0.7876
 9575TIP3   OH228681   8.031   4.284   3.843 -0.2194 -0.2926  0.0379
 9575TIP3    H128682   7.952   4.234   3.824 -0.9835  0.5899  0.7473
 9575TIP3    H228683   8.046   4.337   3.765 -0.0293 -0.8347 -0.2960
 9576TIP3   OH228684   5.972   3.130   0.638  0.1926  0.2283 -0.2172
 9576TIP3    H128685   6.065   3.147   0.647  0.4475 -1.7053  1.4424
 9576TIP3    H228686   5.937   3.136   0.727 -0.9076 -0.8535 -0.5396
 9577TIP3   OH228687   8.003   3.290   1.221 -0.3445  0.7620 -0.2922
 9577TIP3    H128688   7.938   3.230   1.184  1.5091 -2.3760  1.1413
 9577TIP3    H228689   8.067   3.302   1.151  0.3664 -0.7366  0.0699
 9578TIP3   OH228690   0.270   1.045   0.663  0.6697 -0.0003 -0.0485
 9578TIP3    H128691   0.347   1.100   0.682 -0.7970  1.1353  3.2538
 9578TIP3    H228692   0.219   1.047   0.743 -2.4628 -1.3897 -1.8481
 9579TIP3   OH228693   2.782   4.307   3.039 -0.3639  0.2028  0.4883
 9579TIP3    H128694   2.724   4.357   3.096 -0.6989  0.3084  0.0561
 9579TIP3    H228695   2.830   4.249   3.099 -3.2003 -2.2782  0.6099
 9580TIP3   OH228696   4.938   3.405   0.924 -0.0649  0.4244  0.2284
 9580TIP3    H128697   4.950   3.416   0.829 -0.4302  0.8636  0.2244
 9580TIP3    H228698   4.965   3.316   0.942 -1.6973 -0.2968 -0.6010
 9581TIP3   OH228699   2.695   0.139   1.443 -0.4563 -0.0875 -0.0760
 9581TIP3    H128700   2.782   0.141   1.404 -0.0486 -0.6546  0.7832
 9581TIP3    H228701   2.689   0.221   1.492 -1.1459  0.8485 -1.6437
 9582TIP3   OH228702   6.631   7.681   5.233  0.7523 -0.4994 -0.3615
 9582TIP3    H128703   6.599   7.660   5.145  2.6145 -0.1888 -1.1687
 9582TIP3    H228704   6.724   7.701   5.220  1.1033 -0.5838  1.7116
 9583TIP3   OH228705   3.613   2.997   2.180 -0.5243  0.1495  0.4249
 9583TIP3    H128706   3.613   2.940   2.257 -2.5119  1.8273  1.7922
 9583TIP3    H228707   3.522   2.996   2.150 -0.4529  1.9477  0.0276
 9584TIP3   OH228708   1.809   0.331   3.602  0.0277  0.6002 -0.0097
 9584TIP3    H128709   1.770   0.245   3.588 -1.8962  1.2766  0.8162
 9584TIP3    H228710   1.759   0.390   3.545 -0.9665  1.6783  1.8843
 9585TIP3   OH228711   7.187   6.285   5.761 -0.0570  0.0292 -0.0426
 9585TIP3    H128712   7.182   6.309   5.854  1.1441  0.4106 -0.0583
 9585TIP3    H228713   7.246   6.210   5.759 -1.5888 -1.2255 -0.3137
 9586TIP3   OH228714   7.015   4.246   1.303 -0.0524 -0.6015  0.2929
 9586TIP3    H128715   7.015   4.214   1.394  0.6131 -0.1203  0.4731
 9586TIP3    H228716   6.927   4.279   1.289 -1.0908 -3.3540 -0.2148
 9587TIP3   OH228717   2.156   0.821   4.265 -0.3620 -0.4274 -0.1928
 9587TIP3    H128718   2.143   0.767   4.343 -1.3149  2.3043  1.7057
 9587TIP3    H228719   2.248   0.848   4.268 -0.2215 -0.8842 -0.4035
 9588TIP3   OH228720   4.511   7.677   5.685 -0.4701  0.0295  0.7043
 9588TIP3    H128721   4.485   7.591   5.651 -2.4126  0.7302  0.2870
 9588TIP3    H228722   4.580   7.658   5.749  1.0556 -1.6041 -1.2626
 9589TIP3   OH228723   5.733   3.890   6.555  0.2940 -0.0583 -0.3968
 9589TIP3    H128724   5.659   3.944   6.582  0.4160  0.1394 -0.4577
 9589TIP3    H228725   5.713   3.803   6.589  0.1661  0.0572 -0.1768
 9590TIP3   OH228726   3.992   5.615   3.054 -0.2193  0.1294  0.0105
 9590TIP3    H128727   3.900   5.611   3.080 -0.1489  1.8690  0.6382
 9590TIP3    H228728   4.017   5.524   3.041 -1.1420 -0.6379  2.9750
 9591TIP3   OH228729   1.987   4.505   4.759  0.3349 -0.4331 -0.0939
 9591TIP3    H128730   1.932   4.456   4.698  0.3495 -1.0605  0.3883
 9591TIP3    H228731   1.959   4.596   4.749 -1.7079 -0.8792  1.0560
 9592TIP3   OH228732   7.193   5.275   5.586  0.7707 -0.4218 -0.4870
 9592TIP3    H128733   7.211   5.347   5.525  1.1202 -0.7998 -0.8441
 9592TIP3    H228734   7.099   5.261   5.580  0.7971 -0.4354 -0.9263
 9593TIP3   OH228735   7.574   6.233   4.843  0.6015  0.1114  0.0058
 9593TIP3    H128736   7.600   6.253   4.933 -0.6231 -0.6866  0.5538
 9593TIP3    H228737   7.594   6.140   4.832  1.4249  0.3682 -0.8066
 9594TIP3   OH228738   3.194   1.288   4.290 -0.6751 -0.5147 -0.3656
 9594TIP3    H128739   3.243   1.206   4.290 -1.7710 -1.1906  0.1394
 9594TIP3    H228740   3.107   1.265   4.257 -1.0631  0.3945 -0.0284
 9595TIP3   OH228741   6.562   1.565   5.522  0.6383 -0.5514 -0.0848
 9595TIP3    H128742   6.633   1.522   5.475 -0.1030 -1.5795 -0.3021
 9595TIP3    H228743   6.582   1.551   5.615  1.1087 -0.1587 -0.1203
 9596TIP3   OH228744   1.685   5.614   3.818 -0.2877 -0.2537 -0.2288
 9596TIP3    H128745   1.751   5.667   3.862 -0.7372  0.6694 -0.6307
 9596TIP3    H228746   1.654   5.553   3.885  0.5608 -0.3184  0.1167
 9597TIP3   OH228747   3.343   2.358   3.291 -0.1817  0.0069  0.0423
 9597TIP3    H128748   3.320   2.300   3.218 -0.2564  0.0472  0.0334
 9597TIP3    H228749   3.437   2.343   3.305 -0.5345 -1.4134  1.1777
 9598TIP3   OH228750   5.810   6.041   5.884  0.1008 -0.1342  0.2883
 9598TIP3    H128751   5.845   5.975   5.943  1.6139  0.1036 -0.3085
 9598TIP3    H228752   5.812   6.000   5.798  2.2343  1.0509 -0.2939
 9599TIP3   OH228753   6.197   3.344   2.932 -0.2002  0.6436  0.0114
 9599TIP3    H128754   6.211   3.273   2.994  1.4600  0.9022 -0.0227
 9599TIP3    H228755   6.158   3.302   2.856  1.3265 -0.3766 -0.2479
 9600TIP3   OH228756   3.099   5.365   5.505 -0.6934  0.4855 -0.8051
 9600TIP3    H128757   3.112   5.431   5.572 -1.7314  0.9122 -1.0007
 9600TIP3    H228758   3.119   5.410   5.422 -1.3654  0.5730 -0.9345
 9601TIP3   OH228759   5.643   2.440   1.376 -0.2686 -0.1272 -0.5147
 9601TIP3    H128760   5.634   2.408   1.466  4.7037  1.2320  0.7820
 9601TIP3    H228761   5.646   2.535   1.385 -1.7391  0.1641 -2.5212
 9602TIP3   OH228762   1.974   0.922   3.989 -0.6773 -0.4214  0.5901
 9602TIP3    H128763   2.026   0.961   4.060  0.0411  0.4959 -0.4081
 9602TIP3    H228764   1.887   0.910   4.027 -1.6025  4.1090  0.4310
 9603TIP3   OH228765   3.349   1.003   4.486  0.1389  0.6216  0.0231
 9603TIP3    H128766   3.262   0.966   4.502 -0.9942  3.1478  0.2098
 9603TIP3    H228767   3.376   1.037   4.571  1.9754 -1.2523  0.2770
 9604TIP3   OH228768   5.966   1.363   1.251 -0.5953 -0.1930 -0.2233
 9604TIP3    H128769   5.999   1.452   1.239 -1.1747 -0.0355 -0.6438
 9604TIP3    H228770   5.876   1.365   1.220 -0.5092 -1.0126 -0.5628
 9605TIP3   OH228771   2.829   2.262   3.914  0.1424  0.9849 -0.5471
 9605TIP3    H128772   2.856   2.264   3.822 -1.8460  0.1764 -1.2099
 9605TIP3    H228773   2.894   2.206   3.957 -0.4138 -0.9647 -2.0669
 9606TIP3   OH228774   1.828   5.167   0.842 -0.2443  0.1626 -0.0657
 9606TIP3    H128775   1.746   5.169   0.792 -0.4578  0.9616  0.2960
 9606TIP3    H228776   1.800   5.155   0.933  0.0595  0.2071  0.0328
 9607TIP3   OH228777   0.918   1.820   1.703  0.2493  0.2313  0.2053
 9607TIP3    H128778   0.959   1.883   1.644  1.1029 -0.1500  0.3703
 9607TIP3    H228779   0.992   1.778   1.747 -0.2081 -1.8177 -0.8423
 9608TIP3   OH228780   6.078   6.105   1.665 -0.1007  0.3398 -0.1559
 9608TIP3    H128781   6.020   6.180   1.660  1.0862  1.2306 -1.3605
 9608TIP3    H228782   6.163   6.142   1.688  0.0118 -0.9391  1.6647
 9609TIP3   OH228783   5.667   4.476   0.295  0.2841 -0.4170  0.0654
 9609TIP3    H128784   5.681   4.499   0.387  1.7254 -1.7640  0.2305
 9609TIP3    H228785   5.717   4.395   0.283 -1.2536 -1.2055 -1.4835
 9610TIP3   OH228786   1.945   4.119   6.054  0.5482  0.0428  0.2753
 9610TIP3    H128787   1.935   4.154   5.966  2.1655 -0.7546 -0.2715
 9610TIP3    H228788   1.884   4.046   6.058  0.3293  0.2013 -0.1146
 9611TIP3   OH228789   2.222   6.098   3.705  0.0149 -0.2458  0.1911
 9611TIP3    H128790   2.240   6.165   3.640 -0.3171 -0.1613  0.1814
 9611TIP3    H228791   2.307   6.076   3.743  0.2992 -0.7113 -0.6767
 9612TIP3   OH228792   8.010   4.530   2.874 -0.0720  0.0355  0.2696
 9612TIP3    H128793   8.065   4.576   2.937 -2.2411  2.4301  0.5928
 9612TIP3    H228794   7.977   4.454   2.922  2.1007 -0.9265  0.3485
 9613TIP3   OH228795   5.838   5.352   5.626 -0.6770 -0.2231 -0.4882
 9613TIP3    H128796   5.924   5.318   5.651 -0.6962 -0.7072 -1.0549
 9613TIP3    H228797   5.779   5.324   5.696 -0.3232  0.3553  0.0486
 9614TIP3   OH228798   3.157   1.398   1.436 -0.0564 -0.2994 -0.1998
 9614TIP3    H128799   3.145   1.320   1.491  1.3172 -0.3975 -0.0090
 9614TIP3    H228800   3.124   1.372   1.350 -1.0913 -0.5474  0.2442
 9615TIP3   OH228801   4.211   5.699   0.843  0.0912 -0.1333  0.6171
 9615TIP3    H128802   4.147   5.720   0.775 -1.3729  1.9464  2.4744
 9615TIP3    H228803   4.165   5.636   0.899  1.4746 -2.2377 -0.4831
 9616TIP3   OH228804   2.175   1.754   5.755 -0.2027 -0.3859  0.1707
 9616TIP3    H128805   2.160   1.662   5.776  0.1953 -0.1909  1.4133
 9616TIP3    H228806   2.235   1.784   5.823  0.7811  0.4454 -1.0213
 9617TIP3   OH228807   0.554   6.932   5.494 -0.5639 -0.2723  0.0896
 9617TIP3    H128808   0.477   6.987   5.483  0.9638  2.2490  1.0617
 9617TIP3    H228809   0.601   6.941   5.411  0.1443  0.7108  0.5791
 9618TIP3   OH228810   4.849   7.497   3.613 -0.9927 -0.2538  0.0343
 9618TIP3    H128811   4.837   7.431   3.681 -2.9131 -1.5645 -1.4710
 9618TIP3    H228812   4.762   7.512   3.579 -0.2825  1.5051 -1.1433
 9619TIP3   OH228813   7.958   0.178   3.654  0.1888 -0.4073  0.2323
 9619TIP3    H128814   7.903   0.220   3.721 -0.0870 -0.2250 -0.1050
 9619TIP3    H228815   7.993   0.251   3.603  0.2005 -0.5586  0.0252
 9620TIP3   OH228816   0.847   2.986   3.377  0.2903 -0.7854 -0.0441
 9620TIP3    H128817   0.943   2.985   3.368  0.4907  2.6521  0.2759
 9620TIP3    H228818   0.822   3.076   3.355 -3.1490 -2.0674 -2.0096
 9621TIP3   OH228819   2.761   4.938   0.032 -0.5804 -0.4497  0.1416
 9621TIP3    H128820   2.697   4.871   0.009  0.5817 -1.9950  1.1235
 9621TIP3    H228821   2.839   4.888   0.057  0.8275  1.3343 -0.4685
 9622TIP3   OH228822   6.615   6.743   1.175  0.5339 -0.3203 -0.6408
 9622TIP3    H128823   6.598   6.807   1.244 -1.9399 -0.4623 -1.0309
 9622TIP3    H228824   6.556   6.670   1.195  2.1264 -1.8152 -1.1160
 9623TIP3   OH228825   0.982   3.851   6.090  0.0169  0.1155  0.1278
 9623TIP3    H128826   1.008   3.854   5.998 -4.3777  2.0234 -1.3587
 9623TIP3    H228827   0.909   3.789   6.092 -1.7364  2.0566  1.6315
 9624TIP3   OH228828   2.043   7.682   3.288  0.4469 -0.2444 -0.1139
 9624TIP3    H128829   2.036   7.676   3.383 -1.5842 -0.2376 -0.2212
 9624TIP3    H228830   2.060   7.592   3.260  0.4190 -0.3572  0.2315
 9625TIP3   OH228831   1.322   7.176   1.488  0.1187  0.0224 -0.0615
 9625TIP3    H128832   1.374   7.255   1.473  1.3216 -0.8664 -0.7297
 9625TIP3    H228833   1.343   7.150   1.578  1.5266 -0.7822 -0.5838
 9626TIP3   OH228834   2.751   2.184   6.221 -0.2576  0.1404 -0.3830
 9626TIP3    H128835   2.697   2.240   6.277  0.5743  0.7837 -0.2040
 9626TIP3    H228836   2.736   2.096   6.255 -1.0256  0.3326 -0.2008
 9627TIP3   OH228837   2.835   3.488   6.315 -0.5741  0.2967 -0.7500
 9627TIP3    H128838   2.742   3.491   6.337 -0.3875  0.7664  0.0280
 9627TIP3    H228839   2.867   3.575   6.337  0.9358 -1.0478  3.2504
 9628TIP3   OH228840   6.294   1.272   4.051  0.1924  0.1814  0.0749
 9628TIP3    H128841   6.387   1.279   4.071  0.6128 -2.1609 -0.7225
 9628TIP3    H228842   6.266   1.361   4.033  2.4731  0.8393 -0.4529
 9629TIP3   OH228843   6.555   0.986   3.231  0.4046 -0.4434 -0.3396
 9629TIP3    H128844   6.598   1.053   3.284  0.5586 -0.1561 -0.8171
 9629TIP3    H228845   6.597   0.993   3.145 -2.2742  1.5585 -1.6156
 9630TIP3   OH228846   6.127   2.448   1.955  0.7699  0.1961  0.1326
 9630TIP3    H128847   6.069   2.521   1.977 -0.9312 -1.0289 -0.0610
 9630TIP3    H228848   6.197   2.488   1.903 -0.1587  1.6753 -0.0531
 9631TIP3   OH228849   4.915   3.007   5.305 -0.5945  0.0148 -0.0602
 9631TIP3    H128850   4.951   2.946   5.369 -0.1761  0.4094  0.0882
 9631TIP3    H228851   4.972   2.996   5.228 -0.6044  0.1133 -0.0813
 9632TIP3   OH228852   1.724   0.643   1.443  0.6035 -0.2658  0.8351
 9632TIP3    H128853   1.703   0.673   1.531 -4.5330 -1.1766  0.2065
 9632TIP3    H228854   1.719   0.721   1.388 -1.5841 -0.4110  0.7380
 9633TIP3   OH228855   1.418   3.514   5.254 -0.5375 -0.3436  0.0146
 9633TIP3    H128856   1.379   3.428   5.239  0.7891 -0.9524 -0.1185
 9633TIP3    H228857   1.419   3.523   5.349 -2.9170  0.6373  0.0177
 9634TIP3   OH228858   3.604   6.114   6.176  0.2917 -0.3541 -0.3579
 9634TIP3    H128859   3.523   6.065   6.188  0.3794 -0.0172  2.2218
 9634TIP3    H228860   3.583   6.179   6.109 -0.8341 -1.7290 -1.4016
 9635TIP3   OH228861   1.681   2.809   1.443  0.2015  0.1871 -0.2229
 9635TIP3    H128862   1.705   2.808   1.350  0.2681  0.7939 -0.2121
 9635TIP3    H228863   1.708   2.723   1.475 -1.3987 -0.7009 -1.1572
 9636TIP3   OH228864   1.686   5.859   3.043 -0.3153  0.5595 -0.1703
 9636TIP3    H128865   1.611   5.802   3.063 -0.9319  1.4989  0.2585
 9636TIP3    H228866   1.723   5.822   2.963 -0.8398 -0.3040 -0.0324
 9637TIP3   OH228867   2.255   5.921   4.985  0.3197  0.3476 -0.1662
 9637TIP3    H128868   2.271   5.998   4.930  0.1045 -0.8332 -1.9719
 9637TIP3    H228869   2.162   5.901   4.971 -0.1640  0.9314  1.9163
 9638TIP3   OH228870   3.959   1.734   0.937  0.8116  0.1959 -0.1435
 9638TIP3    H128871   3.871   1.740   0.974  0.3604 -0.2711 -1.1029
 9638TIP3    H228872   4.011   1.689   1.004  0.6548  1.6408  0.9784
 9639TIP3   OH228873   0.279   4.428   5.215  0.1836 -0.2792 -0.2287
 9639TIP3    H128874   0.253   4.452   5.126  1.8562  1.6309 -0.2997
 9639TIP3    H228875   0.199   4.434   5.267 -0.4025  0.7801 -1.2206
 9640TIP3   OH228876   3.656   1.120   0.625  0.3309  0.1670  0.2993
 9640TIP3    H128877   3.678   1.100   0.716  0.7664 -1.6989 -0.1842
 9640TIP3    H228878   3.633   1.213   0.627  1.9482  0.6026  2.0024
 9641TIP3   OH228879   5.870   5.189   2.566  0.0032 -0.4602 -0.3987
 9641TIP3    H128880   5.904   5.274   2.538  1.2835  0.5055  3.4103
 9641TIP3    H228881   5.815   5.209   2.642  0.8550 -3.0125  1.0272
 9642TIP3   OH228882   0.920   0.137   0.852 -0.4037  0.2633  0.8331
 9642TIP3    H128883   0.979   0.187   0.796  0.4762 -0.0628  1.4403
 9642TIP3    H228884   0.851   0.199   0.876 -0.4840  0.5609 -0.1367
 9643TIP3   OH228885   3.167   0.896   4.752 -0.3541  0.0409  0.3717
 9643TIP3    H128886   3.244   0.940   4.788 -0.1346 -1.4271  1.7733
 9643TIP3    H228887   3.094   0.953   4.778  0.1699  1.1975 -0.5713
 9644TIP3   OH228888   6.028   5.125   2.351 -0.0263  0.6468 -0.0673
 9644TIP3    H128889   5.975   5.125   2.430  0.1701  1.3303  0.0709
 9644TIP3    H228890   5.978   5.073   2.288  0.3588 -0.9190  0.8515
 9645TIP3   OH228891   3.481   7.142   3.405  0.5651 -0.5919  0.0714
 9645TIP3    H128892   3.570   7.115   3.427  0.6116 -2.1515 -1.7452
 9645TIP3    H228893   3.468   7.110   3.315 -1.2225  1.1353 -0.3530
 9646TIP3   OH228894   1.283   4.981   1.956  0.1803  0.1570  0.7295
 9646TIP3    H128895   1.216   5.018   2.014  0.9195  0.4486  1.4151
 9646TIP3    H228896   1.259   4.889   1.948 -0.7320  0.4070  0.3463
 9647TIP3   OH228897   2.764   4.117   5.200 -0.0640  0.2883  0.3196
 9647TIP3    H128898   2.709   4.093   5.275  1.8735 -1.7286  1.2065
 9647TIP3    H228899   2.824   4.183   5.235 -0.0065  0.3191  0.1649
 9648TIP3   OH228900   0.690   4.688   4.232 -0.0169 -0.1238 -0.0786
 9648TIP3    H128901   0.736   4.604   4.222 -0.7610 -0.4062 -1.3020
 9648TIP3    H228902   0.753   4.753   4.200  0.9049 -0.0897  1.7122
 9649TIP3   OH228903   7.125   3.169   1.192  0.5235 -0.4870  0.7043
 9649TIP3    H128904   7.116   3.189   1.285 -1.3485 -0.4258  0.5549
 9649TIP3    H228905   7.165   3.082   1.190 -0.2100 -0.8615  1.5948
 9650TIP3   OH228906   4.996   3.803   0.499  0.0821 -0.2731 -0.1250
 9650TIP3    H128907   4.973   3.773   0.412 -1.0443 -0.8824  0.3605
 9650TIP3    H228908   5.042   3.886   0.485  0.2738 -0.5689 -1.3034
 9651TIP3   OH228909   0.184   0.110   2.244  0.2477  0.1463  0.0885
 9651TIP3    H128910   0.234   0.040   2.203 -1.6996 -1.6390  0.5687
 9651TIP3    H228911   0.211   0.108   2.336  1.7497  1.5386 -0.2677
 9652TIP3   OH228912   7.015   3.901   0.734 -0.2208 -0.2703  0.4334
 9652TIP3    H128913   7.029   3.875   0.643 -2.3312  2.9824 -1.0112
 9652TIP3    H228914   7.056   3.987   0.740 -1.3391  0.1759  2.1620
 9653TIP3   OH228915   6.019   6.182   6.289 -0.0100  0.3992  0.0992
 9653TIP3    H128916   5.964   6.221   6.222  0.7359 -0.7422 -1.2290
 9653TIP3    H228917   6.074   6.254   6.320 -1.0385  1.1544  0.2061
 9654TIP3   OH228918   0.701   3.661   4.047  0.7088  0.0491 -0.3261
 9654TIP3    H128919   0.662   3.732   3.996 -1.4599 -0.6852  0.2007
 9654TIP3    H228920   0.722   3.701   4.131  2.0169  0.6728 -0.9201
 9655TIP3   OH228921   7.933   7.472   3.230  0.0389 -0.2782 -0.4249
 9655TIP3    H128922   7.902   7.507   3.147 -0.6926  0.5950  0.2091
 9655TIP3    H228923   8.010   7.420   3.206 -0.8671 -1.0567 -1.7983
 9656TIP3   OH228924   5.055   2.266   5.661  0.2548 -0.6324  0.1806
 9656TIP3    H128925   4.996   2.275   5.736  1.6146 -1.2573  1.3761
 9656TIP3    H228926   5.143   2.265   5.699  1.0305 -0.2868 -1.4899
 9657TIP3   OH228927   8.049   6.408   6.265 -0.2112 -0.2516 -0.4398
 9657TIP3    H128928   7.993   6.453   6.328 -1.1193 -1.9511 -0.0004
 9657TIP3    H228929   8.091   6.480   6.216 -0.1029  1.0917  1.5154
 9658TIP3   OH228930   5.487   1.812   0.646  0.1832  0.2390  0.7429
 9658TIP3    H128931   5.405   1.861   0.640 -0.2895 -0.7035 -1.9298
 9658TIP3    H228932   5.468   1.740   0.706 -0.4686  0.8132  1.2454
 9659TIP3   OH228933   5.475   4.294   2.793 -0.3301  0.1047  0.2548
 9659TIP3    H128934   5.443   4.204   2.782 -1.1620  0.2958  1.0612
 9659TIP3    H228935   5.558   4.295   2.744 -1.3025 -0.5171 -1.5278
 9660TIP3   OH228936   1.728   7.761   0.056 -0.2918 -0.6246  0.2171
 9660TIP3    H128937   1.637   7.744   0.032 -0.5136  2.7986 -2.1808
 9660TIP3    H228938   1.725   7.774   0.151 -2.3684 -0.3712  0.1745
 9661TIP3   OH228939   2.712   0.333   0.209 -0.5718  0.2425 -0.0072
 9661TIP3    H128940   2.721   0.259   0.149 -0.9167  0.6739 -0.5998
 9661TIP3    H228941   2.646   0.305   0.273  1.7937 -1.3470  1.9269
 9662TIP3   OH228942   5.901   5.699   2.710 -0.3356  0.0407  0.0057
 9662TIP3    H128943   5.898   5.786   2.752 -4.6973 -0.6899  1.7311
 9662TIP3    H228944   5.832   5.702   2.644  0.8690 -1.5654 -1.4226
 9663TIP3   OH228945   2.535   4.250   4.308  0.0214  0.0623 -0.3071
 9663TIP3    H128946   2.619   4.291   4.284 -0.2564  0.7402 -0.1366
 9663TIP3    H228947   2.484   4.321   4.347 -1.0276 -0.0849 -1.3440
 9664TIP3   OH228948   4.289   4.526   0.948  0.2792 -0.5150  0.7516
 9664TIP3    H128949   4.364   4.571   0.988 -0.1820  1.4913 -0.5034
 9664TIP3    H228950   4.221   4.528   1.015  0.3600  0.4148  0.8103
 9665TIP3   OH228951   3.583   2.828   3.349  0.2348 -0.9843 -0.1363
 9665TIP3    H128952   3.560   2.749   3.398  0.4966 -1.3069 -0.5325
 9665TIP3    H228953   3.656   2.801   3.293  0.2426 -0.4925 -0.3638
 9666TIP3   OH228954   4.175   1.777   3.124  0.0676  0.1690  0.1451
 9666TIP3    H128955   4.201   1.869   3.115 -1.2201  0.8895  2.7043
 9666TIP3    H228956   4.081   1.777   3.107 -0.4683 -0.1013  2.6809
 9667TIP3   OH228957   5.009   0.077   3.355  0.0434 -0.4412 -0.3725
 9667TIP3    H128958   4.950   0.019   3.306  0.9438 -0.3814 -1.5805
 9667TIP3    H228959   4.963   0.095   3.436 -0.5177 -2.3982 -0.1985
 9668TIP3   OH228960   3.125   7.127   2.819  0.1977 -0.2715 -0.3789
 9668TIP3    H128961   3.214   7.097   2.837 -0.2461 -1.5994 -0.3179
 9668TIP3    H228962   3.084   7.134   2.905 -0.0587 -0.6423 -0.4694
 9669TIP3   OH228963   5.133   2.542   6.167 -0.0403  0.2492 -0.0009
 9669TIP3    H128964   5.090   2.459   6.188 -0.6839  0.4588 -0.4626
 9669TIP3    H228965   5.087   2.607   6.221  2.1341  0.0042  2.3776
 9670TIP3   OH228966   2.006   3.442   3.339  0.4712  0.3323 -0.0253
 9670TIP3    H128967   2.024   3.468   3.429  0.1416  0.6524 -0.0502
 9670TIP3    H228968   1.914   3.417   3.339  0.2834  0.9778 -0.4133
 9671TIP3   OH228969   8.216   5.972   5.267  0.6099  0.1481 -0.4069
 9671TIP3    H128970   8.162   5.913   5.320  1.5053 -1.4916 -1.2504
 9671TIP3    H228971   8.251   6.035   5.330 -1.8964  1.0364  0.2360
 9672TIP3   OH228972   2.327   0.517   0.491  0.4978  0.2686  0.0546
 9672TIP3    H128973   2.360   0.443   0.440 -1.1799 -1.2169  0.9823
 9672TIP3    H228974   2.335   0.488   0.582 -2.6382  0.0014  0.3657
 9673TIP3   OH228975   6.299   2.615   2.788  0.1167  0.4453 -0.0506
 9673TIP3    H128976   6.226   2.673   2.764  0.0517  0.5147  0.3168
 9673TIP3    H228977   6.270   2.528   2.761 -0.5001  0.3262  0.9400
 9674TIP3   OH228978   0.908   3.430   4.757 -0.2158  0.3888 -0.1972
 9674TIP3    H128979   0.962   3.470   4.825 -2.8161  0.7962  1.7522
 9674TIP3    H228980   0.943   3.341   4.749  0.0938  0.2824  1.7758
 9675TIP3   OH228981   1.016   4.547   3.720 -0.4810 -0.3119  0.6270
 9675TIP3    H128982   1.057   4.507   3.796  0.7297 -0.6910 -0.1880
 9675TIP3    H228983   1.062   4.629   3.707 -1.0952  0.0430  0.6649
 9676TIP3   OH228984   7.079   2.373   0.064 -0.2293  0.0157 -0.1819
 9676TIP3    H128985   7.027   2.448   0.037  0.6854  0.5341 -0.5238
 9676TIP3    H228986   7.019   2.321   0.118 -1.1359  0.5324 -0.6649
 9677TIP3   OH228987   3.009   0.593   6.635  0.3804  0.3183  0.0880
 9677TIP3    H128988   2.982   0.502   6.622  0.6650  0.0897  1.0034
 9677TIP3    H228989   3.104   0.590   6.633  0.4747  0.1820  2.4950
 9678TIP3   OH228990   7.395   6.599   4.147 -0.5550  0.3598 -0.4949
 9678TIP3    H128991   7.446   6.519   4.134  0.4713  1.2820 -2.5548
 9678TIP3    H228992   7.321   6.572   4.201  0.2105 -1.7810 -0.4321
 9679TIP3   OH228993   4.225   6.683   5.168 -0.3030  0.2332  0.5958
 9679TIP3    H128994   4.191   6.618   5.230  1.7756 -1.4986  0.0508
 9679TIP3    H228995   4.282   6.738   5.221 -0.8632  0.6707  0.7587
 9680TIP3   OH228996   6.244   5.915   6.481  0.0839  0.2063  0.4888
 9680TIP3    H128997   6.316   5.974   6.461 -1.6316  2.2773  0.1279
 9680TIP3    H228998   6.208   5.947   6.564 -1.0795 -0.0959  0.1273
 9681TIP3   OH228999   7.236   2.994   4.128  0.1252 -0.1852 -0.4656
 9681TIP3    H129000   7.209   2.999   4.037  0.4634  1.8756 -0.5046
 9681TIP3    H229001   7.172   3.047   4.175  1.1276  0.4957  0.1794
 9682TIP3   OH229002   2.727   3.916   5.720  0.0365 -0.6632 -0.0702
 9682TIP3    H129003   2.725   3.851   5.649  1.4689 -0.5128 -0.2816
 9682TIP3    H229004   2.759   3.996   5.678  1.6284 -0.7740  0.8801
 9683TIP3   OH229005   2.465   4.084   5.407 -0.1403 -0.1247 -0.4108
 9683TIP3    H129006   2.436   4.070   5.497  3.4970  0.4740  1.0227
 9683TIP3    H229007   2.448   4.176   5.390  1.4037  0.4027  0.6805
 9684TIP3   OH229008   0.168   1.930   3.916 -0.2607 -0.3275  0.3894
 9684TIP3    H129009   0.211   1.883   3.987 -2.2841 -0.7997  1.3720
 9684TIP3    H229010   0.211   2.015   3.914  2.1417 -1.4614 -0.1250
 9685TIP3   OH229011   4.931   7.527   1.339  0.5033 -0.0039 -0.0209
 9685TIP3    H129012   4.999   7.570   1.286 -0.3133  1.4206  0.0489
 9685TIP3    H229013   4.887   7.599   1.384 -0.1439 -1.0323  1.0339
 9686TIP3   OH229014   4.807   2.149   4.404  0.2702  0.2359 -0.0990
 9686TIP3    H129015   4.715   2.125   4.388 -0.1091  1.7324 -0.3050
 9686TIP3    H229016   4.814   2.239   4.372  1.8814  0.0644 -0.2923
 9687TIP3   OH229017   4.962   6.319   5.024  0.3190 -0.3158 -0.3491
 9687TIP3    H129018   4.939   6.408   5.049 -1.7136 -1.2204  1.3452
 9687TIP3    H229019   5.051   6.325   4.991  0.1429  2.3630 -0.5206
 9688TIP3   OH229020   3.308   3.814   6.387 -0.4512 -0.6328  0.0942
 9688TIP3    H129021   3.279   3.881   6.326  0.1750 -1.4899 -1.1928
 9688TIP3    H229022   3.242   3.814   6.457 -1.2363  0.2945 -0.6244
 9689TIP3   OH229023   2.611   6.338   4.025  0.3772 -1.0854  0.2256
 9689TIP3    H129024   2.630   6.250   3.991  2.3482 -0.2245 -1.0595
 9689TIP3    H229025   2.674   6.350   4.096  0.2872 -0.6285  0.2272
 9690TIP3   OH229026   1.869   4.338   3.101  0.2798  0.6653  0.2592
 9690TIP3    H129027   1.812   4.297   3.166 -0.9304 -2.1782 -2.3595
 9690TIP3    H229028   1.929   4.268   3.075  0.6358  1.6737 -1.7620
 9691TIP3   OH229029   6.707   5.483   5.303 -0.1736 -0.2187 -0.0262
 9691TIP3    H129030   6.625   5.438   5.284 -1.9838  2.0303  1.7978
 9691TIP3    H229031   6.701   5.565   5.255  1.2494 -0.1890 -0.2003
 9692TIP3   OH229032   1.356   7.280   3.649 -0.1559 -0.8161  0.1686
 9692TIP3    H129033   1.321   7.195   3.624 -0.6872 -0.0420 -1.9209
 9692TIP3    H229034   1.389   7.318   3.568  1.0950  0.5287  1.2443
 9693TIP3   OH229035   3.524   7.583   2.904 -0.3997  0.9634  0.4195
 9693TIP3    H129036   3.514   7.665   2.856 -2.3150 -0.1930 -1.3172
 9693TIP3    H229037   3.457   7.588   2.973  1.1914  1.8746  1.9905
 9694TIP3   OH229038   2.665   1.300   0.852  0.2237 -0.3669  0.5672
 9694TIP3    H129039   2.583   1.341   0.824  0.5086  0.0715  0.3593
 9694TIP3    H229040   2.725   1.373   0.868  1.2853 -0.6939 -1.4656
 9695TIP3   OH229041   5.087   1.201   0.913 -0.3909  0.1581  0.1671
 9695TIP3    H129042   5.135   1.139   0.967  0.5539 -0.2478 -1.0843
 9695TIP3    H229043   5.058   1.269   0.974  1.4547  0.2139  1.0497
 9696TIP3   OH229044   7.680   3.022   4.203  0.3258  0.3569 -0.7450
 9696TIP3    H129045   7.614   3.072   4.249 -0.7560 -0.8769 -0.9011
 9696TIP3    H229046   7.727   2.974   4.272 -0.9710 -1.1106 -0.8336
 9697TIP3   OH229047   3.573   0.029   2.087  0.1526 -0.1671  0.2297
 9697TIP3    H129048   3.662   0.010   2.056  0.2824  0.6868  0.0753
 9697TIP3    H229049   3.516  -0.014   2.024  0.4261  0.9219 -0.7763
 9698TIP3   OH229050   0.074   6.083   1.998  0.5072 -0.7736  0.0570
 9698TIP3    H129051   0.076   6.063   2.092 -1.6028 -1.3298  0.0312
 9698TIP3    H229052   0.136   6.022   1.959  1.6965 -0.2815  1.1157
 9699TIP3   OH229053   5.797   1.678   4.555  0.1183 -0.0425  0.1452
 9699TIP3    H129054   5.759   1.726   4.629 -0.7399 -0.0245 -0.3004
 9699TIP3    H229055   5.802   1.742   4.485 -0.9385 -0.5562 -0.4238
 9700TIP3   OH229056   5.751   0.772   1.709 -0.0900 -0.2519 -0.1471
 9700TIP3    H129057   5.697   0.693   1.715  0.2406 -0.5048 -0.5097
 9700TIP3    H229058   5.840   0.742   1.724 -0.0311  0.1507  0.3343
 9701TIP3   OH229059   4.948   3.744   1.925 -0.4655  0.2345 -0.4458
 9701TIP3    H129060   5.013   3.700   1.981 -1.3042  0.7762  1.0278
 9701TIP3    H229061   4.866   3.696   1.942 -0.3743 -0.8421 -2.7525
 9702TIP3   OH229062   5.687   4.237   1.207 -0.0716 -0.1441 -0.8705
 9702TIP3    H129063   5.611   4.199   1.250 -2.4297  2.8106 -2.0467
 9702TIP3    H229064   5.686   4.200   1.119 -1.1930  1.0758 -1.3977
 9703TIP3   OH229065   3.842   6.040   4.683  0.1314  0.9801 -0.1653
 9703TIP3    H129066   3.786   5.973   4.722 -0.4338  0.9640 -0.9763
 9703TIP3    H229067   3.803   6.123   4.713 -2.0414  1.0750 -2.8352
 9704TIP3   OH229068   5.021   3.308   0.057  0.1567  0.0940 -0.3078
 9704TIP3    H129069   5.084   3.275  -0.007  2.1186 -1.9479  2.4133
 9704TIP3    H229070   4.945   3.251   0.048  1.0432 -1.2194  0.1483
 9705TIP3   OH229071   4.710   4.257   3.823 -0.4913  0.4848  0.7790
 9705TIP3    H129072   4.706   4.195   3.895 -0.1037  0.6532  0.9455
 9705TIP3    H229073   4.796   4.299   3.831  0.3455 -0.7783 -0.8419
 9706TIP3   OH229074   3.881   1.379   4.888  1.0973 -0.7243  0.7403
 9706TIP3    H129075   3.876   1.285   4.868  0.3431 -0.5941  0.2831
 9706TIP3    H229076   3.819   1.419   4.828 -2.6554 -0.4760  4.3796
 9707TIP3   OH229077   1.716   0.093   1.127 -0.4230 -0.0641  0.5217
 9707TIP3    H129078   1.765   0.169   1.094  0.4836 -0.5498  0.6916
 9707TIP3    H229079   1.676   0.124   1.208  0.4279  0.0788  0.8975
 9708TIP3   OH229080   3.947   4.488   4.349 -0.0600 -0.2654 -0.1496
 9708TIP3    H129081   3.909   4.402   4.332 -1.2641  0.3262 -0.6029
 9708TIP3    H229082   4.042   4.474   4.345 -0.1972 -1.7852  0.9305
 9709TIP3   OH229083   0.808   6.423   2.244 -0.4753  0.2376 -0.5686
 9709TIP3    H129084   0.834   6.444   2.154  0.0689  0.4413 -0.3679
 9709TIP3    H229085   0.792   6.329   2.243  0.4074  0.0832 -0.6714
 9710TIP3   OH229086   5.580   4.402   1.520 -0.0913 -0.3167  0.5310
 9710TIP3    H129087   5.502   4.377   1.570 -0.6926  0.1196 -0.1722
 9710TIP3    H229088   5.567   4.362   1.434 -1.1057  2.3010 -0.6422
 9711TIP3   OH229089   2.092   0.488   0.232  0.4063  0.0975 -0.5920
 9711TIP3    H129090   2.003   0.460   0.212 -0.0628  2.0076 -1.3582
 9711TIP3    H229091   2.094   0.497   0.327 -0.0101 -0.5627 -0.5110
 9712TIP3   OH229092   0.186   4.705   2.227  0.4256  0.3028  0.0375
 9712TIP3    H129093   0.258   4.642   2.229 -0.3905 -0.6722 -0.5142
 9712TIP3    H229094   0.167   4.723   2.319  0.7574 -0.1606  0.1994
 9713TIP3   OH229095   6.835   3.798   5.820 -0.6912 -0.4470  0.0893
 9713TIP3    H129096   6.768   3.864   5.801  0.5761  0.2380 -2.5977
 9713TIP3    H229097   6.827   3.735   5.749  0.4968 -1.1914  0.5890
 9714TIP3   OH229098   7.567   1.695   3.711 -0.3061 -0.5603 -0.0763
 9714TIP3    H129099   7.537   1.720   3.624  0.6680  0.7870 -0.0614
 9714TIP3    H229100   7.657   1.666   3.699  0.4262  1.2739  0.6807
 9715TIP3   OH229101   7.695   4.709   1.012 -0.4835  0.5139 -0.2828
 9715TIP3    H129102   7.712   4.779   0.949  0.1770  0.0676 -0.6148
 9715TIP3    H229103   7.723   4.630   0.967  0.1051  0.2029  0.6120
 9716TIP3   OH229104   0.813   1.217   1.543 -0.0231  0.0913 -0.3814
 9716TIP3    H129105   0.794   1.215   1.637  0.7708  1.3265 -0.1628
 9716TIP3    H229106   0.815   1.126   1.517  2.2470 -0.4623  1.3541
 9717TIP3   OH229107   5.914   6.591   6.338 -0.5731  0.0230  0.3770
 9717TIP3    H129108   5.952   6.551   6.416 -0.5382 -2.8944 -1.0128
 9717TIP3    H229109   5.912   6.685   6.357  1.3942 -0.3777  2.9988
 9718TIP3   OH229110   3.478   0.235   6.020  1.1636  0.3178 -0.8392
 9718TIP3    H129111   3.574   0.233   6.020  1.2007 -2.7866 -0.5534
 9718TIP3    H229112   3.453   0.145   6.000 -1.6986  0.4154  1.7065
 9719TIP3   OH229113   6.204   1.722   0.491  0.1282 -0.1480 -0.1371
 9719TIP3    H129114   6.236   1.638   0.458 -2.2795 -1.9909  1.8598
 9719TIP3    H229115   6.120   1.701   0.532  0.0505  3.0219  1.5796
 9720TIP3   OH229116   2.280   5.355   1.312  0.1315 -0.7704 -0.5871
 9720TIP3    H129117   2.244   5.335   1.399  1.8092 -0.4151  0.2347
 9720TIP3    H229118   2.242   5.288   1.255 -1.6155 -0.5421  0.2379
 9721TIP3   OH229119   2.937   7.248   5.941  0.0396  0.2651 -0.3558
 9721TIP3    H129120   2.896   7.290   5.866 -1.5723 -1.6481 -0.6273
 9721TIP3    H229121   2.900   7.160   5.943  1.5796 -0.4271  1.4893
 9722TIP3   OH229122   2.784   3.512   1.195 -0.8002  0.1355  0.0478
 9722TIP3    H129123   2.822   3.457   1.127  0.3383  2.1064 -0.9820
 9722TIP3    H229124   2.763   3.594   1.152  0.2315  1.5739  2.0754
 9723TIP3   OH229125   1.112   4.681   2.277  0.0773 -0.1113 -0.1784
 9723TIP3    H129126   1.171   4.605   2.273  0.5550  0.2988 -1.2071
 9723TIP3    H229127   1.122   4.713   2.367 -2.4108 -2.9894  1.3434
 9724TIP3   OH229128   1.908   6.537   2.752  0.1788 -0.6366 -0.4104
 9724TIP3    H129129   1.857   6.477   2.697  0.2336 -0.2709 -0.8639
 9724TIP3    H229130   1.871   6.623   2.733  0.4735 -0.4624 -0.1790
 9725TIP3   OH229131   5.944   2.198   2.828 -0.0395 -0.4945 -0.3219
 9725TIP3    H129132   5.929   2.110   2.793 -0.1050 -0.9318  0.7652
 9725TIP3    H229133   5.858   2.229   2.854  0.2514 -1.0647  1.4459
 9726TIP3   OH229134   2.295   2.079   2.523 -0.4341 -0.2521 -0.3361
 9726TIP3    H129135   2.304   2.073   2.428 -1.1035 -1.1539 -0.3541
 9726TIP3    H229136   2.201   2.080   2.538 -0.3309 -0.2978  0.3360
 9727TIP3   OH229137   2.478   4.088   3.246 -0.0665  0.3075 -0.1624
 9727TIP3    H129138   2.516   4.005   3.273 -0.0870  0.2220 -0.3904
 9727TIP3    H229139   2.388   4.067   3.220  0.3637  0.1196 -1.6251
 9728TIP3   OH229140   4.013   0.568   4.882  0.3219 -0.1668  0.3117
 9728TIP3    H129141   3.952   0.496   4.899  1.7747 -2.2471 -2.4610
 9728TIP3    H229142   4.003   0.586   4.788  2.1533  1.1664  0.3241
 9729TIP3   OH229143   3.788   6.768   0.199  0.6839 -0.4877  0.1857
 9729TIP3    H129144   3.842   6.806   0.268  0.2670 -1.8698  1.3309
 9729TIP3    H229145   3.808   6.675   0.201  0.6163 -0.5744 -1.5520
 9730TIP3   OH229146   1.971   4.700   2.232 -0.0908 -0.7251 -0.4448
 9730TIP3    H129147   1.883   4.708   2.268  0.7877  2.1956  1.5322
 9730TIP3    H229148   2.011   4.628   2.281 -0.3259  0.3329  1.4278
 9731TIP3   OH229149   4.891   4.262   6.108  0.3438  0.0431 -0.3135
 9731TIP3    H129150   4.946   4.188   6.082  1.2273  0.6679 -0.2826
 9731TIP3    H229151   4.903   4.327   6.038  0.9022  0.8085  0.4676
 9732TIP3   OH229152   2.160   2.434   4.525  0.2002  0.5639  0.2348
 9732TIP3    H129153   2.228   2.424   4.592  0.5119  2.1304  0.1854
 9732TIP3    H229154   2.099   2.497   4.562 -0.3950  0.3507 -0.3715
 9733TIP3   OH229155   1.917   0.164   5.066  0.1610  0.1088  0.1756
 9733TIP3    H129156   1.871   0.149   5.149 -2.0666  0.6319 -0.9071
 9733TIP3    H229157   1.916   0.259   5.054  0.3657  0.0306 -0.5051
 9734TIP3   OH229158   2.616   3.443   2.771 -0.0443  0.1827  0.0685
 9734TIP3    H129159   2.670   3.521   2.762  0.5854 -0.2253  0.2086
 9734TIP3    H229160   2.598   3.416   2.681 -1.1330  1.0601  0.0037
 9735TIP3   OH229161   1.380   7.814   3.707 -0.2273 -0.0294 -0.3030
 9735TIP3    H129162   1.448   7.834   3.643  0.0522 -2.9022 -1.0269
 9735TIP3    H229163   1.331   7.741   3.669 -1.3847 -0.4617  1.8411
 9736TIP3   OH229164   6.631   2.411   0.229  0.2491  0.7611  0.5388
 9736TIP3    H129165   6.724   2.391   0.236  0.0952 -0.6016 -0.9505
 9736TIP3    H229166   6.629   2.504   0.206  1.1975  0.9488  1.1216
 9737TIP3   OH229167   6.376   2.162   1.228  0.2514 -0.0490  0.3427
 9737TIP3    H129168   6.382   2.122   1.315 -0.9781 -0.1868  0.3755
 9737TIP3    H229169   6.283   2.161   1.207  0.5411 -0.1338 -1.0396
 9738TIP3   OH229170   2.310   6.028   3.031 -0.3446 -0.3285 -0.1023
 9738TIP3    H129171   2.230   6.023   2.978 -1.0340  1.4020  0.7151
 9738TIP3    H229172   2.380   6.037   2.966 -0.7394 -2.0809 -0.8443
 9739TIP3   OH229173   5.542   3.870   0.813 -0.1384  0.5734  0.4729
 9739TIP3    H129174   5.522   3.776   0.809 -0.8052  0.6914  0.9276
 9739TIP3    H229175   5.469   3.912   0.767 -0.7502  0.9760  1.7522
 9740TIP3   OH229176   6.505   3.220   2.778  0.2704 -0.0374 -0.9476
 9740TIP3    H129177   6.498   3.310   2.811  3.1216 -0.3010  0.6358
 9740TIP3    H229178   6.465   3.167   2.847  0.9913 -0.1543 -0.6109
 9741TIP3   OH229179   2.772   4.919   5.991 -0.3414 -0.3669 -0.3838
 9741TIP3    H129180   2.680   4.942   5.978  0.1690  1.2466 -1.3588
 9741TIP3    H229181   2.811   4.928   5.904  1.2753  1.5507  0.4670
 9742TIP3   OH229182   4.853   2.599   2.621 -0.3407  0.4291 -0.3613
 9742TIP3    H129183   4.880   2.638   2.704 -0.0682  1.0669 -0.7435
 9742TIP3    H229184   4.773   2.646   2.597 -1.2022 -0.6820  0.2003
 9743TIP3   OH229185   6.157   4.913   0.696  0.5179  0.4363 -0.2675
 9743TIP3    H129186   6.098   4.988   0.700 -1.0442 -0.7047 -0.9231
 9743TIP3    H229187   6.124   4.852   0.762  1.2067 -0.0614 -0.3638
 9744TIP3   OH229188   5.528   3.368   4.766 -0.4774  0.1498  0.0836
 9744TIP3    H129189   5.522   3.454   4.808 -1.8657  0.2862 -0.3551
 9744TIP3    H229190   5.563   3.310   4.834 -0.9126  0.7581  0.8365
 9745TIP3   OH229191   0.247   4.761   0.482 -0.5672 -0.3839  0.1397
 9745TIP3    H129192   0.194   4.839   0.494 -1.1198 -0.3335 -2.1250
 9745TIP3    H229193   0.318   4.788   0.423  0.4051 -1.1143  0.9409
 9746TIP3   OH229194   2.789   1.121   1.322 -0.6919 -0.0616 -0.3598
 9746TIP3    H129195   2.820   1.056   1.259 -1.3821 -0.8028  0.0447
 9746TIP3    H229196   2.699   1.139   1.296 -1.1143 -0.6714  0.6355
 9747TIP3   OH229197   2.944   3.563   3.077  0.3116  0.5151 -0.1121
 9747TIP3    H129198   2.929   3.590   2.987  0.7732 -1.3554 -0.7778
 9747TIP3    H229199   2.866   3.593   3.124  0.9812  3.3748 -0.6394
 9748TIP3   OH229200   7.467   1.918   2.408 -0.8512 -0.2686  0.1194
 9748TIP3    H129201   7.425   1.888   2.488  0.2357  0.7719  1.1254
 9748TIP3    H229202   7.432   2.006   2.394  0.3159  0.2774  0.5063
 9749TIP3   OH229203   6.760   3.194   0.105 -1.0373 -0.3299  0.0749
 9749TIP3    H129204   6.834   3.146   0.142  0.3550  0.2711 -1.7095
 9749TIP3    H229205   6.756   3.165   0.014 -1.3175  1.5467 -0.5617
 9750TIP3   OH229206   8.260   5.892   2.788  0.7839  0.2392  0.4259
 9750TIP3    H129207   8.324   5.961   2.805  2.1264 -0.3999 -1.6762
 9750TIP3    H229208   8.194   5.934   2.732  0.8030  0.2224  0.3905
 9751TIP3   OH229209   6.060   4.504   2.795 -0.2386 -0.0142 -0.6361
 9751TIP3    H129210   6.124   4.517   2.865 -2.5247 -1.1327  1.8564
 9751TIP3    H229211   6.078   4.416   2.762  1.2795  0.7680 -2.0543
 9752TIP3   OH229212   6.358   7.636   5.480  0.0169  0.3206  0.1474
 9752TIP3    H129213   6.276   7.668   5.441  0.4597  0.4930 -0.6567
 9752TIP3    H229214   6.424   7.651   5.412  0.4575 -1.1561  0.2192
 9753TIP3   OH229215   3.807   3.351   2.290 -0.1781  0.9168 -0.0895
 9753TIP3    H129216   3.735   3.293   2.267 -0.2818  0.9101  0.2488
 9753TIP3    H229217   3.884   3.309   2.251 -0.2006  0.3740  0.4268
 9754TIP3   OH229218   0.276   0.293   0.262  0.2506  1.0479 -1.0253
 9754TIP3    H129219   0.236   0.379   0.271  3.6844  3.2303 -3.8775
 9754TIP3    H229220   0.352   0.295   0.321 -0.2913 -0.6009 -0.1916
 9755TIP3   OH229221   0.572   4.530   2.971 -0.3165  0.7571 -0.5018
 9755TIP3    H129222   0.478   4.519   2.954 -0.4352 -0.4745  0.7673
 9755TIP3    H229223   0.609   4.550   2.885 -1.2418 -2.4124 -1.7768
 9756TIP3   OH229224   8.185   2.205   2.920 -0.0109 -0.3226  0.1155
 9756TIP3    H129225   8.092   2.197   2.940  0.3418  0.4422  2.4412
 9756TIP3    H229226   8.190   2.279   2.859 -1.0069 -1.1440 -0.9921
 9757TIP3   OH229227   3.543   4.443   1.119  0.6482  0.0093 -0.0150
 9757TIP3    H129228   3.604   4.516   1.112 -0.0153  0.5146 -0.7410
 9757TIP3    H229229   3.466   4.471   1.069 -0.1314 -0.6556  0.7733
 9758TIP3   OH229230   0.488   7.624   4.175  0.5618 -0.1964 -0.6624
 9758TIP3    H129231   0.573   7.581   4.176  0.9079  0.4824 -0.4267
 9758TIP3    H229232   0.448   7.602   4.259  1.2153  0.8643 -0.0533
 9759TIP3   OH229233   2.890   6.789   6.541 -0.2537 -0.4723  0.2630
 9759TIP3    H129234   2.972   6.744   6.520 -0.0943 -0.8297  1.5814
 9759TIP3    H229235   2.898   6.811   6.633 -1.1948  0.4706  0.1297
 9760TIP3   OH229236   5.714   2.217   4.329 -0.7162  0.9087  0.0467
 9760TIP3    H129237   5.773   2.250   4.261  1.1817 -1.0352  0.6081
 9760TIP3    H229238   5.691   2.293   4.381  1.9083  1.6990  0.1914
 9761TIP3   OH229239   1.231   2.825   3.221  0.5665  0.2471  0.4272
 9761TIP3    H129240   1.320   2.842   3.253  0.3114  0.8812  0.8174
 9761TIP3    H229241   1.198   2.756   3.278  0.7223  0.1799  0.4376
 9762TIP3   OH229242   3.954   2.878   3.549 -0.1314 -0.0346  0.0256
 9762TIP3    H129243   4.010   2.877   3.626 -1.5230  0.7954  1.0903
 9762TIP3    H229244   4.008   2.842   3.479  0.8285 -1.8000  1.6104
 9763TIP3   OH229245   0.822   7.250   1.346  0.0953  0.1197 -0.1083
 9763TIP3    H129246   0.875   7.226   1.422 -1.1724  0.5624  0.9534
 9763TIP3    H229247   0.785   7.167   1.316  1.3436 -0.1988 -0.8730
 9764TIP3   OH229248   3.209   6.155   5.258  0.2641 -0.1050 -0.2746
 9764TIP3    H129249   3.169   6.137   5.343 -0.1825 -1.0142 -0.6599
 9764TIP3    H229250   3.170   6.090   5.199  0.0977  0.9102 -1.3102
 9765TIP3   OH229251   4.195   3.989   4.390  0.3335  0.3712 -0.5347
 9765TIP3    H129252   4.159   4.014   4.304 -0.4358 -0.9723 -0.6424
 9765TIP3    H229253   4.286   3.967   4.372  0.6603  1.7758 -0.6704
 9766TIP3   OH229254   1.733   3.125   1.416  0.0712 -0.5771 -0.2027
 9766TIP3    H129255   1.671   3.191   1.384  3.2620  1.3515 -3.0630
 9766TIP3    H229256   1.722   3.051   1.356  1.0694  0.1779 -1.3920
 9767TIP3   OH229257   7.135   3.706   2.728 -0.2342  0.6145 -0.0377
 9767TIP3    H129258   7.152   3.643   2.799 -0.3781 -1.0176 -1.3940
 9767TIP3    H229259   7.059   3.671   2.682  1.0318  0.4962 -2.1979
 9768TIP3   OH229260   5.193   6.817   5.785 -0.7082 -0.3199  0.2616
 9768TIP3    H129261   5.191   6.806   5.880  0.8338 -2.8012  0.1060
 9768TIP3    H229262   5.184   6.728   5.751  1.9237  0.0790 -1.7790
 9769TIP3   OH229263   3.522   1.966   1.457  0.3443  0.5478 -0.1694
 9769TIP3    H129264   3.499   1.979   1.549  1.3544  2.3856 -0.1182
 9769TIP3    H229265   3.450   2.006   1.408  0.1041  0.1107 -0.1813
 9770TIP3   OH229266   8.233   5.374   6.221 -0.7862  0.0963 -0.2658
 9770TIP3    H129267   8.292   5.299   6.215 -1.6233 -0.7269  1.2665
 9770TIP3    H229268   8.232   5.398   6.313 -2.1024  0.7022 -0.4085
 9771TIP3   OH229269   6.696   6.059   1.520  0.5091 -0.2629  0.2873
 9771TIP3    H129270   6.607   6.078   1.489  0.7621 -0.2353 -0.4430
 9771TIP3    H229271   6.701   5.963   1.521  0.9728 -0.2821 -1.2062
 9772TIP3   OH229272   7.545   5.706   1.456  0.0446  0.8748  0.3177
 9772TIP3    H129273   7.591   5.752   1.527 -1.6474  1.2083  1.2468
 9772TIP3    H229274   7.603   5.633   1.434  0.7460  0.9131  1.8722
 9773TIP3   OH229275   1.384   2.294   0.794  0.3997 -0.0381 -0.2716
 9773TIP3    H129276   1.291   2.312   0.810  1.0525  1.3854  2.4710
 9773TIP3    H229277   1.388   2.200   0.780 -1.2984 -0.3372  0.9549
 9774TIP3   OH229278   3.252   3.677   2.843 -0.3076  0.2155 -0.4456
 9774TIP3    H129279   3.239   3.674   2.938  0.1636  0.6013 -0.3669
 9774TIP3    H229280   3.284   3.766   2.826 -1.6513  0.5889 -1.1349
 9775TIP3   OH229281   3.352   7.562   6.265 -0.2131  0.1582  0.2230
 9775TIP3    H129282   3.302   7.480   6.261  0.9683 -0.5627 -0.2732
 9775TIP3    H229283   3.427   7.541   6.320 -0.5151  1.2754  1.0902
 9776TIP3   OH229284   4.110   6.583   3.588 -0.2376  0.2923 -0.0938
 9776TIP3    H129285   4.203   6.603   3.578  0.0352 -0.7435  0.2755
 9776TIP3    H229286   4.066   6.665   3.564  0.7674  0.8654 -0.0710
 9777TIP3   OH229287   6.187   4.295   1.089 -0.1365 -0.1381 -0.0036
 9777TIP3    H129288   6.149   4.294   1.176  1.6165 -0.0833  0.8007
 9777TIP3    H229289   6.186   4.387   1.063  1.4597  0.1841  0.9664
 9778TIP3   OH229290   5.468   4.578   5.187  0.0930  0.0823  0.1019
 9778TIP3    H129291   5.452   4.523   5.263 -0.5931  0.5083  0.2717
 9778TIP3    H229292   5.384   4.618   5.168  0.3380  0.2450 -0.6778
 9779TIP3   OH229293   7.013   3.130   4.240  0.3548  0.1754 -0.0302
 9779TIP3    H129294   7.021   3.212   4.193  1.4158  0.5194  0.7021
 9779TIP3    H229295   7.036   3.152   4.331  1.9164 -1.1362 -0.0519
 9780TIP3   OH229296   1.289   5.719   0.943 -0.2817  0.0980 -0.2320
 9780TIP3    H129297   1.203   5.679   0.931  0.2901 -0.8155 -1.5165
 9780TIP3    H229298   1.275   5.811   0.921 -1.2648  0.3270  1.1934
 9781TIP3   OH229299   0.596   6.192   5.972  0.0574 -0.0218 -0.6509
 9781TIP3    H129300   0.665   6.236   6.022 -1.3213  0.0451  1.3085
 9781TIP3    H229301   0.602   6.230   5.884  1.3342  1.3215 -0.0230
 9782TIP3   OH229302   4.358   2.498   4.385  0.7407 -0.3155 -0.5243
 9782TIP3    H129303   4.356   2.408   4.416  0.8989 -0.8553 -2.0133
 9782TIP3    H229304   4.271   2.513   4.347  0.5763  0.3024  0.0716
 9783TIP3   OH229305   5.432   4.340   5.784  0.3540 -0.2512  0.6723
 9783TIP3    H129306   5.505   4.279   5.792  0.8873  0.3207  0.2262
 9783TIP3    H229307   5.463   4.408   5.725 -0.8854 -0.5170 -0.3253
 9784TIP3   OH229308   1.935   6.535   0.321  0.4119 -0.0259  0.8362
 9784TIP3    H129309   1.982   6.542   0.238  0.9364  0.5077  1.1796
 9784TIP3    H229310   1.930   6.624   0.354 -2.1585  0.2008  0.0963
 9785TIP3   OH229311   5.664   2.849   0.905  0.2381 -0.0026  0.3470
 9785TIP3    H129312   5.741   2.906   0.907 -0.2943  0.7771 -0.6752
 9785TIP3    H229313   5.641   2.837   0.997  0.6807  0.9955  0.6001
 9786TIP3   OH229314   3.587   0.518   6.707 -0.4059  0.1385  0.2340
 9786TIP3    H129315   3.550   0.475   6.784 -1.4597  1.1828  0.3448
 9786TIP3    H229316   3.567   0.460   6.634 -1.1062  0.0503  0.4899
 9787TIP3   OH229317   5.422   6.266   2.749 -0.0641  0.2237  0.1278
 9787TIP3    H129318   5.338   6.246   2.791 -1.1787  1.6127 -1.3061
 9787TIP3    H229319   5.488   6.244   2.815 -1.4533 -2.0723  0.8670
 9788TIP3   OH229320   1.220   7.617   5.939 -0.0614  0.0453  0.0612
 9788TIP3    H129321   1.222   7.598   6.033  3.7479  1.1864  0.3503
 9788TIP3    H229322   1.265   7.544   5.898  1.2114  1.0851 -0.4715
 9789TIP3   OH229323   3.303   3.151   2.853 -0.4611  0.2984  0.4192
 9789TIP3    H129324   3.315   3.119   2.942 -1.7493 -2.4679 -0.2801
 9789TIP3    H229325   3.388   3.136   2.811 -0.2937  0.1717  0.7976
 9790TIP3   OH229326   2.658   7.665   3.749 -0.1739  0.0541  0.6242
 9790TIP3    H129327   2.647   7.580   3.708 -2.0028 -0.2836  1.6904
 9790TIP3    H229328   2.752   7.669   3.770  0.3522 -0.7495 -1.3251
 9791TIP3   OH229329   2.387   5.919   1.587 -0.2494  0.2608 -0.5206
 9791TIP3    H129330   2.382   5.897   1.494  0.0438 -0.6155 -0.3402
 9791TIP3    H229331   2.452   5.858   1.622 -0.5563  0.4035  0.3085
 9792TIP3   OH229332   6.954   6.142   2.164  0.2857 -0.1566  0.2701
 9792TIP3    H129333   6.984   6.210   2.104 -1.3803  0.0726 -0.3545
 9792TIP3    H229334   7.006   6.155   2.243  1.8584  0.1230 -0.7749
 9793TIP3   OH229335   3.929   5.640   1.662  0.2664  0.3590  0.0838
 9793TIP3    H129336   4.023   5.656   1.655  0.2527  0.9773  1.1500
 9793TIP3    H229337   3.897   5.707   1.722 -0.9215  0.3729 -0.5363
 9794TIP3   OH229338   0.354   6.457   5.512  0.3025  0.7441 -0.2994
 9794TIP3    H129339   0.328   6.549   5.512 -1.2118  0.3603 -0.9772
 9794TIP3    H229340   0.393   6.443   5.425  1.1899  0.9075  0.0687
 9795TIP3   OH229341   7.502   6.341   1.518 -0.4249 -0.2379  0.0651
 9795TIP3    H129342   7.569   6.394   1.561 -0.7366  2.0308 -2.0427
 9795TIP3    H229343   7.432   6.334   1.584  0.4621  0.2947  1.0892
 9796TIP3   OH229344   2.908   3.846   4.998 -0.4660  0.1666  0.1790
 9796TIP3    H129345   2.868   3.922   4.956 -1.4884 -1.0948 -1.2386
 9796TIP3    H229346   2.834   3.794   5.030  0.1940 -0.4338  0.7656
 9797TIP3   OH229347   0.068   0.643   2.307  0.5280 -0.3833  0.0176
 9797TIP3    H129348  -0.019   0.663   2.273  0.9454  0.2458 -0.7316
 9797TIP3    H229349   0.070   0.548   2.315 -0.7095 -0.3164  1.4073
 9798TIP3   OH229350   2.045   2.132   4.063 -0.0966 -0.0578 -0.1653
 9798TIP3    H129351   2.100   2.060   4.034  1.4631  0.6922  0.7565
 9798TIP3    H229352   2.088   2.165   4.142 -0.1283  2.5295 -1.1052
 9799TIP3   OH229353   5.614   0.609   3.567 -0.7667  0.2854  0.3806
 9799TIP3    H129354   5.629   0.527   3.519 -0.8122 -0.1146  1.0369
 9799TIP3    H229355   5.699   0.631   3.604 -0.6771  0.7258 -0.0835
 9800TIP3   OH229356   2.606   6.343   3.011 -0.4330  0.2378  0.2011
 9800TIP3    H129357   2.603   6.371   3.102 -0.5609  3.3069 -0.6366
 9800TIP3    H229358   2.698   6.319   2.997  0.3044  2.6709  0.4383
 9801TIP3   OH229359   5.371   3.038   6.735  0.0716  0.1129  0.2648
 9801TIP3    H129360   5.366   3.000   6.823 -0.9866 -1.9685 -0.6353
 9801TIP3    H229361   5.464   3.032   6.713  0.2689  0.1810  1.0302
 9802TIP3   OH229362   5.666   3.984   3.548 -0.1444  0.4590  0.3224
 9802TIP3    H129363   5.693   3.897   3.519 -1.1373  0.2751 -0.0874
 9802TIP3    H229364   5.744   4.038   3.537  0.0713 -0.0586 -0.7681
 9803TIP3   OH229365   6.666   5.421   1.019  0.2502  0.6206  0.1416
 9803TIP3    H129366   6.718   5.340   1.013  0.4011  0.7879 -1.0374
 9803TIP3    H229367   6.707   5.470   1.090  0.5498 -0.0691  0.4528
 9804TIP3   OH229368   8.200   3.905   6.502 -0.1873  0.0178  0.7880
 9804TIP3    H129369   8.107   3.887   6.517 -0.6088  0.5272 -0.9772
 9804TIP3    H229370   8.202   3.958   6.422  1.4283  2.4761  2.3342
 9805TIP3   OH229371   0.560   0.943   6.250  0.3447  0.2767  0.2826
 9805TIP3    H129372   0.565   0.994   6.331  0.2086 -0.5102  0.7919
 9805TIP3    H229373   0.467   0.949   6.225  0.0618 -0.7152  1.0112
 9806TIP3   OH229374   6.858   0.770   2.240  0.3060 -0.3687 -0.4289
 9806TIP3    H129375   6.779   0.805   2.199  0.2045  0.2925  0.3191
 9806TIP3    H229376   6.929   0.823   2.205  0.3724 -0.6401 -0.7171
 9807TIP3   OH229377   6.756   3.571   0.556 -0.1320 -0.3503  0.4676
 9807TIP3    H129378   6.851   3.586   0.566 -0.2023 -0.5233  1.5423
 9807TIP3    H229379   6.744   3.552   0.463  0.9715 -0.8722  0.4163
 9808TIP3   OH229380   1.480   0.259   6.229 -0.0199  0.5101  0.4051
 9808TIP3    H129381   1.453   0.221   6.313 -2.2021  0.1467 -0.3988
 9808TIP3    H229382   1.437   0.345   6.226 -1.0119  0.0073 -0.8370
 9809TIP3   OH229383   1.144   4.478   6.733 -0.2906  0.4267  0.0470
 9809TIP3    H129384   1.085   4.518   6.669 -0.3416  2.4884  1.2968
 9809TIP3    H229385   1.095   4.479   6.815 -0.4631 -2.7181  0.1069
 9810TIP3   OH229386   0.717   0.280   0.605  0.1411  0.3063  0.2080
 9810TIP3    H129387   0.803   0.241   0.587  0.7194  0.5584  2.1650
 9810TIP3    H229388   0.729   0.373   0.585 -0.1798  0.0817 -1.0774
 9811TIP3   OH229389   3.463   4.827   5.767 -0.2936 -0.1434  0.7075
 9811TIP3    H129390   3.446   4.735   5.787  1.9020 -0.5467  0.9451
 9811TIP3    H229391   3.545   4.847   5.813  2.8558  0.0874 -4.3225
 9812TIP3   OH229392   3.517   0.929   6.435 -0.0823  0.2402 -0.3489
 9812TIP3    H129393   3.478   1.016   6.439 -1.0403 -0.0980 -1.7398
 9812TIP3    H229394   3.611   0.945   6.424 -0.0400  1.0727  1.0859
 9813TIP3   OH229395   5.636   2.464   4.414 -0.2870  0.2664  0.2989
 9813TIP3    H129396   5.694   2.538   4.393 -0.0773  0.1235  0.3648
 9813TIP3    H229397   5.555   2.483   4.367 -0.4893  0.8882  0.8637
 9814TIP3   OH229398   6.767   2.641   5.725 -0.0594 -0.3997  0.1117
 9814TIP3    H129399   6.809   2.567   5.680  0.3205  0.5255 -1.1050
 9814TIP3    H229400   6.675   2.634   5.700  0.1052 -0.0421 -0.6150
 9815TIP3   OH229401   1.371   4.037   2.474 -0.0737 -0.5903 -0.5951
 9815TIP3    H129402   1.374   4.132   2.459 -1.3432 -0.6258 -1.2218
 9815TIP3    H229403   1.378   3.999   2.386  0.8783 -1.1137 -0.3128
 9816TIP3   OH229404   4.339   4.593   0.195  0.2318  0.4787  0.3304
 9816TIP3    H129405   4.347   4.525   0.128  1.1510 -1.5891  2.4113
 9816TIP3    H229406   4.315   4.672   0.146 -1.4563 -1.4173 -2.1471
 9817TIP3   OH229407   1.894   4.037   4.352  0.0923 -0.9729  0.0225
 9817TIP3    H129408   1.894   4.119   4.303 -0.9081 -1.7183 -1.3129
 9817TIP3    H229409   1.859   3.973   4.290  0.2643 -2.2803  1.2336
 9818TIP3   OH229410   1.211   6.752   3.570  0.4515  1.1564 -0.4728
 9818TIP3    H129411   1.117   6.744   3.551  0.1759  1.8220  0.5140
 9818TIP3    H229412   1.253   6.690   3.510 -0.7252 -0.2131  0.0536
 9819TIP3   OH229413   7.660   6.984   2.014 -0.0746 -0.1572  0.0767
 9819TIP3    H129414   7.668   7.080   2.014  0.7905 -0.2176  0.1237
 9819TIP3    H229415   7.633   6.962   1.925 -3.1703  0.3107  0.7760
 9820TIP3   OH229416   2.326   1.248   2.314 -0.3926 -0.2202 -0.1473
 9820TIP3    H129417   2.348   1.257   2.407  1.7127 -3.3791 -0.2086
 9820TIP3    H229418   2.379   1.314   2.270 -0.2064  0.2372  0.7478
 9821TIP3   OH229419   2.658   2.213   1.681 -0.1551 -0.7893  0.0445
 9821TIP3    H129420   2.618   2.196   1.766 -0.2808 -0.1201  0.1287
 9821TIP3    H229421   2.589   2.256   1.630 -0.8783 -3.3027 -1.2386
 9822TIP3   OH229422   1.401   2.265   6.700  0.3296 -0.1905  0.0998
 9822TIP3    H129423   1.314   2.233   6.675  1.3455 -1.6091 -1.9685
 9822TIP3    H229424   1.434   2.199   6.762  0.3221 -0.2342  0.0581
 9823TIP3   OH229425   3.410   1.151   2.883  0.0523 -0.0515 -0.2435
 9823TIP3    H129426   3.369   1.116   2.962 -2.0798 -3.3054 -2.5579
 9823TIP3    H229427   3.501   1.122   2.889 -0.5707 -2.0755  0.1339
 9824TIP3   OH229428   7.672   6.910   3.523  0.0367  0.1398  0.0829
 9824TIP3    H129429   7.588   6.900   3.479  0.4155  0.3849 -0.7110
 9824TIP3    H229430   7.690   6.823   3.560 -0.4719  0.0393  0.1002
 9825TIP3   OH229431   0.732   2.122   1.695  0.0894  0.0361  0.1846
 9825TIP3    H129432   0.681   2.102   1.774 -1.0607 -1.0264 -0.7867
 9825TIP3    H229433   0.719   2.047   1.638  1.0137  0.7202 -0.9829
 9826TIP3   OH229434   7.965   3.517   1.609 -0.2472  0.2700  0.0649
 9826TIP3    H129435   7.932   3.449   1.668 -1.4133 -0.9427 -1.8689
 9826TIP3    H229436   7.907   3.591   1.623 -0.4146  0.0549  0.5461
 9827TIP3   OH229437   1.325   6.549   1.310  0.0572  0.3075 -0.2920
 9827TIP3    H129438   1.408   6.578   1.272 -0.2793  0.1989 -1.1393
 9827TIP3    H229439   1.350   6.504   1.391  0.8160  0.3837 -0.4772
 9828TIP3   OH229440   5.318   2.017   4.976 -0.0551  0.1726  0.3364
 9828TIP3    H129441   5.302   1.956   5.049 -0.5606 -0.3403 -0.1892
 9828TIP3    H229442   5.232   2.028   4.935 -0.2006  2.1116  1.0662
 9829TIP3   OH229443   7.277   1.319   0.644 -0.2618 -0.0324 -0.2003
 9829TIP3    H129444   7.264   1.355   0.556  0.1700 -0.0875 -0.2890
 9829TIP3    H229445   7.317   1.233   0.629  0.4192  0.2320  0.0668
 9830TIP3   OH229446   1.566   7.203   2.485 -0.3491 -0.1213  0.1490
 9830TIP3    H129447   1.642   7.229   2.537 -1.1695 -2.6478  2.9171
 9830TIP3    H229448   1.505   7.276   2.494  0.3579  0.3790  0.9877
 9831TIP3   OH229449   1.960   5.506   1.816 -0.0736 -0.0671 -0.7148
 9831TIP3    H129450   1.956   5.597   1.787 -1.1570  0.6135  1.3833
 9831TIP3    H229451   1.885   5.464   1.773  0.0978  0.1568 -1.2379
 9832TIP3   OH229452   2.584   3.116   3.280  0.4201  0.1452  0.8856
 9832TIP3    H129453   2.613   3.104   3.370  1.3114  0.2627  0.6281
 9832TIP3    H229454   2.642   3.061   3.228 -1.0014 -1.0414  0.4925
 9833TIP3   OH229455   2.101   1.070   6.350 -0.1571  0.2985  0.3564
 9833TIP3    H129456   2.021   1.058   6.299  0.1344  0.0447 -0.0471
 9833TIP3    H229457   2.070   1.078   6.441 -0.7587  1.7340  0.0633
 9834TIP3   OH229458   2.550   0.008   4.653 -0.0623  0.1520  0.1926
 9834TIP3    H129459   2.517   0.097   4.638 -0.5519 -0.3219 -1.6733
 9834TIP3    H229460   2.555   0.001   4.749 -0.6048  1.9614  0.3931
 9835TIP3   OH229461   1.482   3.014   2.576  0.6770 -0.1353 -0.1102
 9835TIP3    H129462   1.475   3.086   2.513  0.5156 -0.7383 -0.7932
 9835TIP3    H229463   1.573   2.985   2.569  0.3504 -1.0009 -0.9741
 9836TIP3   OH229464   6.307   5.670   2.014  0.3069  0.1154  0.4505
 9836TIP3    H129465   6.339   5.726   1.943 -0.9716  0.9585  0.5072
 9836TIP3    H229466   6.328   5.581   1.985  0.4089  0.4808 -0.6816
 9837TIP3   OH229467   1.970   6.424   4.204  0.2236 -0.5029 -0.0307
 9837TIP3    H129468   2.021   6.481   4.262 -2.4108  1.1658  0.7887
 9837TIP3    H229469   2.034   6.362   4.171  2.8779  1.6928  0.5872
 9838TIP3   OH229470   0.442   2.908   2.433 -0.1582  0.3820 -0.4173
 9838TIP3    H129471   0.473   2.907   2.524  0.1792  1.6937 -0.4944
 9838TIP3    H229472   0.347   2.919   2.440 -0.2965 -0.8106 -0.2199
 9839TIP3   OH229473   7.827   1.488   3.302 -0.1805 -0.0053 -0.4989
 9839TIP3    H129474   7.832   1.577   3.266  0.2160 -0.2044 -0.9439
 9839TIP3    H229475   7.903   1.443   3.265 -0.1349 -0.4038  0.0717
 9840TIP3   OH229476   8.015   2.671   3.471 -0.0713 -0.4890  0.3070
 9840TIP3    H129477   8.003   2.633   3.558  3.2244 -0.8842  0.7082
 9840TIP3    H229478   7.996   2.764   3.482  0.1805 -0.5574  1.4477
 9841TIP3   OH229479   2.919   3.117   2.707  0.3486 -0.0779  0.2249
 9841TIP3    H129480   2.977   3.185   2.741  1.0540 -1.2095  1.3824
 9841TIP3    H229481   2.901   3.143   2.617  1.2112  1.2311  0.4092
 9842TIP3   OH229482   3.475   5.683   3.935  0.3428  0.1342  0.6544
 9842TIP3    H129483   3.458   5.589   3.939 -0.0958  0.2087  0.5887
 9842TIP3    H229484   3.431   5.712   3.856  2.5932 -0.0213 -0.7294
 9843TIP3   OH229485   1.172   0.585   2.174 -0.5013  0.3769 -0.2927
 9843TIP3    H129486   1.156   0.679   2.169 -0.4008  0.4561  0.7697
 9843TIP3    H229487   1.261   0.574   2.139 -0.1610  0.7901  0.4333
 9844TIP3   OH229488   1.975   1.399   4.621 -0.0949 -0.1518 -0.2700
 9844TIP3    H129489   1.952   1.395   4.528  1.8595 -0.1450 -0.7930
 9844TIP3    H229490   2.070   1.411   4.622 -0.1594  0.5506  1.7368
 9845TIP3   OH229491   0.982   0.023   6.294  0.2176 -0.0562  0.1070
 9845TIP3    H129492   0.944   0.089   6.236 -0.1150  0.6793  1.1384
 9845TIP3    H229493   1.042  -0.026   6.238  0.3006  0.9695 -0.7347
 9846TIP3   OH229494   3.898   4.151   2.503 -0.2232 -0.3823  0.0698
 9846TIP3    H129495   3.805   4.170   2.493 -0.1524  1.1241  1.8694
 9846TIP3    H229496   3.901   4.062   2.538 -1.0436 -0.0839  0.9271
 9847TIP3   OH229497   6.854   7.215   0.533 -0.0050  0.0507  0.7975
 9847TIP3    H129498   6.916   7.188   0.466 -0.4370  0.1371  0.3534
 9847TIP3    H229499   6.840   7.137   0.586  1.2483  0.3053  1.5174
 9848TIP3   OH229500   8.236   4.717   4.028 -0.7715  0.1694  0.2345
 9848TIP3    H129501   8.323   4.722   3.987 -1.3545 -1.7428 -1.3904
 9848TIP3    H229502   8.224   4.802   4.069  0.5311  1.7003 -2.3020
 9849TIP3   OH229503   5.401   2.233   0.451  0.0960 -0.2378 -0.6263
 9849TIP3    H129504   5.479   2.195   0.492 -0.0424  0.6125  0.4927
 9849TIP3    H229505   5.381   2.175   0.378  1.4214 -0.8083 -0.5625
 9850TIP3   OH229506   2.344   6.425   3.953 -0.0817 -0.2013 -0.4100
 9850TIP3    H129507   2.379   6.477   3.880 -1.3528 -1.1861 -1.7870
 9850TIP3    H229508   2.421   6.396   4.001  0.7147  2.0569 -0.1895
 9851TIP3   OH229509   1.141   5.114   4.568  0.2370 -0.1250 -0.7440
 9851TIP3    H129510   1.151   5.086   4.658  2.3256  0.4468 -0.7521
 9851TIP3    H229511   1.194   5.194   4.561  1.4254 -0.9980 -2.8378
 9852TIP3   OH229512   6.419   1.303   2.273 -0.2184 -0.2378 -0.1706
 9852TIP3    H129513   6.387   1.267   2.355  0.6177 -1.1013 -0.2097
 9852TIP3    H229514   6.493   1.358   2.298 -0.0671 -0.3686 -0.3317
 9853TIP3   OH229515   3.268   3.458   2.209 -0.1568  0.4721 -0.0664
 9853TIP3    H129516   3.340   3.512   2.241  0.1054  0.8947 -1.3283
 9853TIP3    H229517   3.196   3.520   2.194 -0.0070  0.4108 -1.0764
 9854TIP3   OH229518   1.468   4.849   1.720 -0.2011  0.0442 -0.2763
 9854TIP3    H129519   1.413   4.923   1.694 -1.6444 -1.7473 -2.8541
 9854TIP3    H229520   1.438   4.826   1.808 -2.6344  0.0642 -1.0246
 9855TIP3   OH229521   3.623   1.002   3.242  0.0500  0.4111  0.1673
 9855TIP3    H129522   3.688   1.019   3.173  0.9270  1.5363  1.2190
 9855TIP3    H229523   3.625   1.081   3.297 -2.3786  0.5800  0.1362
 9856TIP3   OH229524   1.392   1.582   5.273 -0.1921 -0.2970 -0.3880
 9856TIP3    H129525   1.342   1.507   5.241 -0.0521 -0.5674  0.0110
 9856TIP3    H229526   1.462   1.594   5.208 -0.0593 -0.6793 -0.3167
 9857TIP3   OH229527   1.064   1.641   6.552 -0.2214 -0.0773 -0.1157
 9857TIP3    H129528   1.111   1.621   6.633  1.3437  0.4880 -0.8419
 9857TIP3    H229529   1.042   1.733   6.558 -0.1998 -0.0596 -0.2783
 9858TIP3   OH229530   5.051   7.760   4.232  0.4373  0.4539  0.1545
 9858TIP3    H129531   5.097   7.677   4.223  1.6044  1.1893 -1.1365
 9858TIP3    H229532   5.074   7.809   4.152  0.2394  2.2148  1.1218
 9859TIP3   OH229533   3.861   7.113   3.100 -0.3133  0.0494 -0.2110
 9859TIP3    H129534   3.766   7.114   3.091 -0.1459 -1.0385 -3.3486
 9859TIP3    H229535   3.893   7.166   3.028  1.4819 -0.5567  0.0856
 9860TIP3   OH229536   3.732   6.765   6.617  0.0698 -0.3139  0.7179
 9860TIP3    H129537   3.821   6.757   6.582  0.3086 -0.3424  1.3277
 9860TIP3    H229538   3.724   6.857   6.642 -0.3952 -0.0953 -0.1733
 9861TIP3   OH229539   4.818   5.071   1.550  0.0588 -0.5723  0.0858
 9861TIP3    H129540   4.832   5.152   1.600  1.2719 -0.8073  0.1796
 9861TIP3    H229541   4.788   5.101   1.464  1.9943  0.1218 -0.4171
 9862TIP3   OH229542   2.000   6.050   1.845  0.4824  0.5903 -0.2239
 9862TIP3    H129543   1.905   6.056   1.844  0.5116  1.1184 -0.0606
 9862TIP3    H229544   2.019   5.968   1.799 -0.1004 -0.1417  0.7860
 9863TIP3   OH229545   3.080   1.003   0.903 -0.5585 -0.2818 -0.1072
 9863TIP3    H129546   3.059   0.917   0.940 -1.0991 -0.4279 -0.7327
 9863TIP3    H229547   3.093   1.059   0.979 -1.4086 -0.6351  0.3140
 9864TIP3   OH229548   3.868   3.032   1.082 -0.2039  0.8669 -0.2156
 9864TIP3    H129549   3.923   3.101   1.046  1.2354 -1.0392 -1.8517
 9864TIP3    H229550   3.836   2.984   1.006 -2.3870  0.5768  0.8112
 9865TIP3   OH229551   5.652   0.945   6.674  0.2458 -1.2426  0.1147
 9865TIP3    H129552   5.734   0.906   6.646 -0.0431 -2.0445  0.3685
 9865TIP3    H229553   5.598   0.872   6.704  0.6223 -0.4682  3.0301
 9866TIP3   OH229554   5.434   6.069   4.137  0.1117  0.6853 -0.3687
 9866TIP3    H129555   5.397   6.049   4.223  0.3260 -3.3368 -1.0281
 9866TIP3    H229556   5.389   6.009   4.077  2.5123  0.8240 -2.4520
 9867TIP3   OH229557   1.956   4.342   1.136  0.3894  0.0729  0.0725
 9867TIP3    H129558   1.992   4.423   1.099 -2.3682  0.6302 -1.7079
 9867TIP3    H229559   1.870   4.334   1.096 -0.1315 -2.8919  1.5183
 9868TIP3   OH229560   3.196   0.173   1.525 -0.3220 -0.1093 -0.4337
 9868TIP3    H129561   3.212   0.259   1.563  1.4659 -0.0710 -1.1827
 9868TIP3    H229562   3.224   0.111   1.592  0.8550 -0.0579 -0.8539
 9869TIP3   OH229563   0.119   5.247   2.961  0.0651 -0.8058 -0.2171
 9869TIP3    H129564   0.037   5.199   2.974 -0.6711  0.8192  1.7731
 9869TIP3    H229565   0.181   5.181   2.930 -1.7778 -2.2581 -0.9939
 9870TIP3   OH229566   6.718   0.980   5.357  0.3530  0.1236  0.1512
 9870TIP3    H129567   6.636   0.986   5.407  0.6703  2.2204  0.5135
 9870TIP3    H229568   6.693   0.995   5.266 -0.0425 -2.3634 -0.2075
 9871TIP3   OH229569   1.144   5.601   3.261 -0.1782  0.0636  0.0449
 9871TIP3    H129570   1.129   5.685   3.220  1.2386  0.0778 -0.5122
 9871TIP3    H229571   1.148   5.621   3.355  0.9852  0.7896 -0.1306
 9872TIP3   OH229572   2.564   1.176   5.207  0.1562 -0.2244  0.1470
 9872TIP3    H129573   2.645   1.198   5.253  0.1498 -1.6216  0.8646
 9872TIP3    H229574   2.535   1.094   5.247 -0.4737 -0.8665 -1.5409
 9873TIP3   OH229575   1.991   1.564   5.634  0.4760 -0.1075  0.0026
 9873TIP3    H129576   2.042   1.523   5.564 -0.7074  1.1114 -1.6679
 9873TIP3    H229577   2.033   1.649   5.649 -0.1904  0.3141 -0.4070
 9874TIP3   OH229578   1.916   6.099   1.095  0.3205 -0.1129  0.5048
 9874TIP3    H129579   1.832   6.063   1.068  0.4524  0.3542 -0.5758
 9874TIP3    H229580   1.938   6.164   1.028  1.6710 -0.4128  0.6130
 9875TIP3   OH229581   3.451   2.057   1.731 -0.9728 -0.1396 -0.1285
 9875TIP3    H129582   3.386   1.995   1.765 -0.6744  0.3734  1.4599
 9875TIP3    H229583   3.490   2.095   1.810  1.7147 -0.8866 -1.0041
 9876TIP3   OH229584   1.648   4.554   0.843  0.1641  0.0731 -0.0727
 9876TIP3    H129585   1.668   4.497   0.918  0.5110 -0.8338 -0.8402
 9876TIP3    H229586   1.658   4.497   0.767  3.3659  1.7936 -1.1025
 9877TIP3   OH229587   3.727   2.230   6.716 -0.4960 -1.0422  0.4020
 9877TIP3    H129588   3.734   2.243   6.622  0.3869  1.3063  0.7282
 9877TIP3    H229589   3.634   2.243   6.735 -0.3922  0.3165  0.0610
 9878TIP3   OH229590   5.971   0.764   6.265 -0.2015  0.5612 -0.0102
 9878TIP3    H129591   5.893   0.709   6.260  1.4530 -1.9866  0.2161
 9878TIP3    H229592   5.990   0.787   6.174  0.1266 -0.8933 -0.3374
 9879TIP3   OH229593   3.774   6.538   0.874 -0.2481  0.5430  0.0465
 9879TIP3    H129594   3.866   6.521   0.854 -0.6134 -3.3121  0.8432
 9879TIP3    H229595   3.738   6.573   0.793  1.7828  1.6569 -0.4349
 9880TIP3   OH229596   1.268   2.760   4.217  0.2093  0.3855 -0.7710
 9880TIP3    H129597   1.200   2.814   4.178  0.1642 -0.0176 -1.2650
 9880TIP3    H229598   1.300   2.810   4.292  0.7184  1.4554 -1.6715
 9881TIP3   OH229599   7.894   6.028   3.031 -0.1870 -0.0445  0.5630
 9881TIP3    H129600   7.959   6.048   2.964  0.3114  0.7549  1.2616
 9881TIP3    H229601   7.934   6.058   3.113 -0.9963 -0.5226  1.1498
 9882TIP3   OH229602   4.732   1.852   2.263 -0.2915  0.3277 -0.1839
 9882TIP3    H129603   4.812   1.799   2.266  0.6736  1.7007 -0.6822
 9882TIP3    H229604   4.734   1.893   2.176  0.2464  3.0078  1.0089
 9883TIP3   OH229605   7.004   6.878   0.839 -0.1971 -0.1207  0.3229
 9883TIP3    H129606   7.030   6.950   0.782 -2.2669 -1.0226 -1.9838
 9883TIP3    H229607   6.917   6.902   0.870 -0.6784 -1.2985 -0.0270
 9884TIP3   OH229608   1.629   7.586   1.480  0.1634  0.1144 -0.1047
 9884TIP3    H129609   1.687   7.640   1.427  0.2387 -0.0841 -0.2244
 9884TIP3    H229610   1.664   7.593   1.569  0.0693  0.4037 -0.0882
 9885TIP3   OH229611   6.495   4.059   0.312 -0.0227 -0.2179 -0.1702
 9885TIP3    H129612   6.573   4.074   0.259 -0.2204  1.2290 -0.0982
 9885TIP3    H229613   6.528   4.054   0.402  0.0902 -0.6477 -0.2324
 9886TIP3   OH229614   4.731   1.564   3.866  0.3941  0.1560 -0.0432
 9886TIP3    H129615   4.728   1.470   3.851  0.5604  0.4129 -1.9058
 9886TIP3    H229616   4.782   1.575   3.946 -0.6185 -1.3740  0.8565
 9887TIP3   OH229617   1.575   4.786   2.529 -0.4941 -0.3275  0.0632
 9887TIP3    H129618   1.484   4.803   2.505 -0.5856 -0.0412  0.6142
 9887TIP3    H229619   1.627   4.838   2.467 -0.7370  0.5871  0.6086
 9888TIP3   OH229620   3.835   4.303   4.831  0.6374  0.2368  0.2548
 9888TIP3    H129621   3.847   4.350   4.914  2.3688  1.0735 -0.4178
 9888TIP3    H229622   3.888   4.224   4.841  0.0215 -0.1809  0.3036
 9889TIP3   OH229623   4.100   3.552   0.235 -0.3208 -0.1457  0.2006
 9889TIP3    H129624   4.120   3.608   0.160 -1.1427  4.0728  2.7916
 9889TIP3    H229625   4.005   3.538   0.230 -0.7611  1.9146  1.3363
 9890TIP3   OH229626   8.209   6.857   5.552  0.4787 -0.3716  0.2172
 9890TIP3    H129627   8.244   6.907   5.478  1.1207 -0.8769  0.1763
 9890TIP3    H229628   8.117   6.883   5.556  0.9810  1.4721  0.7337
 9891TIP3   OH229629   8.117   4.130   4.590  0.2302  0.1157 -0.0691
 9891TIP3    H129630   8.144   4.157   4.677  0.5941  0.6055 -0.3276
 9891TIP3    H229631   8.022   4.129   4.593  0.1536  2.3022 -0.2857
 9892TIP3   OH229632   3.562   3.901   5.796  0.3458 -0.1944  0.8505
 9892TIP3    H129633   3.542   3.976   5.741 -1.2042 -2.0957 -1.3831
 9892TIP3    H229634   3.657   3.901   5.804  0.6627  0.0855 -2.0526
 9893TIP3   OH229635   3.159   5.733   0.465  0.1890  0.1055  0.7594
 9893TIP3    H129636   3.166   5.644   0.497 -0.1111 -0.3820 -0.4744
 9893TIP3    H229637   3.161   5.787   0.544  0.5721 -0.9687  1.5076
 9894TIP3   OH229638   2.063   0.849   3.318 -0.0809  0.4274 -0.4347
 9894TIP3    H129639   2.029   0.885   3.400 -0.4604 -0.5016 -0.1604
 9894TIP3    H229640   1.993   0.866   3.254  0.1498  1.0173 -0.5314
 9895TIP3   OH229641   1.901   3.149   5.432 -0.0822 -0.7115  0.5886
 9895TIP3    H129642   1.831   3.165   5.369  0.6411 -0.3653 -0.1416
 9895TIP3    H229643   1.980   3.184   5.391  0.5121 -0.9951  1.4415
 9896TIP3   OH229644   1.922   3.653   6.521  0.3305 -0.4993  0.2131
 9896TIP3    H129645   1.969   3.706   6.585 -0.5763  1.8210 -0.9152
 9896TIP3    H229646   1.983   3.642   6.448 -0.1743  0.9726 -0.4833
 9897TIP3   OH229647   4.796   6.988   5.660  0.3282 -0.5555 -0.2568
 9897TIP3    H129648   4.745   6.919   5.703  1.1517 -1.3560 -0.5367
 9897TIP3    H229649   4.823   7.046   5.732 -1.1041 -0.0035 -0.1242
 9898TIP3   OH229650   3.506   1.442   0.704  1.1547  0.3502 -0.2588
 9898TIP3    H129651   3.485   1.527   0.741 -1.2032 -0.8472  1.4142
 9898TIP3    H229652   3.575   1.408   0.760 -0.0623 -0.0612  1.0494
 9899TIP3   OH229653   0.627   3.051   0.913 -0.4705  0.6471 -0.2085
 9899TIP3    H129654   0.682   2.996   0.858 -1.5699  0.9128 -1.6482
 9899TIP3    H229655   0.538   3.030   0.886 -0.9906  1.7540  0.5476
 9900TIP3   OH229656   0.417   1.883   0.609  0.1886 -0.4326  0.3236
 9900TIP3    H129657   0.362   1.831   0.550 -0.6275  1.0865 -0.3394
 9900TIP3    H229658   0.451   1.821   0.673  1.8689 -2.3713 -2.2435
 9901TIP3   OH229659   6.681   4.280   1.818  0.1622  0.2242 -0.0788
 9901TIP3    H129660   6.622   4.256   1.889 -2.2941  0.2229 -1.9721
 9901TIP3    H229661   6.704   4.197   1.777  1.9150  0.1870  0.8945
 9902TIP3   OH229662   6.619   4.044   4.231  0.0552 -0.0918  0.8234
 9902TIP3    H129663   6.674   3.981   4.278 -1.1478 -0.5680  1.6578
 9902TIP3    H229664   6.662   4.056   4.147  0.8975 -1.1925  1.0724
 9903TIP3   OH229665   7.876   1.887   4.210 -0.5578  0.1279  0.2587
 9903TIP3    H129666   7.928   1.962   4.180 -0.8213  0.4751  0.6499
 9903TIP3    H229667   7.787   1.906   4.179 -0.7249  0.2311  0.7872
 9904TIP3   OH229668   7.078   4.148   4.719  0.1010  0.2354  0.3652
 9904TIP3    H129669   6.987   4.123   4.709  0.4411 -0.7351 -0.5650
 9904TIP3    H229670   7.107   4.104   4.798  0.1869 -0.8360 -0.2421
 9905TIP3   OH229671   1.992   7.556   2.874  0.0190  0.6240 -0.2475
 9905TIP3    H129672   2.084   7.531   2.870  0.7504  2.9606  0.4550
 9905TIP3    H229673   1.964   7.533   2.963 -0.8511 -2.2147 -1.1191
 9906TIP3   OH229674   3.703   4.554   1.779 -0.7315  0.1074 -0.2436
 9906TIP3    H129675   3.729   4.644   1.758 -0.7263  0.0662 -0.4147
 9906TIP3    H229676   3.774   4.500   1.744  0.6627  0.1813  2.2340
 9907TIP3   OH229677   5.656   0.738   2.978 -0.1654 -0.5197  0.5449
 9907TIP3    H129678   5.670   0.823   3.021 -2.6403  0.4353 -0.3507
 9907TIP3    H229679   5.563   0.720   2.989  0.4541 -3.7195  1.6363
 9908TIP3   OH229680   1.913   6.850   3.381 -0.3712  0.4387 -0.0524
 9908TIP3    H129681   2.006   6.873   3.387 -0.5387  0.9176  0.9774
 9908TIP3    H229682   1.901   6.823   3.290  1.2776 -1.8670  0.3228
 9909TIP3   OH229683   7.563   5.187   3.589  0.3039 -0.6215 -0.0723
 9909TIP3    H129684   7.645   5.227   3.560 -0.4943  0.1340 -1.4008
 9909TIP3    H229685   7.511   5.179   3.509 -1.0143 -0.8717  0.7758
 9910TIP3   OH229686   8.279   3.306   5.767  0.7949 -0.5563  0.3010
 9910TIP3    H129687   8.193   3.320   5.726  1.3491  1.4581 -0.2994
 9910TIP3    H229688   8.295   3.212   5.757 -0.9484 -0.8343 -0.3415
 9911TIP3   OH229689   2.074   1.152   2.310 -0.0798  0.2460 -0.1222
 9911TIP3    H129690   2.162   1.188   2.321 -0.3055  1.2439 -1.3193
 9911TIP3    H229691   2.086   1.057   2.311  0.9078  0.3590  0.4015
 9912TIP3   OH229692   0.814   2.774   3.203 -0.2271  0.1382 -0.4483
 9912TIP3    H129693   0.797   2.847   3.262 -2.8397 -2.0488  1.7998
 9912TIP3    H229694   0.738   2.770   3.146  0.7411  0.2090 -1.8050
 9913TIP3   OH229695   3.132   0.738   0.095  0.5342 -0.2770  0.5504
 9913TIP3    H129696   3.140   0.702   0.007  0.6097 -1.2904  0.9664
 9913TIP3    H229697   3.066   0.807   0.087 -0.0797 -0.9288 -0.1272
 9914TIP3   OH229698   6.774   4.547   1.430 -0.3501 -0.0094  0.4022
 9914TIP3    H129699   6.839   4.536   1.499  0.4924  0.1727 -0.3449
 9914TIP3    H229700   6.809   4.617   1.374 -0.1590 -1.2814 -1.1465
 9915TIP3   OH229701   3.902   5.978   6.727  0.4743  0.4317  0.2748
 9915TIP3    H129702   3.903   5.983   6.823 -0.7630  1.5739  0.2576
 9915TIP3    H229703   3.934   6.063   6.698  0.8456  0.0938 -0.3306
 9916TIP3   OH229704   3.187   4.320   6.553 -0.3747 -0.2956  0.1505
 9916TIP3    H129705   3.125   4.341   6.623 -0.8213  0.4278 -0.4424
 9916TIP3    H229706   3.133   4.313   6.475  0.2917  0.4268 -0.3919
 9917TIP3   OH229707   1.505   0.430   0.748 -0.2853 -0.2703  0.3848
 9917TIP3    H129708   1.551   0.399   0.670  0.3657 -1.2595  1.1361
 9917TIP3    H229709   1.456   0.507   0.718  1.6567  0.6860 -0.4989
 9918TIP3   OH229710   2.447   6.454   1.497  0.0793 -0.8590 -0.0248
 9918TIP3    H129711   2.529   6.450   1.448  0.8625 -0.7205  1.2001
 9918TIP3    H229712   2.388   6.395   1.451  0.5376 -0.2009 -1.5068
 9919TIP3   OH229713   0.903   0.079   6.585  0.2305 -0.5543 -0.0873
 9919TIP3    H129714   0.937   0.020   6.518  0.4603 -0.3877 -0.1183
 9919TIP3    H229715   0.825   0.118   6.545  1.0683  0.5023 -0.7586
 9920TIP3   OH229716   0.721   1.226   1.836  1.0410  0.0110  0.4691
 9920TIP3    H129717   0.719   1.180   1.920 -0.8047  0.8950  0.9702
 9920TIP3    H229718   0.644   1.283   1.838  0.3926 -0.6241 -2.2304
 9921TIP3   OH229719   1.357   0.685   0.673  0.0146 -0.0684 -0.3285
 9921TIP3    H129720   1.284   0.747   0.677  0.8231  0.9839 -1.0915
 9921TIP3    H229721   1.428   0.735   0.632  0.6558 -1.5513 -1.1023
 9922TIP3   OH229722   3.265   7.405   1.440  0.1213 -0.7576 -0.0742
 9922TIP3    H129723   3.194   7.468   1.428 -0.8660 -1.7564  0.3465
 9922TIP3    H229724   3.326   7.449   1.499  0.2185  0.3772 -0.9648
 9923TIP3   OH229725   5.369   5.458   4.288 -0.8822 -0.0547 -0.2447
 9923TIP3    H129726   5.384   5.491   4.199 -0.6140 -0.8123 -0.4917
 9923TIP3    H229727   5.340   5.368   4.275  3.0521 -1.6684  0.4825
 9924TIP3   OH229728   4.197   5.237   2.028 -1.2024  0.2465 -0.1283
 9924TIP3    H129729   4.286   5.241   2.062 -2.0197  2.0302  1.9750
 9924TIP3    H229730   4.163   5.153   2.060 -0.3658 -0.4041 -0.8710
 9925TIP3   OH229731   6.478   3.149   6.394  0.2244 -0.0624  0.0496
 9925TIP3    H129732   6.454   3.072   6.445  1.7034 -0.7801 -0.3028
 9925TIP3    H229733   6.483   3.118   6.304  1.3211  0.3252 -0.0330
 9926TIP3   OH229734   5.939   7.453   2.361 -0.3244 -0.6972 -0.1445
 9926TIP3    H129735   5.936   7.362   2.332 -0.6684 -0.1213 -2.1219
 9926TIP3    H229736   5.851   7.487   2.340  0.0416  0.2713 -0.1656
 9927TIP3   OH229737   4.083   1.340   1.451  0.0891  0.2383 -0.1965
 9927TIP3    H129738   4.009   1.382   1.408  1.7312  1.2741 -2.2495
 9927TIP3    H229739   4.133   1.413   1.488  0.7420 -0.3035  0.0055
 9928TIP3   OH229740   2.451   0.946   5.326  0.3889  0.1226  0.0193
 9928TIP3    H129741   2.356   0.954   5.317  0.5457  2.2481 -0.3025
 9928TIP3    H229742   2.467   0.957   5.419  0.2950 -1.0687  0.1970
 9929TIP3   OH229743   5.753   6.028   6.407  0.1030  0.3800  0.2230
 9929TIP3    H129744   5.698   6.022   6.328  2.9644  0.8373 -1.9726
 9929TIP3    H229745   5.821   6.091   6.383  1.9466 -0.5920  2.5567
 9930TIP3   OH229746   3.443   3.038   0.353  0.2434  0.2925 -0.3607
 9930TIP3    H129747   3.406   2.951   0.337 -0.3059  0.6059 -0.8190
 9930TIP3    H229748   3.368   3.092   0.377  0.7234  0.3918  1.0574
 9931TIP3   OH229749   2.447   4.820   4.149 -0.2521  0.6506  0.0227
 9931TIP3    H129750   2.390   4.820   4.225  1.8103  0.3779  1.6568
 9931TIP3    H229751   2.466   4.727   4.133 -0.8850  0.6808 -1.0413
 9932TIP3   OH229752   6.105   6.190   3.322 -0.0854  0.4048 -0.0628
 9932TIP3    H129753   6.160   6.154   3.252 -0.3466 -0.0558 -0.0394
 9932TIP3    H229754   6.118   6.130   3.395  1.2881  1.6679  0.7754
 9933TIP3   OH229755   3.047   7.058   5.227  0.5309  0.1487  0.0206
 9933TIP3    H129756   3.139   7.033   5.237  0.3861 -0.6665 -0.6015
 9933TIP3    H229757   3.030   7.117   5.300  1.9089  1.3775 -0.6197
 9934TIP3   OH229758   3.001   1.979   5.578 -0.1990 -0.2778  0.1238
 9934TIP3    H129759   2.921   1.928   5.575 -0.4616  0.1542 -1.2987
 9934TIP3    H229760   2.975   2.064   5.615 -1.0047  0.7490 -2.5391
 9935TIP3   OH229761   0.195   6.696   3.432 -0.1446 -0.0416  0.5146
 9935TIP3    H129762   0.123   6.673   3.373  0.3924  0.3637 -0.3217
 9935TIP3    H229763   0.157   6.761   3.491 -0.8116 -0.7793  0.9107
 9936TIP3   OH229764   4.358   4.242   5.935 -0.1530 -0.5833  0.2432
 9936TIP3    H129765   4.413   4.270   5.862  0.3795  0.8349  1.1538
 9936TIP3    H229766   4.374   4.307   6.003 -2.2739 -0.6347  0.8603
 9937TIP3   OH229767   7.226   4.265   3.755 -0.4309  0.3304 -0.0902
 9937TIP3    H129768   7.299   4.211   3.724 -1.4258 -0.5261 -1.0565
 9937TIP3    H229769   7.195   4.310   3.676 -1.2109  0.3426  0.2181
 9938TIP3   OH229770   2.919   5.428   0.466  0.0080 -0.2904 -0.1044
 9938TIP3    H129771   2.877   5.510   0.491  2.9244  1.3185 -0.0507
 9938TIP3    H229772   2.937   5.437   0.372 -2.1663 -2.1568 -0.7811
 9939TIP3   OH229773   3.489   2.047   4.351 -0.2268 -0.0518  0.1915
 9939TIP3    H129774   3.405   2.093   4.348 -0.2765 -0.0486  1.2312
 9939TIP3    H229775   3.553   2.115   4.374  0.1000 -0.0162 -0.7868
 9940TIP3   OH229776   2.089   5.065   0.620  0.3842 -0.3817 -0.5136
 9940TIP3    H129777   2.148   5.137   0.644  0.0718  0.4463 -2.1279
 9940TIP3    H229778   2.086   5.068   0.524 -1.1090 -1.3598 -0.5126
 9941TIP3   OH229779   5.316   4.641   6.532 -0.3542 -0.1474  0.0425
 9941TIP3    H129780   5.267   4.571   6.575 -0.8225  0.7624  1.0375
 9941TIP3    H229781   5.405   4.607   6.525 -0.8026 -1.2511 -0.4626
 9942TIP3   OH229782   5.984   5.927   2.867 -0.0021 -0.4317 -0.0166
 9942TIP3    H129783   6.076   5.931   2.895  0.1157 -0.9344 -0.3099
 9942TIP3    H229784   5.934   5.922   2.948  0.2226 -0.0683  0.1481
 9943TIP3   OH229785   1.785   4.305   3.766  0.2806  0.1805  0.5439
 9943TIP3    H129786   1.845   4.380   3.776  2.1715 -1.4362  2.2519
 9943TIP3    H229787   1.833   4.244   3.710 -1.1302  0.0621 -0.5913
 9944TIP3   OH229788   5.910   0.214   1.774 -0.2501  0.0182 -0.3406
 9944TIP3    H129789   5.965   0.206   1.696  0.6678 -0.8397  0.3732
 9944TIP3    H229790   5.931   0.137   1.826 -1.1055  0.4048  0.6079
 9945TIP3   OH229791   6.735   7.156   4.360  0.1789 -0.0914 -0.1523
 9945TIP3    H129792   6.694   7.070   4.351  1.0590 -0.6495  0.8783
 9945TIP3    H229793   6.800   7.158   4.290  0.2300 -0.3064 -0.1121
 9946TIP3   OH229794   0.575   4.071   6.159  0.3485 -0.2364  0.6937
 9946TIP3    H129795   0.664   4.082   6.193  0.9551 -1.3154 -0.4529
 9946TIP3    H229796   0.568   4.134   6.087  1.1952 -1.9421 -0.9867
 9947TIP3   OH229797   3.225   5.631   6.133  0.2705  0.9864 -0.0547
 9947TIP3    H129798   3.207   5.545   6.094 -1.8782  1.0930  0.5789
 9947TIP3    H229799   3.247   5.687   6.058  1.1597  0.0347 -0.5301
 9948TIP3   OH229800   0.250   3.262   1.798 -0.2630 -0.3414 -0.2169
 9948TIP3    H129801   0.335   3.222   1.818  0.1263  0.8059  0.5495
 9948TIP3    H229802   0.210   3.203   1.734  1.3250 -0.6509 -0.9879
 9949TIP3   OH229803   2.049   6.972   5.059 -0.0749 -0.2234 -0.3762
 9949TIP3    H129804   2.065   6.909   4.988 -0.6229 -0.3572 -0.3847
 9949TIP3    H229805   2.136   6.994   5.092  0.2513  0.5576 -1.7085
 9950TIP3   OH229806   6.170   7.111   6.453 -0.4801 -0.4381  0.2647
 9950TIP3    H129807   6.244   7.139   6.400 -1.3814  0.7402 -0.4242
 9950TIP3    H229808   6.181   7.158   6.536 -1.9414  2.1593 -0.8557
 9951TIP3   OH229809   6.680   5.855   1.888  0.1864 -0.5897 -0.1027
 9951TIP3    H129810   6.758   5.857   1.834  0.9304 -1.7815  0.8763
 9951TIP3    H229811   6.672   5.764   1.916 -0.3253 -0.0731  1.5617
 9952TIP3   OH229812   6.590   6.304   6.086 -0.1431  0.4557  0.8104
 9952TIP3    H129813   6.618   6.313   6.177  2.5186  1.5584 -0.0098
 9952TIP3    H229814   6.656   6.352   6.036 -2.4230  1.3179 -1.6011
 9953TIP3   OH229815   2.932   1.367   5.333 -0.2657  0.0485 -0.3415
 9953TIP3    H129816   3.006   1.331   5.382 -1.3849 -0.2123  1.2621
 9953TIP3    H229817   2.928   1.314   5.253 -0.3449 -1.8002  0.8147
 9954TIP3   OH229818   6.035   1.994   1.891  0.2127 -0.3069 -0.4944
 9954TIP3    H129819   6.062   2.081   1.861 -0.2278 -0.6586 -1.9963
 9954TIP3    H229820   6.040   1.999   1.986  0.2248  1.3532 -0.5530
 9955TIP3   OH229821   8.234   5.196   2.690 -0.3234 -0.6615  0.1537
 9955TIP3    H129822   8.160   5.239   2.732 -0.9060  0.1240 -1.5864
 9955TIP3    H229823   8.199   5.112   2.660 -0.1296 -0.8799  0.5359
 9956TIP3   OH229824   8.151   1.814   1.784  0.0478  0.0080 -0.0394
 9956TIP3    H129825   8.147   1.894   1.732  0.4485 -0.5766 -1.0029
 9956TIP3    H229826   8.232   1.771   1.755 -1.2947 -1.8559 -1.2392
 9957TIP3   OH229827   2.484   5.485   2.996 -0.6758  0.2236  0.4747
 9957TIP3    H129828   2.407   5.529   2.961 -2.0445 -0.1084  2.8493
 9957TIP3    H229829   2.527   5.551   3.050  0.3319  0.1916 -0.2644
 9958TIP3   OH229830   5.872   4.808   3.214 -0.1917 -0.3525 -0.0068
 9958TIP3    H129831   5.919   4.836   3.136  0.1573 -2.0777 -0.4517
 9958TIP3    H229832   5.918   4.730   3.243 -1.1711 -0.5420  1.1197
 9959TIP3   OH229833   1.903   4.532   2.682 -0.3805  0.0443  0.7998
 9959TIP3    H129834   1.953   4.599   2.729  5.2715 -1.6202 -1.9611
 9959TIP3    H229835   1.941   4.449   2.712 -1.4033 -1.4020 -1.6345
 9960TIP3   OH229836   5.835   1.869   5.880 -0.4420 -0.5882  0.5099
 9960TIP3    H129837   5.873   1.857   5.793  0.3860 -3.6581  1.1854
 9960TIP3    H229838   5.905   1.907   5.932 -0.7987  0.8289  0.0226
 9961TIP3   OH229839   7.193   4.341   1.139 -0.4053 -0.1655 -0.0727
 9961TIP3    H129840   7.122   4.340   1.202  0.6567  0.0985  1.1587
 9961TIP3    H229841   7.198   4.432   1.110  0.2923  0.1018  0.8575
 9962TIP3   OH229842   5.695   1.571   2.574  0.4169 -0.4875 -0.0978
 9962TIP3    H129843   5.747   1.523   2.638  0.9019  0.3302  0.1413
 9962TIP3    H229844   5.720   1.534   2.489  0.0409 -1.3288  0.1534
 9963TIP3   OH229845   7.139   7.610   3.818  0.2117 -0.2705 -0.3292
 9963TIP3    H129846   7.158   7.518   3.803  0.2918 -0.2778 -0.1829
 9963TIP3    H229847   7.175   7.628   3.905  0.1430 -0.1173 -0.3323
 9964TIP3   OH229848   7.295   4.306   6.659 -0.0242  0.2599 -0.5058
 9964TIP3    H129849   7.348   4.337   6.586  0.0521 -2.2791 -1.6263
 9964TIP3    H229850   7.315   4.213   6.665 -1.5020  0.0145  1.5221
 9965TIP3   OH229851   1.864   4.824   6.600 -0.0226 -0.4260  0.3602
 9965TIP3    H129852   1.937   4.866   6.554 -0.4299 -0.8429 -0.7074
 9965TIP3    H229853   1.872   4.731   6.578 -0.5135 -0.5586  0.7379
 9966TIP3   OH229854   5.038   7.284   2.654 -0.3721 -0.2748  0.2816
 9966TIP3    H129855   5.065   7.373   2.632 -0.5016 -0.2304  0.3051
 9966TIP3    H229856   5.069   7.271   2.744 -1.3042  0.1290  0.6682
 9967TIP3   OH229857   1.949   4.392   1.687 -0.2129  0.0098  0.2746
 9967TIP3    H129858   1.930   4.299   1.689 -0.9819  0.1597  1.1422
 9967TIP3    H229859   1.975   4.410   1.597  2.8036 -1.5516  0.7241
 9968TIP3   OH229860   5.387   1.529   6.138  0.0228  0.2442 -0.2531
 9968TIP3    H129861   5.404   1.618   6.108 -0.2764  0.4903  0.3031
 9968TIP3    H229862   5.473   1.489   6.146  0.1523  0.4493 -0.6028
 9969TIP3   OH229863   3.259   1.626   5.973 -1.0520  0.1621  0.0189
 9969TIP3    H129864   3.275   1.717   5.948  1.2305  0.0268  0.8221
 9969TIP3    H229865   3.169   1.609   5.945 -1.3093  2.4620 -0.7058
 9970TIP3   OH229866   1.219   6.455   5.861 -0.5734 -0.3068  0.5561
 9970TIP3    H129867   1.291   6.464   5.923 -0.6866 -0.5095  0.7161
 9970TIP3    H229868   1.230   6.367   5.825  0.1219  0.1828 -0.4971
 9971TIP3   OH229869   2.244   0.326   2.595  0.3055  0.5754 -0.4253
 9971TIP3    H129870   2.301   0.332   2.519  1.0257  1.5797  0.1741
 9971TIP3    H229871   2.289   0.375   2.663 -0.5786  0.1403  0.5003
 9972TIP3   OH229872   0.405   4.910   4.574  0.1887  0.0560 -0.1177
 9972TIP3    H129873   0.329   4.949   4.531 -0.1246 -1.3996 -0.9414
 9972TIP3    H229874   0.381   4.908   4.667 -0.3422  0.5423 -0.2331
 9973TIP3   OH229875   8.061   3.084   5.873  0.2643  0.0536 -0.2187
 9973TIP3    H129876   8.137   3.062   5.819  0.2384  0.4367 -0.4196
 9973TIP3    H229877   7.990   3.031   5.838  0.1511  0.5965 -0.8294
 9974TIP3   OH229878   1.426   3.455   6.180  0.0768  0.5784 -0.2420
 9974TIP3    H129879   1.476   3.450   6.262 -1.0120  0.8867  0.4595
 9974TIP3    H229880   1.431   3.546   6.154 -3.1176  1.5307  1.8351
 9975TIP3   OH229881   2.284   2.199   1.457  0.0961 -0.2359  0.6183
 9975TIP3    H129882   2.374   2.231   1.450 -0.2994  0.6222 -0.9256
 9975TIP3    H229883   2.236   2.247   1.390 -1.0776 -2.2036 -0.0300
 9976TIP3   OH229884   0.899   1.933   4.859  0.4365  0.1759 -0.6014
 9976TIP3    H129885   0.888   1.845   4.893  0.9113  0.7621  1.1834
 9976TIP3    H229886   0.810   1.967   4.849  0.2242 -0.7297 -2.0172
 9977TIP3   OH229887   7.527   5.719   4.112  0.2307  0.2577  0.3312
 9977TIP3    H129888   7.530   5.707   4.017 -0.2799 -1.0623  0.4550
 9977TIP3    H229889   7.541   5.813   4.125  1.3569  0.3110 -0.9862
 9978TIP3   OH229890   1.512   5.541   3.434  0.4014 -0.1987  0.0395
 9978TIP3    H129891   1.590   5.486   3.438  0.3389 -0.2584  0.4240
 9978TIP3    H229892   1.535   5.619   3.484  0.6722  0.3534 -0.9302
 9979TIP3   OH229893   5.636   3.721   1.167 -0.3083 -0.3071  0.2024
 9979TIP3    H129894   5.619   3.659   1.238 -1.0154  0.3930  0.6619
 9979TIP3    H229895   5.549   3.753   1.143  0.0824  0.7840  0.2197
 9980TIP3   OH229896   5.789   0.912   6.018  0.3027  0.2249  0.8597
 9980TIP3    H129897   5.884   0.912   6.002 -0.1092 -1.9352 -2.5713
 9980TIP3    H229898   5.754   0.977   5.957 -0.6018 -0.9956  0.0294
 9981TIP3   OH229899   0.764   6.930   5.661  0.1237 -0.7631  0.6632
 9981TIP3    H129900   0.686   6.936   5.606  0.3733  2.4578  0.4772
 9981TIP3    H229901   0.837   6.930   5.599  0.3403 -1.2137  0.9125
 9982TIP3   OH229902   6.034   2.599   1.033 -0.4531 -0.5019  0.2155
 9982TIP3    H129903   5.981   2.580   0.955 -0.9569 -1.1912  0.7220
 9982TIP3    H229904   5.979   2.658   1.085 -0.7665 -1.2820  0.7804
 9983TIP3   OH229905   4.902   6.881   4.884 -0.1613 -0.1796 -0.2081
 9983TIP3    H129906   4.928   6.790   4.876 -1.4660 -0.5929 -0.0754
 9983TIP3    H229907   4.984   6.930   4.886  0.5791 -1.3898  0.2588
 9984TIP3   OH229908   5.146   0.492   3.681 -0.1970  0.2677 -0.2305
 9984TIP3    H129909   5.183   0.567   3.727 -2.2318  1.2938 -0.1354
 9984TIP3    H229910   5.118   0.433   3.750 -0.2708  0.2912 -0.2396
 9985TIP3   OH229911   7.441   3.340   4.526 -0.5723  0.1879 -0.0436
 9985TIP3    H129912   7.454   3.432   4.548  0.5012  0.2231 -0.7824
 9985TIP3    H229913   7.466   3.293   4.605 -0.6394  0.5048  0.1703
 9986TIP3   OH229914   1.250   7.408   0.287  0.3495 -0.1164  0.7429
 9986TIP3    H129915   1.258   7.392   0.381  1.3781 -1.1705  0.4917
 9986TIP3    H229916   1.269   7.324   0.246 -1.4815 -0.0283 -0.3795
 9987TIP3   OH229917   0.212   5.004   3.306  0.5178  0.3035 -0.8007
 9987TIP3    H129918   0.279   4.976   3.369 -0.7673 -0.4433  0.2849
 9987TIP3    H229919   0.225   4.946   3.230  0.8097 -0.1403 -0.4192
 9988TIP3   OH229920   3.767   1.633   4.348  0.1987  0.0583 -0.6170
 9988TIP3    H129921   3.691   1.599   4.301 -1.0703  2.7799 -0.7549
 9988TIP3    H229922   3.741   1.722   4.373  2.1673 -0.0319  2.1499
 9989TIP3   OH229923   7.981   0.900   6.462  0.1262 -0.0075  0.3446
 9989TIP3    H129924   7.940   0.987   6.456  0.7387  0.2909  0.3827
 9989TIP3    H229925   8.070   0.914   6.430 -0.5449 -1.1980 -2.2531
 9990TIP3   OH229926   6.758   3.867   0.092  0.2794  0.0356  0.6013
 9990TIP3    H129927   6.744   3.962   0.095  1.3218  0.2015  0.7697
 9990TIP3    H229928   6.722   3.835   0.175 -0.7846  0.1686  0.2041
 9991TIP3   OH229929   4.302   3.977   5.922 -0.3917  0.9753 -0.4604
 9991TIP3    H129930   4.297   3.928   6.004  1.0609 -1.3785 -1.6790
 9991TIP3    H229931   4.325   4.066   5.949 -1.0467  0.5296  1.7267
 9992TIP3   OH229932   7.541   5.871   3.653  0.1326  0.3724 -0.2937
 9992TIP3    H129933   7.464   5.850   3.599  0.7957  0.0300 -1.1212
 9992TIP3    H229934   7.559   5.963   3.634 -0.3147  0.5689  0.2159
 9993TIP3   OH229935   6.952   4.393   4.832  0.3210 -0.4884  0.5360
 9993TIP3    H129936   7.004   4.344   4.767 -0.9338  0.2879 -1.1293
 9993TIP3    H229937   6.878   4.336   4.850 -1.0011  0.5888 -1.1995
 9994TIP3   OH229938   6.457   6.602   6.210 -0.6512  0.1234 -0.1313
 9994TIP3    H129939   6.432   6.619   6.300 -0.1054  0.7797 -0.0994
 9994TIP3    H229940   6.399   6.531   6.182 -0.6145 -0.3041  0.8261
 9995TIP3   OH229941   4.461   1.079   6.185 -0.4528 -0.0048 -0.7183
 9995TIP3    H129942   4.552   1.106   6.188 -0.4235 -0.1639  1.2146
 9995TIP3    H229943   4.459   1.006   6.122  0.5432  0.6409 -1.5136
 9996TIP3   OH229944   7.600   1.551   2.143 -0.1796 -0.4456 -0.2123
 9996TIP3    H129945   7.618   1.494   2.069 -0.4001  0.2164 -0.7947
 9996TIP3    H229946   7.684   1.563   2.186 -0.0645 -0.8979 -0.3086
 9997TIP3   OH229947   3.681   3.027   5.823 -0.4777 -0.1970 -0.4111
 9997TIP3    H129948   3.664   3.000   5.914  0.3997  0.8993  0.0983
 9997TIP3    H229949   3.602   3.075   5.797 -1.8530 -2.6593 -1.1607
 9998TIP3   OH229950   1.543   5.462   0.625 -0.4083 -0.9918 -0.2203
 9998TIP3    H129951   1.464   5.485   0.577 -0.7165 -2.0290 -0.2301
 9998TIP3    H229952   1.523   5.485   0.716 -1.0249 -1.9227 -0.0979
 9999TIP3   OH229953   2.041   2.414   0.215  0.3790 -1.0901  0.1476
 9999TIP3    H129954   2.023   2.367   0.296 -2.7358 -1.9627 -0.8867
 9999TIP3    H229955   2.093   2.490   0.242 -0.8434 -1.1471  3.0180
10000TIP3   OH229956   3.440   2.557   0.488  0.0186 -0.1391 -0.6049
10000TIP3    H129957   3.462   2.546   0.395  0.0258  0.5945 -0.6998
10000TIP3    H229958   3.346   2.538   0.493  0.2815 -1.5419 -0.5067
10001TIP3   OH229959   5.463   4.418   0.681 -0.5627 -0.0452 -0.0457
10001TIP3    H129960   5.465   4.504   0.722 -0.2337 -0.8693  1.7613
10001TIP3    H229961   5.402   4.367   0.734 -0.6565 -0.9754 -0.9993
10002TIP3   OH229962   0.818   5.422   1.838  0.3490 -0.1237  0.1766
10002TIP3    H129963   0.851   5.400   1.925  0.9757  1.8255  0.4606
10002TIP3    H229964   0.746   5.483   1.854 -0.2224 -0.5565 -0.6539
10003TIP3   OH229965   5.394   1.114   1.327  0.3327  0.4822 -0.1325
10003TIP3    H129966   5.449   1.035   1.329 -0.3400  0.0198  1.4804
10003TIP3    H229967   5.311   1.086   1.366 -0.1845  1.8062 -0.2490
10004TIP3   OH229968   1.010   4.651   6.566  0.7481  0.3379  0.3040
10004TIP3    H129969   1.033   4.664   6.474  1.2123 -1.1402  0.1843
10004TIP3    H229970   1.020   4.737   6.606  0.3169  1.0481 -1.0717
10005TIP3   OH229971   8.025   5.262   1.349 -0.0674  0.0768  0.8906
10005TIP3    H129972   7.937   5.225   1.339 -0.6031  1.3151  0.8166
10005TIP3    H229973   8.029   5.333   1.284  1.2276 -0.3799  0.4349
10006TIP3   OH229974   6.417   5.491   6.543 -0.5849 -0.8122 -0.5211
10006TIP3    H129975   6.433   5.398   6.558  0.7705 -0.6355 -0.7378
10006TIP3    H229976   6.373   5.495   6.458  0.1044 -1.2157 -0.9084
10007TIP3   OH229977   2.922   0.908   3.776  0.0754 -0.0181 -0.0398
10007TIP3    H129978   2.850   0.924   3.716 -0.7032  0.2282  0.9285
10007TIP3    H229979   2.917   0.981   3.839  0.9095 -0.2253  0.2733
10008TIP3   OH229980   5.538   7.040   4.961 -0.4936 -0.7050 -0.2459
10008TIP3    H129981   5.588   6.973   4.915  1.0212  0.5841 -0.5628
10008TIP3    H229982   5.470   7.065   4.899  0.2857 -0.4140 -1.0167
10009TIP3   OH229983   2.711   5.550   1.635 -0.3546  0.2859  0.0939
10009TIP3    H129984   2.707   5.465   1.591  0.6869 -0.0325  0.5858
10009TIP3    H229985   2.799   5.554   1.673 -0.1957  1.8140 -0.3639
10010TIP3   OH229986   4.764   0.494   3.913  0.1409  0.0202  0.0932
10010TIP3    H129987   4.696   0.453   3.967 -0.2217  1.4729  0.8128
10010TIP3    H229988   4.838   0.435   3.917  0.1850  0.1535  2.3821
10011TIP3   OH229989   0.189   0.566   3.144 -0.9013  0.0545  0.0354
10011TIP3    H129990   0.146   0.625   3.205 -0.4144 -0.5494  0.9836
10011TIP3    H229991   0.180   0.609   3.059  0.6296  2.2016  0.8635
10012TIP3   OH229992   0.928   6.773   1.976 -0.2021  0.2219  0.1867
10012TIP3    H129993   1.010   6.795   2.021 -0.1493  1.8323 -0.6163
10012TIP3    H229994   0.866   6.840   2.004 -1.1478 -0.7449  0.4634
10013TIP3   OH229995   3.600   3.107   0.561 -0.3864 -1.1000  0.2626
10013TIP3    H129996   3.563   3.116   0.473 -0.6839 -0.2193  0.4771
10013TIP3    H229997   3.622   3.196   0.588  1.7349 -1.5637  0.2211
10014TIP3   OH229998   7.036   2.469   5.807  0.3801  0.1263  0.4844
10014TIP3    H129999   7.056   2.376   5.793  0.6873  0.0141  1.5856
10014TIP3    H230000   6.954   2.469   5.857  0.2252  0.4566  0.2312
10015TIP3   OH230001   0.447   0.575   0.505 -0.3708  0.3293  0.0825
10015TIP3    H130002   0.445   0.662   0.545  0.0214  0.6339 -0.5364
10015TIP3    H230003   0.440   0.592   0.411 -0.9680 -0.3488 -0.0040
10016TIP3   OH230004   5.191   0.139   4.589 -0.0752  0.1873  0.1984
10016TIP3    H130005   5.097   0.143   4.609 -0.3872 -0.5587 -1.0211
10016TIP3    H230006   5.233   0.134   4.675 -1.1446  0.5204  0.7670
10017TIP3   OH230007   5.930   3.716   3.105 -0.0471  0.0911  0.4944
10017TIP3    H130008   5.970   3.694   3.189  2.3670 -1.0009 -0.8163
10017TIP3    H230009   5.969   3.800   3.081 -0.2542  0.1075  0.2111
10018TIP3   OH230010   7.633   4.206   0.744 -0.0818  0.1628  0.5910
10018TIP3    H130011   7.713   4.232   0.789  0.0468  0.0008  0.4621
10018TIP3    H230012   7.626   4.111   0.760  0.1664  0.0347 -0.0347
10019TIP3   OH230013   7.531   7.081   0.758  0.5961 -0.3068 -0.0055
10019TIP3    H130014   7.456   7.030   0.727 -0.1039  0.1940  0.8319
10019TIP3    H230015   7.605   7.046   0.709 -0.1402 -0.9862 -0.6633
10020TIP3   OH230016   1.604   1.915   4.743  0.4499  0.8667  0.1971
10020TIP3    H130017   1.561   1.851   4.800  1.6511 -1.3492 -1.2581
10020TIP3    H230018   1.598   1.998   4.791 -0.8161 -0.3851  2.3452
10021TIP3   OH230019   1.255   5.587   4.863  0.2656  0.1165  0.5561
10021TIP3    H130020   1.230   5.653   4.927 -0.6685 -1.2410  1.6379
10021TIP3    H230021   1.332   5.544   4.901  0.8181  0.4788 -0.1051
10022TIP3   OH230022   5.233   2.603   1.792  0.1017  0.6486  0.1100
10022TIP3    H130023   5.150   2.557   1.782  0.6371 -0.2631 -0.3984
10022TIP3    H230024   5.275   2.594   1.706  0.6471  1.2367  0.3068
10023TIP3   OH230025   3.673   2.630   5.531  0.5558 -0.6011  0.3224
10023TIP3    H130026   3.584   2.659   5.548  0.7827  0.3208 -0.0128
10023TIP3    H230027   3.666   2.535   5.518 -0.3950 -0.5071  0.1286
10024TIP3   OH230028   7.864   6.660   3.904  0.4200  0.5615 -0.0015
10024TIP3    H130029   7.834   6.675   3.815  0.7815 -3.3570 -0.9433
10024TIP3    H230030   7.939   6.602   3.895  0.7089  0.3497  2.8463
10025TIP3   OH230031   1.928   5.253   6.624 -0.0588 -0.5035  0.5869
10025TIP3    H130032   1.965   5.328   6.671  0.0852 -0.9993  1.2832
10025TIP3    H230033   1.874   5.208   6.690 -1.2960 -0.2228 -0.1946
10026TIP3   OH230034   1.169   0.079   5.032  0.5349  0.0179  0.0108
10026TIP3    H130035   1.103   0.139   5.067 -0.1620 -1.1626  0.7976
10026TIP3    H230036   1.119   0.008   4.993  1.3063 -1.0656  0.9198
10027TIP3   OH230037   5.012   1.608   1.560 -0.3684  0.3768  0.2994
10027TIP3    H130038   4.960   1.533   1.588 -0.8016  0.4721 -0.2384
10027TIP3    H230039   5.068   1.573   1.491 -0.3210  0.4688  0.2919
10028TIP3   OH230040   4.064   4.991   0.586 -0.9299 -0.3177 -0.2332
10028TIP3    H130041   4.010   5.067   0.608 -0.3241  0.4682 -1.4207
10028TIP3    H230042   4.012   4.916   0.616 -1.6608  0.5278  0.6891
10029TIP3   OH230043   1.619   4.178   1.961  0.6637 -0.2892 -0.7386
10029TIP3    H130044   1.525   4.196   1.961  1.0545  2.1446 -0.3780
10029TIP3    H230045   1.628   4.092   1.921 -1.6867 -0.3989 -1.1268
10030TIP3   OH230046   3.525   2.185   3.640  0.7116  0.5931 -0.2928
10030TIP3    H130047   3.579   2.106   3.648 -1.0424 -0.7145 -0.8069
10030TIP3    H230048   3.436   2.155   3.654  0.0505  2.6388  0.1938
10031TIP3   OH230049   0.869   5.773   4.351  0.3871 -0.4570  0.1336
10031TIP3    H130050   0.958   5.742   4.366  0.3048  0.1101  2.0483
10031TIP3    H230051   0.833   5.713   4.285  2.1284 -0.7476 -0.6006
10032TIP3   OH230052   5.942   6.068   2.628  0.0042  0.1197  0.0402
10032TIP3    H130053   5.980   6.024   2.704  0.2024  2.0801  1.1313
10032TIP3    H230054   6.013   6.070   2.564  0.5878  0.5360  0.6930
10033TIP3   OH230055   4.549   6.586   6.242  0.2079  0.1946 -0.0007
10033TIP3    H130056   4.611   6.520   6.272 -0.1746  0.2451  0.9425
10033TIP3    H230057   4.469   6.537   6.223 -0.1632  0.3968  0.9625
10034TIP3   OH230058   1.567   6.023   4.809 -0.7158 -0.3397 -0.8932
10034TIP3    H130059   1.550   5.970   4.887  0.1605 -1.8620 -1.6939
10034TIP3    H230060   1.655   6.059   4.822  0.0817 -1.8523 -1.8081
10035TIP3   OH230061   5.310   5.760   5.857 -0.2607 -0.2617  0.6333
10035TIP3    H130062   5.364   5.728   5.929  1.6958 -1.6302 -1.3188
10035TIP3    H230063   5.348   5.845   5.834  0.1017 -0.5091  0.2870
10036TIP3   OH230064   2.164   2.337   5.546 -0.7804 -0.0392 -0.2420
10036TIP3    H130065   2.257   2.355   5.534 -0.8890 -0.6660 -2.4721
10036TIP3    H230066   2.120   2.406   5.495 -1.4654 -0.7751 -0.6688
10037TIP3   OH230067   0.590   0.724   2.584  0.0616  0.5577 -0.2259
10037TIP3    H130068   0.656   0.655   2.593 -0.3135  0.0930 -0.9555
10037TIP3    H230069   0.600   0.756   2.495 -1.6657 -0.5605 -0.8772
10038TIP3   OH230070   0.525   0.862   3.009  0.1725 -0.7161 -0.1484
10038TIP3    H130071   0.430   0.853   3.005  0.1569 -0.0448 -1.7674
10038TIP3    H230072   0.541   0.956   3.003  0.9748 -0.9166 -1.5846
10039TIP3   OH230073   0.254   0.298   3.104 -0.6098 -1.0509 -0.2693
10039TIP3    H130074   0.238   0.392   3.097  2.3621 -0.5282 -1.3211
10039TIP3    H230075   0.289   0.287   3.192 -1.1117 -1.2142 -0.0879
10040TIP3   OH230076   4.850   3.689   6.243 -0.1255  0.0919 -0.3975
10040TIP3    H130077   4.892   3.719   6.163  2.4755  1.2504  1.2444
10040TIP3    H230078   4.899   3.611   6.268 -0.7362 -0.1210  0.1544
10041TIP3   OH230079   4.570   7.115   5.478 -0.1027  0.0493  0.3337
10041TIP3    H130080   4.661   7.138   5.496  0.6956 -1.9605 -0.8256
10041TIP3    H230081   4.542   7.063   5.554  0.2544 -0.6795 -0.0271
10042TIP3   OH230082   2.919   3.930   2.238 -0.1308  0.3271 -0.3952
10042TIP3    H130083   2.857   3.914   2.166 -0.5028 -0.4743  0.0830
10042TIP3    H230084   2.949   4.019   2.225  0.0927  0.0633 -1.7631
10043TIP3   OH230085   1.940   4.646  -0.027  0.1252 -0.8593  0.2874
10043TIP3    H130086   1.972   4.555  -0.021  0.6953 -0.5958  1.7511
10043TIP3    H230087   1.897   4.662   0.057 -1.0956 -0.1642 -0.4476
10044TIP3   OH230088   0.295   4.902   3.036  0.4244 -0.1758 -0.1889
10044TIP3    H130089   0.307   4.813   3.069  1.0755 -0.5306 -1.3079
10044TIP3    H230090   0.281   4.890   2.942  0.9311  0.9325 -0.4142
10045TIP3   OH230091   4.348   7.551   3.403 -0.4562  0.6497  0.0966
10045TIP3    H130092   4.259   7.566   3.435 -0.1559  0.4670  1.0486
10045TIP3    H230093   4.341   7.557   3.308 -1.6338 -0.1281  0.1138
10046TIP3   OH230094   1.814   2.042   2.376  0.5934  0.6815  0.0119
10046TIP3    H130095   1.739   2.026   2.319  0.6511  1.6557 -0.3481
10046TIP3    H230096   1.859   2.116   2.337  2.2119 -0.3761 -0.2395
10047TIP3   OH230097   3.772   1.256   4.598  0.3087  0.7951 -0.1303
10047TIP3    H130098   3.714   1.254   4.522  0.7598  1.8299 -0.5230
10047TIP3    H230099   3.720   1.298   4.667  1.1972  3.7224 -1.0871
10048TIP3   OH230100   1.226   6.227   4.676  0.4379 -0.2791 -0.6923
10048TIP3    H130101   1.311   6.233   4.631  1.5732  0.8029  1.4303
10048TIP3    H230102   1.229   6.143   4.721  0.3953 -0.2086 -0.5604
10049TIP3   OH230103   0.654   2.490   3.188  0.4632 -0.0332  0.5881
10049TIP3    H130104   0.636   2.402   3.154 -1.1765  1.0498 -1.6947
10049TIP3    H230105   0.748   2.491   3.203  0.5772 -2.0765  0.3716
10050TIP3   OH230106  -0.003   7.724   0.243 -0.2912  0.5199  0.2835
10050TIP3    H130107   0.062   7.654   0.234 -0.3367  0.4517  0.4835
10050TIP3    H230108  -0.046   7.729   0.158  1.3354  1.9141 -0.5265
10051TIP3   OH230109   3.982   1.862   2.622 -0.5455  0.5214  0.0713
10051TIP3    H130110   4.004   1.791   2.562 -0.6393  1.9919 -1.7849
10051TIP3    H230111   3.905   1.904   2.583 -1.7316  0.4552  2.1876
10052TIP3   OH230112   8.264   1.730   4.804 -0.0584  0.0193 -0.1373
10052TIP3    H130113   8.219   1.761   4.883  0.4213  0.9555 -0.2076
10052TIP3    H230114   8.338   1.678   4.836 -1.0227 -1.3074 -0.0184
10053TIP3   OH230115   5.331   1.919   3.501 -0.3732 -0.0892 -0.1345
10053TIP3    H130116   5.376   1.961   3.427  0.1747 -0.1797  0.1398
10053TIP3    H230117   5.363   1.828   3.500 -2.5118 -0.9111 -1.5110
10054TIP3   OH230118   7.126   2.550   5.012 -0.1822 -0.2911  0.0408
10054TIP3    H130119   7.210   2.593   4.996  0.6023 -2.1703 -1.3189
10054TIP3    H230120   7.100   2.579   5.099  2.8492 -1.1222  1.3680
10055TIP3   OH230121   7.155   6.997   4.447  0.4762  0.1699  0.1022
10055TIP3    H130122   7.132   6.905   4.432  0.6367 -0.1303  1.5481
10055TIP3    H230123   7.232   7.012   4.391 -0.3698 -0.1616 -1.1866
10056TIP3   OH230124   0.076   0.792   5.652 -0.0514 -0.5790 -0.5568
10056TIP3    H130125   0.131   0.816   5.727  0.9511  1.3325 -1.8154
10056TIP3    H230126  -0.002   0.754   5.691 -0.4997  2.2131  1.6138
10057TIP3   OH230127   3.189   0.820   3.811  0.3443 -0.3755  0.0527
10057TIP3    H130128   3.105   0.859   3.835  0.9349  0.1367  1.4195
10057TIP3    H230129   3.241   0.826   3.891  2.0745  0.3564 -1.0636
10058TIP3   OH230130   5.261   0.457   6.504  0.1164 -0.0245  0.2093
10058TIP3    H130131   5.191   0.391   6.512  0.0206  0.2363  1.8669
10058TIP3    H230132   5.319   0.422   6.437 -0.9067 -0.9010 -0.2516
10059TIP3   OH230133   4.335   6.494   3.815  0.0417 -0.7655 -0.3225
10059TIP3    H130134   4.402   6.426   3.813  0.3109 -0.5884  1.4583
10059TIP3    H230135   4.295   6.487   3.902 -1.2477  0.1064 -0.8019
10060TIP3   OH230136   7.408   6.336   3.343  0.4554  0.3306  0.0325
10060TIP3    H130137   7.431   6.302   3.430 -0.0811 -1.1351 -0.3732
10060TIP3    H230138   7.446   6.273   3.282 -1.7294 -0.3182 -0.7169
10061TIP3   OH230139   7.461   4.738   2.381 -0.1498  0.4198 -0.0182
10061TIP3    H130140   7.517   4.772   2.451  0.6316 -0.1234 -0.3673
10061TIP3    H230141   7.473   4.800   2.309 -1.8338  1.6289  0.6691
10062TIP3   OH230142   0.966   1.968   6.653 -0.9851  0.0591  0.0491
10062TIP3    H130143   0.924   2.012   6.727 -0.8079 -0.8651  0.7081
10062TIP3    H230144   0.893   1.933   6.602 -1.1933  1.8879 -1.0225
10063TIP3   OH230145   0.260   5.632   0.671  0.2362  0.0655  0.0615
10063TIP3    H130146   0.314   5.674   0.738 -1.6208  0.7518  1.2006
10063TIP3    H230147   0.291   5.668   0.588  1.6629  0.2346  0.6538
10064TIP3   OH230148   2.341   5.052   3.954  0.4878  0.4077  0.1099
10064TIP3    H130149   2.304   5.115   4.015 -1.5277  0.7002 -1.3125
10064TIP3    H230150   2.373   4.980   4.009  2.4609  2.3738  1.7383
10065TIP3   OH230151   7.691   4.396   6.141  0.4919 -0.1021  0.0430
10065TIP3    H130152   7.739   4.313   6.140  1.5137  0.4588 -1.0616
10065TIP3    H230153   7.674   4.413   6.233 -0.7602 -2.0823  0.2477
10066TIP3   OH230154   0.528   3.752   6.227 -0.1680  0.3252  0.2539
10066TIP3    H130155   0.586   3.827   6.219  0.2533  0.0141  0.3404
10066TIP3    H230156   0.444   3.788   6.256 -0.2695  0.8806 -0.7079
10067TIP3   OH230157   1.290   0.304   4.864 -0.3452  0.2740 -0.5131
10067TIP3    H130158   1.203   0.312   4.903 -0.4898  1.9572 -1.0884
10067TIP3    H230159   1.297   0.381   4.808  1.8700  0.6480  0.2101
10068TIP3   OH230160   7.992   3.906   3.730  0.1193  0.0032  0.1613
10068TIP3    H130161   8.026   3.981   3.683 -0.0529 -0.7021 -1.1383
10068TIP3    H230162   8.065   3.844   3.733 -0.5177 -0.8919 -1.2851
10069TIP3   OH230163   7.417   5.543   6.444 -0.1515 -0.2723 -0.5262
10069TIP3    H130164   7.334   5.506   6.413 -0.1959  0.7125 -1.6493
10069TIP3    H230165   7.483   5.506   6.385  0.1565 -0.6523  0.0419
10070TIP3   OH230166   0.681   3.819   2.499 -0.3614 -0.5067 -0.5601
10070TIP3    H130167   0.777   3.816   2.503 -0.3480  0.8633  0.9568
10070TIP3    H230168   0.661   3.877   2.426  0.0910  2.2078  1.3302
10071TIP3   OH230169   4.546   7.713   1.280  0.3268 -0.6924 -0.1976
10071TIP3    H130170   4.530   7.761   1.200  0.2268  0.9740  0.7765
10071TIP3    H230171   4.460   7.699   1.318  0.4731  0.0980  0.4664
10072TIP3   OH230172   7.922   2.343   5.654 -0.3060 -0.3331 -0.8474
10072TIP3    H130173   7.871   2.423   5.670 -1.8258 -1.4712  0.4112
10072TIP3    H230174   7.967   2.327   5.737  0.0481 -0.7456 -1.1181
10073TIP3   OH230175   6.161   3.190   6.680  0.0894 -0.4772 -0.0101
10073TIP3    H130176   6.102   3.206   6.753  0.4751  1.0198 -0.0064
10073TIP3    H230177   6.105   3.197   6.602  0.1372  0.2719  0.0244
10074TIP3   OH230178   8.154   6.407   5.640 -0.3824  0.1956  0.0859
10074TIP3    H130179   8.190   6.318   5.642  0.2635  0.4343 -0.5363
10074TIP3    H230180   8.196   6.451   5.713 -1.7049 -0.3628  1.2354
10075TIP3   OH230181   0.717   4.794   4.722 -0.0394  0.5583  0.6988
10075TIP3    H130182   0.707   4.757   4.635 -0.7268  0.0062  1.0024
10075TIP3    H230183   0.794   4.749   4.758 -0.9172 -0.7045  1.0971
10076TIP3   OH230184   5.216   1.104   6.639  0.2230 -0.0512  0.0328
10076TIP3    H130185   5.156   1.030   6.644  1.5100 -1.0747  1.6388
10076TIP3    H230186   5.237   1.112   6.546 -1.6949 -0.1947 -0.4531
10077TIP3   OH230187   5.603   1.780   2.134 -0.5925  0.4397 -0.0132
10077TIP3    H130188   5.636   1.771   2.044 -0.1608 -0.1790  0.1993
10077TIP3    H230189   5.553   1.861   2.133 -0.2050  0.6813 -0.6997
10078TIP3   OH230190   0.693   2.464   4.698 -0.6021  0.2003  0.8273
10078TIP3    H130191   0.712   2.522   4.624  0.4281  0.1353  1.0250
10078TIP3    H230192   0.608   2.425   4.677 -0.5615  0.5675 -0.0694
10079TIP3   OH230193   1.566   2.977   6.695  0.0593 -0.8017 -0.1098
10079TIP3    H130194   1.601   2.888   6.699 -0.9217 -1.3959 -2.5884
10079TIP3    H230195   1.473   2.968   6.717 -0.2754 -0.6010 -1.3504
10080TIP3   OH230196   0.639   1.523   5.022  0.3480  0.2158  0.4977
10080TIP3    H130197   0.659   1.461   5.092 -1.8246 -0.4389  0.6019
10080TIP3    H230198   0.668   1.479   4.942  0.3097 -0.2445  0.7336
10081TIP3   OH230199   8.207   6.791   3.670 -0.6636 -0.5075 -0.2601
10081TIP3    H130200   8.228   6.870   3.719 -0.9206 -0.5962 -0.0007
10081TIP3    H230201   8.153   6.821   3.597  0.0400 -0.3267 -0.7145
10082TIP3   OH230202   1.407   6.924   3.084  0.1393 -0.1399  0.3328
10082TIP3    H130203   1.348   6.930   3.158 -0.6752  0.5500 -0.3521
10082TIP3    H230204   1.378   6.846   3.036 -1.1591  0.9729 -0.7658
10083TIP3   OH230205   4.155   0.786   4.746 -0.0911  0.1381 -0.0263
10083TIP3    H130206   4.174   0.863   4.693 -0.6162 -0.3903 -1.0116
10083TIP3    H230207   4.090   0.737   4.695 -0.7244 -0.3138  1.1749
10084TIP3   OH230208   1.477   7.120   0.725 -0.3102 -0.2518 -0.3504
10084TIP3    H130209   1.476   7.200   0.672 -0.8736 -0.5737 -0.8379
10084TIP3    H230210   1.387   7.112   0.758 -0.0181 -0.1646  0.5010
10085TIP3   OH230211   0.591   2.166   0.277 -0.3769  0.3108 -0.4221
10085TIP3    H130212   0.550   2.253   0.271 -2.1192 -0.5344 -1.7443
10085TIP3    H230213   0.517   2.105   0.284  0.7368 -1.1574 -0.8975
10086TIP3   OH230214   1.581   4.877   6.646  0.3034  0.3228 -0.1948
10086TIP3    H130215   1.545   4.794   6.678 -0.7390  1.3270  1.2989
10086TIP3    H230216   1.675   4.860   6.637  0.2313 -0.7718  0.9176
10087TIP3   OH230217   5.696   2.040   1.647 -0.0057  0.8775  0.2244
10087TIP3    H130218   5.728   2.121   1.686 -1.6185  0.3175  3.0536
10087TIP3    H230219   5.600   2.048   1.653 -0.2327 -0.4991 -1.1014
10088TIP3   OH230220   7.724   3.882   3.393  0.2683 -0.0169  0.1965
10088TIP3    H130221   7.712   3.820   3.321 -0.3619 -1.6533  1.6588
10088TIP3    H230222   7.819   3.890   3.401  0.3950  1.6393 -1.9503
10089TIP3   OH230223   2.719   0.381   1.616 -0.0685  0.8854  0.3285
10089TIP3    H130224   2.624   0.394   1.613  0.0455  1.9814  0.8369
10089TIP3    H230225   2.745   0.423   1.698  0.8774  0.7127  0.1194
10090TIP3   OH230226   0.271   2.202   4.536  0.2473 -0.2949  0.2582
10090TIP3    H130227   0.220   2.188   4.615  0.1162 -0.0702  0.2136
10090TIP3    H230228   0.212   2.248   4.477  0.2128 -0.8118 -0.1165
10091TIP3   OH230229   4.789   4.862   6.547 -0.0171 -0.4370 -0.0190
10091TIP3    H130230   4.753   4.936   6.499 -1.1824 -0.4507  0.7979
10091TIP3    H230231   4.879   4.856   6.516 -0.0213  1.0479 -0.4277
10092TIP3   OH230232   0.033   6.906   1.670 -0.0358  0.1391 -0.0503
10092TIP3    H130233   0.050   6.933   1.580 -1.9402 -1.1373 -0.8509
10092TIP3    H230234   0.071   6.818   1.677 -0.1242  0.1270  0.3199
10093TIP3   OH230235   1.747   2.652   6.412 -0.0314  0.2668  0.1060
10093TIP3    H130236   1.693   2.578   6.382 -1.0217  0.8266  0.4773
10093TIP3    H230237   1.819   2.655   6.349 -0.6644 -0.2237 -0.6665
10094TIP3   OH230238   1.149   6.315   3.255  0.3809  0.3179 -0.4097
10094TIP3    H130239   1.148   6.274   3.168  1.3655 -0.9206  0.1226
10094TIP3    H230240   1.190   6.400   3.242  2.2088 -0.5974 -0.8931
10095TIP3   OH230241   6.089   3.346   4.449  0.1850  0.9685  0.4337
10095TIP3    H130242   6.027   3.419   4.453 -1.8532 -0.6778  0.3778
10095TIP3    H230243   6.035   3.270   4.427  2.3663 -0.4203 -0.4154
10096TIP3   OH230244   7.760   5.101   0.080 -0.5451  0.3367  0.4243
10096TIP3    H130245   7.805   5.175   0.040 -0.7434  0.3435  0.2140
10096TIP3    H230246   7.740   5.043   0.007  0.6829 -0.5039  0.7364
10097TIP3   OH230247   7.482   6.448   5.398  0.5676 -0.2406  0.3103
10097TIP3    H130248   7.476   6.406   5.483  0.6093  0.3805  0.6253
10097TIP3    H230249   7.576   6.454   5.381  0.5480 -1.8685 -0.5494
10098TIP3   OH230250   1.256   3.521   3.010 -0.0308 -0.4765 -0.2253
10098TIP3    H130251   1.196   3.593   2.992  1.0857  0.3195 -0.8481
10098TIP3    H230252   1.312   3.553   3.081  0.0435 -0.9962 -0.0396
10099TIP3   OH230253   0.160   6.594   0.229  0.1733 -0.5135 -0.4515
10099TIP3    H130254   0.066   6.596   0.250  0.2970 -1.9214  0.2948
10099TIP3    H230255   0.200   6.545   0.300  1.1584 -1.9287 -1.9053
10100TIP3   OH230256   1.184   5.337   1.818  0.3269 -0.0754 -0.3782
10100TIP3    H130257   1.198   5.379   1.903 -0.1034  0.1207 -0.4031
10100TIP3    H230258   1.110   5.278   1.832 -0.2519  0.5303 -0.8055
10101TIP3   OH230259   3.529   5.399   3.933 -0.5616  0.0128  0.0461
10101TIP3    H130260   3.568   5.328   3.985  0.4123  0.2402 -0.3497
10101TIP3    H230261   3.525   5.364   3.844 -1.3165 -0.0218  0.0909
10102TIP3   OH230262   3.486   1.721   5.499  0.1807  0.2445 -0.3951
10102TIP3    H130263   3.408   1.723   5.556 -1.5503  1.9575 -2.6440
10102TIP3    H230264   3.475   1.642   5.446  0.2532  0.2249 -0.3814
10103TIP3   OH230265   1.877   4.780   4.249 -0.1966 -0.2287  0.0942
10103TIP3    H130266   1.906   4.855   4.198  1.2591 -0.4599  0.5194
10103TIP3    H230267   1.794   4.754   4.209 -0.6311  1.4719 -0.1703
10104TIP3   OH230268   6.450   7.699   2.592 -0.1447 -0.3473 -0.2316
10104TIP3    H130269   6.498   7.762   2.646 -0.3140 -0.4776  0.0746
10104TIP3    H230270   6.504   7.619   2.596  0.5951  0.0604 -1.4356
10105TIP3   OH230271   1.637   0.385   5.109 -0.2824 -1.0424 -0.6630
10105TIP3    H130272   1.594   0.378   5.194 -0.3170 -2.6250 -0.7940
10105TIP3    H230273   1.685   0.468   5.114 -2.0289 -0.0239  0.0658
10106TIP3   OH230274   4.271   3.243   3.687 -0.2359 -0.0184 -0.1640
10106TIP3    H130275   4.182   3.224   3.657 -0.1944 -0.2880 -0.1197
10106TIP3    H230276   4.323   3.170   3.655  0.1314  0.5610 -0.9151
10107TIP3   OH230277   3.331   5.977   4.985  0.5602 -0.6945  0.0143
10107TIP3    H130278   3.322   5.972   4.890 -0.4382  2.3096 -0.1351
10107TIP3    H230279   3.243   5.997   5.017  1.4112  1.5406  1.1960
10108TIP3   OH230280   4.877   4.789   3.648  0.0026  0.0848 -0.3491
10108TIP3    H130281   4.823   4.831   3.715  2.2425 -0.0199  1.6599
10108TIP3    H230282   4.891   4.700   3.681  3.2249  0.7718  0.5067
10109TIP3   OH230283   4.040   5.887   1.222  0.2447  0.3015  0.0277
10109TIP3    H130284   3.968   5.856   1.277  0.2172  1.0866  0.4654
10109TIP3    H230285   4.088   5.947   1.279 -0.6091  2.2711 -1.2003
10110TIP3   OH230286   8.011   1.679   6.561  0.2444 -0.5011 -0.0175
10110TIP3    H130287   8.006   1.587   6.588 -2.3527 -0.2856  0.5029
10110TIP3    H230288   8.004   1.676   6.465 -0.8796 -0.8225  0.0639
10111TIP3   OH230289   3.995   6.269   1.402 -0.2111 -0.4678  0.2523
10111TIP3    H130290   4.076   6.254   1.450 -1.0431 -0.7929  1.6128
10111TIP3    H230291   3.950   6.184   1.405 -1.5087  0.2210  1.3323
10112TIP3   OH230292   1.649   6.191   1.822  0.0589  0.0585  0.2298
10112TIP3    H130293   1.571   6.177   1.769  0.7048 -1.9647 -0.2766
10112TIP3    H230294   1.702   6.251   1.771 -0.2298 -0.2542 -0.4484
10113TIP3   OH230295   4.099   2.747   5.276 -0.1986 -0.1298  0.0255
10113TIP3    H130296   4.070   2.670   5.227  0.7408 -1.1877  1.0569
10113TIP3    H230297   4.022   2.773   5.328  0.0086 -1.5374  1.0741
10114TIP3   OH230298   2.880   7.451   2.268 -0.2890 -0.2876  0.3698
10114TIP3    H130299   2.903   7.377   2.325 -1.9986 -0.8440  0.3943
10114TIP3    H230300   2.945   7.447   2.197 -0.5985 -2.1055  0.1368
10115TIP3   OH230301   3.763   2.349   6.455  0.5405  0.3140  0.2334
10115TIP3    H130302   3.693   2.408   6.426 -0.3230 -1.1602 -0.8451
10115TIP3    H230303   3.821   2.343   6.379 -1.7489 -3.6016 -1.5021
10116TIP3   OH230304   2.479   4.227   3.720  0.3672  0.1642 -0.0702
10116TIP3    H130305   2.534   4.255   3.793  1.7796 -0.1889 -0.9603
10116TIP3    H230306   2.488   4.297   3.656 -1.0344  0.5728  0.1415
10117TIP3   OH230307   8.271   6.892   2.996  0.2502 -0.3325 -0.3528
10117TIP3    H130308   8.243   6.981   3.020 -3.3209 -1.1957 -0.7052
10117TIP3    H230309   8.257   6.888   2.902  1.1898 -1.0719 -0.4761
10118TIP3   OH230310   1.177   4.506   1.172  0.7553 -0.3676 -0.2808
10118TIP3    H130311   1.196   4.501   1.078  1.1427 -1.4705 -0.1503
10118TIP3    H230312   1.085   4.479   1.179  0.4063  0.7135 -0.4352
10119TIP3   OH230313   0.101   5.265   0.143 -0.5634  0.4739  0.0604
10119TIP3    H130314   0.069   5.234   0.058  0.4526 -0.4037 -0.0246
10119TIP3    H230315   0.080   5.358   0.144  0.6987  0.8471 -1.7918
10120TIP3   OH230316   0.562   3.294   0.243 -0.0922  0.0510  0.3407
10120TIP3    H130317   0.519   3.257   0.166 -1.9407 -0.3838  1.5069
10120TIP3    H230318   0.490   3.331   0.295  1.2067  1.1651  1.4182
10121TIP3   OH230319   1.362   4.640   1.501 -0.2992 -0.3679 -0.1586
10121TIP3    H130320   1.304   4.670   1.430  0.7761 -0.2184 -1.0027
10121TIP3    H230321   1.395   4.720   1.541 -1.4059 -0.4480  0.9659
10122TIP3   OH230322   2.007   3.700   5.967 -0.1137  0.0614  0.1031
10122TIP3    H130323   1.972   3.618   6.004  0.1188 -0.0786  0.0180
10122TIP3    H230324   1.951   3.718   5.892  1.4363 -1.4778 -1.5285
10123TIP3   OH230325   7.553   2.765   2.660  0.3722 -0.1821  0.3451
10123TIP3    H130326   7.585   2.681   2.694  1.3163 -0.5401 -1.3157
10123TIP3    H230327   7.466   2.746   2.625 -0.0102 -0.1317  1.2595
10124TIP3   OH230328   7.194   1.297   0.342 -0.2112  0.2073 -0.8128
10124TIP3    H130329   7.285   1.326   0.336 -0.3239  0.3850 -2.0387
10124TIP3    H230330   7.197   1.203   0.327  0.0835 -0.4170  2.5105
10125TIP3   OH230331   1.005   2.327   6.452 -0.4306  0.2736  0.1753
10125TIP3    H130332   0.911   2.325   6.435 -0.2798  0.3009 -0.7237
10125TIP3    H230333   1.036   2.404   6.403  0.5269 -1.4998 -2.1985
10126TIP3   OH230334   5.962   7.547   3.196  0.0965 -0.1421 -0.0887
10126TIP3    H130335   6.045   7.582   3.164  0.6010 -1.7284 -0.6225
10126TIP3    H230336   5.906   7.543   3.118 -0.7001  1.3922  0.3564
10127TIP3   OH230337   7.304   2.010   5.074  0.1140  0.5967  0.8387
10127TIP3    H130338   7.266   1.930   5.038  1.6719 -0.5517  1.6200
10127TIP3    H230339   7.341   2.056   4.999  0.4263 -0.1251  0.5400
10128TIP3   OH230340   4.052   5.393   1.072  0.5390  0.5200  0.2917
10128TIP3    H130341   4.030   5.304   1.098 -1.3254  1.3597  1.8394
10128TIP3    H230342   4.028   5.398   0.980 -3.1576  0.4649  1.1223
10129TIP3   OH230343   5.211   2.023   6.045  0.2377 -0.3853 -0.2685
10129TIP3    H130344   5.250   2.057   6.126 -0.6671 -0.1968  0.0943
10129TIP3    H230345   5.285   1.982   5.999  0.8795  0.0119  0.3763
10130TIP3   OH230346   0.886   3.577   4.325  0.2584  0.5332  0.2416
10130TIP3    H130347   0.798   3.608   4.342  0.6918  1.4849  0.8497
10130TIP3    H230348   0.893   3.495   4.375 -1.1248 -1.0051 -1.9331
10131TIP3   OH230349   5.614   7.477   1.848 -0.3883 -0.3409 -0.2877
10131TIP3    H130350   5.579   7.547   1.793 -2.3729  0.3430  1.6965
10131TIP3    H230351   5.677   7.431   1.792 -0.5459  1.7439 -2.3026
10132TIP3   OH230352   7.294   6.545   2.672  0.1512 -0.4087  0.4745
10132TIP3    H130353   7.345   6.605   2.727  1.5756  0.3654 -1.5801
10132TIP3    H230354   7.232   6.602   2.626  0.3102 -0.7448 -0.1690
10133TIP3   OH230355   4.008   7.399   5.010  0.5532  0.6610  0.1387
10133TIP3    H130356   3.915   7.392   4.986  0.2606 -0.1650  1.4073
10133TIP3    H230357   4.042   7.310   4.998  1.0817  0.8706  0.0690
10134TIP3   OH230358   0.945   5.551   6.555 -0.1634 -0.1233  0.1069
10134TIP3    H130359   0.942   5.585   6.466  2.6868  1.5058  0.5203
10134TIP3    H230360   0.994   5.469   6.548  0.7019  0.3712  0.2313
10135TIP3   OH230361   6.116   4.567   1.955  0.0892  0.7102  0.2898
10135TIP3    H130362   6.038   4.591   2.006 -0.1129  0.2183  0.2241
10135TIP3    H230363   6.134   4.644   1.901  0.1911  1.1643  0.9624
10136TIP3   OH230364   2.910   0.382   3.560  0.0120  0.4769 -0.2219
10136TIP3    H130365   2.951   0.444   3.620  2.9437 -2.6179  1.3140
10136TIP3    H230366   2.959   0.392   3.478  1.5654 -0.6924  0.4969
10137TIP3   OH230367   1.948   0.444   1.924  0.1422  0.0562  0.2518
10137TIP3    H130368   1.853   0.437   1.909  0.1359  1.1917 -0.4250
10137TIP3    H230369   1.981   0.484   1.843  0.8881  1.6084  1.2874
10138TIP3   OH230370   4.616   7.761   4.034  0.1424 -0.2198 -0.5373
10138TIP3    H130371   4.679   7.702   4.077  0.2176  0.4810  0.3458
10138TIP3    H230372   4.668   7.837   4.008 -0.4176  0.6344  0.7350
10139TIP3   OH230373   2.255   2.881   2.185 -0.1447 -0.1841 -0.0229
10139TIP3    H130374   2.283   2.925   2.105 -2.0775  0.8790 -0.1633
10139TIP3    H230375   2.323   2.902   2.249  0.6273  0.2427 -0.9572
10140TIP3   OH230376   2.809   1.124   3.917  0.4218 -0.0203 -0.4216
10140TIP3    H130377   2.778   1.097   4.004 -3.8959 -2.0361 -2.2742
10140TIP3    H230378   2.739   1.182   3.885  2.4012  1.5098 -2.2628
10141TIP3   OH230379   6.335   3.885   1.421  0.3351 -0.0992 -0.1433
10141TIP3    H130380   6.329   3.976   1.394  0.7315 -0.7686 -2.7594
10141TIP3    H230381   6.277   3.878   1.496  0.4951  2.3438  0.2764
10142TIP3   OH230382   7.241   4.872   3.861  0.4809 -0.0715  0.0472
10142TIP3    H130383   7.205   4.784   3.871  1.0854 -0.6733 -2.3887
10142TIP3    H230384   7.326   4.868   3.905  0.1324 -0.4340  0.7009
10143TIP3   OH230385   7.816   2.137   3.621  0.2561  0.5725 -0.0492
10143TIP3    H130386   7.896   2.088   3.600 -0.2168 -0.4813  0.5275
10143TIP3    H230387   7.809   2.203   3.552  1.1906  0.1569 -0.5588
10144TIP3   OH230388   4.576   6.374   0.812 -0.1422 -0.4874  0.9982
10144TIP3    H130389   4.576   6.354   0.905  1.3168  1.3968  1.4679
10144TIP3    H230390   4.652   6.431   0.800 -1.5087  1.0757 -0.9221
10145TIP3   OH230391   0.034   0.634   6.743  0.0736 -0.2050  0.0728
10145TIP3    H130392  -0.053   0.649   6.777  0.8479  3.5376  0.8521
10145TIP3    H230393   0.027   0.655   6.649  0.3149  1.2958  0.3672
10146TIP3   OH230394   5.703   2.531   3.370  0.4549  0.5228  0.1349
10146TIP3    H130395   5.689   2.495   3.457 -1.6430  1.8358  0.4078
10146TIP3    H230396   5.616   2.558   3.340  0.8576 -1.1857 -3.0095
10147TIP3   OH230397   1.243   7.778   2.795 -0.7523 -0.4792  0.2888
10147TIP3    H130398   1.241   7.784   2.890  2.0838  1.7384  0.3286
10147TIP3    H230399   1.236   7.869   2.765  1.9114 -0.7241 -1.3957
10148TIP3   OH230400   2.072   1.777   6.544  0.2283 -0.0901  0.1846
10148TIP3    H130401   1.994   1.814   6.502  0.0229 -1.1313 -0.3833
10148TIP3    H230402   2.066   1.805   6.635  0.6469  2.1744 -0.4268
10149TIP3   OH230403   4.745   2.597   1.891  0.3187 -0.3398  0.0015
10149TIP3    H130404   4.817   2.552   1.847  0.5273 -0.8659  0.8587
10149TIP3    H230405   4.747   2.686   1.856  1.1673 -0.4501 -0.2398
10150TIP3   OH230406   2.655   0.537   1.245 -0.4469 -0.1961 -0.3895
10150TIP3    H130407   2.736   0.514   1.292  0.2323  2.1929 -0.2875
10150TIP3    H230408   2.685   0.561   1.157 -1.2351 -0.6461 -0.7877
10151TIP3   OH230409   6.798   1.264   2.077 -0.4258  0.0761 -0.0882
10151TIP3    H130410   6.846   1.335   2.118  1.1319 -0.5048 -0.8467
10151TIP3    H230411   6.729   1.307   2.027  2.0643  1.3404 -2.7219
10152TIP3   OH230412   3.445   2.023   5.200 -0.5382 -0.1376  0.2137
10152TIP3    H130413   3.413   2.004   5.111 -1.1422 -0.3965  0.4789
10152TIP3    H230414   3.386   2.091   5.232 -1.0348 -0.8397  0.8228
10153TIP3   OH230415   2.661   2.068   2.944  0.3578  0.0571  0.5313
10153TIP3    H130416   2.611   2.099   2.869  3.1334  2.3589 -0.5904
10153TIP3    H230417   2.597   2.028   3.002 -2.4560  1.4884 -1.3929
10154TIP3   OH230418   7.191   4.416   2.672  0.3381 -0.2030  0.2092
10154TIP3    H130419   7.141   4.349   2.720  0.0270  0.1022  0.3223
10154TIP3    H230420   7.156   4.413   2.583  1.9138 -1.7636 -0.3942
10155TIP3   OH230421   4.202   3.249   0.495  0.0039 -0.1385  0.3210
10155TIP3    H130422   4.188   3.169   0.546 -1.1438  0.1662  0.5058
10155TIP3    H230423   4.116   3.289   0.489  0.1715  0.0382 -1.5268
10156TIP3   OH230424   2.053   0.224   6.036 -0.1152  0.1846 -0.4003
10156TIP3    H130425   2.098   0.302   6.069 -0.9456  0.5573 -0.1214
10156TIP3    H230426   2.078   0.220   5.944  0.7074  0.2211 -0.1866
10157TIP3   OH230427   6.317   4.041   1.160 -0.1019 -0.3716 -0.2153
10157TIP3    H130428   6.256   4.059   1.231  0.4434 -1.3286  0.5219
10157TIP3    H230429   6.280   3.966   1.115 -0.7726  0.6129 -1.3628
10158TIP3   OH230430   5.733   3.630   2.936  0.1474 -0.7543 -0.0993
10158TIP3    H130431   5.723   3.683   2.857 -1.9458 -1.4069 -0.3426
10158TIP3    H230432   5.811   3.665   2.979  0.3330  0.7610 -1.5580
10159TIP3   OH230433   6.282   4.986   2.468  0.1021  0.1670 -1.3644
10159TIP3    H130434   6.307   5.017   2.555  0.1021  0.2995 -1.4114
10159TIP3    H230435   6.217   5.049   2.438 -1.7236 -1.1819 -0.4750
10160TIP3   OH230436   3.530   6.591   6.719 -0.3600 -0.1125 -0.4997
10160TIP3    H130437   3.574   6.512   6.687  2.1361  0.4550  1.2306
10160TIP3    H230438   3.571   6.663   6.670  1.5629  0.5154  1.8370
10161TIP3   OH230439   3.928   0.842   2.779 -0.1997  0.0557  0.6008
10161TIP3    H130440   3.948   0.932   2.805  2.2498 -0.3911  0.5405
10161TIP3    H230441   3.833   0.839   2.771 -0.2852  3.3606 -1.9550
10162TIP3   OH230442   6.233   7.837   4.723 -0.0199  0.2766 -0.8969
10162TIP3    H130443   6.138   7.834   4.726 -0.0269 -1.1033 -1.7512
10162TIP3    H230444   6.262   7.779   4.794  0.1575 -0.5743 -1.6541
10163TIP3   OH230445   0.682   5.038   2.791 -0.2905  0.3319 -0.3059
10163TIP3    H130446   0.621   5.021   2.719  1.0275  0.3496 -1.4644
10163TIP3    H230447   0.665   5.129   2.816 -0.1513  0.6160 -1.2150
10164TIP3   OH230448   8.009   7.201   6.649  0.2877 -0.0339 -0.0309
10164TIP3    H130449   8.090   7.185   6.699  2.8690 -0.7393 -3.9732
10164TIP3    H230450   8.034   7.268   6.586 -2.4289  0.0861 -1.0793
10165TIP3   OH230451   5.057   5.776   1.162  0.5194 -0.0674  0.1818
10165TIP3    H130452   5.121   5.778   1.234  0.5580  0.1518  0.1435
10165TIP3    H230453   5.109   5.794   1.084  0.3710  0.3996  0.1823
10166TIP3   OH230454   1.335   6.511   3.159  0.5773 -0.1005  0.3433
10166TIP3    H130455   1.296   6.593   3.128  0.0372 -0.4648  0.0448
10166TIP3    H230456   1.350   6.460   3.080 -1.3183 -1.2600  0.6627
10167TIP3   OH230457   2.224   5.066   6.697 -0.2937 -0.8106 -0.0537
10167TIP3    H130458   2.241   5.138   6.636 -1.5406 -0.8036 -0.4223
10167TIP3    H230459   2.200   5.110   6.779  1.9642 -0.8129  0.6720
10168TIP3   OH230460   4.442   1.465   3.525 -0.2669 -0.2759 -0.2221
10168TIP3    H130461   4.380   1.397   3.551  0.9615 -0.6941  1.8470
10168TIP3    H230462   4.395   1.518   3.460 -3.2436  0.1538  2.0759
10169TIP3   OH230463   4.244   4.242   6.566  0.0286  0.6531 -0.4287
10169TIP3    H130464   4.330   4.283   6.575 -0.0384  0.9444 -1.0799
10169TIP3    H230465   4.183   4.306   6.602 -0.2609  1.9043 -2.9188
10170TIP3   OH230466   2.230   5.367   6.555  0.7758  0.9513  0.2495
10170TIP3    H130467   2.168   5.388   6.625 -1.3232 -0.0320 -1.2052
10170TIP3    H230468   2.202   5.419   6.480  1.3130  0.0273 -0.6360
10171TIP3   OH230469   3.844   1.721   3.928 -0.1399  0.6321 -0.0033
10171TIP3    H130470   3.913   1.671   3.970  2.6719  1.9429 -2.7214
10171TIP3    H230471   3.829   1.795   3.987 -0.4263 -0.4869  1.3765
10172TIP3   OH230472   5.747   1.108   2.329 -0.2706  0.2331 -0.7939
10172TIP3    H130473   5.679   1.066   2.276  0.2191 -1.3207 -0.2558
10172TIP3    H230474   5.808   1.037   2.350  0.0260  0.9866  1.0890
10173TIP3   OH230475   4.265   5.941   0.059  0.3214 -0.3770  0.4425
10173TIP3    H130476   4.222   5.867   0.016 -0.3833  0.0374  0.4112
10173TIP3    H230477   4.235   5.936   0.150 -0.5000  0.4089  0.2329
10174TIP3   OH230478   4.638   5.742   4.049 -0.3215  0.2992  0.1825
10174TIP3    H130479   4.692   5.806   4.095 -0.2282  0.4547 -0.1424
10174TIP3    H230480   4.670   5.743   3.959 -0.7777  0.3025  0.0137
10175TIP3   OH230481   3.525   6.816   6.232 -0.0171 -0.1141  0.6311
10175TIP3    H130482   3.596   6.752   6.234  1.6809  1.6741  1.3391
10175TIP3    H230483   3.566   6.898   6.261 -1.0152  2.3321 -3.9583
10176TIP3   OH230484   1.238   2.708   4.674  0.0076 -0.1399 -0.5807
10176TIP3    H130485   1.198   2.674   4.755 -0.5366 -0.0742 -0.8168
10176TIP3    H230486   1.238   2.633   4.614 -0.4998  0.0662 -0.8473
10177TIP3   OH230487   5.647   6.959   4.607 -0.2427  0.3307  0.5483
10177TIP3    H130488   5.729   6.910   4.612  0.5604  1.4881 -0.3250
10177TIP3    H230489   5.671   7.048   4.635 -0.7822  1.1003 -1.2720
10178TIP3   OH230490   4.194   3.474   5.075  0.5797  0.2048  0.3966
10178TIP3    H130491   4.228   3.409   5.136 -0.1011  0.2314  0.8209
10178TIP3    H230492   4.107   3.442   5.052 -0.5827  1.8504  2.0888
10179TIP3   OH230493   2.870   5.108   0.548 -0.5615  0.1802  0.2395
10179TIP3    H130494   2.775   5.094   0.550 -0.5548  0.0194 -0.5869
10179TIP3    H230495   2.884   5.167   0.475  0.1879 -1.4314 -0.9684
10180TIP3   OH230496   7.904   4.283   5.693  0.2973  0.0990  0.7298
10180TIP3    H130497   7.947   4.239   5.766 -0.2814 -0.6228  0.6474
10180TIP3    H230498   7.810   4.271   5.710  0.1181  1.3296  0.7223
10181TIP3   OH230499   2.377   5.583   3.437  0.3494 -0.3115 -1.1949
10181TIP3    H130500   2.419   5.645   3.497  0.8473  0.1898 -2.0416
10181TIP3    H230501   2.292   5.623   3.418 -1.0375 -1.8113  1.3105
10182TIP3   OH230502   5.023   3.139   0.574 -0.3970 -0.6427 -0.5006
10182TIP3    H130503   4.939   3.136   0.528  0.1098 -0.0718 -1.4905
10182TIP3    H230504   5.087   3.160   0.506  0.2744  1.0322  0.5887
10183TIP3   OH230505   1.414   2.967   6.161  0.5712  0.2898 -0.7089
10183TIP3    H130506   1.378   3.052   6.187  2.2461  1.1165 -0.9546
10183TIP3    H230507   1.436   2.978   6.068 -0.5544 -0.9173 -1.1465
10184TIP3   OH230508   6.257   7.569   4.399  0.1398 -0.4548 -0.2428
10184TIP3    H130509   6.199   7.640   4.374 -0.9486 -0.7554  1.2790
10184TIP3    H230510   6.344   7.599   4.373 -0.4945  0.7004 -1.1202
10185TIP3   OH230511   2.446   2.626   2.761 -0.3647 -0.8824  0.3624
10185TIP3    H130512   2.369   2.632   2.704  0.4736 -1.4726 -0.8946
10185TIP3    H230513   2.514   2.588   2.705  1.2661  0.9416  0.9976
10186TIP3   OH230514   0.728   7.606   2.716 -0.7746  0.2404 -0.4412
10186TIP3    H130515   0.732   7.512   2.697  0.9118  0.2750 -0.3754
10186TIP3    H230516   0.785   7.646   2.651  2.7097  0.6647  2.5357
10187TIP3   OH230517   7.229   5.626   1.889  0.0334 -0.9014  0.1875
10187TIP3    H130518   7.292   5.680   1.936 -0.5266 -1.1543  1.2617
10187TIP3    H230519   7.266   5.616   1.801  0.0273  1.4129 -0.1309
10188TIP3   OH230520   8.325   6.614   3.223  0.1519 -0.2109 -0.6315
10188TIP3    H130521   8.325   6.551   3.151  0.2773 -1.5504  0.4854
10188TIP3    H230522   8.233   6.620   3.249  0.2930 -0.9340  0.0751
10189TIP3   OH230523   6.266   0.299   6.410  0.5483  0.4226  0.2094
10189TIP3    H130524   6.263   0.210   6.445  2.4620 -1.1230 -3.0765
10189TIP3    H230525   6.175   0.318   6.384  0.3919 -1.2889 -0.5812
10190TIP3   OH230526   0.039   0.229   0.724 -0.0054 -0.2666 -0.5024
10190TIP3    H130527   0.118   0.280   0.709  0.7424 -1.1206  0.4132
10190TIP3    H230528  -0.007   0.229   0.640  0.7750  0.5567 -0.9334
10191TIP3   OH230529   6.942   5.908   5.768 -0.4957 -0.7112  0.2089
10191TIP3    H130530   7.025   5.949   5.793 -0.2947 -0.7737 -0.3498
10191TIP3    H230531   6.955   5.815   5.784 -1.4593 -0.4604  2.9235
10192TIP3   OH230532   2.081   5.285   2.633 -0.6156  0.3012  0.4782
10192TIP3    H130533   2.011   5.223   2.614 -0.9219  0.8357 -0.2093
10192TIP3    H230534   2.037   5.358   2.678  0.0224 -0.7312  2.9428
10193TIP3   OH230535   2.031   2.779   4.379  0.0589  0.2947  0.3316
10193TIP3    H130536   2.104   2.718   4.374  0.3933  0.5324  1.6676
10193TIP3    H230537   1.955   2.725   4.402 -0.1985  0.0489 -1.0478
10194TIP3   OH230538   4.889   4.637   2.669 -0.7446  0.1708 -0.0389
10194TIP3    H130539   4.811   4.690   2.683  0.7450  2.3693  0.4677
10194TIP3    H230540   4.867   4.551   2.706 -2.3439  1.1947  1.5552
10195TIP3   OH230541   5.755   2.805   4.120  0.0786 -0.3189  0.3132
10195TIP3    H130542   5.752   2.899   4.134  0.3119 -0.3446  0.5409
10195TIP3    H230543   5.695   2.789   4.047  0.6540  0.1042 -0.2658
10196TIP3   OH230544   7.527   3.825   6.554  0.0671 -0.4940 -0.1318
10196TIP3    H130545   7.457   3.770   6.519 -1.0701  1.2813 -0.7413
10196TIP3    H230546   7.580   3.765   6.607 -0.9559 -2.2209 -0.9735
10197TIP3   OH230547   0.481   6.756   5.692 -0.8592  0.0867 -0.2427
10197TIP3    H130548   0.570   6.731   5.718 -0.8994 -0.0724 -0.2521
10197TIP3    H230549   0.493   6.804   5.610 -0.8706 -0.9721 -0.8882
10198TIP3   OH230550   5.211   6.460   4.828 -0.0494  0.4071 -0.5583
10198TIP3    H130551   5.289   6.437   4.878 -0.5811  0.5337  0.3511
10198TIP3    H230552   5.242   6.523   4.762  0.8891 -0.7332 -1.2356
10199TIP3   OH230553   6.540   3.259   3.874 -0.0449 -0.2282 -0.2690
10199TIP3    H130554   6.569   3.268   3.964  0.9065 -0.1881 -0.5647
10199TIP3    H230555   6.489   3.178   3.872 -0.6237  0.1123  0.4297
10200TIP3   OH230556   6.668   0.823   4.800 -0.0705 -0.0221  0.2709
10200TIP3    H130557   6.693   0.913   4.782 -0.7113  0.0428 -0.2979
10200TIP3    H230558   6.712   0.802   4.883  1.2941  0.3159 -0.3307
10201TIP3   OH230559   0.368   0.776   0.016  1.0471 -0.6441 -0.0602
10201TIP3    H130560   0.335   0.856   0.058  1.2108 -1.3222  1.4284
10201TIP3    H230561   0.331   0.778  -0.072  1.1294  1.1131 -0.0849
10202TIP3   OH230562   2.442   0.372   6.686 -1.0341 -0.0903  0.1934
10202TIP3    H130563   2.400   0.295   6.648  0.5366 -1.8491  1.8102
10202TIP3    H230564   2.536   0.359   6.671 -0.6443  0.9011  1.5088
10203TIP3   OH230565   7.254   2.745   1.992  0.3039 -0.2185  0.3193
10203TIP3    H130566   7.185   2.773   1.932  0.5666  0.4183  0.3035
10203TIP3    H230567   7.334   2.784   1.957  1.0149 -2.4320 -0.7150
10204TIP3   OH230568   0.148   0.053   0.202 -0.0989 -0.2739  0.5748
10204TIP3    H130569   0.198   0.130   0.226  0.7358 -0.2900 -0.9614
10204TIP3    H230570   0.214  -0.016   0.191 -0.2059 -0.0330 -2.5513
10205TIP3   OH230571   1.574   5.236   5.730  0.1420  0.1104 -0.2279
10205TIP3    H130572   1.560   5.215   5.638  0.2155 -1.3144  0.0551
10205TIP3    H230573   1.489   5.220   5.771 -0.2107  1.8595 -0.2083
10206TIP3   OH230574   0.724   7.059   2.628  0.1226  0.6450  0.2253
10206TIP3    H130575   0.729   7.088   2.537 -3.3559  0.2255 -0.2445
10206TIP3    H230576   0.698   7.138   2.676  0.4903  0.5302  0.6127
10207TIP3   OH230577   1.576   2.794   5.173  0.0667 -0.5517 -0.6937
10207TIP3    H130578   1.670   2.787   5.153  0.6426 -1.9814  2.0461
10207TIP3    H230579   1.533   2.778   5.089  2.2298  1.2537 -2.2635
10208TIP3   OH230580   2.855   7.647   5.904 -0.1764  0.9579 -0.1805
10208TIP3    H130581   2.919   7.702   5.947  0.0234  1.0591 -0.6025
10208TIP3    H230582   2.906   7.592   5.844 -0.2567 -0.3429  0.8927
10209TIP3   OH230583   6.594   1.126   0.943 -0.0284  0.9934  0.2962
10209TIP3    H130584   6.577   1.033   0.961 -0.2487  1.1523  0.9432
10209TIP3    H230585   6.651   1.125   0.866 -1.9511  0.4117 -1.1970
10210TIP3   OH230586   8.257   2.643   0.889  0.2569 -0.9979 -0.3829
10210TIP3    H130587   8.220   2.562   0.925  0.4968 -1.6887 -1.6218
10210TIP3    H230588   8.351   2.624   0.880  0.7221  0.2417  1.4248
10211TIP3   OH230589   5.188   1.214   0.447  0.2494  0.7261  0.0048
10211TIP3    H130590   5.264   1.173   0.405  2.0025  2.6349  1.1030
10211TIP3    H230591   5.125   1.143   0.458  1.8868 -0.9565 -0.9151
10212TIP3   OH230592   5.554   5.400   5.480 -0.2539  0.4241 -0.4104
10212TIP3    H130593   5.643   5.433   5.472 -0.4388  0.6373 -1.6627
10212TIP3    H230594   5.507   5.469   5.528  0.4541 -0.1186  1.1401
10213TIP3   OH230595   3.274   3.603   4.269  0.7032  0.2649  0.0219
10213TIP3    H130596   3.248   3.516   4.299  1.1172 -0.2009 -0.9337
10213TIP3    H230597   3.197   3.636   4.223  0.5020  0.4688  0.4933
10214TIP3   OH230598   2.495   6.521   5.579 -0.0651  0.3507  0.5962
10214TIP3    H130599   2.429   6.591   5.578 -1.3909 -0.8113 -1.7015
10214TIP3    H230600   2.466   6.462   5.648 -2.6232 -1.0700 -1.4991
10215TIP3   OH230601   2.442   7.025   5.944  0.5146 -0.1474  0.3544
10215TIP3    H130602   2.494   7.066   5.874  1.5139 -0.8936  0.6392
10215TIP3    H230603   2.352   7.031   5.914  0.7995  0.7858 -0.3616
10216TIP3   OH230604   2.138   0.925   2.913 -0.0860  0.1037  0.1916
10216TIP3    H130605   2.088   0.909   2.834  0.6450  1.4068 -0.5752
10216TIP3    H230606   2.113   1.014   2.940 -0.9662 -0.6281  1.9254
10217TIP3   OH230607   3.741   0.128   3.813 -0.4409  0.1982 -0.1446
10217TIP3    H130608   3.830   0.133   3.848 -0.1723 -0.3098 -0.7445
10217TIP3    H230609   3.686   0.120   3.891 -0.0784  1.6470  0.3078
10218TIP3   OH230610   3.261   1.520   2.079  0.0310 -0.2509  0.1757
10218TIP3    H130611   3.321   1.487   2.145  1.3099 -0.1154 -0.8769
10218TIP3    H230612   3.225   1.601   2.117 -0.6858 -1.1312  1.4355
10219TIP3   OH230613   4.072   7.662   3.979 -0.1273  0.3876 -0.5085
10219TIP3    H130614   4.118   7.736   3.939 -0.3998  0.9710  0.2418
10219TIP3    H230615   3.979   7.687   3.976 -0.0921  0.8557  1.2638
10220TIP3   OH230616   2.278   7.510   6.347 -0.5864 -0.0332  0.2083
10220TIP3    H130617   2.239   7.573   6.408 -0.1880  0.9285 -0.5030
10220TIP3    H230618   2.371   7.510   6.369 -0.2037  1.3029 -1.1909
10221TIP3   OH230619   6.119   7.125   3.413  0.7603 -0.2510 -0.0329
10221TIP3    H130620   6.130   7.088   3.326  1.7544  0.0453 -0.0501
10221TIP3    H230621   6.113   7.049   3.471 -2.1662 -0.5144 -0.5522
10222TIP3   OH230622   2.521   5.949   6.548 -1.0401  0.0116  0.5685
10222TIP3    H130623   2.494   5.955   6.456 -1.0885 -2.2783  0.3823
10222TIP3    H230624   2.558   6.035   6.568 -1.0044  0.5507 -1.6010
10223TIP3   OH230625   2.594   1.479   1.313  0.2995 -0.5636 -0.1419
10223TIP3    H130626   2.599   1.398   1.263  2.7699 -1.3020  1.1473
10223TIP3    H230627   2.678   1.523   1.297 -0.6157  1.3224 -0.0829
10224TIP3   OH230628   2.654   0.567   2.678  0.2740  0.0087 -0.1671
10224TIP3    H130629   2.705   0.628   2.733  1.2840  0.1166 -1.1896
10224TIP3    H230630   2.717   0.501   2.650 -0.3399 -0.3293 -0.7929
10225TIP3   OH230631   2.960   2.905   5.564  0.3763 -0.0490 -0.3087
10225TIP3    H130632   2.867   2.881   5.568 -0.1076  1.7614  0.3303
10225TIP3    H230633   2.962   2.995   5.596  2.2791  0.1674 -0.9612
10226TIP3   OH230634   0.476   3.078   2.873 -0.6626 -0.2198  0.3377
10226TIP3    H130635   0.489   3.132   2.951  0.9734 -0.9202  0.5960
10226TIP3    H230636   0.382   3.083   2.856 -0.8634  0.9726  1.5991
10227TIP3   OH230637   7.532   7.631   3.711  0.3970  0.4914 -0.2478
10227TIP3    H130638   7.533   7.614   3.805  1.4218 -1.7098 -0.5940
10227TIP3    H230639   7.599   7.699   3.699  0.9662  0.0824  0.5038
10228TIP3   OH230640   6.418   3.212   0.890  0.1644  0.6811 -0.0003
10228TIP3    H130641   6.402   3.298   0.929  1.0013 -0.3361  2.8354
10228TIP3    H230642   6.505   3.188   0.922  1.5426  0.2380 -3.6806
10229TIP3   OH230643   7.838   7.173   5.693  0.0903  0.1226 -0.2354
10229TIP3    H130644   7.824   7.232   5.767  1.4745 -0.0253  0.1891
10229TIP3    H230645   7.776   7.101   5.706 -2.3305  1.9029 -1.3041
10230TIP3   OH230646   3.773   0.594   0.076 -0.1011  0.0395 -0.0794
10230TIP3    H130647   3.820   0.594  -0.008 -0.2795 -0.6305 -0.1814
10230TIP3    H230648   3.835   0.634   0.137  0.2947 -0.0888 -0.3884
10231TIP3   OH230649   0.312   3.832   3.716 -0.1124 -0.3277 -0.2347
10231TIP3    H130650   0.221   3.809   3.695 -0.2150 -0.1160 -0.0258
10231TIP3    H230651   0.313   3.840   3.811 -0.5720  2.4980 -0.3750
10232TIP3   OH230652   5.170   1.412   5.539 -0.1211  0.1876  0.3166
10232TIP3    H130653   5.255   1.370   5.550  0.0243  0.1779 -0.6906
10232TIP3    H230654   5.139   1.428   5.628  0.2649 -1.1479  0.7220
10233TIP3   OH230655   2.766   5.881   5.577 -0.1609  0.3070 -0.2723
10233TIP3    H130656   2.724   5.956   5.535  0.5381  0.4428 -0.7500
10233TIP3    H230657   2.784   5.820   5.506  0.7021  0.3772 -0.1289
10234TIP3   OH230658   5.396   1.851   4.744 -0.0700 -0.6311 -0.0409
10234TIP3    H130659   5.304   1.826   4.738 -0.1312 -0.0846 -1.8270
10234TIP3    H230660   5.395   1.943   4.771 -0.1043 -0.2793 -1.2002
10235TIP3   OH230661   6.296   6.679   2.100 -0.0086  0.2710  0.1328
10235TIP3    H130662   6.343   6.708   2.022 -0.5159  1.3411  0.2108
10235TIP3    H230663   6.233   6.749   2.118  1.0619  0.7577  2.3255
10236TIP3   OH230664   2.207   4.346   4.670  0.0910  0.3736 -0.0105
10236TIP3    H130665   2.131   4.289   4.678  0.5537 -0.2275  0.2356
10236TIP3    H230666   2.218   4.384   4.757  0.4357 -0.0390  0.1377
10237TIP3   OH230667   3.636   5.810   1.321 -0.5083  0.0503  0.1795
10237TIP3    H130668   3.590   5.767   1.249  0.7179 -0.5866 -0.2580
10237TIP3    H230669   3.567   5.831   1.384 -1.3865 -0.9203 -0.4137
10238TIP3   OH230670   6.698   5.180   4.129  0.3478  0.1818  0.0672
10238TIP3    H130671   6.752   5.138   4.061  0.9586  2.2428 -0.7886
10238TIP3    H230672   6.745   5.163   4.211  0.1171 -1.5007 -0.1165
10239TIP3   OH230673   6.387   2.326   2.972 -0.4490 -0.0874  0.2864
10239TIP3    H130674   6.393   2.368   2.887  0.1119  1.8029  1.1980
10239TIP3    H230675   6.300   2.285   2.973 -0.2418 -0.6284 -1.3639
10240TIP3   OH230676   6.408   0.596   1.130  0.0944  0.0064 -0.0080
10240TIP3    H130677   6.485   0.594   1.074  0.6798  1.1590  0.7205
10240TIP3    H230678   6.377   0.505   1.131 -0.1871 -0.0016 -2.5015
10241TIP3   OH230679   6.527   7.681   2.021 -0.0318 -0.2550 -0.2022
10241TIP3    H130680   6.557   7.665   2.111 -0.5205 -0.5355 -0.0851
10241TIP3    H230681   6.590   7.636   1.966 -0.7728 -1.7051  0.0792
10242TIP3   OH230682   1.208   6.063   1.800  0.1776  0.5596  0.5496
10242TIP3    H130683   1.194   5.993   1.864 -1.0753 -1.2692 -1.5805
10242TIP3    H230684   1.194   6.144   1.849 -2.2006 -0.7811  2.2635
10243TIP3   OH230685   3.612   5.487   5.463 -0.4586 -0.3668  0.5315
10243TIP3    H130686   3.654   5.573   5.455  1.3266 -1.1072  1.2634
10243TIP3    H230687   3.621   5.465   5.556 -0.9476 -1.3195  0.3630
10244TIP3   OH230688   3.200   5.996   6.522  0.9162 -0.1566 -0.5079
10244TIP3    H130689   3.211   5.976   6.429  1.5285  2.9938 -1.2299
10244TIP3    H230690   3.105   5.992   6.536  0.7148  0.4027 -1.5764
10245TIP3   OH230691   1.005   4.707   0.654 -0.0188  0.6852 -0.4172
10245TIP3    H130692   1.013   4.698   0.749  0.3281  1.6748 -0.3433
10245TIP3    H230693   0.911   4.714   0.638 -0.1014  0.1407 -0.1933
10246TIP3   OH230694   2.647   7.350   4.966  0.2524  0.2943  0.0687
10246TIP3    H130695   2.556   7.372   4.983 -0.0317 -0.5763 -0.2489
10246TIP3    H230696   2.660   7.368   4.873  0.5095  0.7355  0.1839
10247TIP3   OH230697   3.751   0.931   6.667  0.5540  0.0693  0.1859
10247TIP3    H130698   3.766   1.024   6.687  0.5425 -0.1186  1.0973
10247TIP3    H230699   3.789   0.884   6.741 -1.1207 -0.5697  0.6800
10248TIP3   OH230700   1.805   6.182   4.521 -0.0680 -0.4187  0.0513
10248TIP3    H130701   1.856   6.120   4.573  1.2680 -0.1300 -0.8538
10248TIP3    H230702   1.781   6.134   4.442  0.6806  0.0930 -0.4987
10249TIP3   OH230703   4.472   3.287   0.387 -0.2022  0.1919  0.4927
10249TIP3    H130704   4.386   3.295   0.427 -0.3182 -0.2524  0.3404
10249TIP3    H230705   4.494   3.376   0.360 -0.8149  0.2424  0.1293
10250TIP3   OH230706   1.250   0.995   2.026 -0.6851 -0.5360  0.3105
10250TIP3    H130707   1.188   0.945   1.972 -1.5739  1.2844 -0.4189
10250TIP3    H230708   1.214   0.988   2.115 -0.4362 -1.7060  0.3334
10251TIP3   OH230709   6.439   5.189   5.481  0.3084 -0.3858 -0.1243
10251TIP3    H130710   6.366   5.155   5.429  0.3719 -1.3887  0.4145
10251TIP3    H230711   6.444   5.282   5.458  1.4470 -1.0932 -3.2790
10252TIP3   OH230712   4.473   1.553   2.512 -0.4909  0.1234 -0.0835
10252TIP3    H130713   4.431   1.468   2.529  0.2080  0.0157  1.2352
10252TIP3    H230714   4.562   1.530   2.482 -0.4136  0.3895 -0.0584
10253TIP3   OH230715   1.103   5.169   4.892  0.0152  0.0309  0.0501
10253TIP3    H130716   1.030   5.231   4.895 -0.4675 -0.5547  0.7277
10253TIP3    H230717   1.067   5.088   4.927  1.5776  0.3022  2.4916
10254TIP3   OH230718   7.504   0.540   5.159  0.1355 -0.2005  0.5630
10254TIP3    H130719   7.581   0.489   5.184 -0.0498 -0.8527 -0.1646
10254TIP3    H230720   7.508   0.546   5.064 -1.8721 -2.2076  0.2493
10255TIP3   OH230721   5.978   0.907   3.166  0.4619  0.5845  0.0447
10255TIP3    H130722   5.987   0.831   3.223 -0.7482 -0.9507 -1.7133
10255TIP3    H230723   6.048   0.898   3.102 -1.1369 -0.4692 -1.6433
10256TIP3   OH230724   5.357   5.808   6.407  0.1454  0.0617  0.1234
10256TIP3    H130725   5.391   5.769   6.487 -0.1027  0.6258  0.5053
10256TIP3    H230726   5.420   5.877   6.385  0.0596  0.0984 -0.0099
10257TIP3   OH230727   0.959   1.247   4.859  0.1225  0.2672 -0.2509
10257TIP3    H130728   0.999   1.233   4.773 -1.9134 -0.5975 -1.1198
10257TIP3    H230729   0.909   1.167   4.876 -1.3309  1.3147  0.7002
10258TIP3   OH230730   2.402   7.485   5.035  0.4088 -0.2144 -0.2440
10258TIP3    H130731   2.314   7.476   5.073  0.2273  1.3228 -0.2435
10258TIP3    H230732   2.388   7.534   4.954  1.3699  1.0358  0.3188
10259TIP3   OH230733   8.030   6.828   4.820 -0.5759  0.4841 -0.1989
10259TIP3    H130734   7.942   6.818   4.856 -0.2233  0.8758  0.8010
10259TIP3    H230735   8.088   6.800   4.891  0.0842 -2.3115 -1.6845
10260TIP3   OH230736   3.318   7.013   5.216  0.4426 -0.6126 -0.5921
10260TIP3    H130737   3.403   7.014   5.259 -0.2673 -3.1133  1.0666
10260TIP3    H230738   3.339   7.008   5.122  2.0264  1.9125 -0.4561
10261TIP3   OH230739   7.633   5.157   0.393 -0.8222 -0.3336  0.0365
10261TIP3    H130740   7.727   5.167   0.383 -0.9885 -0.3963 -2.1121
10261TIP3    H230741   7.605   5.234   0.443  0.1060  0.8851 -1.2569
10262TIP3   OH230742   0.644   3.632   3.378  0.1159 -0.0633 -0.7526
10262TIP3    H130743   0.682   3.707   3.331  0.7859 -0.4119 -0.7815
10262TIP3    H230744   0.671   3.645   3.469 -0.2438  0.0243 -0.6567
10263TIP3   OH230745   5.622   1.719   4.961 -0.5133 -0.3554 -0.8863
10263TIP3    H130746   5.639   1.631   4.927  4.0537  0.3112 -0.9940
10263TIP3    H230747   5.645   1.777   4.889  0.9200  0.9425  0.5456
10264TIP3   OH230748   6.563   6.195   1.798 -0.4275 -0.4987  0.2061
10264TIP3    H130749   6.637   6.140   1.824 -0.7491 -0.4542  1.2620
10264TIP3    H230750   6.593   6.239   1.718  0.1935 -1.4513 -0.1038
10265TIP3   OH230751   5.756   7.117   1.577 -0.0468  0.0256 -0.7592
10265TIP3    H130752   5.753   7.038   1.523  1.6138 -1.5306  1.2216
10265TIP3    H230753   5.714   7.092   1.659 -0.2173  1.4787 -0.3715
10266TIP3   OH230754   4.390   5.603   6.737 -0.0563 -0.3727 -0.3430
10266TIP3    H130755   4.454   5.607   6.666  0.4275  1.1813  0.1594
10266TIP3    H230756   4.306   5.590   6.692  0.5088 -1.9276 -1.0317
10267TIP3   OH230757   0.012   3.022   5.080  0.1890 -0.1139 -0.0996
10267TIP3    H130758   0.093   3.063   5.050 -0.0065 -0.5910 -1.3430
10267TIP3    H230759  -0.035   3.092   5.126  1.1524  0.2494  0.3561
10268TIP3   OH230760   7.402   0.770   2.820  0.3425  0.2563 -0.2908
10268TIP3    H130761   7.415   0.690   2.769  1.0971 -0.7291  1.3581
10268TIP3    H230762   7.400   0.740   2.911  1.8002  2.2270  0.4611
10269TIP3   OH230763   5.021   4.862   6.393  0.2582  0.3938  0.9137
10269TIP3    H130764   5.106   4.824   6.416  0.4621  0.5259  0.4052
10269TIP3    H230765   5.043   4.939   6.341 -0.1770 -0.6524 -0.9094
10270TIP3   OH230766   5.720   3.545   3.663 -0.0173  0.9577  0.3774
10270TIP3    H130767   5.626   3.565   3.666 -0.0217  0.8171  2.0495
10270TIP3    H230768   5.739   3.535   3.570 -1.6261  1.1390 -0.0055
10271TIP3   OH230769   2.645   4.298   3.960  0.0290  0.3110  0.0506
10271TIP3    H130770   2.589   4.232   4.000 -0.4890  2.1554  2.6460
10271TIP3    H230771   2.732   4.281   3.996  0.3916 -0.2933 -1.0676
10272TIP3   OH230772   2.484   1.973   3.120  0.1271  0.4476  0.5034
10272TIP3    H130773   2.417   1.906   3.102 -0.3022  0.6245  1.3876
10272TIP3    H230774   2.513   1.955   3.209  2.5441 -0.6889 -0.4179
10273TIP3   OH230775   0.825   7.451   4.551  0.0216  0.7163 -0.4493
10273TIP3    H130776   0.835   7.357   4.568 -2.3369  0.3112 -0.8911
10273TIP3    H230777   0.913   7.481   4.527  0.9884 -1.1901  0.5233
10274TIP3   OH230778   4.969   4.437   3.463 -0.5099  0.5427 -0.0131
10274TIP3    H130779   4.877   4.422   3.443 -0.1554 -1.5749 -0.3499
10274TIP3    H230780   5.010   4.449   3.377 -0.3864  0.9898  0.1050
10275TIP3   OH230781   1.636   0.514   5.840  0.5385 -0.1842 -0.2764
10275TIP3    H130782   1.628   0.519   5.935  0.4971  2.4525 -0.3382
10275TIP3    H230783   1.724   0.478   5.825  0.5242 -0.6736  0.7414
10276TIP3   OH230784   3.206   3.625   3.115  0.7543 -0.7598 -0.1593
10276TIP3    H130785   3.119   3.596   3.088 -0.0666  0.5575  0.8719
10276TIP3    H230786   3.216   3.590   3.204  0.9601 -0.3153 -0.0025
10277TIP3   OH230787   8.095   4.336   6.289 -0.0845 -0.6803 -0.3194
10277TIP3    H130788   8.028   4.291   6.340 -1.0048  1.1216  0.1387
10277TIP3    H230789   8.056   4.351   6.204 -0.9361  1.7401  0.4230
10278TIP3   OH230790   0.460   2.207   2.539  0.2481  0.0828  0.1675
10278TIP3    H130791   0.429   2.253   2.462  1.1355  0.4071  0.0014
10278TIP3    H230792   0.525   2.265   2.578 -0.8238  0.3452  1.6813
10279TIP3   OH230793   4.380   3.403   2.076 -0.3527 -0.4563  0.6158
10279TIP3    H130794   4.412   3.489   2.104  0.1057 -0.8157  1.2314
10279TIP3    H230795   4.285   3.410   2.076 -0.3082  0.2716 -0.0673
10280TIP3   OH230796   6.448   1.030   4.293  0.0777 -0.2002  0.3812
10280TIP3    H130797   6.364   1.074   4.309 -0.4745 -0.8331 -0.7347
10280TIP3    H230798   6.486   1.079   4.220 -0.2190 -1.1100 -0.3987
10281TIP3   OH230799   3.521   1.577   4.217  0.0337 -0.5362 -0.1168
10281TIP3    H130800   3.525   1.525   4.136  0.7298 -1.6497  0.6072
10281TIP3    H230801   3.450   1.537   4.267 -2.0468  1.6325 -1.1047
10282TIP3   OH230802   7.568   6.433   4.656 -0.3399 -0.4336 -0.3415
10282TIP3    H130803   7.556   6.364   4.722  2.8562 -2.2984 -1.4642
10282TIP3    H230804   7.542   6.392   4.574  0.8100 -0.0337 -0.9223
10283TIP3   OH230805   0.717   2.352   5.096  0.6869  0.1020 -0.6786
10283TIP3    H130806   0.780   2.294   5.139 -0.4289  0.1746  1.1935
10283TIP3    H230807   0.648   2.294   5.065  1.2915  0.0969 -2.0764
10284TIP3   OH230808   1.321   0.120   2.599 -0.2867  1.1999  0.2184
10284TIP3    H130809   1.272   0.040   2.582  0.2102  0.9156  0.1301
10284TIP3    H230810   1.257   0.179   2.639 -0.2773  0.2247  1.7404
10285TIP3   OH230811   0.516   0.373   4.555 -0.3320 -0.0690 -0.6318
10285TIP3    H130812   0.457   0.299   4.567  0.6911 -1.0571 -1.4190
10285TIP3    H230813   0.589   0.338   4.504  0.4380  1.3612 -0.5909
10286TIP3   OH230814   5.359   5.692   0.980  0.0205 -0.0193  0.3063
10286TIP3    H130815   5.452   5.703   0.997 -0.2990  3.7468  0.5419
10286TIP3    H230816   5.340   5.753   0.909 -2.4179  0.0064  0.8738
10287TIP3   OH230817   2.165   5.875   3.487 -0.6272  0.2991 -0.0713
10287TIP3    H130818   2.145   5.791   3.447 -0.1604 -0.2696  0.8767
10287TIP3    H230819   2.174   5.935   3.412  0.0324 -0.6899 -0.8074
10288TIP3   OH230820   7.125   1.878   3.382 -0.2180  0.5851  0.3181
10288TIP3    H130821   7.110   1.915   3.469 -0.7394 -1.1033  0.9691
10288TIP3    H230822   7.058   1.810   3.372 -0.6866  1.2629 -1.7426
10289TIP3   OH230823   7.793   7.403   2.573  0.1794 -0.0212 -0.2455
10289TIP3    H130824   7.803   7.478   2.632  1.2471  1.2885 -2.0051
10289TIP3    H230825   7.699   7.396   2.559  0.0886  1.2795 -0.3785
10290TIP3   OH230826   0.676   0.248   6.076  0.1491  0.2811 -0.3665
10290TIP3    H130827   0.642   0.161   6.060  1.2523 -0.2840  0.2396
10290TIP3    H230828   0.603   0.295   6.118  0.2161 -1.0454  1.3716
10291TIP3   OH230829   5.798   4.844   4.981 -0.1675  0.6911 -0.1767
10291TIP3    H130830   5.741   4.836   5.057 -0.5962  0.1062 -0.5537
10291TIP3    H230831   5.872   4.897   5.012 -0.7764  1.2218  0.3879
10292TIP3   OH230832   0.448   0.858   6.549  0.1711  0.2343  0.3421
10292TIP3    H130833   0.528   0.908   6.531 -0.2353  0.4853 -0.8390
10292TIP3    H230834   0.446   0.850   6.644  0.0268  2.8821  0.6270
10293TIP3   OH230835   2.949   6.752   1.277  0.4569  0.2380 -0.0675
10293TIP3    H130836   3.006   6.824   1.248  1.6789 -0.9631 -0.7525
10293TIP3    H230837   3.008   6.679   1.292 -0.6696 -0.4081  1.4269
10294TIP3   OH230838   2.782   2.316   6.702  0.3030  0.0353  1.1513
10294TIP3    H130839   2.777   2.230   6.660  1.4454  1.2827 -1.8508
10294TIP3    H230840   2.875   2.329   6.719  0.0838  0.4871  2.0725
10295TIP3   OH230841   6.857   0.433   6.419 -0.2206  0.0974  0.8184
10295TIP3    H130842   6.870   0.525   6.445  0.6016  0.2539 -0.0500
10295TIP3    H230843   6.854   0.437   6.323 -1.1863 -0.6744  0.8067
10296TIP3   OH230844   2.386   5.149   0.600 -0.5265 -0.0612 -0.1310
10296TIP3    H130845   2.480   5.128   0.605 -0.4900  0.3768  2.0453
10296TIP3    H230846   2.363   5.176   0.689 -3.2577 -2.3762 -0.0017
10297TIP3   OH230847   5.335   4.130   3.442  0.2868  0.5394 -0.4040
10297TIP3    H130848   5.373   4.079   3.514  0.3674  0.4116 -0.5350
10297TIP3    H230849   5.368   4.087   3.363 -0.6081  0.0638 -0.5326
10298TIP3   OH230850   5.533   1.524   0.565  0.0882 -0.4056  0.2028
10298TIP3    H130851   5.468   1.532   0.495 -1.7906 -2.0374  1.6444
10298TIP3    H230852   5.564   1.613   0.580 -1.0309  0.2581 -1.2774
10299TIP3   OH230853   7.209   7.245   5.640  0.3998  0.2541  0.2760
10299TIP3    H130854   7.136   7.191   5.609  0.4407  0.8898 -0.9915
10299TIP3    H230855   7.287   7.199   5.610  0.4889  0.1916  0.5997
10300TIP3   OH230856   0.219   4.755   4.988 -0.3348  0.2874 -0.2017
10300TIP3    H130857   0.208   4.662   4.969 -0.8269  0.3223 -0.0966
10300TIP3    H230858   0.301   4.759   5.037 -0.3210 -0.0956 -0.1880
10301TIP3   OH230859   5.772   3.165   4.679 -0.3884 -0.4176 -0.3768
10301TIP3    H130860   5.720   3.196   4.605  0.8558 -0.0957 -1.1600
10301TIP3    H230861   5.771   3.069   4.670  0.8269 -0.3485 -1.6267
10302TIP3   OH230862   4.792   4.805   5.884 -0.4217 -0.1452  0.0027
10302TIP3    H130863   4.800   4.798   5.979  0.6931 -0.4259 -0.1000
10302TIP3    H230864   4.748   4.724   5.858 -1.6539  0.3904  0.3715
10303TIP3   OH230865   4.348   0.155   4.401  0.2668 -0.1041  0.1564
10303TIP3    H130866   4.325   0.207   4.478 -0.8413 -0.0258 -0.2197
10303TIP3    H230867   4.328   0.065   4.426  3.5792 -0.6693  1.3654
10304TIP3   OH230868   4.714   4.995   4.312 -1.0471 -0.2434 -0.2671
10304TIP3    H130869   4.633   4.952   4.287 -0.3736 -1.2358 -0.8033
10304TIP3    H230870   4.693   5.089   4.312 -2.0326 -0.4512 -0.9517
10305TIP3   OH230871   6.279   5.998   2.250  0.1928  0.5575 -0.1557
10305TIP3    H130872   6.267   6.001   2.155 -0.5121 -1.9105 -0.2142
10305TIP3    H230873   6.239   5.915   2.277  0.4092  1.1704  2.3088
10306TIP3   OH230874   0.359   0.019   6.010  0.1908  0.0002 -0.4700
10306TIP3    H130875   0.349   0.073   5.931  0.3048 -1.7100 -1.7015
10306TIP3    H230876   0.296   0.056   6.072 -1.4513  0.0923 -2.1034
10307TIP3   OH230877   3.100   3.017   3.115  0.2287 -0.2891  0.1884
10307TIP3    H130878   3.091   3.111   3.097  2.0691  0.1914  1.4725
10307TIP3    H230879   3.042   3.001   3.189  0.5204  0.0225  0.4853
10308TIP3   OH230880   2.829   1.228   4.436  0.1716  0.3380 -0.3210
10308TIP3    H130881   2.786   1.309   4.409 -1.7882 -1.0716 -1.7080
10308TIP3    H230882   2.827   1.231   4.532 -1.9662  0.9286 -0.3396
10309TIP3   OH230883   1.925   4.754   5.295  0.1634 -0.2076 -0.3173
10309TIP3    H130884   1.833   4.755   5.321  0.7137  2.3470  1.9663
10309TIP3    H230885   1.927   4.700   5.216 -3.2590 -0.3731 -0.4336
10310TIP3   OH230886   1.794   5.254   3.837 -0.0580  0.1999 -0.3403
10310TIP3    H130887   1.724   5.319   3.848  0.2066  0.2775  1.1140
10310TIP3    H230888   1.771   5.207   3.757 -1.9593  0.0133  0.2677
10311TIP3   OH230889   6.082   1.408   5.349  0.0073 -0.6455  0.0251
10311TIP3    H130890   6.174   1.429   5.334 -0.3053  0.4867 -0.4566
10311TIP3    H230891   6.077   1.313   5.345  0.8741 -0.6582 -1.6987
10312TIP3   OH230892   3.800   3.775   3.315  0.3581  0.0870  0.2507
10312TIP3    H130893   3.807   3.687   3.279  1.8206  0.3159 -0.1275
10312TIP3    H230894   3.891   3.802   3.329  0.1054  2.3145 -1.6328
10313TIP3   OH230895   2.480   3.617   0.824  0.0667  0.7999 -0.0975
10313TIP3    H130896   2.456   3.529   0.794 -1.4239  1.5335 -1.2277
10313TIP3    H230897   2.490   3.608   0.918  0.3357 -0.6563 -0.2371
10314TIP3   OH230898   4.055   4.861   3.935  0.1602 -0.5489 -0.1207
10314TIP3    H130899   3.997   4.840   3.862 -1.1741  2.5210 -0.0678
10314TIP3    H230900   4.015   4.818   4.010 -0.7147 -0.3912 -0.4898
10315TIP3   OH230901   1.546   2.600   0.562  0.0539 -0.0147 -0.1347
10315TIP3    H130902   1.543   2.574   0.654  2.1655 -0.8045 -0.2231
10315TIP3    H230903   1.571   2.693   0.565 -0.0555  0.0097  0.0908
10316TIP3   OH230904   4.356   7.490   1.993  0.0317 -0.1699 -0.4658
10316TIP3    H130905   4.382   7.440   2.070 -0.9029 -0.3799 -0.2720
10316TIP3    H230906   4.272   7.453   1.968 -0.2536  0.7142 -0.8571
10317TIP3   OH230907   3.787   5.390   3.734 -0.1926  0.2158  0.0896
10317TIP3    H130908   3.705   5.376   3.688 -0.0202 -0.9384  0.1177
10317TIP3    H230909   3.780   5.337   3.813  0.6523 -0.0371  0.0049
10318TIP3   OH230910   4.529   3.783   5.299  0.3548 -0.4982  0.4348
10318TIP3    H130911   4.484   3.818   5.223 -2.5174 -1.5417  1.5210
10318TIP3    H230912   4.561   3.860   5.345 -0.8271  0.3698 -0.1388
10319TIP3   OH230913   0.382   1.994   0.283  0.3361  0.0776 -0.2812
10319TIP3    H130914   0.370   1.987   0.189  0.4431  1.0383 -0.3784
10319TIP3    H230915   0.296   1.973   0.320 -0.0588  0.9345 -0.6689
10320TIP3   OH230916   1.351   1.002   4.152 -0.9896  0.0123  0.0581
10320TIP3    H130917   1.414   1.061   4.193 -0.6920 -1.1062  1.2744
10320TIP3    H230918   1.363   1.016   4.058 -1.9550  2.9187  0.2638
10321TIP3   OH230919   2.053   0.359   3.374  0.1987 -0.3948  0.1888
10321TIP3    H130920   2.037   0.277   3.421  0.3572 -0.6178 -0.1503
10321TIP3    H230921   2.128   0.341   3.318 -0.5126 -0.3926 -0.7880
10322TIP3   OH230922   1.125   1.268   2.575 -0.0087 -0.2959  0.6119
10322TIP3    H130923   1.149   1.231   2.660  0.9214  0.9366  0.9118
10322TIP3    H230924   1.104   1.359   2.593 -0.7961 -0.2765 -0.3313
10323TIP3   OH230925   4.598   7.677   5.102 -0.2960  0.5567 -0.3423
10323TIP3    H130926   4.509   7.655   5.127  0.2809  0.1347  1.5109
10323TIP3    H230927   4.597   7.678   5.006 -1.5091 -2.8772 -0.4984
10324TIP3   OH230928   4.237   7.387   1.369 -0.4632  0.0313 -0.7288
10324TIP3    H130929   4.304   7.356   1.309 -1.0685  1.6867 -2.3527
10324TIP3    H230930   4.160   7.335   1.349 -0.2329 -0.5286 -0.2135
10325TIP3   OH230931   3.685   2.481   2.628  0.2158 -0.5705  0.4500
10325TIP3    H130932   3.666   2.452   2.539 -1.4072 -0.1629  0.6388
10325TIP3    H230933   3.644   2.414   2.683 -0.4078  0.1558  0.8806
10326TIP3   OH230934   4.289   0.809   6.593  0.2190  0.1887  0.5284
10326TIP3    H130935   4.320   0.800   6.503 -1.3282 -0.2093  0.0118
10326TIP3    H230936   4.204   0.765   6.594 -0.7397  1.9580  1.6699
10327TIP3   OH230937   4.136   2.897   0.887  0.3688  0.9092  0.3715
10327TIP3    H130938   4.167   2.981   0.922 -0.5768  1.7073 -0.6019
10327TIP3    H230939   4.068   2.869   0.948  0.2806  1.1535  0.3886
10328TIP3   OH230940   0.517   0.263   4.926  0.1357 -0.1416  0.3873
10328TIP3    H130941   0.431   0.294   4.897  0.7644  1.6687  0.3354
10328TIP3    H230942   0.551   0.335   4.979  0.7727 -1.6839  2.1595
10329TIP3   OH230943   6.599   6.852   6.190 -0.6423  0.0800  0.4638
10329TIP3    H130944   6.571   6.760   6.195 -0.3743  0.0760  3.2884
10329TIP3    H230945   6.571   6.890   6.273  0.1117  2.3275 -0.2584
10330TIP3   OH230946   5.316   4.823   4.380 -0.3344 -0.3473  0.3087
10330TIP3    H130947   5.309   4.831   4.475 -1.3100  0.3986  0.1951
10330TIP3    H230948   5.229   4.793   4.352 -0.3735  0.4007 -0.4185
10331TIP3   OH230949   3.176   0.153   2.579  0.3418  0.3635 -0.0606
10331TIP3    H130950   3.172   0.228   2.638 -0.3212 -0.4596  0.9871
10331TIP3    H230951   3.269   0.132   2.573  0.4145  0.4145  0.7752
10332TIP3   OH230952   3.576   7.490   2.231  0.3774  0.0233 -0.0382
10332TIP3    H130953   3.551   7.402   2.259  0.0178  0.2279  0.2900
10332TIP3    H230954   3.637   7.520   2.298  0.1012  0.2220  0.1261
10333TIP3   OH230955   3.252   0.727   3.542 -0.1362  0.3436 -0.4022
10333TIP3    H130956   3.323   0.678   3.501 -0.8452 -3.5516  2.4652
10333TIP3    H230957   3.284   0.747   3.630 -1.0635  2.4498 -0.4879
10334TIP3   OH230958   4.201   7.285   0.052  0.1552 -0.2004  0.0580
10334TIP3    H130959   4.261   7.287  -0.023 -0.0540  2.0778 -0.1120
10334TIP3    H230960   4.114   7.290   0.013 -0.0846 -1.3015  0.4050
10335TIP3   OH230961   6.953   1.057   2.469 -0.9236 -0.0868 -0.2436
10335TIP3    H130962   6.868   1.098   2.452 -0.6766  0.6411  0.2382
10335TIP3    H230963   6.966   1.067   2.563  0.7335  1.8883 -0.6163
10336TIP3   OH230964  -0.010   6.444   6.617 -0.1221 -0.4225  0.1948
10336TIP3    H130965   0.074   6.491   6.622 -0.0143 -0.7500  2.2481
10336TIP3    H230966   0.010   6.365   6.568  0.7838 -0.4813  0.6357
10337TIP3   OH230967   6.346   5.379   2.093 -0.1300 -0.2227 -0.0420
10337TIP3    H130968   6.426   5.398   2.140 -0.5631  0.0988  0.5825
10337TIP3    H230969   6.280   5.367   2.162 -0.6634 -0.2354 -0.5470
10338TIP3   OH230970   0.533   1.403   1.786  0.3138  0.1156  0.5343
10338TIP3    H130971   0.437   1.406   1.791  0.3628  2.3128  2.3227
10338TIP3    H230972   0.560   1.492   1.809  2.7845 -0.1453 -1.0562
10339TIP3   OH230973   8.091   4.624   0.244  0.3907 -0.7905 -0.0756
10339TIP3    H130974   8.002   4.592   0.259  0.9845 -2.1324  0.7981
10339TIP3    H230975   8.147   4.561   0.290  1.7673  0.2653 -0.2433
10340TIP3   OH230976   6.289   2.461   1.449 -0.1781  0.0027 -0.1782
10340TIP3    H130977   6.277   2.556   1.452 -0.2902 -0.0166  0.0175
10340TIP3    H230978   6.244   2.433   1.370  0.6624  0.2276 -0.7528
10341TIP3   OH230979   1.289   5.498   5.975  0.4088  0.6605  0.0947
10341TIP3    H130980   1.194   5.486   5.974  0.3019  0.8286  2.8121
10341TIP3    H230981   1.302   5.588   5.943 -0.3062  0.6070 -0.3812
10342TIP3   OH230982   0.450   1.104   4.312 -0.3817 -0.1785 -0.2822
10342TIP3    H130983   0.522   1.165   4.324 -0.9228  0.2413  0.9118
10342TIP3    H230984   0.485   1.037   4.252  1.2320 -0.3728  0.8206
10343TIP3   OH230985   3.014   0.308   4.471 -0.0842  0.6224  0.0824
10343TIP3    H130986   3.085   0.244   4.480 -0.7011  0.2579  4.2137
10343TIP3    H230987   2.958   0.272   4.402  1.4144 -1.4675 -0.1378
10344TIP3   OH230988   5.017   5.690   5.190 -0.8950  0.3216 -0.5443
10344TIP3    H130989   5.055   5.770   5.153  0.2206 -0.5944 -1.4704
10344TIP3    H230990   5.023   5.702   5.285 -0.4127  1.1860 -0.6786
10345TIP3   OH230991   7.111   3.916   2.541  0.2905  0.2390 -0.3388
10345TIP3    H130992   7.152   3.835   2.572  0.8556  0.7352  0.2166
10345TIP3    H230993   7.026   3.918   2.585  0.1392 -0.2004 -0.5951
10346TIP3   OH230994   2.712   6.919   4.906 -0.1296 -0.3280  0.0565
10346TIP3    H130995   2.723   6.845   4.965 -0.3324 -1.0560 -0.7943
10346TIP3    H230996   2.801   6.946   4.884 -0.0390 -1.1112 -0.5838
10347TIP3   OH230997   6.493   6.901   2.968  0.4903 -0.4224  0.0390
10347TIP3    H130998   6.538   6.985   2.970  0.0722 -0.1915 -0.0184
10347TIP3    H230999   6.553   6.840   3.011  0.6814 -0.0410  0.3163
10348TIP3   OH231000   2.505   2.283   4.391  0.5502 -0.1612 -0.0303
10348TIP3    H131001   2.480   2.245   4.475 -0.0608  0.2334 -0.0251
10348TIP3    H231002   2.584   2.236   4.365 -1.1059 -2.7215 -0.8806
10349TIP3   OH231003   0.640   1.671   5.602 -0.5412  0.2963 -0.0229
10349TIP3    H131004   0.667   1.762   5.607 -0.2819  0.1551  2.2834
10349TIP3    H231005   0.579   1.660   5.675 -1.1156 -1.2064 -0.6852
10350TIP3   OH231006   6.951   0.006   3.098  0.2696 -0.0159 -0.2659
10350TIP3    H131007   7.022   0.024   3.036  0.7694  1.4422  0.6476
10350TIP3    H231008   6.989   0.030   3.183  0.3036 -3.8114  0.9486
10351TIP3   OH231009   5.783   1.000   3.837  0.1229 -0.3191 -0.1341
10351TIP3    H131010   5.722   1.073   3.824  0.2575 -0.2387 -0.3183
10351TIP3    H231011   5.818   1.013   3.925 -0.2142 -0.4320  0.0194
10352TIP3   OH231012   5.809   0.799   4.157 -0.1449  0.0614  0.1198
10352TIP3    H131013   5.879   0.756   4.107  0.4500  0.0192  0.9654
10352TIP3    H231014   5.737   0.809   4.095  0.6303  0.1450 -0.7752
10353TIP3   OH231015   3.311   7.162   4.006 -0.1863 -1.0172 -0.1070
10353TIP3    H131016   3.294   7.185   3.915  1.7265 -0.9897 -0.5039
10353TIP3    H231017   3.256   7.221   4.057 -1.6086 -1.3237 -1.2320
10354TIP3   OH231018   5.163   5.154   1.366 -0.6479  0.0679 -0.1137
10354TIP3    H131019   5.125   5.067   1.373  0.4102 -0.4242 -0.3040
10354TIP3    H231020   5.192   5.174   1.455 -0.8094  0.1839 -0.0879
10355TIP3   OH231021   7.839   2.665   4.494  0.5665  0.7366  0.3268
10355TIP3    H131022   7.850   2.648   4.588  1.0769 -2.9249 -0.2403
10355TIP3    H231023   7.746   2.651   4.478  0.4971  1.2609  0.2558
10356TIP3   OH231024   0.800   3.039   2.875 -0.0398 -0.7352 -0.2079
10356TIP3    H131025   0.821   3.101   2.945  0.0791 -1.3165  0.2703
10356TIP3    H231026   0.828   2.954   2.908 -0.1659 -1.0440 -0.8813
10357TIP3   OH231027   4.940   4.188   0.777  0.3725 -0.5650 -0.1431
10357TIP3    H131028   4.850   4.162   0.761  0.3787 -0.4015 -0.4697
10357TIP3    H231029   4.977   4.119   0.831 -0.5776  0.4631  1.9306
10358TIP3   OH231030   2.166   4.619   6.365 -0.1733  0.0730 -0.4316
10358TIP3    H131031   2.175   4.683   6.436  0.7770  1.7896 -1.9755
10358TIP3    H231032   2.245   4.566   6.371 -0.6609 -0.5677  0.4828
10359TIP3   OH231033   2.364   1.419   0.282 -0.1301  0.2533  0.2428
10359TIP3    H131034   2.397   1.387   0.198 -0.8500  0.6662 -0.2113
10359TIP3    H231035   2.409   1.366   0.347  1.5447  0.9090 -0.3352
10360TIP3   OH231036   5.274   6.328   5.517  0.6724 -0.5896  0.7659
10360TIP3    H131037   5.335   6.360   5.584  1.0305 -1.3028  0.7928
10360TIP3    H231038   5.314   6.247   5.486  0.8930  0.0956 -0.8401
10361TIP3   OH231039   5.029   0.046   1.322  0.1819  0.0910 -0.8187
10361TIP3    H131040   4.993  -0.043   1.311 -0.0986  0.2016 -0.8170
10361TIP3    H231041   5.105   0.034   1.378 -0.1317 -0.0926 -0.4273
10362TIP3   OH231042   2.085   5.587   3.401  0.7243  0.0440 -0.2367
10362TIP3    H131043   1.997   5.567   3.434  0.3421 -0.8463 -1.6862
10362TIP3    H231044   2.133   5.505   3.407  1.0998  0.2399 -0.4867
10363TIP3   OH231045   7.171   5.763   5.400 -0.6180 -0.1690  0.3010
10363TIP3    H131046   7.076   5.765   5.395 -0.7111 -1.1572  1.1861
10363TIP3    H231047   7.201   5.823   5.332 -1.8702  0.2138  0.0755
10364TIP3   OH231048   4.739   3.100   6.029  0.4387  0.3301 -0.5239
10364TIP3    H131049   4.673   3.136   5.970 -0.5945 -0.1631  0.2806
10364TIP3    H231050   4.714   3.008   6.039  0.6942  0.3601  0.5215
10365TIP3   OH231051   7.530   7.080   4.117  0.0713 -0.1546 -0.0320
10365TIP3    H131052   7.594   7.077   4.046  1.2271 -0.9518  1.0030
10365TIP3    H231053   7.466   7.013   4.095 -0.5963  0.8145 -1.2025
10366TIP3   OH231054   3.681   6.437   0.227  0.1457  0.2282  0.1728
10366TIP3    H131055   3.714   6.396   0.307  0.4772  0.8057  0.3379
10366TIP3    H231056   3.743   6.410   0.159 -1.1550 -1.8278 -0.3140
10367TIP3   OH231057   4.746   3.250   1.157  0.7687 -0.3906 -0.1812
10367TIP3    H131058   4.682   3.255   1.085  1.1637 -0.1044 -0.5173
10367TIP3    H231059   4.795   3.169   1.139  0.3647 -0.7298  0.2008
10368TIP3   OH231060   7.921   1.339   1.092  0.8660  0.3082 -0.1197
10368TIP3    H131061   7.916   1.349   0.996 -0.6805  0.1715 -0.0795
10368TIP3    H231062   7.917   1.244   1.106  0.3132  0.3575  0.0947
10369TIP3   OH231063   2.524   0.556   2.167  0.3354 -0.0533  0.1141
10369TIP3    H131064   2.468   0.613   2.115  0.4953  0.6642  0.7040
10369TIP3    H231065   2.601   0.539   2.112  1.3027  2.0749  0.6941
10370TIP3   OH231066   0.622   0.172   1.035  0.0183  0.0869  0.3774
10370TIP3    H131067   0.590   0.260   1.017 -0.1214  0.4893  2.2946
10370TIP3    H231068   0.717   0.182   1.044  0.1727 -0.2413 -0.8173
10371TIP3   OH231069   4.845   0.640  -0.026 -0.1194  0.4334 -0.2387
10371TIP3    H131070   4.862   0.586   0.052 -0.8466  0.2954 -0.1678
10371TIP3    H231071   4.802   0.718   0.008 -1.1564  0.0241 -0.5679
10372TIP3   OH231072   4.615   6.768   3.878 -0.3391 -0.7565  0.3722
10372TIP3    H131073   4.705   6.735   3.878  0.5294  1.4270  1.8209
10372TIP3    H231074   4.580   6.743   3.963 -1.2533 -1.8753 -0.3073
10373TIP3   OH231075   6.872   6.855   3.439  0.3588 -0.7536 -0.2832
10373TIP3    H131076   6.881   6.879   3.346 -1.6119 -0.9726 -0.5811
10373TIP3    H231077   6.785   6.814   3.444  0.9267 -1.8109  1.4546
10374TIP3   OH231078   6.550   0.120   3.702 -0.0685  0.3068 -0.0594
10374TIP3    H131079   6.596   0.036   3.703  0.6482  0.6483 -1.4669
10374TIP3    H231080   6.601   0.176   3.761 -1.1979 -0.5129  1.8005
10375TIP3   OH231081   7.853   3.865   4.584 -0.3493 -0.6930 -0.4676
10375TIP3    H131082   7.899   3.862   4.500 -1.0799 -1.0598 -0.8653
10375TIP3    H231083   7.878   3.783   4.627  0.7725 -0.0830  0.0968
10376TIP3   OH231084   7.360   6.032   5.782  0.5801 -0.4074 -0.3349
10376TIP3    H131085   7.376   5.984   5.864  0.5089  0.4977  0.2278
10376TIP3    H231086   7.432   6.006   5.725  1.5538  0.1516  0.5860
10377TIP3   OH231087   7.050   1.604   0.201 -0.1747  0.1536  0.2770
10377TIP3    H131088   6.978   1.552   0.238 -0.5792  1.1274  0.8955
10377TIP3    H231089   7.067   1.671   0.266 -0.2154  1.3043 -0.8491
10378TIP3   OH231090   1.033   0.256   4.601 -0.0590 -0.6190  0.3284
10378TIP3    H131091   0.986   0.299   4.673 -0.7292  0.5315 -0.7496
10378TIP3    H231092   1.081   0.185   4.643  0.8089  0.9575  2.1467
10379TIP3   OH231093   5.292   3.954   1.955  0.2149  0.1374 -1.2881
10379TIP3    H131094   5.203   3.991   1.959 -0.0928 -0.6674 -0.2739
10379TIP3    H231095   5.305   3.931   1.863 -0.4543  0.6758 -1.5243
10380TIP3   OH231096   0.172   2.591   0.363  0.1157 -0.1835 -0.5595
10380TIP3    H131097   0.219   2.673   0.347  1.9028 -1.0491  0.0462
10380TIP3    H231098   0.114   2.610   0.436  0.0946  0.6972 -0.7975
10381TIP3   OH231099   4.332   4.393   6.168 -0.5166 -0.4202  0.0835
10381TIP3    H131100   4.374   4.459   6.223 -0.9893 -0.2494  0.2397
10381TIP3    H231101   4.363   4.309   6.202  3.3705 -0.3255 -2.5936
10382TIP3   OH231102   8.146   6.843   0.239  0.4992 -0.1488 -0.3304
10382TIP3    H131103   8.093   6.899   0.296  0.9978  0.0616 -0.0611
10382TIP3    H231104   8.231   6.887   0.236  0.4658 -0.1493 -1.2698
10383TIP3   OH231105   3.514   5.265   1.978 -0.2765 -0.0115  0.4933
10383TIP3    H131106   3.599   5.221   1.981 -0.3031 -0.0024  1.8430
10383TIP3    H231107   3.535   5.358   1.986 -0.4402 -0.0453  1.3520
10384TIP3   OH231108   5.284   1.470   4.020 -0.0559 -0.2644  0.4033
10384TIP3    H131109   5.297   1.380   3.989 -1.3568 -0.0301 -0.9116
10384TIP3    H231110   5.356   1.520   3.982 -0.9334 -0.2254 -1.2823
10385TIP3   OH231111   0.163   4.738   3.842  0.1669  0.0515 -0.2485
10385TIP3    H131112   0.119   4.792   3.776  0.2289  0.8722  0.3696
10385TIP3    H231113   0.204   4.668   3.791 -1.9929 -0.8881 -0.8488
10386TIP3   OH231114   1.817   3.187   1.856  0.2355 -0.0969  0.5339
10386TIP3    H131115   1.749   3.197   1.922 -1.3411 -0.5483 -0.9479
10386TIP3    H231116   1.787   3.115   1.800  0.2284  1.7916 -2.1086
10387TIP3   OH231117   3.320   3.617   1.421  0.5069  0.1567 -0.9426
10387TIP3    H131118   3.380   3.577   1.483 -0.5963  0.5564  0.4322
10387TIP3    H231119   3.257   3.548   1.400  0.3584  0.2843 -0.9186
10388TIP3   OH231120   0.062   7.074   3.882 -0.5052  0.5099  0.2574
10388TIP3    H131121   0.001   7.103   3.815 -2.5949 -1.0727  1.3834
10388TIP3    H231122   0.011   7.018   3.940  1.9672 -0.7582  1.3912
10389TIP3   OH231123   7.526   2.956   3.562 -0.0307  0.2967  0.0881
10389TIP3    H131124   7.467   2.881   3.555 -0.1276 -0.1362  3.8769
10389TIP3    H231125   7.473   3.031   3.537 -0.7833 -0.5279 -0.9205
10390TIP3   OH231126   6.433   0.820   5.957 -0.0035 -0.3315 -0.0356
10390TIP3    H131127   6.431   0.791   5.866 -0.1399 -0.9838  0.1654
10390TIP3    H231128   6.397   0.746   6.006 -0.7249  0.3314  0.4649
10391TIP3   OH231129   2.029   6.814   0.310  0.1521  0.4643 -0.0215
10391TIP3    H131130   1.999   6.905   0.313 -1.9415 -0.0965 -1.4852
10391TIP3    H231131   2.100   6.814   0.246 -0.6720  0.8916 -0.9595
10392TIP3   OH231132   5.385   5.084   3.072  0.5019 -0.5441  0.0371
10392TIP3    H131133   5.299   5.051   3.045  0.7343 -0.4904 -0.7706
10392TIP3    H231134   5.436   5.006   3.091  0.8356 -0.6531 -1.2196
10393TIP3   OH231135   6.664   6.567   6.661  0.7443 -0.2622 -0.3283
10393TIP3    H131136   6.647   6.536   6.573  1.1587 -0.4021 -0.3601
10393TIP3    H231137   6.662   6.663   6.653  1.1198 -0.2694 -0.5612
10394TIP3   OH231138   2.356   3.130   5.112 -0.3611  0.1056  0.4978
10394TIP3    H131139   2.429   3.169   5.064 -0.8119  1.6321  1.0002
10394TIP3    H231140   2.329   3.055   5.058  1.8542 -0.8108  0.5501
10395TIP3   OH231141   0.076   5.688   6.675 -0.2437 -0.3986  0.1642
10395TIP3    H131142   0.103   5.780   6.674 -1.6717  0.1025 -2.2167
10395TIP3    H231143  -0.009   5.688   6.719  0.1090 -0.7105  0.8492
10396TIP3   OH231144   0.401   5.463   3.525 -0.4639 -0.0818 -0.5538
10396TIP3    H131145   0.328   5.419   3.481  0.5288 -0.8670 -1.4780
10396TIP3    H231146   0.462   5.392   3.546  1.6908  0.8845 -3.0398
10397TIP3   OH231147   4.762   5.166   2.924 -0.7653 -0.7082  0.1531
10397TIP3    H131148   4.801   5.084   2.894 -1.6942 -0.8268 -0.7804
10397TIP3    H231149   4.833   5.230   2.919 -0.0339 -1.4375  0.8808
10398TIP3   OH231150   3.912   5.718   5.998 -0.0095 -0.4897 -0.4042
10398TIP3    H131151   3.867   5.706   5.915  0.9784  0.4690 -1.1166
10398TIP3    H231152   3.849   5.763   6.054 -0.7303 -1.2784 -0.5665
10399TIP3   OH231153   8.135   1.475   4.959 -0.3340  0.0625  0.2140
10399TIP3    H131154   8.209   1.524   4.995 -0.1563  0.5760 -0.7912
10399TIP3    H231155   8.172   1.389   4.939 -0.1841  0.0920  0.3552
10400TIP3   OH231156   7.846   5.826   5.695 -0.1973 -0.3940  0.5572
10400TIP3    H131157   7.923   5.830   5.638  0.3321 -0.9263  1.2180
10400TIP3    H231158   7.856   5.901   5.754 -2.3074  2.0317 -1.9119
10401TIP3   OH231159   2.521   6.919   2.696 -1.1961 -0.6606 -0.2041
10401TIP3    H131160   2.523   6.830   2.730  0.6987 -0.8994 -0.8587
10401TIP3    H231161   2.575   6.916   2.617 -0.5402  1.2109  0.1340
10402TIP3   OH231162   0.679   1.623   5.901  0.3045  0.1510 -0.2607
10402TIP3    H131163   0.767   1.646   5.873  0.6863 -0.3741  0.4685
10402TIP3    H231164   0.679   1.527   5.904  0.3478  0.1701  1.6478
10403TIP3   OH231165   7.970   0.603   0.065 -0.5826  0.1250 -0.3155
10403TIP3    H131166   7.987   0.672   0.001  1.0112  1.1258  1.0875
10403TIP3    H231167   7.975   0.648   0.150  1.8360 -1.8919  0.7327
10404TIP3   OH231168   6.612   0.963   2.498  0.1664  0.2226 -0.1920
10404TIP3    H131169   6.591   0.931   2.585 -1.6904  1.6107 -0.0759
10404TIP3    H231170   6.605   1.058   2.504  0.2479  0.3691 -1.8049
10405TIP3   OH231171   5.199   1.885   2.151 -0.1728  0.0895  0.1816
10405TIP3    H131172   5.272   1.947   2.146  1.1275 -0.9343  3.5203
10405TIP3    H231173   5.216   1.823   2.079  0.7773  1.3131 -0.6932
10406TIP3   OH231174   5.845   4.877   6.108 -0.2412 -0.2957  0.2117
10406TIP3    H131175   5.785   4.865   6.034 -0.5449  1.7967  0.0601
10406TIP3    H231176   5.932   4.880   6.068 -0.3719  0.4540 -0.0205
10407TIP3   OH231177   4.692   4.653   0.268  0.2045 -0.5206 -0.4235
10407TIP3    H131178   4.641   4.572   0.270 -1.9764  0.7834  0.9881
10407TIP3    H231179   4.719   4.666   0.359  1.8489 -0.4005 -0.9004
10408TIP3   OH231180   7.974   6.877   4.553  0.0051 -0.1228 -0.7889
10408TIP3    H131181   8.024   6.950   4.517  0.7308 -0.9914 -1.6106
10408TIP3    H231182   8.009   6.865   4.641  0.5823 -0.1013 -1.0094
10409TIP3   OH231183   1.171   1.138   2.264  0.3297  0.3763 -0.4800
10409TIP3    H131184   1.218   1.217   2.240  1.4787  0.0483  0.5910
10409TIP3    H231185   1.179   1.133   2.360 -0.2132 -0.7224 -0.4763
10410TIP3   OH231186   4.676   6.761   5.754 -0.0459 -0.0642  0.0782
10410TIP3    H131187   4.656   6.667   5.746  1.5494 -0.5341  1.0518
10410TIP3    H231188   4.693   6.774   5.848 -1.0757  1.4037  0.0898
10411TIP3   OH231189   7.722   7.711   6.473 -0.9494  0.4706  0.2536
10411TIP3    H131190   7.749   7.624   6.444 -1.5589 -0.3319  1.9539
10411TIP3    H231191   7.632   7.720   6.442 -0.4289  1.1291 -1.1670
10412TIP3   OH231192   5.677   3.561   4.337  0.7579 -0.5340  0.1331
10412TIP3    H131193   5.638   3.645   4.314 -0.2340 -1.0162 -0.0102
10412TIP3    H231194   5.663   3.506   4.260  2.7921 -0.3820 -0.3746
10413TIP3   OH231195   0.568   5.775   5.099 -0.1691  0.0235  0.3399
10413TIP3    H131196   0.564   5.680   5.094 -0.3612 -0.0269  1.3472
10413TIP3    H231197   0.479   5.802   5.125  0.4360  0.3149  2.2208
10414TIP3   OH231198   0.272   4.316   2.474  0.3249  0.1854 -0.1444
10414TIP3    H131199   0.332   4.243   2.489  0.2465 -0.8072 -3.8476
10414TIP3    H231200   0.185   4.276   2.477  0.0995  0.7074  0.5569
10415TIP3   OH231201   4.388   0.098   1.340  0.2158 -0.1785 -0.1028
10415TIP3    H131202   4.420   0.018   1.299 -2.0245 -1.2549  0.0972
10415TIP3    H231203   4.306   0.073   1.381  0.6695  1.6504  2.1592
10416TIP3   OH231204   4.244   6.654   2.318 -0.4044  0.2848  0.0880
10416TIP3    H131205   4.239   6.703   2.236  0.8120  0.0562 -0.1377
10416TIP3    H231206   4.302   6.580   2.299 -0.8822 -0.3136  0.8888
10417TIP3   OH231207   8.129   6.350   2.293 -0.2153 -0.6080  0.2790
10417TIP3    H131208   8.161   6.435   2.264  0.0409 -1.3019 -1.6711
10417TIP3    H231209   8.057   6.369   2.352 -0.8811  0.9680 -0.9868
10418TIP3   OH231210   0.591   5.314   4.771 -0.4740  0.0005 -0.3858
10418TIP3    H131211   0.608   5.408   4.766  0.1007 -0.1413 -1.7200
10418TIP3    H231212   0.496   5.307   4.783 -0.3443  0.7471  1.3787
10419TIP3   OH231213   2.808   1.071   4.204  0.4635 -0.1617  0.0337
10419TIP3    H131214   2.781   0.989   4.246 -1.6506  0.8426  0.7638
10419TIP3    H231215   2.812   1.134   4.276  0.9930  0.6455 -0.6829
10420TIP3   OH231216   5.953   4.803   2.393 -0.1344 -0.4273 -0.5690
10420TIP3    H131217   5.895   4.879   2.382  0.8936  0.1441 -2.4339
10420TIP3    H231218   5.922   4.740   2.327  0.2797 -0.8246 -0.3889
10421TIP3   OH231219   7.827   7.265   1.136 -0.3863 -0.0702  0.0649
10421TIP3    H131220   7.751   7.225   1.094  0.4368  0.8020 -2.4695
10421TIP3    H231221   7.902   7.215   1.103  0.2197 -2.1455  3.9475
10422TIP3   OH231222   1.311   4.254   6.737 -0.4880  0.3233  0.1020
10422TIP3    H131223   1.282   4.345   6.732  0.9985  0.7837 -0.6651
10422TIP3    H231224   1.302   4.221   6.647 -1.8351 -0.5891  0.5302
10423TIP3   OH231225   5.078   2.525   0.054 -0.2071 -0.3812  0.1421
10423TIP3    H131226   5.081   2.607   0.005  0.3047 -1.1225 -1.1138
10423TIP3    H231227   5.079   2.552   0.146 -1.9272  1.0815 -0.2027
10424TIP3   OH231228   5.053   0.165   5.834 -0.6779  0.4920 -0.5769
10424TIP3    H131229   4.980   0.224   5.854 -2.3762 -0.7093 -2.7957
10424TIP3    H231230   5.014   0.095   5.782  2.0105 -0.4469 -1.5045
10425TIP3   OH231231   6.420   0.291   0.787  0.5626  0.8354 -0.3158
10425TIP3    H131232   6.340   0.343   0.793  0.3426  0.4888 -0.2195
10425TIP3    H231233   6.485   0.341   0.836 -0.1436  0.0786  1.5017
10426TIP3   OH231234   7.046   5.479   3.996  0.3339 -0.9516 -0.2932
10426TIP3    H131235   6.964   5.463   3.949  0.3300 -0.5958 -0.4121
10426TIP3    H231236   7.105   5.514   3.930 -0.1715  1.1319  0.2762
10427TIP3   OH231237   5.989   1.369   3.708 -0.3757  0.1074 -0.3780
10427TIP3    H131238   5.941   1.418   3.775 -2.1377  0.9246 -2.1262
10427TIP3    H231239   6.008   1.434   3.640 -0.6921 -1.1415 -1.7099
10428TIP3   OH231240   2.745   5.043   3.133  0.2401 -0.4048 -0.8795
10428TIP3    H131241   2.815   5.003   3.184  0.9484  2.6373  0.7705
10428TIP3    H231242   2.695   5.094   3.197 -1.2319  0.4575 -2.6204
10429TIP3   OH231243   6.455   3.365   0.051 -0.1384  0.5852  0.3074
10429TIP3    H131244   6.378   3.308   0.052 -0.0498  0.4653  0.6831
10429TIP3    H231245   6.421   3.452   0.034 -0.2751  0.4183 -0.2907
10430TIP3   OH231246   6.207   1.916   0.773  0.1566  0.2530 -0.4027
10430TIP3    H131247   6.132   1.921   0.714  0.1261  0.0676 -0.3791
10430TIP3    H231248   6.279   1.954   0.722 -0.3707  2.2907  0.2759
10431TIP3   OH231249   0.750   0.316   4.740  0.6010 -0.0585 -0.3245
10431TIP3    H131250   0.740   0.221   4.740 -2.3868  0.1588  0.4184
10431TIP3    H231251   0.661   0.350   4.734  1.4669  2.7105  0.6723
10432TIP3   OH231252   4.050   4.470   2.823  0.0929  0.0506  0.0717
10432TIP3    H131253   4.101   4.525   2.764 -0.9604  1.0189  0.0109
10432TIP3    H231254   3.992   4.532   2.868 -0.7509 -0.9513  0.4019
10433TIP3   OH231255   5.363   3.078   4.162  0.0906 -0.7169  0.6062
10433TIP3    H131256   5.403   3.117   4.084  3.8243  2.0107  3.5116
10433TIP3    H231257   5.281   3.126   4.174 -0.0069 -0.4305 -0.9831
10434TIP3   OH231258   3.135   0.681   5.835 -0.0300  0.3440 -0.1822
10434TIP3    H131259   3.151   0.594   5.797 -0.5189 -0.2657  0.9531
10434TIP3    H231260   3.056   0.712   5.790  0.1630  0.2095 -0.6182
10435TIP3   OH231261   2.039   0.742   1.986 -0.2263  0.0002  0.2208
10435TIP3    H131262   2.067   0.736   1.895  0.8406 -0.8859  0.5855
10435TIP3    H231263   1.956   0.694   1.989 -0.1854 -0.1022 -0.2506
10436TIP3   OH231264   6.635   4.306   5.546 -0.3942 -0.0380 -0.5437
10436TIP3    H131265   6.564   4.259   5.502 -0.5243 -0.2012 -0.1599
10436TIP3    H231266   6.713   4.252   5.530 -0.9363 -1.6804  1.8785
10437TIP3   OH231267   4.902   6.642   2.659 -0.3741 -0.4875 -0.0177
10437TIP3    H131268   4.887   6.645   2.564  0.8995 -0.7701 -0.2418
10437TIP3    H231269   4.992   6.613   2.668 -0.4425 -0.3355  1.2921
10438TIP3   OH231270   6.329   1.206   3.766 -0.5748 -0.2259 -0.0750
10438TIP3    H131271   6.312   1.240   3.853  1.3363  0.9822 -0.1202
10438TIP3    H231272   6.349   1.113   3.780 -0.2185 -0.0272  0.7733
10439TIP3   OH231273   0.391   4.419   1.868  0.0936  0.2956 -0.2147
10439TIP3    H131274   0.322   4.485   1.876  3.0098  3.4566  2.3287
10439TIP3    H231275   0.428   4.433   1.781 -0.1776  1.1317 -0.2035
10440TIP3   OH231276   8.017   5.919   2.209  0.5646 -0.0846 -0.2151
10440TIP3    H131277   7.962   5.900   2.133  0.3080  0.2085 -0.1019
10440TIP3    H231278   8.066   5.838   2.223  0.3796 -0.2493 -0.4958
10441TIP3   OH231279   3.323   2.975   4.830  0.1735 -0.2468  0.1406
10441TIP3    H131280   3.281   3.027   4.761  2.3755  0.1768 -0.9646
10441TIP3    H231281   3.274   2.996   4.909  0.1690  2.5170 -0.5065
10442TIP3   OH231282   7.167   6.139   4.315  0.1871  0.3375  0.0147
10442TIP3    H131283   7.229   6.067   4.323  1.1716  1.0487 -0.8899
10442TIP3    H231284   7.155   6.150   4.220 -1.5680  0.0159  0.1774
10443TIP3   OH231285   6.239   3.126   0.689 -0.2340  0.4358 -0.0170
10443TIP3    H131286   6.273   3.190   0.627 -1.1648  0.2388 -0.7546
10443TIP3    H231287   6.282   3.148   0.772  0.6859  0.9852 -0.6230
10444TIP3   OH231288   4.779   1.272   2.663 -0.0761  0.1840 -0.3619
10444TIP3    H131289   4.700   1.221   2.682  0.3775 -0.8442 -1.1313
10444TIP3    H231290   4.763   1.310   2.577  0.3290 -0.1817 -0.6042
10445TIP3   OH231291  -0.000   5.135   3.213  0.0648 -0.0815  0.0537
10445TIP3    H131292   0.078   5.113   3.264  0.7061 -0.2245 -0.9805
10445TIP3    H231293  -0.008   5.065   3.149 -0.5392  0.2725 -0.2697
10446TIP3   OH231294   4.088   3.592   3.106 -0.0087 -0.1808  0.8871
10446TIP3    H131295   4.169   3.561   3.064 -0.2398  0.1795  0.1645
10446TIP3    H231296   4.103   3.577   3.199  1.6491  1.5543  0.9629
10447TIP3   OH231297   5.405   4.313   3.715 -0.2705  0.0699  0.0190
10447TIP3    H131298   5.374   4.401   3.696 -1.3869  0.0935  1.7376
10447TIP3    H231299   5.486   4.304   3.665 -0.7251  1.6472 -1.0576
10448TIP3   OH231300   1.149   4.142   0.196  0.3029  0.4394 -0.6469
10448TIP3    H131301   1.144   4.064   0.141 -0.3274 -0.4003  0.5486
10448TIP3    H231302   1.087   4.203   0.157 -0.1113 -0.1242 -0.8865
10449TIP3   OH231303   5.352   1.399   6.635  0.3717  0.1899 -0.1859
10449TIP3    H131304   5.390   1.315   6.659  1.1305  0.8378  1.0228
10449TIP3    H231305   5.375   1.411   6.543  2.6316  0.2522  0.3239
10450TIP3   OH231306   4.456   0.056   0.871  0.0275  0.3559 -0.0859
10450TIP3    H131307   4.370   0.040   0.911  0.3347 -2.5928 -0.4060
10450TIP3    H231308   4.493   0.127   0.923 -2.6116  1.8339 -0.0270
10451TIP3   OH231309   1.182   4.753   0.097 -0.2574 -0.0534 -0.0909
10451TIP3    H131310   1.238   4.821   0.060  0.4382 -0.6983 -0.2464
10451TIP3    H231311   1.230   4.719   0.172 -1.4044  0.8498  1.0987
10452TIP3   OH231312   2.377   4.874   5.289  0.4326 -0.4723 -0.2121
10452TIP3    H131313   2.366   4.779   5.283 -1.4231 -0.3632  0.7951
10452TIP3    H231314   2.294   4.906   5.325  0.3859  1.7092 -2.0231
10453TIP3   OH231315   5.516   1.820   2.847 -0.1141 -0.0739 -0.1949
10453TIP3    H131316   5.537   1.903   2.803 -2.3361  0.4824 -0.3271
10453TIP3    H231317   5.457   1.776   2.787 -1.7831 -0.1189  1.4019
10454TIP3   OH231318   8.083   0.394   0.349  0.1345 -0.4058  0.0275
10454TIP3    H131319   8.065   0.383   0.255  2.2177  0.3483 -0.5286
10454TIP3    H231320   8.143   0.323   0.370  1.6221  0.8287  0.1446
10455TIP3   OH231321   0.803   2.264   3.872  0.4532 -0.0657  0.0249
10455TIP3    H131322   0.797   2.215   3.954 -0.1949  0.0752  0.0659
10455TIP3    H231323   0.840   2.349   3.897  0.6651 -0.1796  0.1015
10456TIP3   OH231324   3.365   6.015   2.749 -0.0259  0.4917  0.0073
10456TIP3    H131325   3.343   6.013   2.656 -1.4908  3.3670  0.1716
10456TIP3    H231326   3.284   5.990   2.794  0.2076  0.6176  0.5076
10457TIP3   OH231327   6.714   3.119   6.762  0.0729 -0.1825 -0.0451
10457TIP3    H131328   6.713   3.175   6.685  1.4088 -1.0877 -0.7518
10457TIP3    H231329   6.621   3.102   6.780 -0.2619  0.1289 -1.3846
10458TIP3   OH231330   2.611   3.077   6.761  0.3096 -0.6596  0.2408
10458TIP3    H131331   2.614   3.145   6.694 -1.1997 -0.9988 -0.2091
10458TIP3    H231332   2.599   2.996   6.712  0.0467 -1.0074  0.8685
10459TIP3   OH231333   2.376   4.062   5.667  0.0338 -0.4343 -0.3183
10459TIP3    H131334   2.420   3.982   5.697 -1.3421 -0.7962  0.8548
10459TIP3    H231335   2.397   4.128   5.734  0.4028 -0.0625 -0.7947
10460TIP3   OH231336   4.109   2.565   4.261  0.1478  0.5760 -0.1633
10460TIP3    H131337   4.146   2.607   4.183 -3.1152  3.9651 -0.1897
10460TIP3    H231338   4.040   2.508   4.227  0.5652 -0.1447  0.1733
10461TIP3   OH231339   3.595   1.662   0.475  0.3005  0.0101 -0.2574
10461TIP3    H131340   3.591   1.757   0.469  0.9476  0.0021 -0.9689
10461TIP3    H231341   3.611   1.645   0.568  1.0663  0.6347 -0.2642
10462TIP3   OH231342   1.407   2.057   4.382  0.4060 -0.4332 -0.5779
10462TIP3    H131343   1.490   2.094   4.353 -0.8380  1.9547 -1.3308
10462TIP3    H231344   1.340   2.117   4.348 -1.6580 -2.3246 -0.1255
10463TIP3   OH231345   3.396   4.238   0.256 -0.0878 -0.1325  0.1823
10463TIP3    H131346   3.488   4.242   0.283  0.0269 -1.0628 -0.0586
10463TIP3    H231347   3.392   4.166   0.193 -0.6562  0.9905 -1.1218
10464TIP3   OH231348   0.197   0.265   4.276  0.5482  0.2318  0.0832
10464TIP3    H131349   0.140   0.227   4.208 -1.6634  0.1402  1.8495
10464TIP3    H231350   0.191   0.359   4.263 -0.7653  0.2644  0.7640
10465TIP3   OH231351   1.740   6.339   0.191 -0.2650 -0.2466 -0.0434
10465TIP3    H131352   1.731   6.288   0.272 -1.6546  0.4563  0.2678
10465TIP3    H231353   1.773   6.424   0.219 -0.9735  0.0788 -0.1747
10466TIP3   OH231354   2.889   6.862   3.764  0.3658  0.4249 -0.0422
10466TIP3    H131355   2.806   6.847   3.808  0.2050  0.6321 -0.2764
10466TIP3    H231356   2.879   6.818   3.679  0.5264  0.3792 -0.0381
10467TIP3   OH231357   2.575   0.729   3.307 -0.1906  0.2345  0.4367
10467TIP3    H131358   2.486   0.762   3.317  0.0600  0.7923  0.8632
10467TIP3    H231359   2.613   0.733   3.395  1.0064  2.1934 -0.0973
10468TIP3   OH231360   2.990   3.303   1.843  0.0228  0.5739 -0.3533
10468TIP3    H131361   3.000   3.314   1.938 -3.6200  1.0082  0.1066
10468TIP3    H231362   2.977   3.209   1.832 -1.2480  0.7036 -0.1450
10469TIP3   OH231363   1.254   3.305   6.548  0.4537  0.0904 -0.5510
10469TIP3    H131364   1.222   3.255   6.623 -0.0316 -0.9089 -1.3952
10469TIP3    H231365   1.344   3.275   6.536  0.0953 -0.7836 -1.1893
10470TIP3   OH231366   8.047   6.746   3.024  0.7196  0.7961  0.5552
10470TIP3    H131367   8.130   6.791   3.043  0.9577  2.2579 -3.1992
10470TIP3    H231368   8.001   6.806   2.966 -3.4504  0.3850  3.0372
10471TIP3   OH231369   0.098   6.776   6.571 -0.3038  0.1886 -0.0802
10471TIP3    H131370   0.052   6.783   6.488 -1.7738 -1.5442  0.5166
10471TIP3    H231371   0.034   6.805   6.636  0.2165 -0.1688  0.5975
10472TIP3   OH231372   6.799   7.091   0.174 -0.0344  0.3676  0.3652
10472TIP3    H131373   6.829   7.041   0.250 -2.0669 -0.6724  0.5562
10472TIP3    H231374   6.797   7.029   0.102 -2.7719 -0.0313  0.6489
10473TIP3   OH231375   5.140   2.604   5.908  0.1377  0.0344  0.1127
10473TIP3    H131376   5.129   2.600   6.004 -2.5383 -0.6898 -0.1263
10473TIP3    H231377   5.146   2.512   5.882 -1.4896  0.0701 -0.5468
10474TIP3   OH231378   7.436   1.418   4.058  0.1063  0.3283  0.0130
10474TIP3    H131379   7.445   1.332   4.098 -0.4884  0.5276  0.5907
10474TIP3    H231380   7.469   1.479   4.125  0.7418  0.5406 -0.4790
10475TIP3   OH231381   6.394   4.140   1.651 -0.7863  0.0961 -0.3141
10475TIP3    H131382   6.342   4.069   1.688  1.2769 -1.5024 -0.3150
10475TIP3    H231383   6.478   4.135   1.698 -0.1487  1.7269 -1.2102
10476TIP3   OH231384   0.560   6.658   0.176 -0.2990  0.2058 -0.1085
10476TIP3    H131385   0.625   6.606   0.128  0.0180  1.0236 -0.5933
10476TIP3    H231386   0.514   6.595   0.231 -0.7333 -0.7969 -1.5436
10477TIP3   OH231387   5.735   5.446   3.356 -0.2867 -0.1794  0.3356
10477TIP3    H131388   5.711   5.359   3.327 -1.2008 -0.0332  0.6370
10477TIP3    H231389   5.763   5.434   3.447  2.5869 -0.6407 -0.4913
10478TIP3   OH231390   0.236   0.758   3.542 -0.1177 -0.0011  0.6676
10478TIP3    H131391   0.232   0.769   3.447 -0.2840 -0.5789  0.6019
10478TIP3    H231392   0.154   0.713   3.564  0.3445 -0.7110  0.9584
10479TIP3   OH231393   0.938   4.649   2.964  0.1096  0.6585 -0.4816
10479TIP3    H131394   0.982   4.692   2.891  1.8756 -1.7068 -0.9273
10479TIP3    H231395   0.851   4.688   2.966  0.8318  2.5186 -2.2877
10480TIP3   OH231396   1.322   2.634   0.351 -1.0712 -0.0174  0.1075
10480TIP3    H131397   1.283   2.576   0.416 -0.1193 -0.2101  0.5334
10480TIP3    H231398   1.251   2.692   0.324 -1.6133 -0.2787  0.9389
10481TIP3   OH231399   2.479   6.645   2.757 -0.0011 -0.2680 -0.0570
10481TIP3    H131400   2.429   6.599   2.824  0.1551  0.2992  0.4558
10481TIP3    H231401   2.551   6.585   2.736  1.7837  0.7579  2.5518
10482TIP3   OH231402   7.352   6.978   0.299 -0.2024 -0.3332 -0.1322
10482TIP3    H131403   7.445   6.993   0.281  0.1328 -0.3172  1.4330
10482TIP3    H231404   7.310   6.979   0.213  1.0628  0.8989 -0.7726
10483TIP3   OH231405   1.824   1.258   6.404  0.0609 -0.2570  0.2100
10483TIP3    H131406   1.809   1.197   6.332  1.6774 -0.4161 -0.0173
10483TIP3    H231407   1.912   1.237   6.436  0.4368  1.5607  0.4794
10484TIP3   OH231408   4.707   2.795   5.090  0.0255  0.4984 -0.1458
10484TIP3    H131409   4.702   2.724   5.153 -0.8790  0.6863  0.0223
10484TIP3    H231410   4.683   2.873   5.141 -1.4454  0.5512 -0.8469
10485TIP3   OH231411   4.094   1.621   1.127  0.3362 -0.4587  0.2855
10485TIP3    H131412   4.170   1.656   1.174  1.1628 -1.2626 -0.4305
10485TIP3    H231413   4.058   1.555   1.186  0.0919  0.0247  0.6891
10486TIP3   OH231414   3.693   1.895   4.404  0.3628  0.2099 -0.0129
10486TIP3    H131415   3.716   1.952   4.477 -0.8554  0.8082 -0.0741
10486TIP3    H231416   3.600   1.910   4.390  0.3979 -0.5026 -1.1659
10487TIP3   OH231417   3.396   4.226   0.846  0.2159 -0.6065  0.1905
10487TIP3    H131418   3.392   4.278   0.927  1.7093 -0.6818  0.3366
10487TIP3    H231419   3.380   4.136   0.874  1.6442 -0.7652  0.5738
10488TIP3   OH231420   1.096   3.680   2.643  0.1475  0.3321  0.3444
10488TIP3    H131421   1.018   3.694   2.696 -1.1443  0.0581 -1.4045
10488TIP3    H231422   1.081   3.730   2.564  0.7950 -1.3561 -0.9112
10489TIP3   OH231423   0.998   5.628   6.300  0.0325 -0.0752  0.3541
10489TIP3    H131424   0.944   5.554   6.271  2.0550 -0.8284 -1.7564
10489TIP3    H231425   1.024   5.672   6.219  1.8755  0.7639  1.3474
10490TIP3   OH231426   2.451   7.196   4.245 -0.4917 -0.0800 -0.3617
10490TIP3    H131427   2.427   7.104   4.242  1.7014 -0.7080 -3.2883
10490TIP3    H231428   2.368   7.243   4.244 -1.6562 -1.9732  1.1702
10491TIP3   OH231429   7.870   7.628   4.080  0.4028  0.4316  0.6160
10491TIP3    H131430   7.946   7.650   4.026 -1.5451 -0.4435 -2.7866
10491TIP3    H231431   7.883   7.677   4.160  3.9381  1.2461 -0.2650
10492TIP3   OH231432   6.166   7.018   5.082 -0.1611 -0.1877  0.4243
10492TIP3    H131433   6.100   7.086   5.090  0.2501  0.1760  0.7659
10492TIP3    H231434   6.243   7.063   5.049 -0.2851 -0.7392 -0.6367
10493TIP3   OH231435   0.265   7.581   1.339 -0.0433 -0.0258 -0.2314
10493TIP3    H131436   0.323   7.645   1.298 -0.9323  0.6240 -0.5072
10493TIP3    H231437   0.180   7.594   1.297  0.1231 -2.6043 -1.5932
10494TIP3   OH231438   5.946   7.443   4.899  0.1041 -0.5241 -0.4384
10494TIP3    H131439   5.996   7.451   4.818  0.7602 -1.1784 -0.1077
10494TIP3    H231440   6.000   7.390   4.956 -1.1259 -1.5769 -0.1997
10495TIP3   OH231441   3.643   0.567   4.945 -0.1750  0.3065 -0.0552
10495TIP3    H131442   3.623   0.497   4.883  1.1800 -2.3326  2.2777
10495TIP3    H231443   3.557   0.592   4.980 -0.6781 -0.3272 -0.7882
10496TIP3   OH231444   4.286   5.379   0.682  0.1281 -0.9139 -0.3571
10496TIP3    H131445   4.301   5.291   0.647  2.6056 -0.5617 -0.3354
10496TIP3    H231446   4.372   5.410   0.709 -0.7564  1.3227  0.1767
10497TIP3   OH231447   6.739   3.541   6.069  0.0226  0.5156  0.2560
10497TIP3    H131448   6.645   3.554   6.075 -0.2223 -0.9488 -0.1133
10497TIP3    H231449   6.768   3.534   6.160 -0.4142 -0.2540  0.3423
10498TIP3   OH231450   2.908   4.358   1.605  0.3748  0.2755 -0.5341
10498TIP3    H131451   2.835   4.416   1.628 -0.4190 -0.7346 -0.4476
10498TIP3    H231452   2.884   4.321   1.520 -1.1601 -3.0120  1.1338
10499TIP3   OH231453   5.773   6.794   3.132  0.0346  0.9992 -0.1796
10499TIP3    H131454   5.847   6.770   3.076 -0.7196 -0.2839 -0.6621
10499TIP3    H231455   5.814   6.833   3.209  1.2688 -0.2520 -0.1574
10500TIP3   OH231456   1.302   5.022   1.536  0.5274  0.1840  0.2469
10500TIP3    H131457   1.296   4.974   1.453  1.0793 -1.5455  1.1614
10500TIP3    H231458   1.389   5.063   1.533  0.8941 -0.5616  0.2970
10501TIP3   OH231459   7.746   2.096   2.247 -0.3603  0.1621  0.1983
10501TIP3    H131460   7.751   2.155   2.322  0.0736  1.8126 -1.0635
10501TIP3    H231461   7.671   2.129   2.196 -2.1324 -2.3234  0.9791
10502TIP3   OH231462   4.256   6.450   0.853  0.3507  0.1731  0.1112
10502TIP3    H131463   4.331   6.511   0.855  0.0162  0.6939 -1.6754
10502TIP3    H231464   4.296   6.364   0.867  1.1139  0.5763  0.5222
10503TIP3   OH231465   2.948   0.941   5.774 -0.0205  0.0244  0.1005
10503TIP3    H131466   2.868   0.892   5.758  0.0310 -0.4535  1.2271
10503TIP3    H231467   2.925   1.003   5.843  0.8188 -0.8028  1.1704
10504TIP3   OH231468   5.646   7.778   1.928 -0.3649 -0.4010  0.5360
10504TIP3    H131469   5.619   7.763   1.837 -0.1460 -0.5344  0.4917
10504TIP3    H231470   5.581   7.838   1.963  0.1337  0.4924 -0.0240
10505TIP3   OH231471   4.155   6.074   6.007 -0.3156  0.5816  0.0888
10505TIP3    H131472   4.119   6.048   5.922  0.4556  0.6984 -0.2828
10505TIP3    H231473   4.169   5.991   6.053  1.0856  0.3770 -0.6610
10506TIP3   OH231474   5.216   3.187   3.104 -0.4689  0.1480 -0.3037
10506TIP3    H131475   5.227   3.281   3.099 -0.5913  0.1301 -0.9380
10506TIP3    H231476   5.301   3.151   3.076 -0.2805  0.0695  0.3460
10507TIP3   OH231477   7.384   2.479   0.056  0.8182  0.1803 -0.5763
10507TIP3    H131478   7.321   2.422   0.099 -0.3602  1.6147 -0.3232
10507TIP3    H231479   7.417   2.536   0.126 -1.3695  2.7772 -1.4769
10508TIP3   OH231480   1.019   4.924   2.184  0.5090  0.3252 -0.4299
10508TIP3    H131481   0.996   4.898   2.095 -1.6012 -0.3509  0.2573
10508TIP3    H231482   1.058   4.846   2.223 -0.3793 -0.0014 -0.1779
10509TIP3   OH231483   1.320   7.477   0.701  0.1574  0.2108 -0.5743
10509TIP3    H131484   1.279   7.409   0.648  0.6673 -1.2918  0.8792
10509TIP3    H231485   1.412   7.477   0.674  0.3900 -0.4653  0.1765
10510TIP3   OH231486   1.760   6.149   5.230  0.7642 -0.0587  0.0006
10510TIP3    H131487   1.688   6.086   5.231  0.2240  0.4397 -2.2178
10510TIP3    H231488   1.718   6.234   5.247  0.9566  0.1142 -0.3799
10511TIP3   OH231489   1.934   3.960   0.598 -0.5600 -0.0606  0.0297
10511TIP3    H131490   1.968   4.047   0.620  0.1653 -0.2694 -0.2368
10511TIP3    H231491   1.927   3.960   0.502  0.9461 -0.8218 -0.1087
10512TIP3   OH231492   1.477   0.733   2.320  0.5378 -0.0086  0.0260
10512TIP3    H131493   1.493   0.795   2.249  2.1115 -0.2486  0.1356
10512TIP3    H231494   1.385   0.746   2.343  0.3637  1.0132 -1.1492
10513TIP3   OH231495   4.857   2.021   3.876 -0.2265 -0.9942 -0.4885
10513TIP3    H131496   4.927   2.000   3.814 -0.2135 -0.7726 -0.5512
10513TIP3    H231497   4.900   2.073   3.944 -0.7827  1.4049 -1.8469
10514TIP3   OH231498   6.088   7.520   5.678  0.0978  0.1735 -0.3065
10514TIP3    H131499   6.010   7.551   5.632  0.1128 -1.2233 -1.3624
10514TIP3    H231500   6.063   7.432   5.708  1.2383 -0.2586 -0.6039
10515TIP3   OH231501   2.042   6.605   6.162 -0.0405  0.1988  0.1237
10515TIP3    H131502   2.109   6.537   6.164  0.1813  0.4309  1.8411
10515TIP3    H231503   1.977   6.578   6.226 -0.2006  1.3487  0.4781
10516TIP3   OH231504   5.358   2.195   1.905  0.2470 -0.4647 -0.3933
10516TIP3    H131505   5.272   2.200   1.863 -0.1454 -0.7362  0.3564
10516TIP3    H231506   5.372   2.282   1.943  0.8516 -0.0430 -1.5336
10517TIP3   OH231507   1.951   4.805   1.197  0.1241  0.4695 -0.4332
10517TIP3    H131508   2.011   4.742   1.238  1.3461  1.6182 -0.3893
10517TIP3    H231509   1.872   4.801   1.251  0.6440 -0.1170  0.3199
10518TIP3   OH231510   8.020   3.963   6.092  0.1221 -0.2017 -0.3399
10518TIP3    H131511   7.960   4.013   6.148  1.7782 -1.2104  2.5370
10518TIP3    H231512   7.989   3.873   6.098  1.7909 -0.7244  1.1298
10519TIP3   OH231513   3.667   4.990   5.856 -0.2567  0.6283  0.0549
10519TIP3    H131514   3.724   5.036   5.917  1.2924 -3.2362  1.7686
10519TIP3    H231515   3.705   5.009   5.770  0.8811  1.6900  0.7515
10520TIP3   OH231516   7.573   2.475   6.427  0.1045 -0.1904 -0.7084
10520TIP3    H131517   7.549   2.560   6.462 -0.6856 -1.1814  1.3297
10520TIP3    H231518   7.637   2.494   6.358  0.4835  1.9852  0.1775
10521TIP3   OH231519   4.861   6.481   6.576 -0.5464 -0.1488  0.2263
10521TIP3    H131520   4.915   6.451   6.649  2.2190 -0.6570 -1.8760
10521TIP3    H231521   4.863   6.576   6.581  0.9477 -0.1502 -0.0469
10522TIP3   OH231522   2.728   6.875   4.336 -0.1862  0.5435  0.8879
10522TIP3    H131523   2.679   6.909   4.411 -1.2758  1.0716 -0.0518
10522TIP3    H231524   2.812   6.921   4.340 -1.8237  3.9680 -0.7186
10523TIP3   OH231525   6.456   7.130   4.640  0.6047 -0.6295  0.1303
10523TIP3    H131526   6.391   7.091   4.697 -0.3114  0.5741 -0.0592
10523TIP3    H231527   6.512   7.057   4.613 -0.3349 -1.5812  0.7265
10524TIP3   OH231528   7.100   2.491   6.232  0.0717 -0.2508 -0.3064
10524TIP3    H131529   7.042   2.542   6.175 -1.8684 -2.5572 -0.5705
10524TIP3    H231530   7.067   2.508   6.320  0.0110 -0.3218 -0.3147
10525TIP3   OH231531   4.185   5.640   0.045 -0.0410  0.5232  0.3248
10525TIP3    H131532   4.244   5.639   0.121 -0.6272  0.4144  0.7874
10525TIP3    H231533   4.212   5.564  -0.007 -1.4864 -1.2001  1.8986
10526TIP3   OH231534   0.175   0.803   2.508 -0.1147 -0.0801  0.6771
10526TIP3    H131535   0.108   0.871   2.506  0.5540  0.5880 -0.6526
10526TIP3    H231536   0.140   0.733   2.452  0.0504  0.0486  0.4064
10527TIP3   OH231537   5.796   1.792   1.597  0.3641  0.0041  0.3387
10527TIP3    H131538   5.761   1.875   1.628  0.1283  0.5242 -1.2577
10527TIP3    H231539   5.828   1.748   1.676 -0.1615  1.2924  1.2858
10528TIP3   OH231540   4.301   0.599   1.156  0.0571 -0.1179  0.0096
10528TIP3    H131541   4.273   0.516   1.194  0.2734 -0.1931  0.0082
10528TIP3    H231542   4.337   0.575   1.070 -1.0424  0.1256 -0.5370
10529TIP3   OH231543   7.389   4.011   2.120  0.3583  0.2610  0.0659
10529TIP3    H131544   7.407   4.023   2.214 -1.4076  1.9869  0.2735
10529TIP3    H231545   7.341   4.091   2.096 -2.0498 -1.5440 -1.5404
10530TIP3   OH231546   3.641   5.437   0.025 -0.3306  0.0824  0.8348
10530TIP3    H131547   3.698   5.368  -0.010 -0.3262  1.7322 -2.9825
10530TIP3    H231548   3.700   5.496   0.071  0.6321  0.3249 -0.6498
10531TIP3   OH231549   1.704   0.717   1.690 -0.2837  0.1382  0.2053
10531TIP3    H131550   1.637   0.652   1.710  0.5194  0.2183  3.7508
10531TIP3    H231551   1.668   0.800   1.721  1.1411  0.2858  1.5730
10532TIP3   OH231552   2.902   2.111   0.806 -0.2413 -0.0908  0.1627
10532TIP3    H131553   2.862   2.184   0.853  0.1774  1.0067 -1.1474
10532TIP3    H231554   2.911   2.042   0.873 -1.5860  0.6602  1.1743
10533TIP3   OH231555   0.809   5.107   2.538  0.4272 -0.3810 -0.6420
10533TIP3    H131556   0.718   5.084   2.519 -0.2333  0.0236  1.7679
10533TIP3    H231557   0.804   5.187   2.590  2.0865 -0.9203  0.4304
10534TIP3   OH231558   1.246   1.571   1.218 -0.0714 -0.7979  0.2507
10534TIP3    H131559   1.208   1.598   1.302 -1.7860 -0.4867 -0.5864
10534TIP3    H231560   1.176   1.524   1.173  0.9016 -1.2044 -0.8995
10535TIP3   OH231561   7.946   0.047   4.645 -0.0200  0.2176  0.2979
10535TIP3    H131562   7.867   0.093   4.617 -0.2978 -0.8998 -0.8355
10535TIP3    H231563   7.941  -0.038   4.603  0.1381 -1.1655  2.8691
10536TIP3   OH231564   3.520   0.722   5.417 -0.0555 -0.4497 -0.5747
10536TIP3    H131565   3.524   0.787   5.347  0.1683  0.5360  0.3231
10536TIP3    H231566   3.595   0.742   5.473 -0.8976 -0.4319  0.5952
10537TIP3   OH231567   4.963   3.523   5.681 -0.2543  0.4230  0.2655
10537TIP3    H131568   4.918   3.483   5.606 -0.9636 -1.8738  1.8221
10537TIP3    H231569   4.934   3.614   5.679 -0.9462  0.2188 -1.7332
10538TIP3   OH231570   5.285   5.567   5.132  0.0692  0.3001 -0.4049
10538TIP3    H131571   5.330   5.623   5.070 -0.1149  0.3811 -0.4665
10538TIP3    H231572   5.273   5.484   5.085  1.2711 -0.1569  0.0434
10539TIP3   OH231573   2.700   0.356   4.370 -0.1067  0.0390 -0.1084
10539TIP3    H131574   2.737   0.270   4.351 -1.8479 -0.9605  0.7835
10539TIP3    H231575   2.702   0.403   4.287 -2.0160 -2.0169 -1.4096
10540TIP3   OH231576   4.932   7.696   1.828 -1.2400  0.2094  0.2820
10540TIP3    H131577   5.003   7.760   1.837 -0.1775 -0.8141 -0.4734
10540TIP3    H231578   4.977   7.612   1.819 -2.4792 -0.2998 -1.8230
10541TIP3   OH231579   6.332   7.378   4.577  0.1887  0.0499  0.0653
10541TIP3    H131580   6.376   7.411   4.499 -0.1986  0.6356  0.0848
10541TIP3    H231581   6.379   7.298   4.599  1.3219  0.7129  0.1563
10542TIP3   OH231582   6.330   2.038   1.463  0.0517 -0.2642  0.2676
10542TIP3    H131583   6.359   2.087   1.540  0.3295  2.3530 -1.3949
10542TIP3    H231584   6.250   1.994   1.492  0.0380  0.7959  1.9880
10543TIP3   OH231585   4.980   0.181   0.504  0.0907  0.6184  0.1583
10543TIP3    H131586   5.066   0.201   0.467 -0.4198  1.2145 -0.7503
10543TIP3    H231587   4.966   0.088   0.483  0.8008  0.3256  0.9361
10544TIP3   OH231588   6.601   3.854   1.478 -0.1819 -0.2046  0.1413
10544TIP3    H131589   6.506   3.855   1.463 -0.1012 -3.0686 -1.0977
10544TIP3    H231590   6.639   3.877   1.393  0.2185 -1.5217 -0.0551
10545TIP3   OH231591   7.566   5.891   3.330  0.1410 -0.4819  0.0621
10545TIP3    H131592   7.579   5.920   3.240 -2.3471 -0.2669 -0.3081
10545TIP3    H231593   7.623   5.815   3.340  0.8434 -0.1979 -1.5167
10546TIP3   OH231594   7.913   5.554   1.972  0.2213 -0.4424 -0.3201
10546TIP3    H131595   7.912   5.472   1.922 -2.6060 -0.0719 -1.0549
10546TIP3    H231596   7.994   5.597   1.946  1.7256 -2.8987 -0.0260
10547TIP3   OH231597   0.569   6.314   1.335  0.0042  0.1116  0.4468
10547TIP3    H131598   0.580   6.221   1.318  0.9436  0.3615 -0.4006
10547TIP3    H231599   0.565   6.354   1.249  1.2053  1.0170  0.7801
10548TIP3   OH231600   4.709   1.684   5.516 -0.0762 -0.3635 -0.4599
10548TIP3    H131601   4.631   1.732   5.544  0.1780 -1.2885  2.1178
10548TIP3    H231602   4.775   1.752   5.502 -0.4752  0.2499  0.5109
10549TIP3   OH231603   2.719   3.932   3.094  0.4316  0.0548  0.4009
10549TIP3    H131604   2.664   3.870   3.046  1.4841 -1.1636  0.7130
10549TIP3    H231605   2.806   3.922   3.057  0.6589  1.2732  0.5572
10550TIP3   OH231606   8.169   3.937   1.002 -0.1695 -0.9023  0.5364
10550TIP3    H131607   8.106   3.969   1.067 -0.0599  0.3559  0.0633
10550TIP3    H231608   8.250   3.983   1.022 -0.7114  1.3421 -1.8074
10551TIP3   OH231609   3.984   6.532   3.851 -0.0042 -0.3193  0.4063
10551TIP3    H131610   4.054   6.542   3.786 -0.1991  0.0741  0.2555
10551TIP3    H231611   3.905   6.523   3.798  0.0636 -2.0332  0.5342
10552TIP3   OH231612   1.259   1.258   3.426  0.1951  0.7119 -0.2074
10552TIP3    H131613   1.287   1.226   3.340 -1.3249  1.5136 -1.0521
10552TIP3    H231614   1.313   1.335   3.442  1.5586 -0.3140  0.3003
10553TIP3   OH231615   6.507   1.423   4.358 -0.1049 -0.2149 -0.3301
10553TIP3    H131616   6.603   1.413   4.359  0.0129  0.7576  1.1452
10553TIP3    H231617   6.492   1.501   4.305  0.1251  0.9755  1.2704
10554TIP3   OH231618   5.747   0.731   3.764 -0.4431 -0.3386 -0.1109
10554TIP3    H131619   5.757   0.821   3.796  1.1745  0.5733 -2.9144
10554TIP3    H231620   5.837   0.698   3.756 -0.9080 -1.3688 -1.3629
10555TIP3   OH231621   2.299   4.325   4.932  0.4826  0.1041  0.4992
10555TIP3    H131622   2.256   4.262   4.989  0.4580 -0.5692 -0.2520
10555TIP3    H231623   2.361   4.274   4.881 -0.6305  0.4036 -1.2233
10556TIP3   OH231624   2.283   0.247   3.611 -0.1497  0.1333  0.5918
10556TIP3    H131625   2.247   0.215   3.528  0.7335  1.2977 -0.2753
10556TIP3    H231626   2.223   0.317   3.637  1.0827  1.6967 -0.5682
10557TIP3   OH231627   2.158   1.539   0.944 -0.1338  0.6564  1.1403
10557TIP3    H131628   2.153   1.570   1.035 -2.3929 -0.9363  1.6568
10557TIP3    H231629   2.074   1.562   0.906 -0.0447 -0.5785  0.1241
10558TIP3   OH231630   0.953   2.536   0.290  0.3843 -0.1032 -0.1967
10558TIP3    H131631   0.961   2.481   0.212  0.1558 -0.4504  0.0237
10558TIP3    H231632   0.972   2.477   0.363  0.2270  0.1306  0.0340
10559TIP3   OH231633   2.970   6.852   2.166  0.1214 -0.6612 -0.4429
10559TIP3    H131634   2.932   6.846   2.079 -0.3528  0.3622 -0.3170
10559TIP3    H231635   2.977   6.761   2.195 -0.5607 -0.9665 -1.1889
10560TIP3   OH231636   1.965   1.086   6.602  0.1249 -0.4142 -0.0915
10560TIP3    H131637   1.968   1.174   6.641 -0.1875  0.2679 -1.5617
10560TIP3    H231638   1.992   1.028   6.674  0.9063  0.9170  0.7442
10561TIP3   OH231639   4.410   2.060   6.583 -0.5099 -0.2300 -0.3458
10561TIP3    H131640   4.343   2.042   6.648 -0.2716  0.3426  0.0671
10561TIP3    H231641   4.480   2.103   6.632 -0.8186  1.2848 -1.1656
10562TIP3   OH231642   5.405   1.631   5.110  0.5831 -0.0031  0.1240
10562TIP3    H131643   5.480   1.666   5.061  0.7836 -0.9123 -0.2443
10562TIP3    H231644   5.336   1.698   5.099  0.7661  0.0250 -1.0499
10563TIP3   OH231645   6.737   3.778   2.817  0.0043 -0.2129  0.1987
10563TIP3    H131646   6.721   3.689   2.785 -0.4266 -0.6938  1.6389
10563TIP3    H231647   6.693   3.835   2.754  1.9300 -0.8457 -1.8515
10564TIP3   OH231648   0.137   4.074   5.584 -0.5816  0.5704  0.5253
10564TIP3    H131649   0.231   4.086   5.567 -0.6869  0.2800 -0.3094
10564TIP3    H231650   0.112   4.002   5.527 -1.6742  1.7498 -0.5126
10565TIP3   OH231651   7.652   2.077   4.729 -0.1428  0.0835 -0.3360
10565TIP3    H131652   7.625   2.014   4.662 -0.9571 -0.8731  0.8626
10565TIP3    H231653   7.714   2.030   4.784 -1.4267 -0.0160  1.1041
10566TIP3   OH231654   3.101   6.083   5.958  0.0639 -0.0217 -0.2154
10566TIP3    H131655   3.056   6.139   6.021 -0.0637  0.9762 -1.1740
10566TIP3    H231656   3.032   6.053   5.899  0.1541 -1.0915  0.1949
10567TIP3   OH231657   2.398   4.493   6.391  0.2101 -0.1600 -0.2144
10567TIP3    H131658   2.363   4.420   6.443  1.5156  1.0979  2.6736
10567TIP3    H231659   2.453   4.452   6.325  0.4843 -1.8195  0.9812
10568TIP3   OH231660   0.199   7.673   3.749  0.7504 -0.0049 -0.3647
10568TIP3    H131661   0.277   7.683   3.804 -0.8893  0.9610  1.9960
10568TIP3    H231662   0.203   7.747   3.688  0.4938  1.5860  1.4287
10569TIP3   OH231663   0.981   0.134   2.324  0.3329 -0.0380  0.2108
10569TIP3    H131664   0.952   0.216   2.364 -0.2398  0.1799 -0.6253
10569TIP3    H231665   1.027   0.162   2.245  1.4208 -0.4635  0.6802
10570TIP3   OH231666   2.917   0.100   6.200  0.9073 -0.0403  0.2610
10570TIP3    H131667   2.990   0.073   6.256  0.1564  0.7846  1.6929
10570TIP3    H231668   2.953   0.168   6.144  0.9489  1.3228  1.8767
10571TIP3   OH231669   4.215   2.403   5.823  0.2068 -0.5500  0.1270
10571TIP3    H131670   4.204   2.490   5.784 -1.2127 -1.4060 -1.5298
10571TIP3    H231671   4.276   2.358   5.765 -1.4880 -1.6537 -0.9119
10572TIP3   OH231672   5.703   0.689   6.193  0.0358  0.7175  0.0180
10572TIP3    H131673   5.696   0.613   6.135 -0.7678 -0.4476  1.5696
10572TIP3    H231674   5.720   0.763   6.134  3.3053 -0.9635 -1.3517
10573TIP3   OH231675   0.398   7.209   1.093 -0.4776  0.0074  0.0213
10573TIP3    H131676   0.416   7.238   1.182 -2.0588 -1.1887  0.7880
10573TIP3    H231677   0.403   7.114   1.096  0.2224 -0.0251 -1.3669
10574TIP3   OH231678   3.265   1.802   3.350  0.4359  0.1024 -0.6713
10574TIP3    H131679   3.179   1.788   3.389  0.8903 -0.1895  0.2786
10574TIP3    H231680   3.266   1.746   3.272  0.3075 -1.0984  0.1524
10575TIP3   OH231681   8.128   7.751   2.955 -0.2482  0.1454  0.0029
10575TIP3    H131682   8.106   7.668   2.914 -1.8737  0.3836  0.3011
10575TIP3    H231683   8.221   7.744   2.976 -0.1971 -1.3131 -0.6027
10576TIP3   OH231684   5.212   1.800   1.233 -0.5022 -0.5049  0.5060
10576TIP3    H131685   5.185   1.830   1.147  1.6693 -2.5486 -1.0059
10576TIP3    H231686   5.277   1.864   1.262 -0.1943 -0.5719 -0.0341
10577TIP3   OH231687   4.569   6.750   0.545  0.1225  0.3138  0.5029
10577TIP3    H131688   4.555   6.732   0.638 -0.5700 -0.9386  0.1866
10577TIP3    H231689   4.568   6.664   0.503 -1.8334  0.9576 -0.9450
10578TIP3   OH231690   3.617   3.715   2.774 -0.6038 -0.2922  0.6680
10578TIP3    H131691   3.713   3.715   2.769 -0.6013  2.3318 -1.4098
10578TIP3    H231692   3.591   3.641   2.719  0.2259 -0.3124  0.2759
10579TIP3   OH231693   7.318   5.919   4.211 -0.3366 -0.1158  0.0168
10579TIP3    H131694   7.369   5.978   4.156  2.9180 -2.3599  0.2934
10579TIP3    H231695   7.254   5.879   4.152  0.1069  0.7537 -1.0756
10580TIP3   OH231696   5.444   2.021   2.105 -0.1564 -0.8302  0.2235
10580TIP3    H131697   5.423   2.079   2.031 -0.3226 -0.6237  0.4313
10580TIP3    H231698   5.461   2.081   2.178 -2.6536 -1.0625  1.0767
10581TIP3   OH231699   3.872   4.553   4.729 -0.4867  0.1031  0.3144
10581TIP3    H131700   3.816   4.573   4.654  0.1412  0.5740 -0.0446
10581TIP3    H231701   3.862   4.459   4.743 -0.6935  0.0318 -0.2933
10582TIP3   OH231702   0.776   0.070   1.348 -0.4569  0.6541  0.4864
10582TIP3    H131703   0.833   0.026   1.411 -0.2489 -3.4115 -2.1903
10582TIP3    H231704   0.820   0.154   1.332  1.9109 -0.1025  2.3553
10583TIP3   OH231705   5.187   7.840   1.083  0.2464  0.4453  0.1186
10583TIP3    H131706   5.133   7.843   1.162 -3.3470  1.3375 -2.1213
10583TIP3    H231707   5.185   7.747   1.057 -0.9432  0.5686 -0.3174
10584TIP3   OH231708   1.439   0.726   5.473 -0.2411 -0.2441 -0.0967
10584TIP3    H131709   1.383   0.802   5.490 -3.9438 -2.8270  0.2592
10584TIP3    H231710   1.415   0.697   5.385  0.6767 -1.3732 -0.0014
10585TIP3   OH231711   1.475   3.774   0.659 -0.4607  0.1609 -0.3528
10585TIP3    H131712   1.535   3.778   0.584 -0.1703 -0.7061 -0.1827
10585TIP3    H231713   1.517   3.712   0.719 -0.9120  0.5073  0.3317
10586TIP3   OH231714   2.224   6.479   4.391 -0.5556 -0.0376 -0.5577
10586TIP3    H131715   2.292   6.475   4.323 -0.1124 -0.5078 -0.1004
10586TIP3    H231716   2.209   6.573   4.405  0.2065  0.0790 -0.4748
10587TIP3   OH231717   0.671   4.666   1.360 -0.3389  0.0772 -1.0100
10587TIP3    H131718   0.627   4.745   1.330 -0.4580  0.4499  0.1044
10587TIP3    H231719   0.623   4.595   1.318 -2.5494  0.4296  0.7536
10588TIP3   OH231720   3.198   4.566   1.983 -0.1944  0.1267  0.2873
10588TIP3    H131721   3.251   4.488   1.964 -1.1110 -0.3636 -0.3175
10588TIP3    H231722   3.176   4.559   2.075  1.1900  0.5931  0.6797
10589TIP3   OH231723   2.385   0.241   5.395  0.9547  0.6309  0.4883
10589TIP3    H131724   2.334   0.322   5.390 -0.3461 -0.2486 -0.8778
10589TIP3    H231725   2.404   0.231   5.489  0.2214  1.9469  0.8007
10590TIP3   OH231726   1.823   2.684   4.547  0.1013  0.7521  1.0774
10590TIP3    H131727   1.729   2.676   4.565 -0.0857  1.3585  0.3971
10590TIP3    H231728   1.865   2.671   4.632 -0.6186  0.7631  1.4386
10591TIP3   OH231729   4.573   4.655   1.736  0.6632  0.3645  0.0193
10591TIP3    H131730   4.542   4.581   1.683 -0.3184  0.1560  0.8537
10591TIP3    H231731   4.668   4.648   1.733  0.5855 -0.9502  0.0977
10592TIP3   OH231732   4.857   2.630   1.189 -0.3157 -0.2625  0.5637
10592TIP3    H131733   4.870   2.688   1.115  1.1697 -0.2697  0.7792
10592TIP3    H231734   4.763   2.634   1.208 -0.8982 -0.9381 -1.8526
10593TIP3   OH231735   5.625   4.334   2.172 -0.2043 -0.0530  0.4940
10593TIP3    H131736   5.536   4.300   2.163 -0.0357 -0.3548 -0.0715
10593TIP3    H231737   5.679   4.274   2.121  0.2185  0.5748  0.1947
10594TIP3   OH231738   2.498   7.673   3.256  0.0012 -0.1097 -0.1128
10594TIP3    H131739   2.534   7.761   3.262  1.0357 -0.5194 -0.0438
10594TIP3    H231740   2.527   7.630   3.337  0.0381 -0.6975 -0.4323
10595TIP3   OH231741   0.917   4.429   0.347 -0.1510 -0.3906 -0.2310
10595TIP3    H131742   0.854   4.406   0.278  0.7447 -0.4618 -1.0552
10595TIP3    H231743   1.002   4.421   0.304  0.4426 -0.6415  0.9633
10596TIP3   OH231744   4.718   1.197   6.193  0.0467 -0.8865 -0.4010
10596TIP3    H131745   4.779   1.158   6.256  0.7882  0.6702 -0.1026
10596TIP3    H231746   4.773   1.256   6.141 -0.8579 -0.9709 -1.4808
10597TIP3   OH231747   5.754   2.597   3.009  0.2857 -0.0459 -0.5878
10597TIP3    H131748   5.811   2.520   3.012 -0.7081 -0.8261 -1.1380
10597TIP3    H231749   5.812   2.670   2.989  1.3182 -0.5679  0.4105
10598TIP3   OH231750   2.183   3.334   3.858 -0.3415 -0.0879 -0.1620
10598TIP3    H131751   2.095   3.299   3.864 -0.9433  1.2539 -0.7039
10598TIP3    H231752   2.217   3.300   3.775  0.1273 -1.5883  0.6185
10599TIP3   OH231753   5.050   2.741   6.382 -0.9566  0.3009  0.2566
10599TIP3    H131754   5.089   2.800   6.317  0.7544 -0.8495  0.1686
10599TIP3    H231755   5.062   2.786   6.465 -0.3829  0.4438  0.1037
10600TIP3   OH231756   1.217   4.249   3.404 -0.9199 -0.4870  0.1336
10600TIP3    H131757   1.232   4.168   3.355 -1.0765 -0.3672 -0.1143
10600TIP3    H231758   1.157   4.224   3.474 -0.0235 -0.8483  0.7901
10601TIP3   OH231759   4.664   4.716   4.501  0.0973 -0.0212 -0.5676
10601TIP3    H131760   4.620   4.758   4.427  0.5812 -0.2109 -0.9672
10601TIP3    H231761   4.670   4.785   4.567 -0.2582  0.1747 -0.7385
10602TIP3   OH231762   3.359   0.895   0.792 -0.1471 -0.0670  0.2276
10602TIP3    H131763   3.289   0.918   0.853 -0.8988  0.9218 -0.9822
10602TIP3    H231764   3.344   0.949   0.715  2.2209  0.5275  0.0966
10603TIP3   OH231765   5.714   3.493   3.402 -0.1943 -0.0884 -0.2035
10603TIP3    H131766   5.657   3.480   3.326 -0.8215  0.3258  0.1905
10603TIP3    H231767   5.770   3.415   3.404 -0.0415 -0.0154 -1.1960
10604TIP3   OH231768   1.255   7.209   4.414 -0.2785  0.2169 -0.6864
10604TIP3    H131769   1.351   7.199   4.416  0.4255  4.2895 -2.8107
10604TIP3    H231770   1.232   7.193   4.323 -1.7330 -0.9355 -0.1474
10605TIP3   OH231771   7.250   5.604   0.534 -0.3905  0.0213 -0.1200
10605TIP3    H131772   7.207   5.518   0.535  0.8851 -0.6514  0.5389
10605TIP3    H231773   7.271   5.619   0.442  1.2922 -1.4335 -0.0348
10606TIP3   OH231774   6.345   2.462   1.780  0.3684  0.0214  0.2088
10606TIP3    H131775   6.367   2.370   1.766 -1.3706 -0.2399 -1.1634
10606TIP3    H231776   6.363   2.503   1.696  0.4092  0.7936  0.5892
10607TIP3   OH231777   2.348   0.706   4.822 -0.4405  0.1915  0.4681
10607TIP3    H131778   2.339   0.660   4.739  1.0494  1.3754 -0.3943
10607TIP3    H231779   2.422   0.663   4.865 -0.8961 -0.0974  0.9793
10608TIP3   OH231780   6.043   5.595   5.608  0.2943  0.0480 -0.0456
10608TIP3    H131781   6.015   5.505   5.593  1.3909 -0.1434 -1.0603
10608TIP3    H231782   6.093   5.591   5.690  0.8699 -0.4023 -0.4082
10609TIP3   OH231783   8.125   2.459   2.827  1.1928  0.9120  0.3958
10609TIP3    H131784   8.185   2.531   2.808  0.0125  1.9585  0.4776
10609TIP3    H231785   8.090   2.434   2.741  1.3427  0.6708  0.4050
10610TIP3   OH231786   1.090   6.039   2.191  0.2858 -0.0646 -0.4950
10610TIP3    H131787   1.074   6.035   2.096  0.6848  2.0169 -0.7037
10610TIP3    H231788   1.181   6.070   2.198  0.2457 -0.1607  0.5848
10611TIP3   OH231789   6.449   3.714   3.280  0.1960 -0.2756  0.3293
10611TIP3    H131790   6.528   3.664   3.259 -0.5579 -1.4911  0.2809
10611TIP3    H231791   6.482   3.794   3.321  1.4953 -0.1281 -0.9257
10612TIP3   OH231792   5.561   4.517   0.037  0.2380 -0.4375 -0.3671
10612TIP3    H131793   5.614   4.514   0.116 -0.0688 -0.6133 -0.1672
10612TIP3    H231794   5.625   4.526  -0.034  0.4403  2.0812  0.0290
10613TIP3   OH231795   1.068   0.891   1.848  0.0774  0.1617 -0.2257
10613TIP3    H131796   0.986   0.845   1.829  1.2285 -1.0354 -2.6763
10613TIP3    H231797   1.049   0.983   1.829 -0.9147  0.0263  0.0567
10614TIP3   OH231798   0.321   2.823   1.181 -0.4964  0.5053  0.2235
10614TIP3    H131799   0.266   2.841   1.256  0.3444  3.1992  0.2922
10614TIP3    H231800   0.379   2.752   1.210 -0.9744  0.6831  1.6905
10615TIP3   OH231801   6.669   6.238   0.429  0.2292 -0.1009 -0.0967
10615TIP3    H131802   6.727   6.188   0.486 -1.1372 -0.5243  0.9735
10615TIP3    H231803   6.615   6.172   0.386 -2.0581  0.3929  1.8309
10616TIP3   OH231804   6.993   3.322   3.298 -0.4572  0.5621  0.0826
10616TIP3    H131805   7.000   3.234   3.262 -1.0918  0.8102 -0.6681
10616TIP3    H231806   7.080   3.340   3.334  0.2436  0.3595 -1.4495
10617TIP3   OH231807   1.396   3.290   2.930 -0.6966  0.1182  0.0981
10617TIP3    H131808   1.406   3.294   2.834  2.7616 -0.2670  0.3216
10617TIP3    H231809   1.384   3.382   2.956 -0.6912  0.3289 -0.6026
10618TIP3   OH231810   6.679   0.315   3.866 -0.0514  0.1096  0.6020
10618TIP3    H131811   6.654   0.394   3.914  1.3172 -0.3415  2.1535
10618TIP3    H231812   6.748   0.343   3.807 -0.4340  0.3007  0.2396
10619TIP3   OH231813   5.180   5.312   5.053 -0.2583  0.0265  0.4264
10619TIP3    H131814   5.126   5.276   4.982  0.8519 -0.1616 -0.3401
10619TIP3    H231815   5.134   5.285   5.133 -1.1448 -0.3728 -0.1930
10620TIP3   OH231816   4.052   5.307   3.000  0.6664  0.0202  0.0233
10620TIP3    H131817   4.090   5.224   3.028 -1.2192 -0.8133  0.2711
10620TIP3    H231818   3.958   5.296   3.015  0.1455  1.4318 -1.8832
10621TIP3   OH231819   3.628   4.204   1.709 -0.0046  0.4664  0.3322
10621TIP3    H131820   3.691   4.253   1.656 -0.9136  0.3994 -0.8443
10621TIP3    H231821   3.598   4.134   1.650 -0.0752 -0.4037  1.3790
10622TIP3   OH231822   7.706   4.652   4.080  0.0014  0.1570 -0.1944
10622TIP3    H131823   7.758   4.696   4.147  1.1770  0.1071 -1.0402
10622TIP3    H231824   7.624   4.701   4.077 -0.3872 -0.2594  1.7460
10623TIP3   OH231825   0.560   2.887   5.394 -0.1567 -0.5147  0.5249
10623TIP3    H131826   0.550   2.813   5.334  1.4446 -0.8402  0.6126
10623TIP3    H231827   0.571   2.963   5.336  2.0421 -0.9152  0.3154
10624TIP3   OH231828   1.432   2.168   4.637  0.2681  0.1236 -0.1603
10624TIP3    H131829   1.392   2.109   4.700 -1.7327  0.0305 -1.4231
10624TIP3    H231830   1.431   2.119   4.554  2.6570  0.3026 -0.3711
10625TIP3   OH231831   5.835   6.218   4.988  0.2481  0.0143 -0.2721
10625TIP3    H131832   5.802   6.186   4.904 -1.9161  0.7455  0.2443
10625TIP3    H231833   5.798   6.306   4.997  1.5364  0.4790  0.8652
10626TIP3   OH231834   5.204   4.380   2.584  0.0538 -0.0917  0.1773
10626TIP3    H131835   5.191   4.285   2.584  0.6094 -0.1859 -0.8805
10626TIP3    H231836   5.178   4.408   2.672  2.3133 -1.5778  1.4316
10627TIP3   OH231837   5.284   2.992   0.224  0.0252 -0.6655 -0.0965
10627TIP3    H131838   5.327   2.967   0.306  1.2581  0.4603 -0.3721
10627TIP3    H231839   5.355   3.016   0.165 -0.9189  0.3871 -0.8683
10628TIP3   OH231840   3.187   3.684   1.829  0.5777  0.2642 -0.0037
10628TIP3    H131841   3.108   3.688   1.882 -1.0982  0.8430 -2.3678
10628TIP3    H231842   3.187   3.596   1.792  1.0685  0.2560  0.0085
10629TIP3   OH231843   1.626   4.189   6.221  0.2419 -0.4690  0.2326
10629TIP3    H131844   1.572   4.117   6.188 -1.0507  0.9041 -0.7341
10629TIP3    H231845   1.567   4.264   6.225  1.1241  0.2086  2.7811
10630TIP3   OH231846   3.767   4.194   2.225 -0.0899 -0.1210 -0.4708
10630TIP3    H131847   3.694   4.132   2.222 -1.2224  1.2006 -1.3709
10630TIP3    H231848   3.732   4.271   2.270  0.2592  1.0816 -2.1210
10631TIP3   OH231849   6.522   6.147   5.680  0.0057  0.1747 -0.4814
10631TIP3    H131850   6.475   6.199   5.744 -0.1957 -0.5694 -0.0061
10631TIP3    H231851   6.609   6.132   5.720  0.8656  1.9808 -1.5789
10632TIP3   OH231852   5.818   7.414   0.880 -0.4693 -0.4313  0.0847
10632TIP3    H131853   5.791   7.506   0.868  0.7148 -0.4005 -3.5711
10632TIP3    H231854   5.904   7.420   0.921 -0.1840  0.1494 -0.5739
10633TIP3   OH231855   1.428   6.097   0.538 -0.0772  0.5328  0.1409
10633TIP3    H131856   1.365   6.165   0.513  0.6277  1.1327 -0.0396
10633TIP3    H231857   1.513   6.135   0.518  0.4690  0.5055  2.2466
10634TIP3   OH231858   0.516   0.725   1.317  0.0576  0.5774 -0.2601
10634TIP3    H131859   0.453   0.706   1.248 -1.1105  2.5188  0.1851
10634TIP3    H231860   0.518   0.821   1.322  0.0620  0.5238  2.4030
10635TIP3   OH231861   5.701   4.963   4.170  0.4261  0.1208  0.1697
10635TIP3    H131862   5.765   5.034   4.180  0.0258  0.9304 -2.4231
10635TIP3    H231863   5.746   4.897   4.118 -0.5674  0.3674 -1.0374
10636TIP3   OH231864   3.877   4.388   5.806  0.4794  0.1908  0.1055
10636TIP3    H131865   3.878   4.365   5.713  1.4324  1.0275 -0.1050
10636TIP3    H231866   3.969   4.389   5.832  0.2081 -0.3673  1.1511
10637TIP3   OH231867   7.122   4.690   3.141 -0.0178  0.2222  0.0757
10637TIP3    H131868   7.058   4.748   3.099 -1.5137 -0.3870  1.4182
10637TIP3    H231869   7.117   4.608   3.093 -0.3975  0.1150  0.2957
10638TIP3   OH231870   0.347   4.147   5.793 -0.1013 -0.5628 -0.3931
10638TIP3    H131871   0.306   4.228   5.825  3.0919  0.9515  0.2329
10638TIP3    H231872   0.370   4.167   5.702  1.4903 -0.3414  0.0202
10639TIP3   OH231873   6.632   2.763   2.678 -0.2638  0.0785  0.7710
10639TIP3    H131874   6.693   2.736   2.747  0.2958 -0.2075  0.1712
10639TIP3    H231875   6.610   2.681   2.633 -0.7876  0.2361  0.7391
10640TIP3   OH231876   4.498   3.175   6.145 -0.3690 -0.2262  0.2244
10640TIP3    H131877   4.450   3.254   6.171 -0.4505 -0.2948  0.2883
10640TIP3    H231878   4.590   3.199   6.152 -0.2860 -0.9347  2.9489
10641TIP3   OH231879   7.156   4.585   5.829  0.3299  0.4221  0.2584
10641TIP3    H131880   7.188   4.664   5.786  0.3071 -0.3933 -1.2990
10641TIP3    H231881   7.071   4.568   5.789 -0.1166  0.1366  1.2821
10642TIP3   OH231882   7.786   3.235   2.188 -0.0379  0.7999 -0.4836
10642TIP3    H131883   7.827   3.229   2.275  0.0762 -1.4608 -0.6366
10642TIP3    H231884   7.759   3.327   2.181  2.7267  1.8052  0.6392
10643TIP3   OH231885   1.648   3.622   2.446  0.3218  0.8402 -0.1844
10643TIP3    H131886   1.633   3.630   2.540 -0.3353  0.1886 -0.2281
10643TIP3    H231887   1.738   3.589   2.439  0.0040 -0.1625  0.2562
10644TIP3   OH231888   0.036   7.227   0.874  0.8558  0.0748  0.0631
10644TIP3    H131889   0.004   7.317   0.875  2.7131  0.7778  0.1878
10644TIP3    H231890   0.009   7.192   0.789  0.2024  0.7548 -0.0183
10645TIP3   OH231891   7.348   7.354   1.918  0.7756 -1.0780  0.4734
10645TIP3    H131892   7.396   7.429   1.883 -1.1695  0.2556  0.5755
10645TIP3    H231893   7.278   7.391   1.970  0.1534 -2.9948  1.1044
10646TIP3   OH231894   1.768   2.061   4.093  0.0809 -0.1405 -0.0987
10646TIP3    H131895   1.782   1.967   4.106 -0.3038  0.1255  2.9321
10646TIP3    H231896   1.854   2.094   4.068  0.3599 -1.2075 -0.6188
10647TIP3   OH231897   3.923   5.526   3.359 -0.8829 -0.2257  0.1673
10647TIP3    H131898   3.878   5.603   3.324 -2.0003 -1.2507 -0.7333
10647TIP3    H231899   3.868   5.453   3.333  0.2660 -1.3575  0.8399
10648TIP3   OH231900   7.775   7.605   0.556  0.1867  0.3553 -0.6103
10648TIP3    H131901   7.832   7.544   0.511  0.9292 -0.8486  1.7687
10648TIP3    H231902   7.691   7.598   0.510  1.2488  0.3374 -2.6461
10649TIP3   OH231903   7.586   5.984   5.605  0.7109  0.3459 -0.2046
10649TIP3    H131904   7.669   5.939   5.609  0.0576 -0.8950 -0.2462
10649TIP3    H231905   7.555   5.970   5.515  0.7439  1.3412 -0.3835
10650TIP3   OH231906   1.389   2.674   0.906  0.2816  0.1145 -0.4057
10650TIP3    H131907   1.306   2.651   0.949  0.7834 -1.6633 -0.3155
10650TIP3    H231908   1.366   2.745   0.845 -0.7210  1.7014  1.7006
10651TIP3   OH231909   6.150   1.743   3.945 -0.7393 -0.1610  0.0613
10651TIP3    H131910   6.196   1.690   4.010  1.7295  1.9349  0.1911
10651TIP3    H231911   6.146   1.830   3.984 -2.2562  0.3875 -1.2345
10652TIP3   OH231912   1.708   4.357   1.030 -0.2406 -0.0513 -0.0896
10652TIP3    H131913   1.635   4.387   1.084 -1.7629 -1.2360 -1.3858
10652TIP3    H231914   1.691   4.264   1.018 -0.5109  0.3125 -3.3330
10653TIP3   OH231915   5.968   2.553   0.419 -0.1790 -0.0322 -0.0258
10653TIP3    H131916   5.967   2.499   0.498  0.5489 -1.5866 -1.0167
10653TIP3    H231917   5.906   2.510   0.360  0.5065  0.1304 -0.8876
10654TIP3   OH231918   7.628   5.891   6.212 -0.1190  0.3685 -0.0873
10654TIP3    H131919   7.646   5.813   6.160 -3.2411 -0.6130  0.1276
10654TIP3    H231920   7.591   5.857   6.294 -0.3514  2.0596  0.5552
10655TIP3   OH231921   3.961   1.485   4.470 -0.1612  0.3046  0.0630
10655TIP3    H131922   3.906   1.430   4.526  0.9574  0.1346  1.0542
10655TIP3    H231923   3.900   1.539   4.421 -1.2329 -0.6351  0.3187
10656TIP3   OH231924   5.177   4.220   5.744 -0.0631  0.5114 -0.2759
10656TIP3    H131925   5.167   4.139   5.693  0.7360 -1.1204  2.0032
10656TIP3    H231926   5.269   4.221   5.769 -1.0969 -1.3495  4.8751
10657TIP3   OH231927   1.937   2.578   4.103  0.3378 -0.4098 -0.1420
10657TIP3    H131928   1.995   2.506   4.077 -0.5409 -0.8919 -0.8244
10657TIP3    H231929   1.992   2.656   4.098  0.7993 -0.7899 -1.3063
10658TIP3   OH231930   0.722   4.812   2.925  0.2901  0.4178  0.2696
10658TIP3    H131931   0.654   4.760   2.882 -0.4891  1.1391  0.6025
10658TIP3    H231932   0.715   4.899   2.885  1.3462  0.3755 -0.0327
10659TIP3   OH231933   7.012   5.033   6.136 -0.0997  0.2324 -0.0111
10659TIP3    H131934   7.022   4.942   6.108 -2.8291  0.0074 -0.4842
10659TIP3    H231935   6.994   5.027   6.230  0.9256  0.4143  0.2134
10660TIP3   OH231936   0.698   1.050   4.948 -0.1094 -0.9344 -0.0394
10660TIP3    H131937   0.644   0.982   4.989 -0.1757 -1.5799 -1.1627
10660TIP3    H231938   0.668   1.054   4.858  0.6745 -0.2072 -0.2852
10661TIP3   OH231939   8.066   0.063   3.032  0.2199  0.5641 -0.5268
10661TIP3    H131940   8.042   0.105   3.115  1.9082 -0.3258  0.4706
10661TIP3    H231941   8.145   0.110   3.004  0.1616  0.2821 -1.1878
10662TIP3   OH231942   8.283   6.865   1.021 -0.4096 -0.2982  0.3035
10662TIP3    H131943   8.211   6.863   1.085 -1.1015  1.2881 -0.3699
10662TIP3    H231944   8.239   6.865   0.936  0.3078  1.6751 -0.1197
10663TIP3   OH231945   4.797   7.532   2.732  0.0210 -0.1783  0.1406
10663TIP3    H131946   4.742   7.471   2.683 -1.6671  0.7243  0.8432
10663TIP3    H231947   4.829   7.481   2.806  0.6258 -0.8652 -0.5702
10664TIP3   OH231948   2.959   6.483   3.490 -0.0592  0.1462  0.4676
10664TIP3    H131949   3.049   6.514   3.486  0.0150 -0.1482 -0.2840
10664TIP3    H231950   2.949   6.428   3.413 -0.8931  0.2001  0.5279
10665TIP3   OH231951   2.772   0.425   2.411  0.5960  0.1874  0.0651
10665TIP3    H131952   2.831   0.422   2.486 -0.6581 -0.0062  1.0802
10665TIP3    H231953   2.830   0.433   2.335  1.8908  0.5289  1.0504
10666TIP3   OH231954   7.326   7.777   4.772 -0.1567  0.3076  0.0665
10666TIP3    H131955   7.419   7.793   4.789 -0.0335  0.8240 -1.0273
10666TIP3    H231956   7.288   7.864   4.762 -0.6877  0.0875  0.1512
10667TIP3   OH231957   8.288   7.541   1.301 -0.2306  0.6164  0.3959
10667TIP3    H131958   8.217   7.604   1.308 -1.2713 -0.3636 -0.9807
10667TIP3    H231959   8.264   7.484   1.228  1.0878 -0.8519  1.0269
10668TIP3   OH231960   6.901   0.935   4.195 -0.5252  0.2437  0.1711
10668TIP3    H131961   6.854   1.018   4.206  0.5963  0.8841  0.2072
10668TIP3    H231962   6.882   0.886   4.274  2.3287  2.2449  2.3097
10669TIP3   OH231963   8.015   1.568   2.584 -0.2088  0.0275  0.2384
10669TIP3    H131964   8.053   1.639   2.532 -0.3240 -0.6893 -0.8609
10669TIP3    H231965   7.929   1.601   2.610 -0.2241  0.3353 -0.1948
10670TIP3   OH231966   2.387   2.542   1.105 -0.2312 -0.3370 -0.3007
10670TIP3    H131967   2.404   2.453   1.074 -0.3375 -0.6594  0.5393
10670TIP3    H231968   2.437   2.548   1.186  0.0850  0.5071 -0.5521
10671TIP3   OH231969   0.759   4.296   3.003 -0.0066 -0.1505  0.2308
10671TIP3    H131970   0.713   4.379   2.990 -0.8817 -0.7311 -0.6125
10671TIP3    H231971   0.842   4.307   2.957 -1.0031 -0.4344 -1.7683
10672TIP3   OH231972   7.337   6.869   1.684 -0.1855  0.1426 -0.0994
10672TIP3    H131973   7.384   6.816   1.619  0.3945 -0.8483  1.0865
10672TIP3    H231974   7.404   6.928   1.719 -0.4261  0.4552 -0.1579
10673TIP3   OH231975   2.152   0.329   1.004 -0.0579  0.8696 -0.4086
10673TIP3    H131976   2.079   0.278   1.037 -0.6512  0.6614 -1.9779
10673TIP3    H231977   2.114   0.386   0.937  1.2975  0.2646 -1.7544
10674TIP3   OH231978   4.448   5.489   5.409  0.1043  0.0283 -0.9842
10674TIP3    H131979   4.462   5.417   5.347 -0.8543 -0.8618 -0.1997
10674TIP3    H231980   4.417   5.446   5.489  1.4787  1.1392  0.1821
10675TIP3   OH231981   7.214   3.782   5.280  0.6033  0.9882  0.2188
10675TIP3    H131982   7.216   3.709   5.342  0.8528  0.0359 -0.8915
10675TIP3    H231983   7.124   3.784   5.248  0.8644  0.4461 -0.5770
10676TIP3   OH231984   3.711   1.521   4.711  0.3085  0.4752  0.0178
10676TIP3    H131985   3.722   1.616   4.716 -0.9968  0.5856  1.9815
10676TIP3    H231986   3.617   1.507   4.718  0.6213 -1.0280  3.4010
10677TIP3   OH231987   8.206   6.581   5.420  0.4408  0.2048  0.0378
10677TIP3    H131988   8.199   6.673   5.447  1.3943  0.0264  0.9543
10677TIP3    H231989   8.211   6.532   5.502 -1.6579 -0.8498 -0.3912
10678TIP3   OH231990   7.327   4.451   3.950  0.2992  0.0971 -0.4138
10678TIP3    H131991   7.266   4.517   3.982  1.7971  1.1345  0.4391
10678TIP3    H231992   7.295   4.428   3.863 -1.5760  0.2105  0.2038
10679TIP3   OH231993   3.108   6.603   4.366  0.1080  0.2188  0.0304
10679TIP3    H131994   3.017   6.624   4.386  0.3835  1.6039 -0.1110
10679TIP3    H231995   3.150   6.687   4.348  0.8063 -0.5596 -2.5284
10680TIP3   OH231996   1.897   3.593   0.913 -0.1677  0.0676  0.0749
10680TIP3    H131997   1.984   3.618   0.945 -0.0567  0.7765 -0.7324
10680TIP3    H231998   1.902   3.605   0.818 -1.1682  0.1561  0.0213
10681TIP3   OH231999   4.545   0.034   3.701  0.1998 -0.1065 -0.1624
10681TIP3    H132000   4.480   0.079   3.754 -0.7116 -1.4327 -0.0955
10681TIP3    H232001   4.599   0.104   3.664 -1.9774  1.1126 -1.1820
10682TIP3   OH232002   6.033   3.297   0.255 -0.6934 -0.0511 -0.1939
10682TIP3    H132003   6.060   3.212   0.292 -0.4180  0.4174  0.7319
10682TIP3    H232004   6.036   3.284   0.161 -0.5993 -1.0603 -0.0677
10683TIP3   OH232005   8.023   7.121   1.027 -0.0459  0.9617  0.2123
10683TIP3    H132006   8.039   7.110   0.933 -1.0595  1.7154 -0.0645
10683TIP3    H232007   7.999   7.033   1.057  0.6200  0.6445 -0.1651
10684TIP3   OH232008   2.373   7.427   0.853 -0.5785  0.1152 -0.0232
10684TIP3    H132009   2.405   7.341   0.880 -0.1221  0.3504  0.1761
10684TIP3    H232010   2.280   7.426   0.878 -0.1278  0.4123  1.7831
10685TIP3   OH232011   3.315   1.146   1.349 -0.0027  0.3075 -0.2711
10685TIP3    H132012   3.410   1.161   1.349  0.0858 -0.1930 -0.8425
10685TIP3    H232013   3.297   1.105   1.433  0.4282 -0.3678 -0.4954
10686TIP3   OH232014   7.624   0.799   4.788 -0.5388 -0.1271 -0.2634
10686TIP3    H132015   7.659   0.877   4.833  1.1984 -0.7808 -0.3903
10686TIP3    H232016   7.648   0.813   4.696  0.6538 -1.2370 -0.1397
10687TIP3   OH232017   6.930   5.325   2.328  0.4369 -0.1721 -0.2989
10687TIP3    H132018   6.935   5.412   2.288  0.7201 -0.5981 -1.2296
10687TIP3    H232019   6.967   5.337   2.416 -0.7167  0.9075  0.0651
10688TIP3   OH232020   7.701   0.607   3.457  0.4029 -0.8167 -0.1130
10688TIP3    H132021   7.737   0.694   3.473  0.5411 -1.2663  2.4302
10688TIP3    H232022   7.698   0.599   3.361 -0.7275  2.3974 -0.4488
10689TIP3   OH232023   0.482   4.626   0.099 -0.4927  0.1207 -0.0674
10689TIP3    H132024   0.411   4.690   0.109 -0.9492 -0.6463  1.9980
10689TIP3    H232025   0.445   4.558   0.043 -1.3387 -0.1792  0.8370
10690TIP3   OH232026   7.039   5.898   1.135  0.3533  0.6068  0.2628
10690TIP3    H132027   6.993   5.899   1.219  1.7217 -1.1181  1.1138
10690TIP3    H232028   6.978   5.858   1.074 -0.4574  1.3796  0.5437
10691TIP3   OH232029   5.020   7.518   0.811  0.6407  0.3537 -0.4736
10691TIP3    H132030   4.927   7.538   0.820  0.6386  0.8989 -1.5676
10691TIP3    H232031   5.022   7.423   0.799  0.1519  0.4368 -1.2588
10692TIP3   OH232032   8.005   0.904   5.175 -0.8339  0.2095  0.1448
10692TIP3    H132033   7.948   0.861   5.111  1.3269 -1.1312 -0.9791
10692TIP3    H232034   7.969   0.878   5.260 -1.9093 -0.5506 -0.5229
10693TIP3   OH232035   8.019   0.374   1.825  0.4230  0.5313 -0.4897
10693TIP3    H132036   8.081   0.392   1.896 -0.4785  0.6984  0.2769
10693TIP3    H232037   7.963   0.452   1.821 -0.4005 -0.0356 -0.4397
10694TIP3   OH232038   5.650   5.554   0.940  0.0807  0.1069  0.6917
10694TIP3    H132039   5.697   5.619   0.991  2.4237 -1.4775  0.7193
10694TIP3    H232040   5.638   5.480   1.000  1.0714 -0.9863 -0.3831
10695TIP3   OH232041   8.190   1.792   0.707 -0.1606  0.2998 -0.0395
10695TIP3    H132042   8.194   1.767   0.614 -0.0631 -1.2727  0.3615
10695TIP3    H232043   8.204   1.887   0.706  1.4316  0.1186 -1.5287
10696TIP3   OH232044   2.769   1.389   2.176 -0.6492 -0.4423 -0.6700
10696TIP3    H132045   2.674   1.381   2.180 -0.5301 -1.8771  0.5271
10696TIP3    H232046   2.796   1.393   2.268  0.5604 -2.2552 -0.8987
10697TIP3   OH232047   5.616   1.153   5.290 -0.5813  0.3744  0.2099
10697TIP3    H132048   5.688   1.091   5.300 -0.8577  0.3112  2.2347
10697TIP3    H232049   5.616   1.176   5.197  1.4607 -0.3016  0.0103
10698TIP3   OH232050   4.691   6.847   5.070 -0.1296 -0.3786  0.3962
10698TIP3    H132051   4.758   6.866   5.004  0.0504 -0.4224  0.5647
10698TIP3    H232052   4.608   6.859   5.024 -0.0794  2.1280  0.8046
10699TIP3   OH232053   5.966   4.245   5.318  0.4248 -0.9898 -1.0131
10699TIP3    H132054   6.015   4.301   5.379  2.3105 -3.3824 -0.1335
10699TIP3    H232055   5.973   4.289   5.234  0.5195  0.8052 -0.1243
10700TIP3   OH232056   0.372   0.723   6.128  0.2065  0.3844  0.3307
10700TIP3    H132057   0.296   0.666   6.117 -0.0108  0.3715  1.7238
10700TIP3    H232058   0.340   0.810   6.105  0.0430  0.2220 -0.0579
10701TIP3   OH232059   4.818   7.132   1.342  0.5009 -0.1641 -0.5459
10701TIP3    H132060   4.896   7.158   1.390  1.4457 -1.0454 -1.5623
10701TIP3    H232061   4.808   7.039   1.360 -0.3522 -0.0509 -0.3897
10702TIP3   OH232062   2.956   2.363   2.666 -0.0278  0.4398 -0.4988
10702TIP3    H132063   3.000   2.448   2.667  0.8835  0.0010  1.4547
10702TIP3    H232064   2.863   2.384   2.674  0.2988  1.2546  1.6528
10703TIP3   OH232065   1.766   5.680   5.278 -0.1535  0.1107 -0.7431
10703TIP3    H132066   1.850   5.711   5.311 -0.1812 -1.1325  0.5474
10703TIP3    H232067   1.785   5.596   5.238 -0.6086  0.3286 -1.4404
10704TIP3   OH232068   0.359   6.025   5.597  0.4453 -0.4926 -0.3825
10704TIP3    H132069   0.352   5.977   5.515  4.4006 -1.4857 -0.3159
10704TIP3    H232070   0.345   5.959   5.665 -0.7306 -0.0999 -0.2200
10705TIP3   OH232071   5.419   2.030   3.255 -0.2336  0.1566 -0.3241
10705TIP3    H132072   5.397   2.120   3.227  0.0757  0.9304  1.7440
10705TIP3    H232073   5.498   2.009   3.206 -0.3368  1.0025 -0.8857
10706TIP3   OH232074   1.953   0.053   6.709 -0.1544 -0.3708  0.3201
10706TIP3    H132075   1.932  -0.028   6.755  0.8229 -2.1233 -2.1222
10706TIP3    H232076   1.930   0.036   6.618  0.7973  1.8326 -0.4161
10707TIP3   OH232077   0.073   5.025   5.645 -0.0758 -0.4567  0.2363
10707TIP3    H132078   0.118   5.091   5.697  0.3592 -0.9455  0.4880
10707TIP3    H232079   0.137   4.955   5.634 -0.4339 -0.7107 -0.2769
10708TIP3   OH232080   4.551   1.098   5.032 -0.3175  0.3629 -0.3636
10708TIP3    H132081   4.573   1.038   5.103 -0.4571  0.0310 -0.5968
10708TIP3    H232082   4.580   1.184   5.063 -0.6399  0.2684  0.2130
10709TIP3   OH232083   0.830   4.877   4.443  0.1687 -0.6427 -0.1846
10709TIP3    H132084   0.789   4.937   4.505  0.9755 -0.2941  0.0235
10709TIP3    H232085   0.762   4.812   4.425 -0.1272 -0.6961  0.9873
10710TIP3   OH232086   7.956   3.124   4.151  0.3088 -0.1997  0.2360
10710TIP3    H132087   7.959   3.218   4.131  1.4102 -0.4553 -0.9683
10710TIP3    H232088   7.871   3.111   4.193 -0.3867  1.1248 -0.6741
10711TIP3   OH232089  -0.017   5.943   3.900  0.4994 -0.3492  0.4815
10711TIP3    H132090  -0.008   6.034   3.872 -0.7610 -0.7630 -1.4409
10711TIP3    H232091   0.043   5.934   3.974 -0.4922  2.4611  1.7593
10712TIP3   OH232092   6.959   0.005   2.670  0.0424 -0.0332 -0.6122
10712TIP3    H132093   6.889   0.056   2.711  0.2979  0.6983 -1.0715
10712TIP3    H232094   7.021   0.071   2.638  1.2746 -0.6853  0.3629
10713TIP3   OH232095   7.268   3.471   0.622  0.5803  0.4383  0.0917
10713TIP3    H132096   7.267   3.493   0.529  1.2042 -0.0455 -0.0429
10713TIP3    H232097   7.244   3.552   0.667 -0.6578  0.4283 -0.5233
10714TIP3   OH232098   5.915   6.629   4.901  0.1095  0.3659  0.0149
10714TIP3    H132099   5.954   6.591   4.980 -1.3545  2.3089  1.7951
10714TIP3    H232100   5.974   6.604   4.830  0.2454 -3.4919  1.2662
10715TIP3   OH232101   3.473   3.858   1.041 -0.0507  0.1195 -0.3740
10715TIP3    H132102   3.460   3.774   1.084 -1.2216  0.6597  0.3803
10715TIP3    H232103   3.505   3.837   0.954  0.3416 -1.0710  0.0451
10716TIP3   OH232104   0.076   6.482   4.969  0.5498  0.2077 -0.0315
10716TIP3    H132105   0.092   6.440   5.054 -0.5798 -0.6404 -0.2165
10716TIP3    H232106   0.143   6.445   4.911  0.9130  0.2985  0.3254
10717TIP3   OH232107   3.294   6.942   5.848  0.2814 -0.4940 -0.0362
10717TIP3    H132108   3.321   6.851   5.838 -0.1627 -0.5970 -0.3452
10717TIP3    H232109   3.287   6.974   5.758 -0.0276 -0.2951  0.0576
10718TIP3   OH232110   5.744   4.034   0.694 -0.0067  0.0078  0.2238
10718TIP3    H132111   5.808   3.965   0.712  1.3238  1.5326  1.7157
10718TIP3    H232112   5.659   3.991   0.706  0.7722 -1.0672  2.6638
10719TIP3   OH232113   5.973   1.672   0.656 -0.3981 -0.3001  0.2396
10719TIP3    H132114   5.986   1.580   0.675 -0.6067 -0.7223 -1.4856
10719TIP3    H232115   5.905   1.674   0.588  0.1151  1.0545 -0.2888
10720TIP3   OH232116   1.725   7.590   0.468  0.0412 -0.1028 -0.2362
10720TIP3    H132117   1.770   7.664   0.510 -1.4899 -0.0436  1.3815
10720TIP3    H232118   1.638   7.623   0.447 -0.5001 -1.3032  0.0556
10721TIP3   OH232119   2.576   4.742   2.433  0.4902  0.0119 -0.0450
10721TIP3    H132120   2.644   4.675   2.438  1.7832  1.2522 -0.5115
10721TIP3    H232121   2.547   4.740   2.341 -2.8513 -3.0422  0.8230
10722TIP3   OH232122   4.184   7.310   4.609  0.0812  0.9547 -0.4130
10722TIP3    H132123   4.139   7.266   4.538  2.0172  1.4228 -2.0186
10722TIP3    H232124   4.132   7.388   4.627 -1.9528 -0.5728  0.6814
10723TIP3   OH232125   4.287   3.935   0.497  0.1725  0.3558  0.7314
10723TIP3    H132126   4.377   3.906   0.511  0.6325  2.2681  2.2410
10723TIP3    H232127   4.234   3.860   0.523  1.3028  0.4190  3.6289
10724TIP3   OH232128   7.774   4.110   4.227  0.0120  0.1551  0.3330
10724TIP3    H132129   7.854   4.155   4.200  0.1876 -0.3007  0.0805
10724TIP3    H232130   7.707   4.141   4.166  0.3033 -0.5087 -0.3442
10725TIP3   OH232131   7.113   0.244   0.098  0.4297  0.1622  0.7596
10725TIP3    H132132   7.019   0.256   0.082  0.5941  0.9277  0.3337
10725TIP3    H232133   7.141   0.180   0.031  0.1880 -0.1736  0.9771
10726TIP3   OH232134   8.251   7.111   6.123  0.0058  0.3148 -0.0899
10726TIP3    H132135   8.181   7.101   6.058 -0.5085  0.1368  0.4902
10726TIP3    H232136   8.236   7.197   6.162 -0.4715 -0.1222  0.7115
10727TIP3   OH232137   2.007   0.877   2.293 -0.6641 -0.8538 -0.3545
10727TIP3    H132138   2.050   0.861   2.209 -1.2993 -0.5310 -0.7478
10727TIP3    H232139   1.963   0.794   2.313 -1.8385 -0.4591 -1.1438
10728TIP3   OH232140   6.389   3.052   6.719 -0.1535  0.0339  0.2273
10728TIP3    H132141   6.371   2.997   6.642  0.1106  0.1254  0.0979
10728TIP3    H232142   6.317   3.114   6.722  0.5879  0.9721 -0.8041
10729TIP3   OH232143   6.158   2.678   3.364 -0.5079 -0.3234 -0.2078
10729TIP3    H132144   6.126   2.631   3.441 -0.5730 -0.6018 -0.4031
10729TIP3    H232145   6.173   2.767   3.395 -1.9590 -0.0530 -0.2251
10730TIP3   OH232146   3.469   2.532   6.001  0.4218 -0.7912  0.0296
10730TIP3    H132147   3.543   2.502   5.948 -0.6935 -0.3118 -1.8728
10730TIP3    H232148   3.423   2.595   5.946 -0.6321 -0.0221  1.6986
10731TIP3   OH232149   6.208   3.910   6.679 -0.0239  0.0477  0.4201
10731TIP3    H132150   6.154   3.926   6.756 -0.6209  1.2968 -0.2257
10731TIP3    H232151   6.161   3.952   6.607  0.4239 -1.2360 -0.6832
10732TIP3   OH232152   4.748   6.915   4.506 -0.0536 -0.5476  0.1521
10732TIP3    H132153   4.732   6.821   4.516  2.6883 -1.0514  0.6789
10732TIP3    H232154   4.786   6.923   4.418  0.8546 -0.1628  0.5604
10733TIP3   OH232155   0.874   6.521   1.078  0.0956  0.1572  0.1454
10733TIP3    H132156   0.877   6.429   1.104 -2.0785  0.3801  1.4790
10733TIP3    H232157   0.802   6.525   1.014 -0.1607  0.9854  0.4705
10734TIP3   OH232158   5.722   6.253   0.297  0.1176  0.1513 -0.3046
10734TIP3    H132159   5.679   6.318   0.241  1.5454 -0.5862 -2.4008
10734TIP3    H232160   5.724   6.294   0.384 -2.2801  1.3206 -0.7244
10735TIP3   OH232161   7.260   6.832   6.153  0.2768  0.5677 -0.1742
10735TIP3    H132162   7.219   6.797   6.074 -0.7220 -1.0103  1.0043
10735TIP3    H232163   7.197   6.816   6.223  1.4581  1.2393  1.1052
10736TIP3   OH232164   1.691   0.477   3.814 -0.3182  0.0417 -0.2956
10736TIP3    H132165   1.741   0.535   3.871  0.2697 -0.1852 -0.5654
10736TIP3    H232166   1.733   0.486   3.728 -0.2578 -0.7277 -0.3543
10737TIP3   OH232167   2.335   7.421   5.584 -0.4720 -0.2230 -0.5634
10737TIP3    H132168   2.316   7.364   5.509 -0.5109 -0.7451 -0.1618
10737TIP3    H232169   2.299   7.374   5.659 -0.5348  0.3522 -0.2281
10738TIP3   OH232170   0.889   7.088   2.944 -0.1619  0.1182  0.2005
10738TIP3    H132171   0.843   7.166   2.910  0.3021  0.8552  1.2191
10738TIP3    H232172   0.848   7.071   3.028  0.7521  0.1940  0.6745
10739TIP3   OH232173   5.588   6.108   1.585  0.8786  0.3024 -0.4534
10739TIP3    H132174   5.497   6.136   1.583  0.8230  0.2064  0.3217
10739TIP3    H232175   5.638   6.186   1.562  0.6572  0.6808  0.3125
10740TIP3   OH232176   4.796   0.097   1.577  0.1889  0.1070  0.3238
10740TIP3    H132177   4.787   0.088   1.672 -0.8458 -0.9099  0.1505
10740TIP3    H232178   4.882   0.059   1.557 -1.1093 -3.2166  0.4680
10741TIP3   OH232179   6.603   1.657   0.236 -0.3731  0.2473  0.1329
10741TIP3    H132180   6.651   1.600   0.177  0.4079  0.5405  0.4758
10741TIP3    H232181   6.550   1.598   0.289 -1.6897  0.0160 -1.3481
10742TIP3   OH232182   3.243   1.096   1.611  0.1577 -0.1621 -0.4025
10742TIP3    H132183   3.225   1.128   1.699  0.9786  1.4867 -0.8016
10742TIP3    H232184   3.156   1.081   1.573 -0.3230  2.0682 -0.3217
10743TIP3   OH232185   7.016   3.429   6.218  0.2208  0.5480 -0.4981
10743TIP3    H132186   7.028   3.461   6.129  0.3801 -0.4113 -0.8336
10743TIP3    H232187   7.035   3.505   6.274 -0.9864  1.4613 -1.2943
10744TIP3   OH232188   7.610   1.004   0.340 -0.2193 -0.0539 -0.2353
10744TIP3    H132189   7.626   1.063   0.267  0.9787 -0.8056 -0.6111
10744TIP3    H232190   7.531   0.955   0.314  0.9893 -1.3232 -1.7461
10745TIP3   OH232191   6.952   1.015   2.067 -0.1197 -0.3474  0.0898
10745TIP3    H132192   6.919   1.101   2.041 -1.4080 -1.5702 -2.7278
10745TIP3    H232193   7.037   1.009   2.023 -0.9507 -1.2537 -1.4662
10746TIP3   OH232194   3.638   6.582   1.694  0.4764  0.3167 -0.2774
10746TIP3    H132195   3.591   6.549   1.771  0.2237 -0.0589 -0.5909
10746TIP3    H232196   3.708   6.518   1.679  0.7704  0.5986 -0.1270
10747TIP3   OH232197   7.980   2.034   1.607 -0.6121 -0.1174  1.2037
10747TIP3    H132198   8.065   2.066   1.578 -1.2713 -0.8855 -1.9846
10747TIP3    H232199   7.924   2.112   1.606 -0.4485 -0.0007  1.0706
10748TIP3   OH232200   2.986   7.194   1.197  0.3511  0.2663  0.0120
10748TIP3    H132201   3.072   7.223   1.166  0.1746 -0.2963 -1.0545
10748TIP3    H232202   3.005   7.148   1.280  1.1180 -0.0978 -0.3559
10749TIP3   OH232203   0.082   1.412   5.647  0.0304  0.0998 -0.2633
10749TIP3    H132204   0.011   1.350   5.662  1.6048 -1.7934 -0.2352
10749TIP3    H232205   0.160   1.358   5.639  1.4922  2.0931 -0.3227
10750TIP3   OH232206   6.823   1.972   4.866 -0.0254  0.1907 -0.6698
10750TIP3    H132207   6.896   1.936   4.816  0.4874 -0.0385  0.2196
10750TIP3    H232208   6.851   2.061   4.889  1.2558 -0.8043  2.0661
10751TIP3   OH232209   0.690   3.670   2.991 -0.2235 -0.3857 -0.0608
10751TIP3    H132210   0.669   3.740   3.053  0.4512 -1.0019  0.8928
10751TIP3    H232211   0.625   3.680   2.921 -1.1169  0.2200  0.8209
10752TIP3   OH232212   6.520   2.962   3.899  0.1294  0.5225  0.3207
10752TIP3    H132213   6.443   2.940   3.846 -1.1865 -0.7717  2.6106
10752TIP3    H232214   6.562   2.877   3.915 -0.0050  0.7393  2.0054
10753TIP3   OH232215   1.965   5.563   3.806 -0.1484 -0.4543  0.2432
10753TIP3    H132216   1.955   5.596   3.895  0.9124  0.9049 -0.1011
10753TIP3    H232217   2.010   5.479   3.815  2.6549  1.0052  0.8922
10754TIP3   OH232218   1.495   4.735   2.057  0.2102  0.3493  0.3944
10754TIP3    H132219   1.537   4.679   2.122  0.3242  0.0263  0.0439
10754TIP3    H232220   1.521   4.824   2.082  1.3562  0.1378  0.0131
10755TIP3   OH232221   1.855   5.448   5.145 -0.0211 -0.4933  0.2827
10755TIP3    H132222   1.935   5.461   5.094  0.0799  0.0229  0.5569
10755TIP3    H232223   1.801   5.391   5.091 -1.6293  3.1402 -2.3730
10756TIP3   OH232224   3.389   4.000   3.365  0.3739 -0.0966 -0.2736
10756TIP3    H132225   3.398   4.085   3.407 -2.6152  0.6893 -0.9632
10756TIP3    H232226   3.396   4.018   3.271 -0.5157 -0.5559 -0.4402
10757TIP3   OH232227   5.622   1.963   4.385 -0.2352  0.1862  0.2083
10757TIP3    H132228   5.700   1.922   4.349 -0.6635 -0.4777  0.0047
10757TIP3    H232229   5.636   2.057   4.374 -0.5280  0.0191 -2.1033
10758TIP3   OH232230   4.255   1.375   2.239  0.7265 -0.5552  0.6235
10758TIP3    H132231   4.309   1.335   2.308  0.1544 -1.2499  0.6857
10758TIP3    H232232   4.285   1.466   2.234  1.2869 -0.6977  1.2703
10759TIP3   OH232233   7.911   0.417   3.395 -0.0383  0.1479 -0.3429
10759TIP3    H132234   7.828   0.459   3.418 -0.1008  0.4975 -1.1914
10759TIP3    H232235   7.940   0.462   3.316 -0.3516 -1.7015 -1.5801
10760TIP3   OH232236   0.571   0.443   1.123  0.2590  0.2429 -0.0391
10760TIP3    H132237   0.647   0.496   1.148  0.2681  0.4044 -0.4056
10760TIP3    H232238   0.556   0.386   1.199  0.0770  0.9603  0.4859
10761TIP3   OH232239   3.548   3.194   1.776  0.2225  0.3813  0.1254
10761TIP3    H132240   3.592   3.114   1.805  0.8674  1.0186  0.9602
10761TIP3    H232241   3.480   3.209   1.842  0.5180  0.8598  0.3255
10762TIP3   OH232242   0.098   0.812   1.090  0.7086 -0.0120  0.2694
10762TIP3    H132243   0.176   0.767   1.123  0.6515 -0.8960 -0.7407
10762TIP3    H232244   0.131   0.867   1.018  0.6674  1.0383  1.0355
10763TIP3   OH232245   5.483   4.612   2.570  0.1100 -0.0520  0.1912
10763TIP3    H132246   5.553   4.668   2.538 -0.3533  0.0427 -0.6845
10763TIP3    H232247   5.463   4.554   2.497 -1.6827  0.8546 -0.0915
10764TIP3   OH232248   3.361   5.979   1.994  0.6237  0.2719  0.2426
10764TIP3    H132249   3.348   6.060   1.943 -0.7717  0.3917  0.7385
10764TIP3    H232250   3.272   5.949   2.013  1.1314 -1.0342  0.6341
10765TIP3   OH232251   3.988   3.638   5.406 -0.2172 -0.0768 -0.1757
10765TIP3    H132252   3.963   3.724   5.371  0.7349  1.0861  1.8531
10765TIP3    H232253   3.905   3.592   5.417 -0.7083  0.3438 -1.7553
10766TIP3   OH232254   4.815   1.194   3.114 -0.2501 -0.2233  0.0706
10766TIP3    H132255   4.819   1.268   3.053 -1.7483 -1.1218 -1.2085
10766TIP3    H232256   4.761   1.226   3.186 -0.7237  0.0036 -0.3787
10767TIP3   OH232257   6.553   7.291   1.794 -0.2414 -0.5482  0.6314
10767TIP3    H132258   6.574   7.385   1.792 -0.5641 -0.4802 -0.5039
10767TIP3    H232259   6.501   7.277   1.715  0.2028 -1.7852  0.5386
10768TIP3   OH232260   2.421   0.735   2.000 -0.3567 -0.6874 -0.4520
10768TIP3    H132261   2.360   0.664   1.985 -2.0392  0.5932  0.0162
10768TIP3    H232262   2.407   0.795   1.927  0.0452 -0.1808 -0.1216
10769TIP3   OH232263   2.263   5.105   4.448 -0.1794 -0.3343  0.0580
10769TIP3    H132264   2.294   5.043   4.514 -0.6453 -0.3095  0.3025
10769TIP3    H232265   2.173   5.123   4.473  0.1980  1.0747  0.4724
10770TIP3   OH232266   5.149   1.015   3.638  0.0439 -0.2169 -0.2991
10770TIP3    H132267   5.227   1.070   3.646 -1.4003  1.9574 -0.3166
10770TIP3    H232268   5.077   1.077   3.626 -1.8921 -2.0648  1.0454
10771TIP3   OH232269   6.659   0.725   2.006 -0.2461  0.5387  0.0252
10771TIP3    H132270   6.579   0.719   1.955 -0.1117  2.0983 -0.4087
10771TIP3    H232271   6.645   0.800   2.064  0.8463  0.7474  0.0364
10772TIP3   OH232272   4.184   1.664   6.597 -0.0511  0.4101  0.0339
10772TIP3    H132273   4.172   1.609   6.520 -0.3923  0.6066 -0.0582
10772TIP3    H232274   4.166   1.753   6.565  1.2309  0.6723  0.0003
10773TIP3   OH232275   5.271   2.090   6.411 -0.3345 -0.3267 -0.0328
10773TIP3    H132276   5.333   2.110   6.341 -1.2446  0.9317 -0.5109
10773TIP3    H232277   5.204   2.158   6.404 -0.4433 -0.1518  2.0631
10774TIP3   OH232278   2.478   0.135   3.101 -0.2018 -0.3273 -0.5287
10774TIP3    H132279   2.412   0.167   3.039 -0.4154  0.0300 -0.1173
10774TIP3    H232280   2.532   0.075   3.049 -1.3283 -1.2486 -0.6835
10775TIP3   OH232281   1.512   6.934   5.785 -0.2507  0.0368 -0.0257
10775TIP3    H132282   1.489   7.001   5.721  2.8588  0.4612 -0.8864
10775TIP3    H232283   1.509   6.852   5.736  1.1182  0.2433 -0.5097
10776TIP3   OH232284   3.694   1.865   0.167  0.1122 -0.2101 -0.1103
10776TIP3    H132285   3.671   1.876   0.259  0.8117 -0.9659  0.1645
10776TIP3    H232286   3.789   1.857   0.167  0.0937 -0.4582 -0.8740
10777TIP3   OH232287   4.269   1.736   0.523  0.0661 -0.3683  0.2331
10777TIP3    H132288   4.335   1.789   0.568 -1.4542  1.6251  0.2516
10777TIP3    H232289   4.225   1.688   0.593  2.7698 -3.4876  0.0707
10778TIP3   OH232290   4.656   0.795   2.365 -0.2573  0.4886 -0.4064
10778TIP3    H132291   4.679   0.818   2.455  0.6223 -0.9690 -0.2301
10778TIP3    H232292   4.730   0.826   2.313 -0.4533  0.7242 -0.5468
10779TIP3   OH232293   7.479   0.880   4.506 -0.0983  0.2481  0.6309
10779TIP3    H132294   7.440   0.904   4.590  2.1634  1.4757  1.4337
10779TIP3    H232295   7.508   0.963   4.469  1.3485 -0.5300 -0.0695
10780TIP3   OH232296   0.041   4.175   5.272  0.2168  0.5289 -0.0670
10780TIP3    H132297   0.003   4.244   5.218 -1.3039  0.9402  1.4718
10780TIP3    H232298   0.089   4.221   5.341  1.6700  0.0059 -0.6738
10781TIP3   OH232299   2.013   5.146   4.530 -0.0203  0.1353  0.5405
10781TIP3    H132300   1.997   5.054   4.548  0.3982 -0.4036 -1.5601
10781TIP3    H232301   1.925   5.184   4.521 -0.1970 -0.3304  0.2446
10782TIP3   OH232302   5.438   3.311   2.794  0.0086 -0.0337  0.0746
10782TIP3    H132303   5.446   3.263   2.876 -0.1628 -1.3120 -0.6232
10782TIP3    H232304   5.528   3.333   2.770 -0.0328  1.5696  1.2754
10783TIP3   OH232305   5.011   6.959   0.988 -0.5746 -0.1521  0.0085
10783TIP3    H132306   4.924   6.998   0.999 -1.1620 -1.4849  0.2771
10783TIP3    H232307   5.029   6.916   1.072 -0.4070 -1.3225 -0.6127
10784TIP3   OH232308   0.337   5.064   6.727 -0.0631 -0.3572  0.0428
10784TIP3    H132309   0.310   5.033   6.641  1.4513 -0.5604 -0.3800
10784TIP3    H232310   0.383   5.146   6.711  0.0668 -0.2973  0.6674
10785TIP3   OH232311   2.305   1.744   2.426  0.6453  0.5227  0.8180
10785TIP3    H132312   2.273   1.826   2.388 -0.8496 -0.9858 -1.3569
10785TIP3    H232313   2.380   1.720   2.372  0.7839  0.1927  1.1485
10786TIP3   OH232314   4.414   2.649   4.603  0.3930 -0.1553 -0.0932
10786TIP3    H132315   4.337   2.704   4.616  0.6071  0.1634 -0.1483
10786TIP3    H232316   4.405   2.613   4.515  2.0270  2.6958 -1.5764
10787TIP3   OH232317   7.160   4.641   1.398  0.4548  0.2739 -0.7101
10787TIP3    H132318   7.237   4.631   1.342  0.6005 -2.9032 -0.1422
10787TIP3    H232319   7.168   4.570   1.462 -2.6656  0.1587 -0.3044
10788TIP3   OH232320   2.052   2.906   1.841  0.1533 -0.1297  0.0618
10788TIP3    H132321   2.046   2.879   1.750  0.1569  0.3233 -0.0721
10788TIP3    H232322   1.964   2.893   1.876 -0.3849  1.6312 -0.5470
10789TIP3   OH232323   1.465   6.665   4.071 -0.6987 -0.3077 -0.3445
10789TIP3    H132324   1.434   6.677   3.981 -1.3155  1.3694  0.0560
10789TIP3    H232325   1.468   6.570   4.083 -4.4090 -0.6228 -0.8694
10790TIP3   OH232326   5.234   6.143   3.446 -0.2785  0.0550  0.7381
10790TIP3    H132327   5.265   6.088   3.373 -1.4679  0.2483  0.0639
10790TIP3    H232328   5.169   6.089   3.490 -1.0943  0.7209  0.3695
10791TIP3   OH232329   5.133   3.705   0.753  0.0573  0.4197  0.2797
10791TIP3    H132330   5.140   3.612   0.732 -0.7611  0.1189  1.2327
10791TIP3    H232331   5.107   3.746   0.670 -1.6795 -0.5225  0.2939
10792TIP3   OH232332   5.390   5.848   4.671 -0.2271  0.6289 -0.6945
10792TIP3    H132333   5.455   5.918   4.673 -0.0124  0.4401  1.3851
10792TIP3    H232334   5.439   5.770   4.646  0.2225  0.6327  0.1347
10793TIP3   OH232335   6.043   4.660   5.117  0.1255 -0.0331  0.3523
10793TIP3    H132336   6.049   4.749   5.151  0.9117  0.1142 -0.1536
10793TIP3    H232337   5.971   4.664   5.053  0.8017  0.4865 -0.3915
10794TIP3   OH232338   2.245   6.120   5.187 -0.3189  0.3033 -0.2694
10794TIP3    H132339   2.198   6.169   5.119 -0.6860 -0.3753 -0.5161
10794TIP3    H232340   2.249   6.030   5.153  2.3678  0.5946 -0.9141
10795TIP3   OH232341   1.078   5.330   3.198  0.1610  0.4746 -0.0716
10795TIP3    H132342   1.095   5.420   3.227 -0.8282 -0.0142  2.2484
10795TIP3    H232343   1.095   5.276   3.275 -2.7019 -0.9465 -0.2837
10796TIP3   OH232344   1.488   4.218   1.310 -0.5398 -0.1325 -0.0766
10796TIP3    H132345   1.420   4.171   1.261 -2.5195  1.0824  1.3459
10796TIP3    H232346   1.452   4.305   1.323  1.3468  0.5736  0.7198
10797TIP3   OH232347   3.503   5.471   4.530  0.0923 -0.6758 -0.1104
10797TIP3    H132348   3.484   5.441   4.441 -0.2527 -0.0151 -0.2686
10797TIP3    H232349   3.569   5.539   4.519 -0.0895 -0.4593  0.1187
10798TIP3   OH232350   3.669   3.267   1.535  0.1463  0.0688 -0.7313
10798TIP3    H132351   3.752   3.235   1.571  0.4096  0.4611 -0.9742
10798TIP3    H232352   3.605   3.247   1.603  0.5089  0.1225 -0.3640
10799TIP3   OH232353   1.975   4.413   3.508 -0.4341  0.3922 -0.1465
10799TIP3    H132354   1.915   4.487   3.523  0.1764  1.3849 -2.1760
10799TIP3    H232355   1.994   4.417   3.414  1.5110 -0.9174  0.1432
10800TIP3   OH232356   2.994   3.740   5.525  0.5631 -0.3296 -0.0110
10800TIP3    H132357   3.009   3.789   5.444  0.3526  0.8723  0.6530
10800TIP3    H232358   2.902   3.716   5.522  0.0058  1.5477  0.8142
10801TIP3   OH232359   2.215   2.939   4.703 -0.4154  0.0424 -0.0422
10801TIP3    H132360   2.256   2.854   4.716  0.8423  0.2731 -2.0342
10801TIP3    H232361   2.249   2.970   4.619 -1.1713  2.3179  0.3952
10802TIP3   OH232362   5.697   6.175   5.245  0.7001 -0.6873 -0.1428
10802TIP3    H132363   5.718   6.260   5.283 -1.0859 -0.2431 -0.0713
10802TIP3    H232364   5.757   6.167   5.170 -1.0909  2.0608 -2.0590
10803TIP3   OH232365   1.087   7.419   1.379  0.5120 -0.3780  0.4202
10803TIP3    H132366   1.171   7.385   1.410  0.3045 -0.3451  1.0272
10803TIP3    H232367   1.068   7.369   1.300  1.0667 -0.4370  0.3216
10804TIP3   OH232368   7.525   4.912   4.367 -0.1469 -0.2526 -0.1320
10804TIP3    H132369   7.603   4.859   4.380  0.1398  0.1907  0.0087
10804TIP3    H232370   7.539   4.955   4.283 -0.7325 -0.9914 -0.6109
10805TIP3   OH232371   7.087   2.071   6.732 -0.0280  0.2707  0.5948
10805TIP3    H132372   7.027   2.063   6.806 -0.4597 -0.3517  0.1872
10805TIP3    H232373   7.105   2.164   6.726  1.0622  0.2208  2.3034
10806TIP3   OH232374   0.546   4.522   5.034  0.4892 -0.1762  0.3109
10806TIP3    H132375   0.615   4.456   5.036  0.1066 -0.5779  0.4452
10806TIP3    H232376   0.478   4.484   4.978  0.3336  0.1696  0.2634
10807TIP3   OH232377   0.603   4.389   6.219 -0.1557 -0.7069  0.0124
10807TIP3    H132378   0.521   4.370   6.172 -0.3134  0.8206 -0.3786
10807TIP3    H232379   0.672   4.364   6.157 -0.3534  0.0582 -0.5255
10808TIP3   OH232380   0.565   0.047   4.013  0.8534 -0.4507  0.1947
10808TIP3    H132381   0.578   0.081   3.924 -0.5193 -1.6846 -0.5364
10808TIP3    H232382   0.578   0.122   4.070 -1.2481  1.1507 -1.2686
10809TIP3   OH232383   5.437   4.693   2.082  0.0704 -0.0982 -0.0513
10809TIP3    H132384   5.348   4.657   2.080 -0.7482  1.7385  1.0248
10809TIP3    H232385   5.451   4.724   1.992 -0.3230 -0.4639 -0.2467
10810TIP3   OH232386   8.240   5.248   4.734  0.3166  0.4263  0.6002
10810TIP3    H132387   8.228   5.256   4.640  1.7786 -0.0696  0.3479
10810TIP3    H232388   8.270   5.158   4.747 -1.0024  0.1036  1.6835
10811TIP3   OH232389   7.065   4.980   3.662 -0.5604  0.3221  0.2732
10811TIP3    H132390   7.072   4.922   3.586  2.1956  0.6359  0.2157
10811TIP3    H232391   7.051   4.921   3.736 -0.9106 -0.1481 -0.1580
10812TIP3   OH232392   6.357   0.297   3.558 -0.3001  0.0992  0.2658
10812TIP3    H132393   6.280   0.241   3.549 -0.5846  0.1081  2.1781
10812TIP3    H232394   6.422   0.242   3.603 -0.3106  1.0392  1.4706
10813TIP3   OH232395   3.648   1.900   5.383 -0.1109 -0.0731 -0.1758
10813TIP3    H132396   3.568   1.935   5.343 -0.2648  0.3019  0.4411
10813TIP3    H232397   3.619   1.822   5.430 -0.0469 -0.1540 -0.2717
10814TIP3   OH232398   6.776   4.333   3.834 -0.3963  0.0986 -0.8643
10814TIP3    H132399   6.840   4.377   3.891 -1.6595  1.3431 -0.3604
10814TIP3    H232400   6.829   4.302   3.760  1.3910 -2.0470  1.1656
10815TIP3   OH232401   3.725   0.808   2.557 -0.0450  0.6834  0.3817
10815TIP3    H132402   3.773   0.887   2.533 -1.1908  1.2250 -0.2346
10815TIP3    H232403   3.703   0.767   2.473  1.5268 -0.9563  0.6933
10816TIP3   OH232404   1.177   6.274   0.918 -0.2603  0.0916  0.5649
10816TIP3    H132405   1.094   6.243   0.881  0.1157 -1.3262  0.8509
10816TIP3    H232406   1.192   6.358   0.875 -0.9770 -0.4407 -0.8020
10817TIP3   OH232407   0.094   5.764   1.624  0.2745  0.3910 -0.0847
10817TIP3    H132408   0.067   5.685   1.671 -0.0829  0.5558 -0.0044
10817TIP3    H232409   0.037   5.767   1.547 -0.4911  1.1583  0.4908
10818TIP3   OH232410   0.466   0.478   5.469 -0.0569 -0.3048 -0.1661
10818TIP3    H132411   0.387   0.441   5.428 -0.5446  0.1020  0.3754
10818TIP3    H232412   0.433   0.553   5.519  0.6865 -0.1100  0.0385
10819TIP3   OH232413   0.984   3.309   3.405 -0.3279 -0.1285 -0.5057
10819TIP3    H132414   1.010   3.217   3.413 -1.7743 -0.4890  0.4580
10819TIP3    H232415   0.951   3.332   3.492  1.2609  1.7345 -0.3507
10820TIP3   OH232416   4.287   3.434   1.269 -0.4349 -0.1794  0.3001
10820TIP3    H132417   4.214   3.483   1.232  0.8267  2.0535  0.5852
10820TIP3    H232418   4.365   3.468   1.224  0.5347 -1.8818  0.5971
10821TIP3   OH232419   6.302   1.640   2.399 -0.4747 -0.1421 -0.3964
10821TIP3    H132420   6.373   1.585   2.365  0.1686  0.6823 -0.3949
10821TIP3    H232421   6.238   1.577   2.434  0.3937 -0.8844 -0.1128
10822TIP3   OH232422   6.459   3.820   4.408  0.1817  0.1388 -0.2991
10822TIP3    H132423   6.476   3.738   4.361 -0.0825  0.2329 -0.5601
10822TIP3    H232424   6.451   3.886   4.339  2.5505  0.8112 -0.0337
10823TIP3   OH232425   7.488   3.763   2.359 -0.1511 -0.4819  0.3512
10823TIP3    H132426   7.530   3.756   2.273 -0.3526 -2.6168  0.3808
10823TIP3    H232427   7.424   3.693   2.360 -2.0447  1.1746  1.2709
10824TIP3   OH232428   7.225   6.000   3.089 -0.4292  0.9286 -0.1204
10824TIP3    H132429   7.207   6.044   3.006  2.2230  1.6898 -0.4048
10824TIP3    H232430   7.222   5.907   3.068  2.8992  1.0612 -1.9136
10825TIP3   OH232431   1.924   5.548   5.688 -0.1630 -0.0909  0.1153
10825TIP3    H132432   1.929   5.470   5.632 -0.6871 -0.0971  0.0721
10825TIP3    H232433   2.013   5.583   5.689 -0.5493  1.1367 -2.4689
10826TIP3   OH232434   5.146   6.854   0.117  0.6377 -0.0492  0.2650
10826TIP3    H132435   5.212   6.844   0.048 -1.5805  0.7423 -2.1269
10826TIP3    H232436   5.124   6.765   0.142  0.8251 -0.3837 -0.7200
10827TIP3   OH232437   8.095   2.047   3.580 -0.2323 -0.1050 -0.3490
10827TIP3    H132438   8.153   1.972   3.572 -0.7649 -0.5675  0.0182
10827TIP3    H232439   8.145   2.110   3.633 -0.2249 -0.6770  0.3507
10828TIP3   OH232440   3.823   0.005   5.535 -0.1764  0.5520 -0.1540
10828TIP3    H132441   3.910  -0.034   5.544  0.0379  1.0727  0.0601
10828TIP3    H232442   3.839   0.099   5.526 -0.6652  0.5557 -1.0755
10829TIP3   OH232443   2.552   3.454   2.493  0.4420  0.6314  0.3787
10829TIP3    H132444   2.490   3.404   2.440  1.6284 -0.0519 -0.3879
10829TIP3    H232445   2.534   3.545   2.471 -0.2125  0.4349  0.0804
10830TIP3   OH232446   7.393   0.190   5.748  0.3308  0.7589 -0.5023
10830TIP3    H132447   7.362   0.280   5.748 -0.8838  0.4199  1.5565
10830TIP3    H232448   7.325   0.141   5.702  1.1382  0.9058 -1.8899
10831TIP3   OH232449   0.624   3.202   1.563 -0.0622 -0.1431 -0.1805
10831TIP3    H132450   0.680   3.218   1.487  0.0608 -0.1904 -0.1012
10831TIP3    H232451   0.576   3.284   1.575  0.5775  0.1808  0.2316
10832TIP3   OH232452   1.671   2.352   4.597 -0.5657 -0.1919  0.0148
10832TIP3    H132453   1.595   2.293   4.600 -0.6320 -0.0551  1.3084
10832TIP3    H232454   1.747   2.293   4.596 -0.6493 -0.3066  0.5170
10833TIP3   OH232455   5.700   6.703   5.086 -0.3083  0.1013  0.0987
10833TIP3    H132456   5.710   6.753   5.005 -2.4516 -1.7662 -1.4815
10833TIP3    H232457   5.698   6.769   5.155 -0.8906  2.0199 -1.6429
10834TIP3   OH232458   2.783   2.760   3.371  0.0377 -0.0804 -0.3668
10834TIP3    H132459   2.790   2.835   3.431  1.0194 -0.7846  0.4424
10834TIP3    H232460   2.725   2.699   3.417  1.3895 -0.9437  0.2549
10835TIP3   OH232461   4.845   0.447   6.740  0.0352  0.0865  0.3189
10835TIP3    H132462   4.787   0.516   6.774  0.1340 -0.4177  1.5702
10835TIP3    H232463   4.917   0.494   6.699  0.4032  0.7561  1.6782
10836TIP3   OH232464   1.938   1.310   6.102  0.2534  0.3774  0.0155
10836TIP3    H132465   1.988   1.344   6.176 -0.2454  0.3510  0.3698
10836TIP3    H232466   1.963   1.366   6.028 -2.4472  3.3345  1.0941
10837TIP3   OH232467   2.833   7.437   1.273  0.1401 -0.1888 -0.7800
10837TIP3    H132468   2.863   7.503   1.210  0.9471 -0.2107 -0.4210
10837TIP3    H232469   2.873   7.355   1.244  0.1642 -0.2804 -0.4918
10838TIP3   OH232470   3.186   6.871   5.556  0.0531  0.2493  0.3955
10838TIP3    H132471   3.157   6.780   5.543 -0.2551 -0.1194  3.0741
10838TIP3    H232472   3.106   6.919   5.577  0.2378  1.1609 -0.8435
10839TIP3   OH232473   1.797   4.942   0.554 -0.4682  0.2840  0.6831
10839TIP3    H132474   1.722   4.901   0.597 -0.0479 -2.0769 -0.6587
10839TIP3    H232475   1.772   4.947   0.462  0.8466 -0.1191  0.2912
10840TIP3   OH232476   3.484   2.812   2.845  0.1114 -0.6692 -0.0496
10840TIP3    H132477   3.523   2.728   2.870  0.6736 -0.2295  0.5999
10840TIP3    H232478   3.460   2.852   2.929  1.1556  0.4295 -0.2450
10841TIP3   OH232479   5.423   2.923   3.218  0.3056  0.0920 -0.3329
10841TIP3    H132480   5.499   2.866   3.232  0.9102  1.1323  0.7232
10841TIP3    H232481   5.384   2.891   3.136  2.1303 -0.1850 -1.1335
10842TIP3   OH232482   7.342   1.357   3.149 -0.3840 -0.3306  0.4546
10842TIP3    H132483   7.431   1.333   3.173  0.3400  0.7126 -1.0633
10842TIP3    H232484   7.326   1.311   3.067 -0.2988  1.4368 -0.5935
10843TIP3   OH232485   0.472   2.182   5.865 -0.4189  0.3849 -0.5833
10843TIP3    H132486   0.501   2.223   5.947  1.8817 -0.7998 -0.7163
10843TIP3    H232487   0.511   2.235   5.796  0.6546 -0.6492 -0.8014
10844TIP3   OH232488   7.046   5.659   4.607 -0.4530  0.1962 -0.0379
10844TIP3    H132489   7.063   5.566   4.594  2.8824  0.3414  2.2450
10844TIP3    H232490   7.116   5.703   4.559 -1.0295  1.4953  0.2655
10845TIP3   OH232491   1.330   7.707   6.620 -0.3458  0.0353  0.4626
10845TIP3    H132492   1.256   7.656   6.588 -1.4980  0.9772  1.5319
10845TIP3    H232493   1.305   7.733   6.709  1.5602 -0.1814  1.1096
10846TIP3   OH232494   3.933   0.802   2.272 -0.0029  0.7477  0.0851
10846TIP3    H132495   3.950   0.855   2.194 -0.1085  0.1499 -0.3505
10846TIP3    H232496   3.902   0.865   2.337 -0.9055  1.1106 -0.6735
10847TIP3   OH232497   7.372   3.916   0.992  0.4332 -0.9405 -0.2203
10847TIP3    H132498   7.347   3.960   0.911  0.8081  1.3691  0.8386
10847TIP3    H232499   7.292   3.873   1.022 -1.5036  3.1202  1.1337
10848TIP3   OH232500   2.880   7.663   4.713  0.1824  0.4052  0.0922
10848TIP3    H132501   2.912   7.586   4.667 -0.7637  0.5067 -0.7647
10848TIP3    H232502   2.855   7.724   4.644 -0.7646  0.7800  0.7444
10849TIP3   OH232503   3.342   6.459   1.013 -0.3692  0.1930 -0.4460
10849TIP3    H132504   3.426   6.414   1.025 -0.8104 -1.1221 -2.0141
10849TIP3    H232505   3.338   6.478   0.920 -0.8423  2.2936 -0.0551
10850TIP3   OH232506   3.877   6.675   4.777  0.2875  0.6553 -0.1474
10850TIP3    H132507   3.790   6.688   4.816 -0.6276  1.1202 -2.2125
10850TIP3    H232508   3.937   6.683   4.851 -1.2498  2.7775  0.9937
10851TIP3   OH232509   5.559   0.691   6.728 -0.0197 -0.4218 -0.1084
10851TIP3    H132510   5.625   0.649   6.672 -0.4933 -1.9754  0.4282
10851TIP3    H232511   5.521   0.618   6.777 -0.7372  0.7049  1.0540
10852TIP3   OH232512   3.131   3.557   2.633 -0.1385  0.4698  0.4083
10852TIP3    H132513   3.213   3.548   2.584 -0.7044  0.3977 -0.5318
10852TIP3    H232514   3.145   3.636   2.686 -0.0164  1.3536 -0.8780
10853TIP3   OH232515   3.179   6.444   1.788 -0.2270  0.1050 -0.1496
10853TIP3    H132516   3.101   6.422   1.838 -0.0658 -1.7017 -0.6248
10853TIP3    H232517   3.229   6.503   1.845 -1.0371 -0.2140  0.9219
10854TIP3   OH232518   6.964   3.613   3.176 -0.3348 -0.2575 -0.7514
10854TIP3    H132519   7.009   3.640   3.257 -1.2568  0.7889 -0.5691
10854TIP3    H232520   6.956   3.518   3.185 -2.0831 -0.0118  1.3269
10855TIP3   OH232521   3.687   4.206   6.322  0.1226 -0.3669 -0.8092
10855TIP3    H132522   3.696   4.234   6.231  0.4016 -0.2922 -0.7598
10855TIP3    H232523   3.654   4.117   6.316 -2.3519  0.4933 -0.9476
10856TIP3   OH232524   0.005   0.055   1.174  0.0538 -0.3897 -0.1843
10856TIP3    H132525  -0.022   0.128   1.117 -3.2328 -1.1351  0.2028
10856TIP3    H232526   0.030  -0.015   1.113  2.2737  0.6508 -0.5642
10857TIP3   OH232527   3.502   0.947   3.970 -0.0809 -0.4070  0.4902
10857TIP3    H132528   3.543   0.937   4.055 -2.0573 -1.3148  1.3842
10857TIP3    H232529   3.460   0.863   3.952 -0.1699 -0.0658 -1.1396
10858TIP3   OH232530   5.218   5.659   3.402 -0.1136 -0.2596  0.2701
10858TIP3    H132531   5.222   5.564   3.412 -1.2843 -0.2288  1.2024
10858TIP3    H232532   5.129   5.676   3.373 -0.0908  0.6003  0.6893
10859TIP3   OH232533   0.621   7.502   1.473 -0.3474  0.2922  0.0863
10859TIP3    H132534   0.697   7.489   1.530  0.5876  1.3466 -0.8813
10859TIP3    H232535   0.658   7.522   1.387 -1.7218 -1.7514 -1.0850
10860TIP3   OH232536   7.675   0.636   1.206  0.0517  0.0963  0.6794
10860TIP3    H132537   7.646   0.574   1.139  1.4864  1.7158 -1.5844
10860TIP3    H232538   7.736   0.586   1.261  0.0619 -0.8523 -0.1723
10861TIP3   OH232539   5.171   0.426   5.605  0.1848  0.3241  0.6860
10861TIP3    H132540   5.247   0.419   5.547 -0.8983  2.4216 -1.1714
10861TIP3    H232541   5.097   0.400   5.550 -0.5556 -1.0435  2.2482
10862TIP3   OH232542   2.529   0.284   2.442  0.2678  0.5372 -0.2459
10862TIP3    H132543   2.486   0.326   2.368  1.3270 -0.3692 -1.4008
10862TIP3    H232544   2.611   0.332   2.453  1.4924 -1.1410 -1.5867
10863TIP3   OH232545   4.065   7.804   2.017 -0.2620 -0.0554  0.0495
10863TIP3    H132546   4.103   7.732   1.966 -0.1516  0.3306 -0.4100
10863TIP3    H232547   4.037   7.868   1.952  1.5176  1.2820  0.5126
10864TIP3   OH232548   3.263   0.699   5.591 -0.7115  0.4368 -0.0154
10864TIP3    H132549   3.348   0.679   5.551 -1.1911  1.3513 -1.5777
10864TIP3    H232550   3.282   0.705   5.684  1.3998  2.6298 -0.4777
10865TIP3   OH232551   7.256   3.556   2.964 -0.7738 -1.1296  0.0314
10865TIP3    H132552   7.236   3.478   3.016  0.9388 -1.6189  0.0464
10865TIP3    H232553   7.290   3.619   3.028  2.6244 -2.2016 -0.5082
10866TIP3   OH232554   0.193   6.615   4.270  0.7332 -0.0227  0.3311
10866TIP3    H132555   0.286   6.595   4.263  0.7601  0.4108 -0.7516
10866TIP3    H232556   0.182   6.696   4.219 -0.3685 -0.5069 -0.2300
10867TIP3   OH232557   0.168   5.373   3.413  0.2502 -0.4176  0.5576
10867TIP3    H132558   0.100   5.316   3.450  1.7403 -2.3375  0.5287
10867TIP3    H232559   0.129   5.407   3.332 -1.3394  0.0885  1.4953
10868TIP3   OH232560   1.968   7.538   4.144  0.1655 -0.2253  0.5907
10868TIP3    H132561   2.059   7.530   4.115 -0.7322 -5.2470 -1.9126
10868TIP3    H232562   1.920   7.563   4.065 -0.9701 -1.5343  0.8265
10869TIP3   OH232563   4.829   3.090   1.403  0.6836  0.1395 -0.5159
10869TIP3    H132564   4.911   3.050   1.431 -0.1722 -1.7331 -0.5147
10869TIP3    H232565   4.850   3.134   1.320  1.3716 -1.7052 -1.3716
10870TIP3   OH232566   5.808   3.332   5.499  0.4570  0.2499 -0.5809
10870TIP3    H132567   5.719   3.324   5.532  0.1139  1.9567 -1.0334
10870TIP3    H232568   5.851   3.250   5.526 -1.2432 -0.6254 -0.4199
10871TIP3   OH232569   2.596   1.821   4.278 -0.5107  0.2130 -0.9355
10871TIP3    H132570   2.605   1.899   4.223 -3.6154  1.8219  0.5708
10871TIP3    H232571   2.583   1.750   4.216  1.3596  1.0282 -2.3473
10872TIP3   OH232572   1.471   7.359   3.422  0.1351  0.1305  0.2244
10872TIP3    H132573   1.428   7.293   3.369  1.1913 -1.4732  1.2928
10872TIP3    H232574   1.549   7.384   3.371  1.0731 -1.3061  0.8954
10873TIP3   OH232575   1.033   7.038   0.487 -0.1245  0.0658  0.3345
10873TIP3    H132576   1.104   7.007   0.542 -0.1450 -0.5985 -0.0028
10873TIP3    H232577   0.954   7.027   0.540 -0.1614 -0.7075  0.1265
10874TIP3   OH232578   5.260   0.584   0.910 -0.1953 -0.1335 -0.2848
10874TIP3    H132579   5.260   0.679   0.903 -1.0586  0.0935  2.0707
10874TIP3    H232580   5.179   0.557   0.868  0.9973 -0.0975 -2.8314
10875TIP3   OH232581   6.373   3.992   2.789  0.4111  0.0326  0.7551
10875TIP3    H132582   6.399   4.035   2.871  2.9604 -1.0282  0.5982
10875TIP3    H232583   6.298   4.043   2.758 -0.2148  0.8667  3.3816
10876TIP3   OH232584   1.859   0.666   3.920 -0.3121 -0.0584  0.5772
10876TIP3    H132585   1.876   0.709   4.003  1.8636  1.5852 -0.6237
10876TIP3    H232586   1.922   0.594   3.916 -0.8994 -0.5826  0.6517
10877TIP3   OH232587   2.264   2.690   0.527 -0.2348 -0.2073 -0.0189
10877TIP3    H132588   2.219   2.732   0.600  0.6807  1.3313 -0.3034
10877TIP3    H232589   2.314   2.619   0.567  0.6326  0.9135  0.9394
10878TIP3   OH232590   5.905   6.238   3.661  0.3306  0.3451  0.1917
10878TIP3    H132591   5.877   6.293   3.587 -3.9999  1.1524  2.1553
10878TIP3    H232592   5.881   6.149   3.636 -0.8826  0.5820  0.4782
10879TIP3   OH232593   4.497   7.293   4.825 -0.2108 -0.2770  0.7775
10879TIP3    H132594   4.587   7.263   4.843 -0.1941 -0.0353  1.1200
10879TIP3    H232595   4.455   7.293   4.911  0.1245  1.7549  0.9938
10880TIP3   OH232596   1.364   0.873   2.891 -0.3003  0.5755  0.1979
10880TIP3    H132597   1.449   0.917   2.889 -0.2101  0.4427 -2.2254
10880TIP3    H232598   1.306   0.932   2.843 -0.6945 -0.9170 -1.2401
10881TIP3   OH232599   3.584   0.086   4.030  0.0786 -0.2058  0.1657
10881TIP3    H132600   3.610   0.148   4.097  1.5934 -1.1816  0.5289
10881TIP3    H232601   3.613   0.001   4.063  3.6433 -0.4496 -2.9226
10882TIP3   OH232602   7.314   7.257   2.271  0.1853 -0.0342 -0.2837
10882TIP3    H132603   7.341   7.349   2.265  0.9058 -0.1596  0.8323
10882TIP3    H232604   7.386   7.209   2.229  0.8956 -0.2398  1.1285
10883TIP3   OH232605   7.244   0.360   5.133 -0.1307 -0.7307 -0.1785
10883TIP3    H132606   7.292   0.436   5.164  0.1309 -0.0630 -2.1166
10883TIP3    H232607   7.174   0.348   5.198  0.4366  0.5201  0.6966
10884TIP3   OH232608   3.929   5.521   0.035  0.3476 -0.3128 -0.1307
10884TIP3    H132609   4.001   5.583   0.041  1.6531 -1.7158 -0.8700
10884TIP3    H232610   3.968   5.436   0.056 -1.2313 -1.0207  0.1117
10885TIP3   OH232611   7.100   1.135   6.423  0.2125  0.2062 -0.0891
10885TIP3    H132612   7.067   1.084   6.497  2.7184 -2.4194 -0.5936
10885TIP3    H232613   7.029   1.196   6.402 -1.0232  0.3229  3.7012
10886TIP3   OH232614   2.188   2.163   0.927 -0.1414 -0.0177 -0.2984
10886TIP3    H132615   2.244   2.091   0.956 -1.1196 -1.0710 -0.9391
10886TIP3    H232616   2.113   2.160   0.986 -0.7750 -0.3267 -1.1022
10887TIP3   OH232617   2.052   5.459   6.745  0.2279 -0.3513  0.4841
10887TIP3    H132618   2.051   5.451   6.840  1.8091  0.3152  0.5879
10887TIP3    H232619   2.074   5.551   6.729  0.2796 -0.5259 -0.5253
10888TIP3   OH232620   6.173   4.777   1.504  0.0871  0.2256 -0.3329
10888TIP3    H132621   6.240   4.715   1.474 -0.0182  0.8444 -1.9806
10888TIP3    H232622   6.212   4.863   1.490  0.4944  0.6039  2.5644
10889TIP3   OH232623   0.901   7.758   2.548  0.1356 -0.2464  0.0531
10889TIP3    H132624   0.959   7.683   2.560  1.4162  0.9549  2.1091
10889TIP3    H232625   0.960   7.831   2.527 -1.0340  0.3163 -1.4948
10890TIP3   OH232626   1.335   1.403   2.245 -0.2727  0.0272 -0.6208
10890TIP3    H132627   1.360   1.494   2.230  1.5498 -0.2292  0.5909
10890TIP3    H232628   1.257   1.391   2.191 -1.1526  2.5679 -0.0752
10891TIP3   OH232629   6.811   1.345   3.276  0.5662  0.2682  0.3395
10891TIP3    H132630   6.768   1.374   3.195  0.2616 -1.2411 -0.0726
10891TIP3    H232631   6.903   1.366   3.263  0.9590 -2.1715 -1.5240
10892TIP3   OH232632   5.749   4.519   1.235  0.3026 -0.3173 -0.1469
10892TIP3    H132633   5.706   4.434   1.224 -0.3780  0.1084 -0.9542
10892TIP3    H232634   5.802   4.529   1.156  0.3197  0.0443 -0.0896
10893TIP3   OH232635   2.235   3.898   3.131  0.3885  0.3229  0.4402
10893TIP3    H132636   2.198   3.879   3.044 -0.9005 -0.5884  1.1574
10893TIP3    H232637   2.250   3.813   3.170 -0.3163  0.7143  1.6145
10894TIP3   OH232638   2.925   5.600   4.170 -0.8635 -0.5563  0.1414
10894TIP3    H132639   2.986   5.673   4.161 -0.3486 -0.9198  0.6163
10894TIP3    H232640   2.972   5.536   4.223 -1.5317 -0.9885  0.2215
10895TIP3   OH232641   7.069   6.035   6.709  0.0140  0.3656  0.2695
10895TIP3    H132642   7.114   5.984   6.641  0.3784 -0.1439  0.8872
10895TIP3    H232643   7.136   6.048   6.777 -0.1905  1.3185  0.3087
10896TIP3   OH232644   1.055   1.051   1.571 -0.2754 -0.0606 -0.0447
10896TIP3    H132645   0.994   1.117   1.604  0.9116  1.1977 -0.2998
10896TIP3    H232646   1.093   1.091   1.493 -1.2823 -2.0186 -1.6386
10897TIP3   OH232647   0.875   6.192   1.713  0.4043 -0.3892  0.1789
10897TIP3    H132648   0.873   6.155   1.801 -0.3727 -1.4593 -0.2531
10897TIP3    H232649   0.942   6.260   1.716  2.6909 -2.4957  0.7925
10898TIP3   OH232650   3.794   5.320   3.052  0.0853 -0.4259 -0.2884
10898TIP3    H132651   3.706   5.295   3.024  0.5963 -0.8160 -1.6532
10898TIP3    H232652   3.785   5.339   3.145 -1.6420  0.5589 -0.6065
10899TIP3   OH232653   5.995   1.124   6.526 -0.4274  0.0875 -0.1009
10899TIP3    H132654   5.914   1.175   6.526 -2.6243 -3.1352  0.2899
10899TIP3    H232655   6.023   1.124   6.434 -1.6810  0.0548 -0.5030
10900TIP3   OH232656   6.669   7.321   5.060  0.1015  0.3935  0.1149
10900TIP3    H132657   6.694   7.365   4.979 -1.1967  1.1966  0.1169
10900TIP3    H232658   6.589   7.273   5.038  1.2608 -1.7205  0.2135
10901TIP3   OH232659   3.027   3.596   4.140 -0.0749  0.2667 -0.7242
10901TIP3    H132660   3.044   3.626   4.050 -1.5130 -0.7163 -1.3697
10901TIP3    H232661   2.992   3.508   4.128 -1.0948  0.4511  0.7617
10902TIP3   OH232662   2.190   7.408   4.491  0.3170 -0.4423  0.1468
10902TIP3    H132663   2.195   7.404   4.587  1.4769 -1.6123  0.0635
10902TIP3    H232664   2.115   7.353   4.469 -2.0924  2.4382  0.4835
10903TIP3   OH232665   8.047   5.097   1.083 -0.0263  0.0878 -0.1505
10903TIP3    H132666   8.047   5.022   1.142  1.0013  1.2635  1.4667
10903TIP3    H232667   7.972   5.150   1.110 -0.8564 -0.4127 -1.3987
10904TIP3   OH232668   4.580   2.146   3.239 -0.3399 -0.0156  0.2263
10904TIP3    H132669   4.675   2.155   3.249  0.1236 -3.2253 -0.2159
10904TIP3    H232670   4.563   2.179   3.150  0.5879 -0.5954 -0.1855
10905TIP3   OH232671   0.695   2.628   5.495 -0.3179  0.7018 -0.1961
10905TIP3    H132672   0.658   2.717   5.496 -1.1816  0.3481  1.0245
10905TIP3    H232673   0.643   2.581   5.430  0.7266  1.2956 -1.5165
10906TIP3   OH232674   0.952   6.284   5.574  0.0435  0.5780  0.5143
10906TIP3    H132675   1.047   6.294   5.588  0.3290  0.7357 -1.3212
10906TIP3    H232676   0.920   6.374   5.568  0.0538  0.5321 -0.4162
10907TIP3   OH232677   5.935   6.201   5.453 -0.5348  0.1198  0.8884
10907TIP3    H132678   6.023   6.165   5.453 -0.2494  0.7594  2.2161
10907TIP3    H232679   5.886   6.145   5.392  1.0432  0.4752 -0.7958
10908TIP3   OH232680   7.332   1.954   1.945  0.4471  0.1726  0.1679
10908TIP3    H132681   7.384   1.914   2.016  0.9071  0.1558 -0.1728
10908TIP3    H232682   7.253   1.900   1.940  0.6906 -0.1981  0.2615
10909TIP3   OH232683   3.781   6.137   3.989 -0.4820 -0.2871  0.3865
10909TIP3    H132684   3.775   6.201   4.061 -0.4921  0.9253 -0.6704
10909TIP3    H232685   3.845   6.073   4.020  0.9765  1.2537  0.6999
10910TIP3   OH232686   0.860   5.054   3.928  0.3518  0.1898 -0.2054
10910TIP3    H132687   0.948   5.017   3.918  0.0371 -0.2455 -1.4989
10910TIP3    H232688   0.802   4.991   3.886 -0.7086  0.0616  1.3531
10911TIP3   OH232689   3.262   7.415   6.643  0.1009  0.0050  0.1562
10911TIP3    H132690   3.216   7.415   6.560 -2.0709 -0.4079  1.2912
10911TIP3    H232691   3.331   7.350   6.633  0.1036  0.2189 -1.4041
10912TIP3   OH232692   6.710   1.272   5.657 -0.1865 -0.2114 -0.1806
10912TIP3    H132693   6.765   1.296   5.583  2.6715 -0.2602  1.7847
10912TIP3    H232694   6.662   1.353   5.679  0.6515  0.4355 -0.6900
10913TIP3   OH232695   6.467   5.463   1.671  0.0119  0.9566  0.2833
10913TIP3    H132696   6.497   5.412   1.746 -1.3754  2.3251  1.8563
10913TIP3    H232697   6.384   5.421   1.646  0.2553  0.7713 -0.2353
10914TIP3   OH232698   3.453   3.108   6.636  0.8349 -0.2435  0.0105
10914TIP3    H132699   3.537   3.063   6.644  0.8722 -0.3536 -0.9185
10914TIP3    H232700   3.477   3.196   6.604  0.6698  0.0631  0.7061
10915TIP3   OH232701   0.966   4.720   5.694 -0.2134  0.2083  0.2570
10915TIP3    H132702   0.874   4.707   5.669  0.0677 -3.2888  0.5588
10915TIP3    H232703   0.965   4.799   5.747 -3.4563 -0.7570  1.9165
10916TIP3   OH232704   5.702   5.199   6.531  0.2197 -0.5798 -0.6237
10916TIP3    H132705   5.637   5.174   6.596 -1.4261  0.7884 -1.6359
10916TIP3    H232706   5.711   5.121   6.475 -0.2479 -0.9254 -0.2292
10917TIP3   OH232707   1.089   3.519   0.899  1.1074 -0.0808 -0.5725
10917TIP3    H132708   1.032   3.483   0.830  1.5757  0.9315 -1.5169
10917TIP3    H232709   1.166   3.461   0.899  0.1404 -1.4508  0.7053
10918TIP3   OH232710   6.941   7.582   3.078  0.0659 -0.2497 -0.0045
10918TIP3    H132711   6.938   7.567   3.173 -1.7442  2.5089  0.4999
10918TIP3    H232712   6.933   7.677   3.069  0.3925 -0.4183 -2.9531
10919TIP3   OH232713   4.754   3.496   4.988  0.3044 -0.3918 -0.3588
10919TIP3    H132714   4.769   3.408   5.024 -1.2347 -0.5968 -0.1227
10919TIP3    H232715   4.668   3.490   4.947 -0.3134  1.2825  0.5792
10920TIP3   OH232716   6.638   7.392   3.701 -0.2178 -0.4035  0.2654
10920TIP3    H132717   6.548   7.366   3.723 -1.5392  2.7725 -0.7563
10920TIP3    H232718   6.680   7.408   3.785 -0.7865 -1.3728  0.7476
10921TIP3   OH232719   4.446   2.022   2.568 -0.5525  0.1329  0.0552
10921TIP3    H132720   4.500   2.098   2.588 -0.4614  0.2550 -0.6302
10921TIP3    H232721   4.498   1.947   2.598 -1.1060  0.3784  1.7351
10922TIP3   OH232722   0.011   6.465   1.447  0.2363 -0.6179  0.0973
10922TIP3    H132723   0.092   6.453   1.398  1.9889  1.0562  2.3953
10922TIP3    H232724  -0.020   6.552   1.423 -0.4103 -0.8923 -0.0921
10923TIP3   OH232725   0.874   0.651   5.945 -0.4060  0.3848  0.5898
10923TIP3    H132726   0.783   0.660   5.915 -0.6006 -0.4330  0.9169
10923TIP3    H232727   0.875   0.691   6.032 -0.7682 -0.7906  1.1434
10924TIP3   OH232728   2.767   7.463   5.428  0.3514  0.4719  0.2194
10924TIP3    H132729   2.702   7.472   5.498  0.9715  0.2840  0.8291
10924TIP3    H232730   2.752   7.376   5.392 -0.0051  0.5892  0.0869
10925TIP3   OH232731   1.436   0.602   2.960  0.4539 -0.0339 -0.2607
10925TIP3    H132732   1.388   0.680   2.931  0.3138  0.7429  1.9056
10925TIP3    H232733   1.523   0.634   2.981  0.9730 -0.8431 -1.1087
10926TIP3   OH232734   2.103   1.689   1.187 -0.3798  0.0739 -0.3375
10926TIP3    H132735   2.014   1.708   1.157 -0.0662  0.9086 -0.7589
10926TIP3    H232736   2.091   1.659   1.277 -1.1467 -0.4842 -0.6195
10927TIP3   OH232737   2.215   3.645   3.269 -0.0490 -0.5441 -0.5067
10927TIP3    H132738   2.298   3.636   3.316 -0.1170 -0.7654 -0.4267
10927TIP3    H232739   2.160   3.574   3.303 -0.8978  0.6602  0.7566
10928TIP3   OH232740   0.973   3.104   1.243  0.2413 -0.2795 -0.1020
10928TIP3    H132741   1.057   3.150   1.243 -0.1909  0.5569 -1.1037
10928TIP3    H232742   0.945   3.105   1.151 -0.5659 -1.1037  0.1214
10929TIP3   OH232743   7.625   3.463   3.248 -0.4270 -0.6301  0.1685
10929TIP3    H132744   7.692   3.402   3.218  1.5391  1.0325  0.8730
10929TIP3    H232745   7.667   3.549   3.240 -2.2976  0.4345  1.1923
10930TIP3   OH232746   3.302   5.459   1.814 -0.0574  0.0579 -0.0515
10930TIP3    H132747   3.305   5.364   1.818 -1.7577 -0.0994 -1.3542
10930TIP3    H232748   3.392   5.485   1.793 -0.0629 -1.4996 -2.4371
10931TIP3   OH232749   8.156   5.504   3.595 -0.2223  0.5177 -0.3404
10931TIP3    H132750   8.190   5.592   3.577  0.0227  0.2046 -1.4698
10931TIP3    H232751   8.102   5.515   3.674 -0.2812  1.6996 -0.5293
10932TIP3   OH232752   7.803   6.584   4.742 -0.4581  0.3003 -0.8071
10932TIP3    H132753   7.721   6.541   4.718 -0.7405  0.5160 -0.2620
10932TIP3    H232754   7.782   6.677   4.743 -0.3965  0.3196 -0.0100
10933TIP3   OH232755   3.478   3.356   0.279  0.2869  0.2572  0.3839
10933TIP3    H132756   3.463   3.387   0.190  1.9830  0.4128  0.1265
10933TIP3    H232757   3.545   3.288   0.271 -0.4353 -0.6114  1.4074
10934TIP3   OH232758   8.063   3.400   5.464  0.1251  0.4373 -0.3007
10934TIP3    H132759   8.121   3.324   5.457 -1.1387 -0.5265 -0.7944
10934TIP3    H232760   7.981   3.364   5.500 -1.3470  1.0437 -2.7579
10935TIP3   OH232761   0.934   5.665   1.746  0.0689  0.2927  0.3777
10935TIP3    H132762   0.849   5.707   1.731  0.4207  1.0794  0.5938
10935TIP3    H232763   0.911   5.573   1.762 -0.6454  0.2374 -0.7835
10936TIP3   OH232764   5.488   2.727   1.161  0.0985 -0.0806  0.4556
10936TIP3    H132765   5.425   2.655   1.162 -0.9016  0.6808 -1.4660
10936TIP3    H232766   5.478   2.770   1.245  0.6426 -2.0834  1.6017
10937TIP3   OH232767   8.288   2.482   4.610 -0.1832 -0.4160  0.0780
10937TIP3    H132768   8.207   2.464   4.657 -2.0002  2.2992 -1.7259
10937TIP3    H232769   8.261   2.493   4.519  2.0284  1.5904 -0.4280
10938TIP3   OH232770   6.260   7.555   5.118 -0.0935  0.2092 -0.2078
10938TIP3    H132771   6.232   7.644   5.093  1.8801  1.3655  1.3979
10938TIP3    H232772   6.278   7.512   5.034 -2.3399  0.8230 -1.0969
10939TIP3   OH232773   7.143   0.073   5.612  0.7564 -0.6263 -0.0518
10939TIP3    H132774   7.140   0.062   5.517  1.5008 -0.8136 -0.0597
10939TIP3    H232775   7.199   0.002   5.643  1.1161 -0.1339  0.4539
10940TIP3   OH232776   2.841   4.741   5.703 -0.2280 -0.9171  0.0994
10940TIP3    H132777   2.880   4.828   5.713 -1.0302 -0.7116  1.9109
10940TIP3    H232778   2.746   4.756   5.711 -0.4621 -1.8154 -0.8003
10941TIP3   OH232779   3.963   7.503   1.079 -0.1637 -0.0043  0.5945
10941TIP3    H132780   3.899   7.458   1.024 -0.6683  0.3856  0.8490
10941TIP3    H232781   4.041   7.509   1.025  0.2771 -2.0907  0.9190
10942TIP3   OH232782   6.543   3.560   4.336 -0.2951  0.3180  0.1549
10942TIP3    H132783   6.489   3.481   4.344  0.0018  0.1541  0.5574
10942TIP3    H232784   6.589   3.566   4.419  0.5979  0.2482 -0.3244
10943TIP3   OH232785   5.428   5.408   2.536  0.2559 -0.5047  0.3228
10943TIP3    H132786   5.351   5.352   2.526  0.7513 -1.1163 -0.1511
10943TIP3    H232787   5.414   5.453   2.620 -1.4156  0.6846 -0.5421
10944TIP3   OH232788   2.801   4.426   4.988  0.3811 -0.1288  0.2308
10944TIP3    H132789   2.877   4.370   5.000 -0.0310 -1.1532 -1.4836
10944TIP3    H232790   2.771   4.446   5.077  1.2763 -1.6301  0.9106
10945TIP3   OH232791   3.643   7.584   3.565  0.1069  0.1530  0.2036
10945TIP3    H132792   3.624   7.490   3.570 -0.2963  0.2464  0.4061
10945TIP3    H232793   3.686   7.604   3.648  1.4276 -0.1264 -0.3829
10946TIP3   OH232794   3.487   4.814   1.849  0.4460 -0.0501  0.2756
10946TIP3    H132795   3.446   4.806   1.935 -1.8299 -1.3595 -0.8396
10946TIP3    H232796   3.422   4.859   1.794  1.0105 -0.9812 -1.2298
10947TIP3   OH232797   4.324   1.206   0.741 -0.3645  0.6084 -0.2229
10947TIP3    H132798   4.231   1.222   0.754 -0.5218 -0.0687 -0.4614
10947TIP3    H232799   4.352   1.157   0.819 -0.8557 -1.6552 -1.3625
10948TIP3   OH232800   8.284   7.198   3.641  0.0495 -0.7415  0.2763
10948TIP3    H132801   8.240   7.210   3.557 -1.3951 -0.6622  1.0228
10948TIP3    H232802   8.320   7.284   3.662 -0.4024 -0.5289  0.1845
10949TIP3   OH232803   6.093   3.052   3.113 -0.3572 -0.1638 -0.0505
10949TIP3    H132804   6.017   3.002   3.082 -0.9359  1.0243 -0.6518
10949TIP3    H232805   6.100   3.030   3.206 -0.1295 -1.8997 -0.4586
10950TIP3   OH232806   3.671   3.635   5.536 -0.0639  0.4274  0.4847
10950TIP3    H132807   3.597   3.680   5.577  0.8646  1.5672  1.0030
10950TIP3    H232808   3.633   3.560   5.491 -1.4593  0.7117  1.1498
10951TIP3   OH232809   3.387   0.399   5.257 -0.0466  0.4331  0.1800
10951TIP3    H132810   3.446   0.377   5.329 -1.3832  1.6729  1.7444
10951TIP3    H232811   3.354   0.315   5.227 -0.1900 -0.0746  1.6887
10952TIP3   OH232812   0.372   5.545   1.308 -0.8032 -0.0850 -0.2722
10952TIP3    H132813   0.403   5.611   1.246 -0.4675 -0.7771 -0.8614
10952TIP3    H232814   0.446   5.533   1.369 -0.9061  0.1553 -0.0972
10953TIP3   OH232815   2.698   4.882   5.209 -0.5980  0.1223 -0.4742
10953TIP3    H132816   2.711   4.975   5.190  0.4941  0.1955  0.5273
10953TIP3    H232817   2.610   4.876   5.246 -0.3742  0.8907  0.2004
10954TIP3   OH232818   2.328   6.713   0.063 -0.1283 -0.1389 -0.1064
10954TIP3    H132819   2.385   6.740  -0.008 -0.1065 -0.8846 -0.3779
10954TIP3    H232820   2.300   6.796   0.104  1.2738  0.2328  0.1468
10955TIP3   OH232821   4.188   7.740   6.227  0.0272 -0.2127  0.1061
10955TIP3    H132822   4.214   7.786   6.146  1.5214  1.4583  1.4473
10955TIP3    H232823   4.265   7.689   6.251 -0.5748 -1.0670  0.2437
10956TIP3   OH232824   3.823   3.427   2.541  0.4248 -0.0266 -0.6651
10956TIP3    H132825   3.824   3.391   2.453  0.1121  1.1043 -1.1547
10956TIP3    H232826   3.876   3.507   2.535 -0.4783  0.6407 -0.1126
10957TIP3   OH232827   7.161   2.108   2.215 -0.2871  0.1042 -0.2849
10957TIP3    H132828   7.234   2.132   2.272 -1.6072 -0.6547  1.8206
10957TIP3    H232829   7.170   2.014   2.202 -0.8761  0.0047 -0.0071
10958TIP3   OH232830   6.256   0.217   2.862  0.3073 -0.0594 -0.5614
10958TIP3    H132831   6.296   0.281   2.803  0.4935 -0.0221 -0.3954
10958TIP3    H232832   6.168   0.250   2.877  0.7052  0.6665  0.2748
10959TIP3   OH232833   5.113   0.203   3.734  0.2058 -0.0129  0.0958
10959TIP3    H132834   5.061   0.133   3.696 -0.1673  0.5613 -0.4618
10959TIP3    H232835   5.077   0.215   3.822  0.1157 -0.3533  0.1058
10960TIP3   OH232836   7.415   7.506   1.114  0.5854  0.1727  0.1069
10960TIP3    H132837   7.503   7.505   1.150  1.0102  1.2381 -0.8188
10960TIP3    H232838   7.419   7.570   1.042 -0.2343 -1.7134 -1.7372
10961TIP3   OH232839   7.643   1.008   1.830 -0.2695 -0.2652 -0.2710
10961TIP3    H132840   7.636   1.080   1.767 -0.1401  0.2532  0.2907
10961TIP3    H232841   7.608   1.045   1.912  3.5200  0.5714  1.1793
10962TIP3   OH232842   2.631   6.193   0.435  0.0305 -0.3951  0.3151
10962TIP3    H132843   2.612   6.280   0.400 -1.7219 -1.0338 -0.4322
10962TIP3    H232844   2.549   6.165   0.475  0.4181 -1.9216  0.0802
10963TIP3   OH232845   6.082   3.091   6.320  0.3933  0.0640  0.1483
10963TIP3    H132846   6.022   3.084   6.395  0.6856 -3.0296  0.2363
10963TIP3    H232847   6.154   3.145   6.352 -1.8180  3.1667  0.3121
10964TIP3   OH232848   2.481   3.367   1.952 -0.5015  0.7082  0.1928
10964TIP3    H132849   2.469   3.410   1.868 -0.7251  0.8129  0.2775
10964TIP3    H232850   2.567   3.327   1.946 -0.1158  1.5122  0.2663
10965TIP3   OH232851   7.555   3.715   1.813  0.8263 -0.6468  0.3048
10965TIP3    H132852   7.583   3.802   1.783 -0.2315  0.3135  1.9675
10965TIP3    H232853   7.582   3.656   1.742  0.1963  1.2097 -1.5858
10966TIP3   OH232854   3.859   1.613   1.580  0.3310 -0.1318  0.0285
10966TIP3    H132855   3.899   1.692   1.617 -1.4038  0.6479  0.3243
10966TIP3    H232856   3.800   1.581   1.648 -1.4032  0.1815 -1.2430
10967TIP3   OH232857   3.221   3.329   5.947 -0.3539  0.2546 -0.7420
10967TIP3    H132858   3.247   3.415   5.978 -0.5465 -0.0327  0.2456
10967TIP3    H232859   3.156   3.347   5.878 -1.2900  0.8926  0.2689
10968TIP3   OH232860   6.186   7.699   2.747 -0.4183 -0.2934  0.3188
10968TIP3    H132861   6.129   7.630   2.714 -2.0872  1.7161 -1.3355
10968TIP3    H232862   6.261   7.699   2.687 -1.8589  1.1714 -1.6228
10969TIP3   OH232863   1.658   4.092   0.187 -0.0125  0.7695 -0.5627
10969TIP3    H132864   1.712   4.055   0.117 -1.5292  0.5144 -1.6533
10969TIP3    H232865   1.576   4.115   0.144 -0.7484  1.2349  1.0192
10970TIP3   OH232866   4.264   1.396   5.553  0.6147 -0.6183 -0.2028
10970TIP3    H132867   4.274   1.487   5.525 -0.1319 -0.8020 -1.1370
10970TIP3    H232868   4.187   1.364   5.504  0.6494 -1.6422  0.3769
10971TIP3   OH232869   2.970   2.221   5.124  0.5769 -0.3433 -0.0686
10971TIP3    H132870   2.878   2.239   5.109  0.6623 -0.4677 -0.7696
10971TIP3    H232871   2.975   2.126   5.136  0.7850 -0.5330 -1.4544
10972TIP3   OH232872   6.670   4.546   5.675  0.3928 -0.4537  0.0427
10972TIP3    H132873   6.665   4.459   5.637 -0.7550  0.0962 -1.1457
10972TIP3    H232874   6.666   4.606   5.600  2.0627  0.6412  0.7432
10973TIP3   OH232875   5.667   1.383   2.975  0.0045  0.1994  0.0348
10973TIP3    H132876   5.665   1.374   2.880  0.5330 -0.5427  0.0907
10973TIP3    H232877   5.596   1.327   3.007 -0.9676  1.3752  0.0295
10974TIP3   OH232878   1.440   2.150   3.696  0.3775 -0.5939 -0.3217
10974TIP3    H132879   1.496   2.171   3.770  2.1289  2.1811 -2.2448
10974TIP3    H232880   1.372   2.217   3.698  0.9822  0.0988 -1.6662
10975TIP3   OH232881   3.167   6.403   3.878 -0.3699  0.2100 -0.0798
10975TIP3    H132882   3.253   6.372   3.847  0.2977  1.9677 -0.0706
10975TIP3    H232883   3.165   6.379   3.970  0.2121  0.3592 -0.0223
10976TIP3   OH232884   2.173   0.801   5.052  0.8650 -0.4377  0.2776
10976TIP3    H132885   2.202   0.743   4.982  0.2674  0.8066 -1.0481
10976TIP3    H232886   2.168   0.888   5.011  2.5149  0.7491  2.3763
10977TIP3   OH232887   2.858   3.294   5.385  0.2674 -0.3797 -0.0706
10977TIP3    H132888   2.832   3.217   5.435 -0.6400  0.3745  0.6377
10977TIP3    H232889   2.806   3.366   5.420  0.9116  0.5275 -0.8858
10978TIP3   OH232890   0.142   4.219   0.206 -0.3745 -0.2058  0.3925
10978TIP3    H132891   0.078   4.173   0.261 -1.2909  0.3389 -0.1850
10978TIP3    H232892   0.091   4.247   0.129 -0.0668  2.4798  1.0834
10979TIP3   OH232893   5.650   1.727   5.454  0.3177  0.3636  0.2790
10979TIP3    H132894   5.731   1.684   5.425 -0.6359 -0.0876 -1.8951
10979TIP3    H232895   5.582   1.660   5.442 -0.5417  1.0402  1.1999
10980TIP3   OH232896   1.787   1.502   1.257 -0.0498 -0.1437 -0.3240
10980TIP3    H132897   1.811   1.550   1.337 -0.3051 -0.7165  0.1041
10980TIP3    H232898   1.694   1.482   1.268  0.5496 -2.7405  0.5951
10981TIP3   OH232899   4.237   0.493   4.345  0.0222  0.5443 -0.1537
10981TIP3    H132900   4.314   0.448   4.379 -0.6342 -2.2926 -1.9789
10981TIP3    H232901   4.266   0.532   4.263 -0.4053 -0.5086 -0.8320
10982TIP3   OH232902   4.278   5.046   6.287 -0.2191  0.5488  0.2608
10982TIP3    H132903   4.206   4.985   6.303  1.2661 -0.9645  1.6453
10982TIP3    H232904   4.249   5.099   6.213 -1.8101 -1.5120 -0.7049
10983TIP3   OH232905   5.728   5.410   0.070 -0.4377 -0.4704  0.1173
10983TIP3    H132906   5.811   5.379   0.107 -0.0954  1.2912  0.9718
10983TIP3    H232907   5.664   5.391   0.138  0.1415  2.4906  1.6682
10984TIP3   OH232908   8.209   0.695   3.971  0.6944  0.2277  0.6533
10984TIP3    H132909   8.214   0.630   3.902  0.4163  0.6387  0.2380
10984TIP3    H232910   8.299   0.725   3.983  0.9734 -0.8705  1.4815
10985TIP3   OH232911   1.760   0.828   0.354 -0.6274 -0.2757  0.0498
10985TIP3    H132912   1.852   0.825   0.326 -0.7345 -2.0259 -0.2663
10985TIP3    H232913   1.735   0.920   0.348  1.3032  0.3484  0.7984
10986TIP3   OH232914   5.415   2.835   2.218 -0.6306  0.5985 -0.3034
10986TIP3    H132915   5.320   2.819   2.226 -0.6393  1.2496  1.0591
10986TIP3    H232916   5.435   2.810   2.128 -1.7369 -1.4227 -0.0667
10987TIP3   OH232917   2.116   2.146   0.577 -0.3759 -0.2696  0.3733
10987TIP3    H132918   2.179   2.203   0.620 -0.6759  1.8372 -1.7794
10987TIP3    H232919   2.167   2.068   0.553  1.9420  1.8578 -2.4206
10988TIP3   OH232920   7.315   5.575   1.088  0.5314 -0.3743  0.0466
10988TIP3    H132921   7.329   5.646   1.150  1.1568 -0.1922 -0.2999
10988TIP3    H232922   7.323   5.616   1.002 -0.9130 -0.5032 -0.1811
10989TIP3   OH232923   0.082   5.571   0.321 -0.1915  0.1547  0.4609
10989TIP3    H132924   0.144   5.623   0.372  2.4147 -0.4213 -1.8815
10989TIP3    H232925  -0.002   5.582   0.366  1.4932  1.2893  3.5991
10990TIP3   OH232926   6.840   3.762   2.391  0.0516 -0.0310  0.7992
10990TIP3    H132927   6.827   3.855   2.410  1.0582  0.1129  0.8600
10990TIP3    H232928   6.770   3.718   2.439  0.4071  0.6029  1.9401
10991TIP3   OH232929   7.103   1.444   3.295  0.3646  0.1228 -0.4882
10991TIP3    H132930   7.180   1.469   3.244 -0.1750 -1.1196 -1.9989
10991TIP3    H232931   7.123   1.356   3.326 -0.5120 -0.3120 -1.1051
10992TIP3   OH232932   3.736   4.187   5.330  0.0720  0.1277  0.4398
10992TIP3    H132933   3.711   4.278   5.348 -0.2151  0.3583 -0.9704
10992TIP3    H232934   3.829   4.191   5.311 -0.0914  0.2737 -0.3866
10993TIP3   OH232935   0.723   5.048   4.854 -0.3565 -0.0427  0.2868
10993TIP3    H132936   0.707   5.115   4.787  1.9205  0.1026 -0.1998
10993TIP3    H232937   0.700   4.966   4.810 -0.9733  0.2296  0.0901
10994TIP3   OH232938   7.989   6.778   5.958 -0.0819  0.4076  0.4451
10994TIP3    H132939   8.030   6.864   5.962 -0.2959  0.4954  0.7785
10994TIP3    H232940   7.919   6.788   5.894 -0.0309  0.4479  0.3955
10995TIP3   OH232941   3.870   2.477   3.987  0.2575 -0.5344  0.0892
10995TIP3    H132942   3.887   2.556   4.039  0.2552  0.2677 -1.0908
10995TIP3    H232943   3.793   2.437   4.028 -1.0713  1.2348 -0.5175
10996TIP3   OH232944   1.649   0.537   6.486  0.0047 -0.2150 -0.0368
10996TIP3    H132945   1.559   0.565   6.499  0.1696 -0.5721  2.4890
10996TIP3    H232946   1.644   0.442   6.475 -0.0420 -0.0302 -1.7565
10997TIP3   OH232947   4.782   2.825   2.899 -0.6094  0.0502 -0.1961
10997TIP3    H132948   4.752   2.911   2.929  0.8817  0.6005 -0.1478
10997TIP3    H232949   4.804   2.839   2.807 -2.0103 -0.7587 -0.6775
10998TIP3   OH232950   1.528   7.729   1.879 -1.1187  0.7297 -0.1139
10998TIP3    H132951   1.572   7.742   1.795 -2.1378  1.6323 -0.5425
10998TIP3    H232952   1.494   7.816   1.901 -0.2257  0.6673  1.6220
10999TIP3   OH232953   4.431   7.787   6.524 -0.3331 -0.8575 -0.3241
10999TIP3    H132954   4.426   7.757   6.433 -0.5663  0.7440 -0.8682
10999TIP3    H232955   4.339   7.792   6.552 -0.2949 -0.6508 -0.2385
11000TIP3   OH232956   1.566   5.890   4.081  0.3262  0.1416  0.3326
11000TIP3    H132957   1.560   5.985   4.094  0.9302  0.0781  1.1440
11000TIP3    H232958   1.494   5.870   4.021  0.2866  1.1346  0.0215
11001TIP3   OH232959   0.714   4.206   5.758  0.0920  0.1710 -0.4646
11001TIP3    H132960   0.656   4.282   5.761  1.7034  1.5017 -1.2860
11001TIP3    H232961   0.770   4.216   5.835 -0.8060 -1.1849  0.4103
11002TIP3   OH232962   5.540   1.589   1.123  0.1613  0.3243  0.2799
11002TIP3    H132963   5.476   1.518   1.116  0.7801 -0.0792 -2.6572
11002TIP3    H232964   5.491   1.668   1.097  0.2395  0.4580  0.5343
11003TIP3   OH232965   7.185   4.533   3.591  0.2903 -0.4142  0.2004
11003TIP3    H132966   7.113   4.503   3.536 -0.6933  1.6186  0.2929
11003TIP3    H232967   7.260   4.536   3.532 -1.2110  3.9843 -1.9324
11004TIP3   OH232968   3.884   6.264   4.271 -0.1627 -0.3081  0.0233
11004TIP3    H132969   3.928   6.320   4.206 -0.7276 -0.0102 -0.1153
11004TIP3    H232970   3.942   6.264   4.347  0.5356 -0.7071 -0.5034
11005TIP3   OH232971   5.272   0.406   2.029 -0.4926  0.7666  0.1348
11005TIP3    H132972   5.327   0.484   2.034 -0.8549  1.0417 -0.1509
11005TIP3    H232973   5.202   0.422   2.092 -3.1416  2.7237 -2.9598
11006TIP3   OH232974   3.251   7.221   2.218 -0.5547 -0.1653 -0.0582
11006TIP3    H132975   3.163   7.257   2.207 -0.2557 -0.0952 -2.6634
11006TIP3    H232976   3.240   7.126   2.213 -0.7266 -0.3049  2.0250
11007TIP3   OH232977   3.274   1.174   1.888 -0.1853 -0.2235 -0.4382
11007TIP3    H132978   3.296   1.263   1.860  0.5599 -0.9605 -2.3323
11007TIP3    H232979   3.327   1.160   1.967  0.2146  0.7534 -0.5197
11008TIP3   OH232980   1.983   2.089   1.962 -0.0539 -0.2027 -0.0330
11008TIP3    H132981   2.001   2.175   1.926  0.4076  0.2423  1.1987
11008TIP3    H232982   2.021   2.091   2.050 -1.7508 -0.9840  0.7590
11009TIP3   OH232983   1.494   1.084   0.237  0.6242 -0.2727  0.3787
11009TIP3    H132984   1.589   1.089   0.249  0.8635 -0.3216 -1.3119
11009TIP3    H232985   1.464   1.174   0.250  0.9399 -0.1967  0.6027
11010TIP3   OH232986   6.417   5.055   0.155  0.0783  0.2924 -0.5353
11010TIP3    H132987   6.403   5.128   0.095  0.5330  0.3163 -0.6163
11010TIP3    H232988   6.419   4.978   0.098 -0.2815  0.2280 -0.4629
11011TIP3   OH232989   5.361   3.951   5.716 -0.2139 -0.1048 -0.0259
11011TIP3    H132990   5.414   4.018   5.758  0.5188  0.7534 -2.1697
11011TIP3    H232991   5.424   3.891   5.676 -0.8668 -0.4126 -0.6216
11012TIP3   OH232992   4.642   5.223   0.763 -0.0670  0.2452  0.0016
11012TIP3    H132993   4.621   5.236   0.855 -0.1949 -0.3032  0.0519
11012TIP3    H232994   4.705   5.150   0.762  0.8657  1.0348 -0.2500
11013TIP3   OH232995   2.890   3.945   1.819 -0.3416  0.3853  0.1327
11013TIP3    H132996   2.942   3.979   1.746 -0.8043  1.3407  0.2336
11013TIP3    H232997   2.845   4.022   1.853  0.3261  0.0621  1.8103
11014TIP3   OH232998   5.945   2.116   4.446 -0.0938  0.4102 -0.0738
11014TIP3    H132999   5.869   2.155   4.404  0.2173  0.7817 -0.2929
11014TIP3    H233000   6.006   2.189   4.458  0.2247  0.1155  0.1082
11015TIP3   OH233001   6.142   2.648   4.746 -0.6025  0.6344 -0.1217
11015TIP3    H133002   6.186   2.633   4.829 -1.6692  0.7804  0.4951
11015TIP3    H233003   6.056   2.606   4.757 -1.2038  1.6631 -0.6985
11016TIP3   OH233004   1.626   1.922   0.422 -0.2130 -0.4792  0.2347
11016TIP3    H133005   1.716   1.917   0.455 -0.5032  0.2007  1.1914
11016TIP3    H233006   1.623   1.861   0.349  1.6952  1.1872 -1.3672
11017TIP3   OH233007   4.579   3.627   6.665 -0.2538  0.3751 -0.2281
11017TIP3    H133008   4.659   3.659   6.706 -0.1538  1.0551 -0.9376
11017TIP3    H233009   4.600   3.620   6.572 -0.1079 -2.2976 -0.0581
11018TIP3   OH233010   6.541   2.087   2.546  0.2535  0.4506 -0.1584
11018TIP3    H133011   6.546   2.023   2.617  0.6782  0.5514 -0.0954
11018TIP3    H233012   6.493   2.042   2.476 -1.1777  0.7518  0.6158
11019TIP3   OH233013   1.535   1.003   6.020 -0.2332 -0.2642 -0.1631
11019TIP3    H133014   1.502   1.008   6.110  0.8665  0.8808  0.2045
11019TIP3    H233015   1.471   1.054   5.969 -0.2907 -0.0165  0.1519
11020TIP3   OH233016   0.461   0.994   1.834  0.1134  0.1830  0.0488
11020TIP3    H133017   0.493   1.025   1.918  1.8340 -0.2453 -0.4093
11020TIP3    H233018   0.460   0.899   1.841  1.4608  0.0766 -0.7783
11021TIP3   OH233019   4.659   4.609   6.543  0.4490  0.3515  0.4963
11021TIP3    H133020   4.719   4.682   6.527  1.3527 -0.5217 -0.2453
11021TIP3    H233021   4.633   4.618   6.635 -0.1008  2.0502  0.2234
11022TIP3   OH233022   1.870   1.660   6.286 -0.2286 -0.0745  0.1692
11022TIP3    H133023   1.839   1.740   6.328  2.0844  2.4159 -2.4370
11022TIP3    H233024   1.791   1.608   6.273 -2.2574  2.8174 -0.0751
11023TIP3   OH233025   7.608   0.233   2.977 -0.0004 -0.0260  0.4097
11023TIP3    H133026   7.663   0.201   2.905 -0.5429  3.1701 -1.6292
11023TIP3    H233027   7.521   0.239   2.938 -0.1742  2.4172  1.0548
11024TIP3   OH233028   1.775   2.399   5.655 -0.1189 -0.2099  0.0003
11024TIP3    H133029   1.691   2.381   5.613  0.1327  1.0508 -1.0779
11024TIP3    H233030   1.783   2.331   5.723 -0.6740 -2.1363 -1.7664
11025TIP3   OH233031   6.330   5.133   6.031  0.1460  0.5049  0.5264
11025TIP3    H133032   6.268   5.161   6.097 -0.0391 -1.6112  1.3114
11025TIP3    H233033   6.292   5.054   5.993  1.7996 -0.2065  0.2308
11026TIP3   OH233034   1.966   4.682   5.555 -0.4805  0.0349  0.4024
11026TIP3    H133035   1.989   4.716   5.468  1.6209 -1.2765  0.3627
11026TIP3    H233036   2.041   4.705   5.609 -0.7071 -1.2108  1.2826
11027TIP3   OH233037   7.055   6.485   5.215 -0.0854  0.7017 -0.3086
11027TIP3    H133038   7.071   6.573   5.182  1.5580  0.0613 -1.3474
11027TIP3    H233039   6.973   6.492   5.264 -0.3194  2.6519 -0.9033
11028TIP3   OH233040   3.253   3.129   0.071 -0.3017  0.0756  0.6292
11028TIP3    H133041   3.258   3.123   0.166 -0.7627 -1.1181  0.6046
11028TIP3    H233042   3.321   3.192   0.047 -0.1386  0.3491  1.7354
11029TIP3   OH233043   2.830   5.323   2.922  0.5858 -0.1579  0.0481
11029TIP3    H133044   2.831   5.415   2.897 -0.9160  0.2858  1.4009
11029TIP3    H233045   2.817   5.276   2.840 -1.5898  1.0534 -0.3925
11030TIP3   OH233046   5.290   1.210   3.965  0.2570 -0.1303  0.5007
11030TIP3    H133047   5.260   1.119   3.970  0.3176 -0.2320 -0.7576
11030TIP3    H233048   5.353   1.211   3.893 -0.3365  1.0703 -0.0307
11031TIP3   OH233049   4.685   6.655   4.842 -0.4784  0.0546  0.3133
11031TIP3    H133050   4.637   6.622   4.918 -1.5778 -3.0455 -1.5594
11031TIP3    H233051   4.775   6.662   4.872 -1.2128  1.2610  2.5080
11032TIP3   OH233052   4.451   0.562   5.604  0.0034  0.1952 -0.1825
11032TIP3    H133053   4.429   0.572   5.697  1.8975  0.3666  0.2921
11032TIP3    H233054   4.434   0.648   5.566 -0.6131  0.1738  0.0358
11033TIP3   OH233055   5.469   1.727   3.748 -0.2419 -0.1815  0.4521
11033TIP3    H133056   5.479   1.734   3.843 -1.9299  1.9579  0.5470
11033TIP3    H233057   5.375   1.728   3.734 -0.1633 -3.4652 -1.1611
11034TIP3   OH233058   4.494   6.357   1.851  0.0280  0.2137  0.1967
11034TIP3    H133059   4.452   6.384   1.769  1.4095  1.8916 -0.0281
11034TIP3    H233060   4.560   6.293   1.824 -1.1360 -1.0742  0.3304
11035TIP3   OH233061   7.516   4.746   0.424  0.2057  0.2720 -0.0047
11035TIP3    H133062   7.587   4.788   0.376 -0.5473  2.1605  0.4547
11035TIP3    H233063   7.556   4.670   0.465  1.8016  0.9249 -0.3013
11036TIP3   OH233064   5.897   7.813   3.025  0.6311 -0.2295 -0.5360
11036TIP3    H133065   5.850   7.774   2.951 -0.1970  0.3483 -0.3290
11036TIP3    H233066   5.979   7.845   2.987  0.7398 -0.9811 -0.9626
11037TIP3   OH233067   1.715   0.304   6.654 -0.1900 -0.1802  0.2094
11037TIP3    H133068   1.737   0.288   6.562  0.1898  0.6555  0.1427
11037TIP3    H233069   1.680   0.221   6.685 -1.6346 -0.0878 -1.0683
11038TIP3   OH233070   7.424   2.293   3.444  0.2898 -0.0393 -0.4970
11038TIP3    H133071   7.414   2.252   3.530 -3.1775  2.4455  0.4915
11038TIP3    H233072   7.478   2.370   3.461 -0.5023  0.5212 -0.4804
11039TIP3   OH233073   7.721   1.297   4.285  0.0197  0.5501  0.2888
11039TIP3    H133074   7.715   1.388   4.314  3.0931  1.2579 -0.9281
11039TIP3    H233075   7.784   1.299   4.213  0.4714 -2.5882  0.4748
11040TIP3   OH233076   3.830   1.069   3.079  0.0057  0.0968  0.2118
11040TIP3    H133077   3.814   1.164   3.082  1.3468  0.3147  1.4038
11040TIP3    H233078   3.921   1.059   3.108  0.3375 -1.4649 -1.1863
11041TIP3   OH233079   2.685   2.734   6.294 -0.1398  0.1106  0.4208
11041TIP3    H133080   2.713   2.732   6.386 -0.7273  1.3826  0.6468
11041TIP3    H233081   2.748   2.793   6.252 -1.0546  1.1367  0.4487
11042TIP3   OH233082   0.411   4.366   2.768 -0.1310 -0.1938 -0.3664
11042TIP3    H133083   0.458   4.308   2.829 -0.5880  0.5576  0.7272
11042TIP3    H233084   0.480   4.404   2.714  0.2959 -0.8166 -0.2700
11043TIP3   OH233085   1.205   0.500   0.930  0.0812 -0.0814  0.1332
11043TIP3    H133086   1.170   0.470   1.013 -0.6403  0.2077 -0.0648
11043TIP3    H233087   1.300   0.494   0.941  0.0217  0.7742  1.2763
11044TIP3   OH233088   7.413   7.581   0.679 -0.3036 -0.3104  0.4251
11044TIP3    H133089   7.477   7.652   0.671 -1.1311  0.4641  0.4780
11044TIP3    H233090   7.382   7.567   0.589 -0.9679  0.1944  0.5666
11045TIP3   OH233091   3.024   2.932   4.282 -0.9364 -0.3686 -0.5595
11045TIP3    H133092   3.078   2.955   4.357 -3.8404  2.6866  0.8231
11045TIP3    H233093   2.970   2.858   4.312 -0.2543 -0.9193 -0.6503
11046TIP3   OH233094   2.389   5.293   3.821 -0.3524 -0.8318 -0.0790
11046TIP3    H133095   2.466   5.273   3.768 -1.0421 -1.6609 -0.8103
11046TIP3    H233096   2.359   5.208   3.854 -0.2823 -0.3938  1.1728
11047TIP3   OH233097   0.779   3.146   2.503 -0.1646 -0.0435  0.3095
11047TIP3    H133098   0.873   3.134   2.490 -0.3539  0.4653 -1.8074
11047TIP3    H233099   0.739   3.113   2.423 -1.6335  1.7934  0.2149
11048TIP3   OH233100   2.531   7.779   3.531  0.0729 -0.1365 -0.5625
11048TIP3    H133101   2.565   7.865   3.506 -0.1323  0.2587  0.4622
11048TIP3    H233102   2.597   7.743   3.589  0.4416 -0.9471 -1.4672
11049TIP3   OH233103   0.626   4.329   1.464 -0.0138 -0.0334 -0.4030
11049TIP3    H133104   0.580   4.352   1.384 -0.5066 -0.1140 -0.1512
11049TIP3    H233105   0.627   4.233   1.465 -1.0640 -0.0562  0.2595
11050TIP3   OH233106   1.278   3.842   4.195  0.2418 -0.7938  0.2125
11050TIP3    H133107   1.331   3.764   4.178  0.0021 -0.8928 -0.0910
11050TIP3    H233108   1.188   3.814   4.178  0.2258 -0.2364 -0.7010
11051TIP3   OH233109   1.864   6.231   6.353  0.2270  0.1105  0.1849
11051TIP3    H133110   1.846   6.176   6.276  0.0866  2.5003 -1.6190
11051TIP3    H233111   1.802   6.201   6.419 -0.5096 -1.2209 -1.0563
11052TIP3   OH233112   3.498   7.283   6.563  0.1810 -0.0326 -0.4066
11052TIP3    H133113   3.563   7.323   6.505  0.1826  0.9517  0.2521
11052TIP3    H233114   3.536   7.293   6.651 -1.6873  2.3370  0.2253
11053TIP3   OH233115   1.794   1.086   2.591 -0.0411 -0.4599 -0.4956
11053TIP3    H133116   1.699   1.098   2.590 -0.1462 -1.2683 -0.9583
11053TIP3    H233117   1.825   1.126   2.510  0.0536  0.0614 -0.2073
11054TIP3   OH233118   5.895   6.433   3.448 -0.2635  0.1605 -0.7113
11054TIP3    H133119   5.985   6.461   3.432  0.2156 -1.6756 -1.4622
11054TIP3    H233120   5.865   6.398   3.364 -1.1803 -0.5410 -0.1146
11055TIP3   OH233121   7.427   2.101   1.364  1.0516  0.5273 -0.0347
11055TIP3    H133122   7.477   2.024   1.391  3.2801  2.2187  0.9657
11055TIP3    H233123   7.440   2.164   1.435 -0.6890  1.8708 -0.8271
11056TIP3   OH233124   6.553   7.763   3.665  0.3797  0.2819  0.2165
11056TIP3    H133125   6.633   7.786   3.713  0.5879 -1.1118  0.5831
11056TIP3    H233126   6.495   7.725   3.731 -1.1608  2.4835  0.2323
11057TIP3   OH233127   4.344   2.630   3.216  0.1526  0.1327 -0.2925
11057TIP3    H133128   4.302   2.547   3.236  0.8008 -0.0789  0.2275
11057TIP3    H233129   4.399   2.648   3.292  2.0402 -0.2713 -1.4941
11058TIP3   OH233130   4.237   0.070   6.463 -0.4956 -0.1680 -0.7246
11058TIP3    H133131   4.320   0.066   6.510  0.0358 -0.2576 -1.6459
11058TIP3    H233132   4.184  -0.000   6.501  0.5071 -1.2930 -1.3424
11059TIP3   OH233133   0.176   4.487   4.955  0.3412 -0.2632  0.1324
11059TIP3    H133134   0.181   4.392   4.939 -0.4793  0.0375 -2.2478
11059TIP3    H233135   0.088   4.511   4.927 -0.3907  0.8680  3.0478
11060TIP3   OH233136   8.267   1.919   1.068  0.5651 -0.2309  0.0552
11060TIP3    H133137   8.282   2.013   1.054 -1.0218 -0.1090 -1.0469
11060TIP3    H233138   8.223   1.914   1.152  1.3432 -0.0834  0.4872
11061TIP3   OH233139   6.151   5.197   0.929 -0.0105 -0.1351 -0.5959
11061TIP3    H133140   6.176   5.266   0.991  1.2348  0.5498 -1.8052
11061TIP3    H233141   6.138   5.243   0.847 -0.3712 -1.2005 -1.1497
11062TIP3   OH233142   8.189   2.907   4.855 -0.5818 -0.8302 -0.3280
11062TIP3    H133143   8.226   2.954   4.930 -0.3039 -0.7024 -0.5436
11062TIP3    H233144   8.265   2.881   4.803 -0.7983 -0.5137 -0.8088
11063TIP3   OH233145   8.070   0.227   5.924 -0.2922  0.3861  0.3887
11063TIP3    H133146   7.979   0.242   5.949 -0.5499 -0.2071 -0.1879
11063TIP3    H233147   8.094   0.306   5.874 -0.2700  0.8467  1.1108
11064TIP3   OH233148   7.953   4.086   5.066  0.2434 -0.1144  0.1320
11064TIP3    H133149   7.887   4.153   5.050 -0.7723 -0.7421  1.4714
11064TIP3    H233150   7.946   4.067   5.160  1.3515 -1.2029  0.0189
11065TIP3   OH233151   6.780   4.934   5.529 -0.1002 -0.0613  0.1594
11065TIP3    H133152   6.833   4.864   5.568 -1.6282 -2.0378 -1.1213
11065TIP3    H233153   6.713   4.953   5.594 -0.4673 -0.7582 -0.0050
11066TIP3   OH233154   1.426   4.237   5.747 -0.2597  0.0421  0.4953
11066TIP3    H133155   1.444   4.287   5.826 -1.3142  0.2903  0.5918
11066TIP3    H233156   1.505   4.245   5.694 -0.1314  1.1701  0.8468
11067TIP3   OH233157   7.571   7.428   5.881  0.0257 -0.1536 -0.0166
11067TIP3    H133158   7.534   7.365   5.942  0.3762 -0.2579  0.0838
11067TIP3    H233159   7.515   7.421   5.803  0.1812 -0.7198 -0.0802
11068TIP3   OH233160   7.970   1.719   6.295 -0.2082 -0.3455 -0.3746
11068TIP3    H133161   7.973   1.683   6.206 -0.6457 -1.9067  0.2188
11068TIP3    H233162   7.900   1.784   6.292  0.2880  0.1753 -1.3504
11069TIP3   OH233163   7.501   6.958   2.229  0.0678  0.0649  0.5537
11069TIP3    H133164   7.546   7.017   2.289  0.7126 -0.9299  1.0858
11069TIP3    H233165   7.559   6.953   2.153 -0.3277  0.6467  0.2035
11070TIP3   OH233166   2.947   3.433   6.053  0.4482  0.3242 -0.2723
11070TIP3    H133167   3.035   3.468   6.039  0.5288  0.8285  1.2670
11070TIP3    H233168   2.932   3.444   6.147 -0.8990 -0.6186 -0.3503
11071TIP3   OH233169   0.883   3.963   0.794  0.4416 -0.3838  0.2922
11071TIP3    H133170   0.886   3.881   0.743  0.7994 -1.0318  1.3181
11071TIP3    H233171   0.943   3.947   0.867 -0.2018  0.4473  1.0202
11072TIP3   OH233172   4.464   6.949   5.670  0.1453 -0.4156 -0.6434
11072TIP3    H133173   4.519   6.872   5.683  0.5695 -0.0094  0.0307
11072TIP3    H233174   4.376   6.918   5.689  0.5335 -0.2729  1.7077
11073TIP3   OH233175   1.905   1.065   2.021  0.2698 -0.1036 -0.6481
11073TIP3    H133176   1.933   1.153   2.044 -2.2977  0.6450 -0.0102
11073TIP3    H233177   1.883   1.069   1.928 -1.3840  0.4586 -0.2763
11074TIP3   OH233178   5.090   2.650   5.219 -0.2515 -0.0902  0.4151
11074TIP3    H133179   5.186   2.642   5.213 -0.3339 -1.7847  0.9283
11074TIP3    H233180   5.068   2.607   5.301 -1.4044  1.0750  0.7485
11075TIP3   OH233181   4.138   6.182   4.876  0.0659 -0.4025 -0.2284
11075TIP3    H133182   4.072   6.247   4.853  2.1453  1.5603 -1.0114
11075TIP3    H233183   4.173   6.213   4.959 -1.8179 -3.0062  1.6996
11076TIP3   OH233184   0.093   2.812   3.826  0.0142 -0.0807  0.0283
11076TIP3    H133185   0.055   2.874   3.763  1.5204  0.7253 -0.1596
11076TIP3    H233186   0.022   2.753   3.848 -1.3470  1.3898 -0.2242
11077TIP3   OH233187   0.437   1.498   2.464 -0.2313 -0.5564 -0.0618
11077TIP3    H133188   0.430   1.456   2.550  0.0884 -2.0460 -0.7353
11077TIP3    H233189   0.374   1.450   2.409 -1.8330  1.6012 -0.2299
11078TIP3   OH233190   1.671   4.134   5.259 -0.0907 -0.4779 -0.2545
11078TIP3    H133191   1.606   4.064   5.265 -0.7051  0.0786 -0.1984
11078TIP3    H233192   1.676   4.169   5.348 -0.5603  0.2117 -0.4895
11079TIP3   OH233193   6.572   0.811   0.451 -0.3939  0.0285  0.0752
11079TIP3    H133194   6.544   0.779   0.365 -0.3727  0.8375 -0.2397
11079TIP3    H233195   6.660   0.845   0.436 -0.5167  0.4723  0.3422
11080TIP3   OH233196   7.687   6.420   3.916 -0.3594 -0.1645  0.0205
11080TIP3    H133197   7.725   6.494   3.962  0.8578 -1.1454  0.6662
11080TIP3    H233198   7.682   6.351   3.983 -1.1439 -0.7709 -0.6424
11081TIP3   OH233199   4.390   2.253   5.704 -0.6752  0.3911  0.3338
11081TIP3    H133200   4.467   2.305   5.678  0.8230 -2.0987 -0.5527
11081TIP3    H233201   4.415   2.163   5.686 -3.9850 -0.5269 -0.3325
11082TIP3   OH233202   6.157   2.021   0.450 -0.1147  0.2545  0.7862
11082TIP3    H133203   6.114   2.097   0.411 -1.0614 -0.5778  0.1416
11082TIP3    H233204   6.098   1.993   0.520  0.0346 -0.1094  0.7702
11083TIP3   OH233205   3.667   7.440   5.627 -0.0037 -0.0789 -0.1122
11083TIP3    H133206   3.726   7.383   5.677  1.0433 -1.3551 -2.5836
11083TIP3    H233207   3.710   7.525   5.626  1.6480 -0.8601 -1.4275
11084TIP3   OH233208   1.141   6.093   3.422 -0.3214  0.7686 -0.3350
11084TIP3    H133209   1.158   6.174   3.373  0.0440  1.1688  0.4307
11084TIP3    H233210   1.047   6.097   3.443 -0.2661  1.0823 -0.1453
11085TIP3   OH233211   5.397   5.287   5.936  0.0711  0.2567  0.1046
11085TIP3    H133212   5.429   5.213   5.987 -0.9044  0.0452  0.4248
11085TIP3    H233213   5.330   5.328   5.992  0.3133  1.1392 -0.2315
11086TIP3   OH233214   0.217   2.081   6.397 -0.4538 -0.1549 -0.2921
11086TIP3    H133215   0.298   2.040   6.365  0.2101  0.9167 -0.0569
11086TIP3    H233216   0.176   2.014   6.451 -0.7427 -1.4188 -1.9995
11087TIP3   OH233217   0.574   6.842   0.557  0.2376  0.7273 -0.0522
11087TIP3    H133218   0.479   6.846   0.547  0.1264 -0.1221  0.5667
11087TIP3    H233219   0.606   6.812   0.471 -0.1523 -0.0932  0.0807
11088TIP3   OH233220   4.487   0.287   0.161  0.3299 -0.3725 -0.4989
11088TIP3    H133221   4.399   0.307   0.191 -0.1467 -2.0444 -0.6843
11088TIP3    H233222   4.493   0.328   0.075  0.1547  0.7272  0.0065
11089TIP3   OH233223   2.346   7.026   1.327 -0.4399 -0.5422  0.3583
11089TIP3    H133224   2.406   7.079   1.379 -1.7407  2.3745 -0.8744
11089TIP3    H233225   2.269   7.016   1.382 -0.3563 -0.7687  0.4330
11090TIP3   OH233226   5.782   7.803   4.274 -0.7623  0.5407 -0.2863
11090TIP3    H133227   5.762   7.897   4.278 -0.7764  0.5272  2.6436
11090TIP3    H233228   5.696   7.760   4.274 -0.7732  0.4598 -2.3258
11091TIP3   OH233229   1.002   0.392   0.347 -0.0239  0.1509  0.2502
11091TIP3    H133230   1.085   0.433   0.373  0.2557 -0.5886  0.5367
11091TIP3    H233231   0.935   0.444   0.391  0.1340  1.9810 -1.5031
11092TIP3   OH233232   4.840   2.001   0.940  0.8817  0.2444  0.3449
11092TIP3    H133233   4.819   2.045   1.023  0.2706 -1.4904  1.1537
11092TIP3    H233234   4.927   1.964   0.955  0.0609 -1.5733  0.9176
11093TIP3   OH233235   5.723   7.616   3.774  0.3251  0.1248 -0.1597
11093TIP3    H133236   5.781   7.652   3.842  1.4006  0.3399 -1.1545
11093TIP3    H233237   5.775   7.546   3.734 -1.0148 -1.2979  0.4812
11094TIP3   OH233238   5.149   1.415   5.065 -0.2048  0.2369 -0.5626
11094TIP3    H133239   5.202   1.447   4.992 -0.4167 -1.7880 -1.6510
11094TIP3    H233240   5.061   1.449   5.048 -0.0581  0.5269 -0.7464
11095TIP3   OH233241   6.923   5.614   5.772  0.2966 -0.4483  0.4736
11095TIP3    H133242   6.927   5.577   5.685 -1.9678 -3.2102  1.4013
11095TIP3    H233243   6.992   5.569   5.821  0.7944  0.2401  0.4197
11096TIP3   OH233244   5.049   5.124   4.862  0.0896  0.4731  0.3297
11096TIP3    H133245   4.987   5.179   4.813 -0.4801 -0.6138 -0.1930
11096TIP3    H233246   5.003   5.041   4.874  0.8850  0.1482  1.2416
11097TIP3   OH233247   1.774   7.731   3.981  0.2145 -0.1983  0.0929
11097TIP3    H133248   1.679   7.721   3.978  0.3515 -1.7145 -0.1149
11097TIP3    H233249   1.797   7.765   3.895 -0.1902  0.9175  0.4042
11098TIP3   OH233250   5.901   1.097   2.642  0.5708 -0.1115  0.2766
11098TIP3    H133251   5.955   1.028   2.603  2.6391  1.4330  0.2310
11098TIP3    H233252   5.853   1.053   2.713  0.0637 -2.0281 -1.1573
11099TIP3   OH233253   6.843   0.847   1.814 -0.5671 -0.2468 -0.4598
11099TIP3    H133254   6.777   0.791   1.854 -0.0492 -0.1436  0.5855
11099TIP3    H233255   6.871   0.906   1.885  0.8047 -0.4562 -0.7956
11100TIP3   OH233256   3.392   1.062   0.561 -0.0119 -0.5141 -0.0966
11100TIP3    H133257   3.486   1.074   0.575 -0.1797  1.0330 -0.0821
11100TIP3    H233258   3.357   1.151   0.554 -1.4493 -1.0606 -0.3281
11101TIP3   OH233259   1.020   0.269   3.801 -0.8619 -0.6321  0.1457
11101TIP3    H133260   1.002   0.267   3.895 -0.3927 -0.1538  0.2479
11101TIP3    H233261   0.976   0.191   3.767 -2.6026  0.1624  0.4800
11102TIP3   OH233262   6.819   3.076   2.122 -0.8702 -0.3748 -0.2166
11102TIP3    H133263   6.857   3.029   2.196 -1.8011  2.3026  2.1262
11102TIP3    H233264   6.881   3.147   2.103 -1.3077 -0.2151 -1.1349
11103TIP3   OH233265   4.622   5.581   4.498  0.5415 -0.1385  0.5842
11103TIP3    H133266   4.565   5.552   4.569 -0.9643  1.1895 -0.0180
11103TIP3    H233267   4.601   5.523   4.425 -0.7452  0.9028  0.0930
11104TIP3   OH233268   2.836   1.792   1.732 -0.2878 -0.3022  0.2615
11104TIP3    H133269   2.756   1.836   1.703  1.3511  1.2327 -2.2990
11104TIP3    H233270   2.811   1.700   1.740 -2.8024  0.4191  1.7190
11105TIP3   OH233271   6.793   1.257   1.197 -0.1790  0.4063  0.2860
11105TIP3    H133272   6.847   1.179   1.212 -0.8406 -0.1891 -0.3256
11105TIP3    H233273   6.851   1.319   1.153  0.0086 -0.2438 -0.4084
11106TIP3   OH233274   2.022   4.001   3.297 -0.0493  0.5400  0.4246
11106TIP3    H133275   2.098   4.013   3.239  0.1014  0.2370  0.5531
11106TIP3    H233276   1.970   3.933   3.254  0.2093  0.1072  0.7848
11107TIP3   OH233277   1.202   0.453   6.719 -0.8412  0.0535 -0.1863
11107TIP3    H133278   1.282   0.489   6.680  0.4377 -2.5739 -0.2134
11107TIP3    H233279   1.149   0.530   6.741  2.2573  1.9931  1.1112
11108TIP3   OH233280   0.849   3.181   6.379  0.2643 -0.8017  0.0257
11108TIP3    H133281   0.897   3.206   6.300  0.5388 -0.8730  0.1676
11108TIP3    H233282   0.799   3.104   6.353 -0.0414 -0.5226 -0.2194
11109TIP3   OH233283   7.301   2.032   1.114  0.1413  0.3681 -0.5268
11109TIP3    H133284   7.388   2.072   1.116  0.3287 -0.0646  1.3062
11109TIP3    H233285   7.309   1.954   1.169 -1.1757 -0.1867 -1.0796
11110TIP3   OH233286   4.275   7.565   3.142 -0.0923  0.7069  0.4731
11110TIP3    H133287   4.329   7.558   3.063  0.6895  0.5354  1.0128
11110TIP3    H233288   4.220   7.642   3.126 -2.6135 -1.3660 -1.8297
11111TIP3   OH233289   4.582   1.664   4.456 -0.0146 -0.1287  0.0187
11111TIP3    H133290   4.603   1.757   4.454 -3.2440  0.7361  0.9284
11111TIP3    H233291   4.575   1.639   4.364  0.0867  0.7468 -0.2337
11112TIP3   OH233292   5.733   7.147   0.903 -0.2452 -0.3388 -0.1397
11112TIP3    H133293   5.710   7.089   0.830 -1.2663 -0.9248  0.6263
11112TIP3    H233294   5.799   7.206   0.866 -1.0107 -0.3674 -1.6580
11113TIP3   OH233295   2.148   3.640   5.686  0.3871 -0.0212  0.4472
11113TIP3    H133296   2.135   3.731   5.711 -1.4994 -0.2348  0.4611
11113TIP3    H233297   2.078   3.593   5.732  1.9399 -1.6529  1.2787
11114TIP3   OH233298   5.777   2.206   4.683 -0.1210 -0.5276  0.4353
11114TIP3    H133299   5.802   2.158   4.604 -0.9734 -1.0338  0.4617
11114TIP3    H233300   5.813   2.154   4.755 -2.1532 -1.9018  0.5385
11115TIP3   OH233301   5.771   0.127   3.005  0.1235 -0.9223 -0.3870
11115TIP3    H133302   5.678   0.110   3.020 -0.6382  1.8340 -1.2719
11115TIP3    H233303   5.804   0.155   3.091 -0.3220 -0.2055 -0.4434
11116TIP3   OH233304   6.344   3.672   1.069 -0.0454 -0.8351 -0.3049
11116TIP3    H133305   6.404   3.598   1.062  2.1882  0.9396 -0.7728
11116TIP3    H233306   6.354   3.702   1.160  0.4341 -0.0075 -0.6272
11117TIP3   OH233307   0.536   0.018   0.057  0.5338  0.4615  0.1805
11117TIP3    H133308   0.609   0.033   0.117  1.9897  0.9189 -1.6143
11117TIP3    H233309   0.577   0.010  -0.029 -1.3047 -1.8738 -0.5840
11118TIP3   OH233310   5.965   2.342   4.210  0.0455 -0.5657 -0.6527
11118TIP3    H133311   6.000   2.392   4.283 -0.4559 -1.5227  0.2640
11118TIP3    H233312   6.043   2.310   4.163  0.4149 -1.5163  0.5573
11119TIP3   OH233313   1.918   2.256   4.852 -0.2390 -0.2288 -0.0162
11119TIP3    H133314   1.853   2.327   4.848 -0.3378 -0.3275 -0.1739
11119TIP3    H233315   1.925   2.225   4.762  1.3138  0.9492 -0.3624
11120TIP3   OH233316   3.579   2.577   6.439 -0.2901 -0.1143  0.2204
11120TIP3    H133317   3.591   2.672   6.434  1.7154 -0.3847 -1.7802
11120TIP3    H233318   3.560   2.560   6.531  0.7533  2.0783  0.9091
11121TIP3   OH233319   2.494   3.369   3.964  0.3391  0.8454 -0.0220
11121TIP3    H133320   2.410   3.329   3.990  0.8037 -0.0622  0.1384
11121TIP3    H233321   2.536   3.302   3.910  0.1178  2.0645 -1.7851
11122TIP3   OH233322   2.111   5.920   1.591 -0.1341  0.1456 -0.8223
11122TIP3    H133323   2.083   5.855   1.655 -0.6918  0.5445 -0.6427
11122TIP3    H233324   2.206   5.914   1.589 -0.2234 -1.8165 -2.0203
11123TIP3   OH233325   3.897   4.298   6.160  0.0652  0.1209  0.0265
11123TIP3    H133326   3.958   4.236   6.119  0.9272  1.6028 -1.0201
11123TIP3    H233327   3.929   4.306   6.250  0.8088  0.1127 -0.2274
11124TIP3   OH233328   6.458   5.939   4.643 -0.1047  0.9397 -0.0169
11124TIP3    H133329   6.542   5.899   4.668 -0.0546  0.9448 -0.1757
11124TIP3    H233330   6.422   5.879   4.578 -2.3497 -1.5376  3.1799
11125TIP3   OH233331   1.247   6.302   6.652 -0.5567  0.4648  0.9371
11125TIP3    H133332   1.185   6.306   6.579  1.2935  0.9585 -0.7034
11125TIP3    H233333   1.246   6.210   6.679 -0.3627 -0.0099 -0.5741
11126TIP3   OH233334   7.430   3.241   4.026 -0.8841  0.3472 -0.1320
11126TIP3    H133335   7.506   3.298   4.018  0.3054 -1.4205 -3.0800
11126TIP3    H233336   7.444   3.195   4.109 -0.5178  2.3245  0.9748
11127TIP3   OH233337   3.226   5.105   2.525  0.5110 -0.2772  0.1650
11127TIP3    H133338   3.154   5.063   2.478 -0.9754  0.2778  1.8336
11127TIP3    H233339   3.298   5.042   2.521 -0.4480 -1.3591 -0.5284
11128TIP3   OH233340   3.349   1.523   0.342  0.3251 -0.0321 -0.4287
11128TIP3    H133341   3.431   1.571   0.351  0.0735  0.3858 -0.3271
11128TIP3    H233342   3.360   1.472   0.262  1.6080 -1.8554  0.8489
11129TIP3   OH233343   1.102   5.884   3.124  0.0514 -0.1566 -0.2999
11129TIP3    H133344   1.109   5.979   3.110  0.1861  0.4113  2.9303
11129TIP3    H233345   1.030   5.857   3.067  0.3980  1.7359 -1.7628
11130TIP3   OH233346   3.541   1.270   1.113  0.5218  0.0521  0.3009
11130TIP3    H133347   3.465   1.217   1.091 -0.2781  0.7083  1.3795
11130TIP3    H233348   3.611   1.207   1.130 -0.2304 -0.6380  0.9039
11131TIP3   OH233349   7.800   1.863   6.629 -0.4861 -0.0941 -0.2246
11131TIP3    H133350   7.778   1.923   6.557 -0.1416  1.2013  0.7107
11131TIP3    H233351   7.875   1.812   6.596  0.2006  1.0606 -0.5129
11132TIP3   OH233352   4.960   4.202   2.428  0.2441 -0.1359  0.1472
11132TIP3    H133353   4.951   4.211   2.522  0.1421  0.4438  0.0869
11132TIP3    H233354   5.030   4.264   2.405 -1.8457  2.1054 -0.5598
11133TIP3   OH233355   1.431   3.435   0.712 -0.2201 -0.2227 -0.3281
11133TIP3    H133356   1.391   3.373   0.774 -1.0188  0.9490  0.3716
11133TIP3    H233357   1.366   3.443   0.642 -0.5662  0.5508  0.0704
11134TIP3   OH233358   7.100   5.364   0.541 -0.5059 -0.4757  0.5741
11134TIP3    H133359   7.011   5.340   0.566 -1.2426 -0.0726 -1.4758
11134TIP3    H233360   7.151   5.283   0.550 -1.5347 -1.2175 -0.1087
11135TIP3   OH233361   7.941   1.058   1.188  0.1273  1.0012 -0.1947
11135TIP3    H133362   7.969   1.006   1.263  0.8977 -2.1889 -2.4846
11135TIP3    H233363   7.847   1.042   1.180  0.4570 -0.6338 -1.2166
11136TIP3   OH233364   5.260   3.270   4.667 -0.1231  0.4365 -0.0377
11136TIP3    H133365   5.351   3.295   4.679 -0.3365  0.3385  2.0617
11136TIP3    H233366   5.262   3.174   4.661 -0.0972  0.4371 -0.0370
11137TIP3   OH233367   0.209   2.811   4.438 -0.6192 -0.1373 -0.1760
11137TIP3    H133368   0.229   2.732   4.490 -1.3868  0.6701  1.4173
11137TIP3    H233369   0.121   2.795   4.405 -0.7358 -0.0005  0.0648
11138TIP3   OH233370   5.664   6.513   0.692  0.6672  0.0263  0.5184
11138TIP3    H133371   5.719   6.572   0.743 -0.5385  1.0030  0.7281
11138TIP3    H233372   5.615   6.570   0.633 -0.2145 -0.7925  0.4273
11139TIP3   OH233373   3.482   1.870   6.001  0.6248  0.5330 -0.1669
11139TIP3    H133374   3.489   1.961   6.027  1.1163  0.0681  1.4173
11139TIP3    H233375   3.570   1.835   6.009 -0.0718 -0.8701  2.4717
11140TIP3   OH233376   2.268   2.649   2.466 -0.6400 -0.6769  0.0098
11140TIP3    H133377   2.328   2.720   2.443 -0.2334 -0.6328  1.1237
11140TIP3    H233378   2.207   2.689   2.528 -0.9620 -1.0736 -0.0490
11141TIP3   OH233379   7.331   5.903   0.222  0.4164  0.0241 -0.6400
11141TIP3    H133380   7.391   5.907   0.297  1.8483  1.0748 -1.7996
11141TIP3    H233381   7.252   5.862   0.258  1.1044  0.3590  1.4063
11142TIP3   OH233382   7.098   3.609   4.864 -0.0005 -0.4373  0.4913
11142TIP3    H133383   7.148   3.562   4.797 -0.3064 -1.3978  0.9176
11142TIP3    H233384   7.069   3.689   4.821 -1.7901 -1.8736 -1.2012
11143TIP3   OH233385   1.230   0.801   6.332 -0.2812 -0.1685 -0.5580
11143TIP3    H133386   1.139   0.802   6.362  0.3393 -0.5497  1.5207
11143TIP3    H233387   1.225   0.773   6.241 -2.2390 -0.3038 -0.4493
11144TIP3   OH233388   0.656   1.312   2.722 -0.1908 -0.4492  0.1797
11144TIP3    H133389   0.683   1.302   2.813 -0.7193  1.2348  0.5463
11144TIP3    H233390   0.668   1.405   2.702 -1.4306 -0.5013 -1.0147
11145TIP3   OH233391   6.391   0.953   0.011 -0.0841  0.5906  0.1274
11145TIP3    H133392   6.327   0.967  -0.059 -0.0271 -1.0902 -0.2864
11145TIP3    H233393   6.365   0.870   0.052  0.1086  1.3381  1.8751
11146TIP3   OH233394   4.595   5.515   3.731 -0.3312  0.0864  0.1482
11146TIP3    H133395   4.503   5.505   3.755 -0.3923 -2.6988 -0.8414
11146TIP3    H233396   4.643   5.496   3.811 -0.6429 -1.1594  0.0744
11147TIP3   OH233397   5.077   5.997   3.102  0.1106 -0.3735 -0.1083
11147TIP3    H133398   5.143   5.991   3.171 -1.2697 -0.1067  1.3143
11147TIP3    H233399   5.005   6.046   3.142 -0.7167 -0.1432 -1.7849
11148TIP3   OH233400   7.082   3.531   5.990  0.6589 -0.1668  0.2620
11148TIP3    H133401   7.176   3.511   5.994  0.4090 -1.5762 -0.2929
11148TIP3    H233402   7.052   3.488   5.910 -0.4198  0.4901  0.2934
11149TIP3   OH233403   3.645   7.713   6.335 -0.0770  0.2707 -0.0633
11149TIP3    H133404   3.617   7.739   6.423  2.0445 -1.1822  1.1372
11149TIP3    H233405   3.611   7.782   6.278 -0.5707  1.8769  2.0314
11150TIP3   OH233406   2.563   3.529   3.692  0.0217  0.6504 -0.1010
11150TIP3    H133407   2.493   3.526   3.758 -0.9843 -0.0813 -1.1725
11150TIP3    H233408   2.640   3.558   3.741 -0.6515 -0.0540  1.4450
11151TIP3   OH233409   4.336   7.387   6.361  0.4134 -0.1016 -0.0177
11151TIP3    H133410   4.337   7.363   6.268  1.6381 -0.1689 -0.0027
11151TIP3    H233411   4.393   7.323   6.403  0.5157  0.4198  0.6551
11152TIP3   OH233412   0.341   6.133   1.467  0.6301  0.1758 -0.0086
11152TIP3    H133413   0.310   6.088   1.546  1.9169  0.7126  0.8298
11152TIP3    H233414   0.331   6.226   1.487 -0.6505  0.3230 -1.1756
11153TIP3   OH233415   4.337   2.971   3.138 -0.1853  0.0851 -0.0902
11153TIP3    H133416   4.381   3.051   3.168 -0.9888  0.1712  0.9385
11153TIP3    H233417   4.399   2.900   3.159  0.8077  0.4551 -1.5941
11154TIP3   OH233418   4.010   0.325   4.402  0.1321 -0.3224  0.0796
11154TIP3    H133419   4.091   0.377   4.396  2.0659 -2.9127  1.5612
11154TIP3    H233420   4.004   0.302   4.495 -1.9551 -0.8198 -0.1347
11155TIP3   OH233421   5.684   5.256   4.407  0.2112 -0.0014  0.0745
11155TIP3    H133422   5.632   5.181   4.437 -1.7894  1.1007 -0.4824
11155TIP3    H233423   5.686   5.246   4.312 -0.1956  0.7126 -0.0148
11156TIP3   OH233424   7.829   2.426   6.234 -0.0136  0.5410 -0.0288
11156TIP3    H133425   7.903   2.456   6.182 -0.4731  2.0700  0.1273
11156TIP3    H233426   7.752   2.446   6.180 -0.3207 -2.2123 -0.7603
11157TIP3   OH233427   7.696   7.703   3.438 -0.1267  0.1067  0.0253
11157TIP3    H133428   7.700   7.732   3.529  0.3233 -0.5655  0.2219
11157TIP3    H233429   7.774   7.741   3.397  2.0588 -3.0586  0.9599
11158TIP3   OH233430   3.359   0.256   3.212 -0.5902  0.5621  0.6706
11158TIP3    H133431   3.419   0.213   3.151  0.1266  1.7347  0.5254
11158TIP3    H233432   3.373   0.349   3.199 -1.4349  0.8499  1.6451
11159TIP3   OH233433   4.754   7.567   3.242 -0.0016  0.5673  0.1199
11159TIP3    H133434   4.702   7.571   3.322 -0.4272  1.0817 -0.1779
11159TIP3    H233435   4.753   7.656   3.208  1.2579  0.6473  0.2196
11160TIP3   OH233436   6.945   1.154   4.574 -0.0756 -0.1119  1.1495
11160TIP3    H133437   7.040   1.150   4.570 -0.0343  0.5705  1.3272
11160TIP3    H233438   6.923   1.114   4.659  0.0445 -0.3720  1.0580
11161TIP3   OH233439   5.949   5.947   4.043 -0.2924 -0.3203 -0.0058
11161TIP3    H133440   5.864   5.988   4.032 -0.3496 -0.7771 -1.6070
11161TIP3    H233441   5.935   5.878   4.108 -0.7956  0.4700  0.7455
11162TIP3   OH233442   7.797   5.303   3.584  0.5807  0.4518 -0.1506
11162TIP3    H133443   7.883   5.295   3.626  0.9202  1.2453 -0.6739
11162TIP3    H233444   7.766   5.390   3.608  0.2555  0.4586 -0.5719
11163TIP3   OH233445   3.478   1.462   5.252  0.0679  0.2098  0.1328
11163TIP3    H133446   3.459   1.550   5.219  0.6920  0.2177 -0.2250
11163TIP3    H233447   3.400   1.411   5.231 -0.7398  0.9223  1.2811
11164TIP3   OH233448   0.720   4.738   5.043 -0.8304 -0.1559  0.3866
11164TIP3    H133449   0.796   4.716   4.989 -0.8913  0.4096  0.0729
11164TIP3    H233450   0.654   4.672   5.020 -0.7709 -0.0667 -0.0401
11165TIP3   OH233451   4.455   0.637   0.008 -0.3812 -0.2754  0.3883
11165TIP3    H133452   4.471   0.563  -0.051 -0.6996  0.9154 -1.2499
11165TIP3    H233453   4.539   0.653   0.050  0.4774  0.2778 -1.4609
11166TIP3   OH233454   2.344   0.776   0.869 -0.5383 -0.4391 -0.3794
11166TIP3    H133455   2.291   0.817   0.801  1.5666  0.7102 -1.4100
11166TIP3    H233456   2.433   0.774   0.833  0.0340 -3.0909  0.9132
11167TIP3   OH233457   4.735   2.495   4.885 -0.2875  0.2529 -0.7171
11167TIP3    H133458   4.777   2.512   4.969 -2.6176  1.8119  0.2582
11167TIP3    H233459   4.681   2.417   4.900 -1.5106  1.1259 -0.3705
11168TIP3   OH233460   1.392   6.180   3.859  0.3194 -0.1658 -0.5840
11168TIP3    H133461   1.338   6.102   3.846 -1.1410  0.7478 -0.2261
11168TIP3    H233462   1.335   6.253   3.836  1.6442  0.8129 -0.8789
11169TIP3   OH233463   5.084   4.047   6.115 -0.0001  0.2859  0.1180
11169TIP3    H133464   5.160   3.996   6.089  0.4010  0.8193  0.2181
11169TIP3    H233465   5.009   3.995   6.087  0.4060  0.0170 -0.4828
11170TIP3   OH233466   4.196   2.178   2.626  1.1132 -0.3612  0.3710
11170TIP3    H133467   4.206   2.116   2.554  1.6054 -0.4250  0.4897
11170TIP3    H233468   4.257   2.249   2.606  0.2101  0.3280 -0.0085
11171TIP3   OH233469   8.064   0.594   3.230  0.2985  0.3216  0.4349
11171TIP3    H133470   8.051   0.633   3.143 -0.6072 -0.7310  0.0691
11171TIP3    H233471   8.131   0.527   3.216  0.4899  0.4717  0.6463
11172TIP3   OH233472   5.728   1.586   0.041 -0.2261  0.7911 -0.0018
11172TIP3    H133473   5.707   1.635   0.121 -1.9397  1.1993 -0.6528
11172TIP3    H233474   5.712   1.648  -0.030  0.8784  0.3018 -0.6987
11173TIP3   OH233475   4.328   1.747   4.935 -0.0179 -0.0948 -0.0589
11173TIP3    H133476   4.264   1.781   4.871 -0.0042  1.0128  0.4992
11173TIP3    H233477   4.401   1.716   4.881 -0.5727 -0.4142 -0.6493
11174TIP3   OH233478   1.414   6.198   5.231 -0.0600 -0.0609 -0.3440
11174TIP3    H133479   1.456   6.117   5.259 -0.7803 -0.1018  0.6914
11174TIP3    H233480   1.433   6.260   5.301  0.6326  0.7233 -1.2140
11175TIP3   OH233481   6.547   7.436   2.595  0.5484  0.1896 -0.2091
11175TIP3    H133482   6.532   7.398   2.681 -0.8925 -1.9851 -1.3189
11175TIP3    H233483   6.641   7.450   2.590  0.6014  0.7955  1.8537
11176TIP3   OH233484   7.133   2.933   0.501  0.0938 -0.8107 -0.5677
11176TIP3    H133485   7.050   2.973   0.476 -1.1897 -1.7808  1.8322
11176TIP3    H233486   7.170   2.903   0.419 -1.8197 -0.1671 -1.7425
11177TIP3   OH233487   6.053   3.755   3.369  0.3161  0.2952 -0.6743
11177TIP3    H133488   6.117   3.804   3.317  0.5086 -0.3553 -1.0524
11177TIP3    H233489   6.097   3.737   3.452 -0.2737  2.0547  0.0840
11178TIP3   OH233490   4.609   6.997   2.963  0.2556  0.1605  0.1163
11178TIP3    H133491   4.539   7.060   2.947  0.0019 -0.4490 -1.3091
11178TIP3    H233492   4.675   7.046   3.012 -1.6588  0.4279  2.6434
11179TIP3   OH233493   3.944   4.726   2.711  0.2276 -0.4520  0.5530
11179TIP3    H133494   3.916   4.666   2.641 -0.3234 -0.1914  0.5363
11179TIP3    H233495   4.039   4.721   2.711  0.2112 -0.8477  0.1264
11180TIP3   OH233496   1.164   6.827   0.638 -0.3367  0.1065  0.0297
11180TIP3    H133497   1.248   6.785   0.654  1.3118  2.9625 -0.5656
11180TIP3    H233498   1.136   6.793   0.553 -0.5214 -1.8764  0.8279
11181TIP3   OH233499   6.328   7.523   2.215  1.0443 -0.0215 -0.1129
11181TIP3    H133500   6.375   7.454   2.263  2.5178  0.5161 -0.7526
11181TIP3    H233501   6.352   7.604   2.259  0.5722  0.2467 -0.3419
11182TIP3   OH233502   6.005   4.308   1.900  0.0571 -0.4462  0.3122
11182TIP3    H133503   6.022   4.392   1.942  0.0798 -0.1381 -0.2962
11182TIP3    H233504   5.964   4.332   1.816 -0.9109 -1.0714  0.5888
11183TIP3   OH233505   3.086   1.961   2.612 -0.5711  0.1283 -0.4842
11183TIP3    H133506   3.082   2.028   2.544 -0.8560  0.5161 -0.0884
11183TIP3    H233507   3.020   1.988   2.677 -0.2037 -0.1551  0.0159
11184TIP3   OH233508   5.341   1.311   2.977  0.6011 -0.2599 -0.0082
11184TIP3    H133509   5.247   1.309   2.995  0.8289  0.6181  1.4271
11184TIP3    H233510   5.349   1.365   2.898  0.0294  1.4146  1.0332
11185TIP3   OH233511   4.579   2.724   5.448 -0.1595 -0.8165  0.1300
11185TIP3    H133512   4.537   2.793   5.397 -0.3167 -0.2090  1.0517
11185TIP3    H233513   4.626   2.671   5.383 -0.7880 -0.3893 -0.6955
11186TIP3   OH233514   2.145   5.676   2.490 -0.2018  0.0009  0.1088
11186TIP3    H133515   2.130   5.753   2.436 -2.2747 -0.1448  0.3934
11186TIP3    H233516   2.060   5.657   2.530 -0.0908 -3.0669 -0.8069
11187TIP3   OH233517   5.739   3.579   4.896 -0.3958  0.7560  0.4184
11187TIP3    H133518   5.832   3.602   4.902 -0.4597  1.0880  0.1895
11187TIP3    H233519   5.734   3.489   4.928  0.1356  0.4432 -0.3435
11188TIP3   OH233520   6.151   6.704   2.799 -0.0024 -0.1651 -0.4273
11188TIP3    H133521   6.093   6.758   2.746  1.3319  1.2046 -0.5439
11188TIP3    H233522   6.146   6.743   2.887  0.7335 -0.0379 -0.4402
11189TIP3   OH233523   5.872   2.091   2.163 -0.6355  0.3057  0.2351
11189TIP3    H133524   5.881   2.002   2.197 -0.9504 -0.5082 -1.7072
11189TIP3    H233525   5.780   2.112   2.174 -0.7482  0.0240 -0.1798
11190TIP3   OH233526   0.917   2.705   4.164 -0.2613 -0.3171 -0.5472
11190TIP3    H133527   0.951   2.716   4.075  1.8050 -1.0358  0.0975
11190TIP3    H233528   0.850   2.637   4.155  1.8560 -2.4574 -1.1933
11191TIP3   OH233529   6.149   3.496   2.646  0.3363  0.0188 -0.0518
11191TIP3    H133530   6.090   3.571   2.642 -1.3111 -1.1053  1.6830
11191TIP3    H233531   6.203   3.511   2.723 -0.1159 -0.6175  0.4050
11192TIP3   OH233532   3.770   6.414   6.253 -0.2428  0.3667  0.0225
11192TIP3    H133533   3.798   6.339   6.200  0.1210 -2.0104  3.2897
11192TIP3    H233534   3.850   6.446   6.294 -0.7378  1.0123  0.4999
11193TIP3   OH233535   3.972   1.715   3.480  0.4688  0.7319 -0.7538
11193TIP3    H133536   4.033   1.642   3.480 -0.1469  0.2101 -0.6593
11193TIP3    H233537   3.995   1.765   3.558 -0.2504 -0.3487  0.1846
11194TIP3   OH233538   1.720   5.802   4.273 -0.0861 -0.2441  0.1401
11194TIP3    H133539   1.664   5.837   4.204  0.0426 -0.5127 -0.1010
11194TIP3    H233540   1.719   5.707   4.260  0.5924 -0.2375  0.0021
11195TIP3   OH233541   7.274   0.325   1.687  0.0451 -0.0989  0.5240
11195TIP3    H133542   7.357   0.298   1.648 -0.7502 -0.6375 -0.8586
11195TIP3    H233543   7.251   0.253   1.746  0.8620  0.3543  1.4268
11196TIP3   OH233544   2.362   3.219   3.156 -0.5807  0.5318  0.4793
11196TIP3    H133545   2.288   3.212   3.217 -1.1328  2.0312  0.0292
11196TIP3    H233546   2.435   3.177   3.202 -1.6012 -0.6889  1.0738
11197TIP3   OH233547   0.169   1.047   4.060 -0.1276 -0.1043  0.1596
11197TIP3    H133548   0.177   1.046   3.964 -0.1138  1.4692  0.1176
11197TIP3    H233549   0.227   0.976   4.089 -0.3464 -0.7928 -0.9909
11198TIP3   OH233550   0.952   6.388   0.527  0.3429  0.0484  0.1919
11198TIP3    H133551   0.933   6.480   0.509 -1.3777 -0.1012  0.9784
11198TIP3    H233552   0.897   6.367   0.603 -0.5698 -2.0296 -0.9366
11199TIP3   OH233553   7.665   4.348   1.158  0.4112  0.7394 -0.5605
11199TIP3    H133554   7.635   4.397   1.081  0.1282  0.3353 -0.7141
11199TIP3    H233555   7.609   4.270   1.159  0.0143  1.0175  0.3845
11200TIP3   OH233556   3.407   5.595   0.783 -0.5103  0.7641  0.8627
11200TIP3    H133557   3.423   5.560   0.871 -0.0692  2.0436  1.3219
11200TIP3    H233558   3.315   5.573   0.765  0.2371 -2.3345  0.2586
11201TIP3   OH233559   6.325   2.628   1.193  0.1736 -0.5267  0.0917
11201TIP3    H133560   6.252   2.645   1.134 -0.9696  0.6763  1.7435
11201TIP3    H233561   6.378   2.563   1.148 -0.3965  0.6325 -2.3945
11202TIP3   OH233562   8.222   0.867   6.081 -0.1887  0.6626  0.1469
11202TIP3    H133563   8.142   0.892   6.127 -1.4518  1.1928 -2.2149
11202TIP3    H233564   8.250   0.948   6.038 -0.4825 -0.3615 -2.0518
11203TIP3   OH233565   0.564   4.275   4.328  1.2784  0.5442  0.0903
11203TIP3    H133566   0.509   4.328   4.270  0.8820 -0.7534 -0.7885
11203TIP3    H233567   0.653   4.302   4.307  1.0526  1.8984  0.7442
11204TIP3   OH233568   7.746   6.645   1.287 -0.1716 -0.2270  0.5827
11204TIP3    H133569   7.757   6.615   1.377 -0.6729  0.4983  0.8978
11204TIP3    H233570   7.801   6.586   1.235  1.0570  0.0705  1.4864
11205TIP3   OH233571   1.839   5.879   3.601  0.4258 -0.1736  0.4448
11205TIP3    H133572   1.769   5.940   3.624  0.3296  0.0203 -0.3091
11205TIP3    H233573   1.796   5.794   3.592  0.6355 -0.4590  1.9427
11206TIP3   OH233574   0.114   6.943   1.384  0.2279 -0.0329 -0.1282
11206TIP3    H133575   0.191   6.896   1.353 -0.0824  0.3570 -1.5743
11206TIP3    H233576   0.043   6.879   1.382  0.6944 -0.7158  2.3150
11207TIP3   OH233577   2.441   1.434   1.531 -0.3352  0.5318 -0.4174
11207TIP3    H133578   2.484   1.457   1.449  0.7693  1.3426  0.3708
11207TIP3    H233579   2.386   1.359   1.508  0.4753  0.3056 -1.7450
11208TIP3   OH233580   0.369   5.848   5.398  0.0514  0.1159 -0.1694
11208TIP3    H133581   0.357   5.827   5.306  0.1407  2.4862 -0.7970
11208TIP3    H233582   0.438   5.790   5.428  0.1520 -0.5557 -1.6456
11209TIP3   OH233583   3.281   4.997   0.814 -0.1567  0.2249 -0.0818
11209TIP3    H133584   3.283   5.083   0.855 -1.4873  0.2230  0.0181
11209TIP3    H233585   3.334   5.008   0.734  1.6697  0.4643  1.1006
11210TIP3   OH233586   3.147   2.973   0.571 -0.0447 -0.0698  0.3453
11210TIP3    H133587   3.182   2.887   0.551  3.2762  0.7612  1.9293
11210TIP3    H233588   3.107   3.003   0.489 -0.3476 -2.6418 -0.5182
11211TIP3   OH233589   1.587   1.303   4.033 -0.3361  0.6967 -0.2570
11211TIP3    H133590   1.517   1.258   4.080 -0.4065  2.1597  1.1152
11211TIP3    H233591   1.668   1.267   4.069 -0.3742  0.3226 -0.5353
11212TIP3   OH233592   1.249   3.508   0.512 -0.1851  0.1720 -0.0963
11212TIP3    H133593   1.162   3.492   0.476  0.1087 -2.2847  0.0982
11212TIP3    H233594   1.236   3.578   0.576 -2.4780 -1.5008  1.4144
11213TIP3   OH233595   6.420   0.550   2.141  0.0563 -0.1276 -0.2497
11213TIP3    H133596   6.339   0.581   2.183  0.6081  2.0634 -0.6592
11213TIP3    H233597   6.490   0.586   2.195  0.7613  1.8083 -2.3406
11214TIP3   OH233598   7.483   6.620   4.964 -0.2372 -0.1116  0.4406
11214TIP3    H133599   7.479   6.683   4.893 -0.1544  0.4635  0.9358
11214TIP3    H233600   7.576   6.601   4.975 -0.1797  0.4590  0.9614
11215TIP3   OH233601   4.775   7.705   6.322 -0.0969  0.1746  0.1501
11215TIP3    H133602   4.761   7.787   6.276 -0.0006 -0.1104 -0.3906
11215TIP3    H233603   4.838   7.657   6.269  0.4157  0.0515  0.8464
11216TIP3   OH233604   1.126   7.437   4.792  0.6104  0.0284  0.2472
11216TIP3    H133605   1.063   7.386   4.742 -0.5699  2.4031 -0.8001
11216TIP3    H233606   1.205   7.437   4.738  0.8105 -1.0741  0.5094
11217TIP3   OH233607   5.873   5.684   3.254  0.3547  0.4455 -0.3387
11217TIP3    H133608   5.951   5.715   3.300  1.6229  0.1204 -2.1493
11217TIP3    H233609   5.834   5.621   3.313  0.9837  1.2451  0.9737
11218TIP3   OH233610   0.864   3.597   3.841  0.4339 -0.3146 -0.0226
11218TIP3    H133611   0.813   3.517   3.826 -1.0960  0.8318 -1.3104
11218TIP3    H233612   0.832   3.631   3.924  0.7331 -0.7439  0.2783
11219TIP3   OH233613   2.959   3.722   1.971  0.3603  0.4082  0.5140
11219TIP3    H133614   2.907   3.643   1.960  0.7350  0.3039 -0.6948
11219TIP3    H233615   2.912   3.789   1.921 -0.6156  1.3064  2.5113
11220TIP3   OH233616   4.669   5.146   3.203  0.0139 -0.4676 -0.4232
11220TIP3    H133617   4.687   5.141   3.109 -0.8066 -2.1800 -0.5264
11220TIP3    H233618   4.751   5.119   3.244 -0.7431 -3.8095 -0.7957
11221TIP3   OH233619   1.391   5.043   4.370 -0.1830 -0.2547 -0.2136
11221TIP3    H133620   1.386   5.060   4.464  2.2768  1.3249 -0.2823
11221TIP3    H233621   1.304   5.011   4.346 -0.8164 -0.8367  2.6040
11222TIP3   OH233622   3.953   2.000   6.240 -0.2537 -0.3429  0.1814
11222TIP3    H133623   4.014   1.927   6.251  1.3995  1.1055  1.2120
11222TIP3    H233624   4.002   2.064   6.188 -0.8407  0.8920  1.0902
11223TIP3   OH233625   1.790   6.437   1.882  0.0617 -0.0243 -0.2249
11223TIP3    H133626   1.848   6.361   1.892  0.9582  0.6172 -0.4582
11223TIP3    H233627   1.848   6.513   1.892 -0.2795  0.6550 -2.8277
11224TIP3   OH233628   3.394   5.652   2.459  0.3063  0.3911  0.5705
11224TIP3    H133629   3.428   5.563   2.467  1.1407  0.5991 -0.4046
11224TIP3    H233630   3.447   5.704   2.518 -1.0066  0.0627  2.1035
11225TIP3   OH233631   3.681   4.461   2.296  0.1570  0.3131  0.9347
11225TIP3    H133632   3.625   4.492   2.224  0.1492 -0.6836  0.4949
11225TIP3    H233633   3.661   4.520   2.369 -1.3963  0.0531  0.7587
11226TIP3   OH233634   0.258   4.019   3.089  0.2784 -0.3476 -0.1814
11226TIP3    H133635   0.237   3.991   3.178 -2.4866 -0.7293 -0.8735
11226TIP3    H233636   0.258   3.938   3.038  2.0659 -0.1576 -0.5436
11227TIP3   OH233637   4.030   0.686   4.349  0.0003  0.8793  0.5112
11227TIP3    H133638   3.976   0.652   4.278  0.4854 -2.0763  1.3939
11227TIP3    H233639   4.104   0.625   4.353 -0.6299  0.1310  4.2897
11228TIP3   OH233640   4.771   1.555   5.263 -0.0082 -0.0704 -0.2453
11228TIP3    H133641   4.747   1.600   5.343  0.8843  0.8280 -0.4675
11228TIP3    H233642   4.768   1.462   5.285 -0.7405  0.1371  0.5403
11229TIP3   OH233643   5.883   3.889   1.518  0.7041  0.1913  0.1445
11229TIP3    H133644   5.812   3.850   1.568  1.6084 -0.7308  0.7443
11229TIP3    H233645   5.844   3.967   1.478  0.1395  1.4909  2.9804
11230TIP3   OH233646   5.103   6.339   1.750  0.2914 -0.0452 -0.1639
11230TIP3    H133647   5.137   6.351   1.838 -0.1015  5.0562 -0.4261
11230TIP3    H233648   5.176   6.363   1.692 -0.3765 -0.2356 -1.1191
11231TIP3   OH233649   0.713   2.425   1.853  0.1781  0.0955 -0.6380
11231TIP3    H133650   0.702   2.353   1.914 -2.2212  1.9159  1.2699
11231TIP3    H233651   0.630   2.431   1.806  0.1581  1.8476 -0.4507
11232TIP3   OH233652   2.371   1.668   4.128  0.1048 -0.3604  0.3372
11232TIP3    H133653   2.413   1.598   4.179  0.3300  0.0796  0.7752
11232TIP3    H233654   2.407   1.659   4.040  0.8745 -0.2044  0.6269
11233TIP3   OH233655   6.779   6.211   2.561  0.2865  0.6598 -0.1131
11233TIP3    H133656   6.713   6.255   2.508  0.9270 -0.0300 -1.5499
11233TIP3    H233657   6.862   6.230   2.516  0.9620  0.7148  1.1022
11234TIP3   OH233658   7.545   2.594   4.594 -0.5926  0.2007  0.3748
11234TIP3    H133659   7.610   2.543   4.644  1.3585 -0.0714 -2.2029
11234TIP3    H233660   7.486   2.528   4.558 -1.8053  0.3724  1.9335
11235TIP3   OH233661   5.093   3.065   3.321 -0.1238  0.9291  0.0910
11235TIP3    H133662   5.152   3.118   3.375  0.4843 -0.1783  0.5449
11235TIP3    H233663   5.114   3.089   3.231  1.1406  0.4360  0.2405
11236TIP3   OH233664   5.213   4.021   1.311 -0.3340  0.1742 -0.1354
11236TIP3    H133665   5.260   3.951   1.265 -1.3162 -0.2669 -0.4886
11236TIP3    H233666   5.230   4.004   1.404 -1.4778 -1.2395 -0.1470
11237TIP3   OH233667   2.290   4.751   0.039  0.2250  0.3703  0.1712
11237TIP3    H133668   2.242   4.784   0.116 -1.8549  0.5380 -1.1226
11237TIP3    H233669   2.221   4.724  -0.022  1.8191 -2.4371 -0.5363
11238TIP3   OH233670   2.510   7.165   0.364 -0.3528  0.3315 -0.4745
11238TIP3    H133671   2.454   7.180   0.440  2.0824 -1.7834  1.9318
11238TIP3    H233672   2.449   7.152   0.292 -2.8128  1.4956  1.2448
11239TIP3   OH233673   7.762   6.320   6.099 -0.4791  0.3803 -0.2244
11239TIP3    H133674   7.677   6.310   6.057 -0.6256  1.0658 -0.0970
11239TIP3    H233675   7.771   6.414   6.114 -0.0951  0.2286  0.5803
11240TIP3   OH233676   0.956   0.495   1.671  0.2115 -0.0510  0.6048
11240TIP3    H133677   0.990   0.454   1.591  2.3366  1.3114  0.7222
11240TIP3    H233678   0.940   0.586   1.646  3.1279  1.0193  2.1904
11241TIP3   OH233679   4.083   3.861   3.022 -0.2159 -0.8728 -0.4945
11241TIP3    H133680   4.095   3.769   3.042  0.9260 -0.7717 -0.6029
11241TIP3    H233681   4.134   3.907   3.089 -2.5400 -0.2055  0.9011
11242TIP3   OH233682   7.037   6.279   3.043 -0.2016  0.0292  0.3673
11242TIP3    H133683   7.048   6.343   2.972  0.7646 -1.0303 -0.4818
11242TIP3    H233684   7.077   6.322   3.119 -0.5897  0.8851  0.1093
11243TIP3   OH233685   2.563   4.590   2.966  0.7201 -0.5630  0.1587
11243TIP3    H133686   2.537   4.674   2.930 -0.2406  0.2400  2.5143
11243TIP3    H233687   2.542   4.526   2.898 -0.7278  0.8464 -0.7652
11244TIP3   OH233688   6.197   3.795   2.893  0.2000 -0.9116 -0.2616
11244TIP3    H133689   6.238   3.709   2.891 -0.6927 -1.3404 -0.9051
11244TIP3    H233690   6.254   3.851   2.841 -0.3145 -1.6475 -1.6813
11245TIP3   OH233691   1.764   4.604   3.553  0.4467 -0.0047 -0.0877
11245TIP3    H133692   1.791   4.672   3.491  0.2829 -0.3126 -0.4979
11245TIP3    H233693   1.675   4.629   3.579  0.3064 -0.1682 -0.3976
11246TIP3   OH233694   4.847   5.830   4.205  0.0423 -0.8074  0.2201
11246TIP3    H133695   4.878   5.762   4.265  2.2659 -0.5650 -0.5625
11246TIP3    H233696   4.921   5.845   4.145 -1.0547  0.9974 -0.7784
11247TIP3   OH233697   1.769   1.983   1.509 -0.2599 -0.2701  0.3206
11247TIP3    H133698   1.857   1.969   1.542 -0.0657  0.3414  0.0713
11247TIP3    H233699   1.761   1.921   1.436 -0.6368 -1.5104  1.3721
11248TIP3   OH233700   4.432   3.271   2.837 -0.3768 -0.1612  0.0663
11248TIP3    H133701   4.351   3.284   2.886 -0.5554  1.8199 -0.6553
11248TIP3    H233702   4.467   3.359   2.824  1.6611 -0.9230 -0.0761
11249TIP3   OH233703   1.790   6.301   0.651  0.6872 -0.3747 -0.2022
11249TIP3    H133704   1.866   6.359   0.645  0.3239  0.0705 -0.5391
11249TIP3    H233705   1.822   6.216   0.620  1.5296 -0.6688  1.3559
11250TIP3   OH233706   6.841   4.351   2.357  0.6893  0.3824 -0.3664
11250TIP3    H133707   6.918   4.328   2.408 -1.2572  0.6737  3.0022
11250TIP3    H233708   6.863   4.436   2.317  1.9316  0.7017  0.9400
11251TIP3   OH233709   0.836   3.619   5.165 -0.0819  0.2614 -0.4710
11251TIP3    H133710   0.882   3.661   5.092  0.8618  0.0274 -0.0199
11251TIP3    H233711   0.794   3.692   5.211 -0.4190  0.4448 -1.0506
11252TIP3   OH233712   4.546   7.488   1.798 -0.6099 -0.2775 -0.2936
11252TIP3    H133713   4.500   7.442   1.728 -0.7466 -1.8377  0.7576
11252TIP3    H233714   4.476   7.518   1.857 -0.4008 -0.8255  0.2407
11253TIP3   OH233715   3.476   3.487   1.645 -0.0984  0.5015  0.2134
11253TIP3    H133716   3.521   3.405   1.666 -1.0131 -0.0773 -0.0242
11253TIP3    H233717   3.443   3.519   1.729 -1.2199 -0.2752  0.0762
11254TIP3   OH233718   2.488   2.899   1.318  0.2552  0.5544  0.6119
11254TIP3    H133719   2.472   2.965   1.251  3.0612  0.1890 -0.5083
11254TIP3    H233720   2.492   2.949   1.400 -1.2079  1.2434  0.3078
11255TIP3   OH233721   2.092   3.236   4.555  0.2114  0.0147 -0.1245
11255TIP3    H133722   2.187   3.230   4.562  0.3604  0.7843 -1.2108
11255TIP3    H233723   2.073   3.205   4.466 -0.5527 -0.0680  0.0596
11256TIP3   OH233724   7.791   1.193   5.037 -0.6276 -0.0779  0.2105
11256TIP3    H133725   7.808   1.206   5.130 -0.2678 -0.2532  0.1735
11256TIP3    H233726   7.719   1.252   5.017  0.4294  1.2649  0.2180
11257TIP3   OH233727   6.634   0.614   0.696 -0.3411 -0.0905 -0.2984
11257TIP3    H133728   6.707   0.674   0.680 -0.2816 -0.1278 -0.1750
11257TIP3    H233729   6.611   0.580   0.610  0.1803 -0.5281 -0.2732
11258TIP3   OH233730   4.262   1.354   4.661  0.1744 -0.2056  0.7086
11258TIP3    H133731   4.240   1.403   4.582  0.7386 -0.0471  0.6487
11258TIP3    H233732   4.356   1.338   4.654  0.1229 -0.6812  1.0735
11259TIP3   OH233733   3.292   2.455   4.579  0.1645  0.6410 -0.4351
11259TIP3    H133734   3.326   2.526   4.632  1.0802  1.2353 -1.7501
11259TIP3    H233735   3.304   2.377   4.632  1.2954  1.1804  0.1302
11260TIP3   OH233736   1.482   4.568   2.685  0.6431 -0.6142 -0.2649
11260TIP3    H133737   1.520   4.644   2.641  0.8039 -1.8007 -2.2901
11260TIP3    H233738   1.387   4.581   2.679  0.6679  0.0111  0.5219
11261TIP3   OH233739   0.669   6.041   0.911  0.4867  0.5000  0.5724
11261TIP3    H133740   0.712   5.956   0.920 -0.3526 -0.2146 -1.4903
11261TIP3    H233741   0.580   6.026   0.943  0.2375  0.4829 -0.1084
11262TIP3   OH233742   4.441   2.202   3.923 -0.4762 -0.1465  0.3214
11262TIP3    H133743   4.467   2.235   3.837  0.0115  0.7729  0.7956
11262TIP3    H233744   4.355   2.163   3.910  0.2242 -1.3805 -0.8761
11263TIP3   OH233745   2.280   5.976   1.979 -0.1556 -1.0363  0.4599
11263TIP3    H133746   2.212   5.939   1.922  0.0286 -1.2527  0.3777
11263TIP3    H233747   2.274   6.070   1.966  1.3107 -1.1566 -1.5725
11264TIP3   OH233748   5.922   0.130   0.314  0.4749 -0.0175 -0.3889
11264TIP3    H133749   5.883   0.144   0.401 -0.8946  1.5849 -1.2057
11264TIP3    H233750   5.851   0.095   0.261  1.1631 -0.4980 -1.0023
11265TIP3   OH233751   0.897   0.793   5.434 -0.3126  0.4480  0.2737
11265TIP3    H133752   0.876   0.700   5.425  0.9730  0.0838  0.8605
11265TIP3    H233753   0.992   0.797   5.423 -0.1567  1.4794  1.8134
11266TIP3   OH233754   3.074   0.464   4.958 -0.0364  0.2652  0.3710
11266TIP3    H133755   3.088   0.493   4.868  0.0108 -1.6063 -0.2765
11266TIP3    H233756   3.162   0.440   4.989 -0.3428 -1.5317 -0.0259
11267TIP3   OH233757   5.524   3.270   0.796 -0.2851  0.0970 -0.0753
11267TIP3    H133758   5.612   3.295   0.826 -0.6173  1.3845 -0.1346
11267TIP3    H233759   5.515   3.311   0.710 -1.0340  0.1602  0.0281
11268TIP3   OH233760   1.944   5.205   6.151 -0.2730  0.4697  0.0161
11268TIP3    H133761   1.977   5.185   6.238 -1.2477 -0.2597  0.2428
11268TIP3    H233762   1.889   5.282   6.162  1.2121  1.6265 -0.3438
11269TIP3   OH233763   1.574   4.988   3.204  0.0949  0.3479 -0.4424
11269TIP3    H133764   1.492   4.957   3.166  0.5454 -2.4943  0.6764
11269TIP3    H233765   1.638   4.977   3.134  0.2800 -1.6345 -0.0297
11270TIP3   OH233766   6.816   1.119   3.988 -0.0590 -0.2848  0.4355
11270TIP3    H133767   6.866   1.038   3.992 -0.5242 -0.5805  0.2387
11270TIP3    H233768   6.816   1.142   3.895  1.9639  1.1311  0.7052
11271TIP3   OH233769   0.229   7.782   2.789 -1.1750 -0.1365 -0.1619
11271TIP3    H133770   0.276   7.779   2.705  0.6635  1.8185  0.7069
11271TIP3    H233771   0.196   7.871   2.794 -3.2941 -0.8972  0.2146
11272TIP3   OH233772   5.937   5.485   3.556  0.0035 -0.3081  0.2374
11272TIP3    H133773   5.902   5.574   3.550 -0.6108 -0.6127 -0.9007
11272TIP3    H233774   5.889   5.445   3.628 -1.6240 -0.5313 -0.9325
11273TIP3   OH233775   7.475   6.141   3.153  0.1232  0.7805  0.3125
11273TIP3    H133776   7.413   6.069   3.141  0.3514  0.4103  1.2615
11273TIP3    H233777   7.560   6.102   3.133  0.2267  0.8438  0.6334
11274TIP3   OH233778   2.681   2.286   2.327 -0.5874 -0.4432 -0.6722
11274TIP3    H133779   2.705   2.204   2.372  0.7506 -0.3777 -1.2100
11274TIP3    H233780   2.700   2.268   2.235 -0.6508  0.3472 -0.8390
11275TIP3   OH233781   2.554   3.424   0.448  0.1087  0.5525  0.4608
11275TIP3    H133782   2.557   3.392   0.538  2.5735  0.9721  0.6172
11275TIP3    H233783   2.531   3.348   0.396  0.0641 -0.0384  1.3226
11276TIP3   OH233784   2.904   2.709   1.985 -0.2749 -0.3916  0.2265
11276TIP3    H133785   2.960   2.705   1.907 -1.7987 -1.0522 -0.8861
11276TIP3    H233786   2.925   2.629   2.033 -2.0635 -2.0256 -1.5365
11277TIP3   OH233787   2.078   0.133   1.701  0.2872  0.2396 -0.0757
11277TIP3    H133788   2.142   0.131   1.772 -0.5767  0.1891  0.7314
11277TIP3    H233789   2.086   0.220   1.663 -0.0033  0.6747  0.8259
11278TIP3   OH233790   1.065   0.742   1.043  0.1243 -0.2342 -0.2605
11278TIP3    H133791   1.054   0.787   0.960 -2.2889 -1.3398 -0.6326
11278TIP3    H233792   1.132   0.676   1.025 -2.2725 -2.3399 -2.2963
11279TIP3   OH233793   6.933   7.640   4.857 -0.1887  0.1303 -0.3195
11279TIP3    H133794   6.907   7.569   4.916 -0.1473  0.6908  0.3897
11279TIP3    H233795   7.020   7.615   4.826 -0.2049 -0.1659 -0.1270
11280TIP3   OH233796   7.700   6.512   5.741  0.3119 -0.2183 -0.3025
11280TIP3    H133797   7.771   6.512   5.804  1.6780 -0.0946 -1.7797
11280TIP3    H233798   7.712   6.430   5.692 -0.7651 -0.3500 -0.3781
11281TIP3   OH233799   2.165   0.326   1.443  0.4557  0.3378 -0.6215
11281TIP3    H133800   2.199   0.384   1.375  1.5657 -1.7398 -1.9326
11281TIP3    H233801   2.070   0.341   1.442  0.7697  2.7077 -0.2896
11282TIP3   OH233802  -0.007   7.467   2.955 -0.2148 -0.2299 -0.2886
11282TIP3    H133803   0.041   7.503   3.030 -0.7648 -1.2051  0.5699
11282TIP3    H233804   0.054   7.473   2.882  0.9882 -0.7969  0.6194
11283TIP3   OH233805   2.270   1.499   2.027 -0.1770  0.5459  0.2364
11283TIP3    H133806   2.310   1.478   1.942  1.1550  0.4661  0.8628
11283TIP3    H233807   2.245   1.591   2.019  2.0146  1.2301  0.4899
11284TIP3   OH233808   3.349   6.611   0.660 -0.0749  0.1850  0.1644
11284TIP3    H133809   3.266   6.621   0.706 -0.1473  0.1593  0.0400
11284TIP3    H233810   3.359   6.692   0.610  1.6092  1.7259  2.7632
11285TIP3   OH233811   0.562   1.921   1.575 -0.9857 -0.3759  0.1296
11285TIP3    H133812   0.595   1.864   1.506 -1.9252 -0.6635 -0.1039
11285TIP3    H233813   0.469   1.898   1.582 -0.7707 -0.8655  1.9749
11286TIP3   OH233814   2.087   3.873   3.570 -0.6955  0.0527  0.4675
11286TIP3    H133815   2.057   3.786   3.595 -2.1680  0.3295 -0.2145
11286TIP3    H233816   2.071   3.878   3.475 -0.9567  1.1640  0.5479
11287TIP3   OH233817   7.722   2.347   3.009  0.4164  0.8433  0.2508
11287TIP3    H133818   7.796   2.360   3.068 -1.6027 -0.7773  3.3658
11287TIP3    H233819   7.652   2.314   3.064 -1.5773 -1.2202 -3.1642
11288TIP3   OH233820   1.911   6.103   3.823  0.9728  0.4290 -0.2550
11288TIP3    H133821   1.826   6.112   3.781  1.2060  0.1294 -0.8103
11288TIP3    H233822   1.955   6.186   3.807  0.5171  0.8481  0.6532
11289TIP3   OH233823   3.128   5.690   2.426  0.0762 -0.0598 -0.0836
11289TIP3    H133824   3.113   5.782   2.406 -1.0762 -0.6039 -1.9548
11289TIP3    H233825   3.224   5.681   2.426  0.1836  0.8714 -1.2356
11290TIP3   OH233826   4.481   5.976   1.948 -0.4127  0.1329 -0.2360
11290TIP3    H133827   4.398   6.001   1.907  0.5907 -0.4447 -2.8013
11290TIP3    H233828   4.543   6.042   1.919 -0.0792  1.1813  2.5188
11291TIP3   OH233829   5.158   4.505   5.681 -0.4683 -0.0313  0.3793
11291TIP3    H133830   5.198   4.422   5.706  1.3929  1.0736  1.3104
11291TIP3    H233831   5.209   4.571   5.728 -0.4391  1.8137 -2.0575
11292TIP3   OH233832   3.508   3.699   3.420 -0.2212  0.3937  0.1538
11292TIP3    H133833   3.538   3.658   3.501  0.0772  0.7479  0.2239
11292TIP3    H233834   3.498   3.626   3.359  0.3728  0.2143  0.2577
11293TIP3   OH233835   1.808   1.091   6.183 -0.1524  0.6143  0.4903
11293TIP3    H133836   1.807   1.023   6.116 -3.8531  0.3006  0.7082
11293TIP3    H233837   1.847   1.167   6.140  1.9190 -0.8984 -0.4523
11294TIP3   OH233838   0.848   1.836   0.244 -0.4384  0.1794 -0.0352
11294TIP3    H133839   0.874   1.813   0.334 -0.2973  0.8293  0.0979
11294TIP3    H233840   0.758   1.804   0.237 -0.7021  0.7392  0.5852
11295TIP3   OH233841   4.798   4.301   6.646  0.4361  0.0476 -0.0171
11295TIP3    H133842   4.841   4.336   6.567  0.2009  2.3232  0.7994
11295TIP3    H233843   4.752   4.223   6.615  1.3132  0.2187 -1.8918
11296TIP3   OH233844   0.419   1.719   2.849  0.1753 -0.6435 -0.3463
11296TIP3    H133845   0.499   1.750   2.890  0.9364  0.5570 -2.6075
11296TIP3    H233846   0.388   1.793   2.797 -2.3271 -1.1340  0.2917
11297TIP3   OH233847   7.175   1.814   4.052  0.1416 -0.0013  0.0742
11297TIP3    H133848   7.257   1.774   4.023  0.5557  0.6917  0.2785
11297TIP3    H233849   7.166   1.892   3.996  0.1364  0.4721  0.7290
11298TIP3   OH233850   8.142   7.444   5.405 -0.3580 -0.6922 -0.1593
11298TIP3    H133851   8.235   7.454   5.383 -0.3779  0.7454  0.3321
11298TIP3    H233852   8.098   7.448   5.320 -0.1108  0.6622 -0.2486
11299TIP3   OH233853   6.182   3.899   4.220 -0.3478  0.4555 -0.0858
11299TIP3    H133854   6.150   3.956   4.150 -1.7463 -0.5018 -0.2689
11299TIP3    H233855   6.105   3.884   4.275  0.6050  0.7783  1.3896
11300TIP3   OH233856   7.024   4.587   5.021 -0.0271 -0.1151  0.2260
11300TIP3    H133857   7.023   4.547   4.934 -1.3167  1.0774 -0.3573
11300TIP3    H233858   6.932   4.582   5.049 -0.1516  1.9694  0.3102
11301TIP3   OH233859   6.221   4.351   6.710 -0.0363 -0.0345 -0.4578
11301TIP3    H133860   6.251   4.418   6.649  0.9726 -0.2422 -0.1973
11301TIP3    H233861   6.187   4.281   6.654  1.1851 -0.3683 -0.8120
11302TIP3   OH233862   4.704   5.803   3.645 -0.6669  0.3131 -0.4700
11302TIP3    H133863   4.618   5.796   3.604  0.1528  0.5859 -2.3115
11302TIP3    H233864   4.748   5.721   3.624 -0.4113  0.2212  0.3599
11303TIP3   OH233865   3.031   0.785   3.116 -0.3304 -0.3558  0.1092
11303TIP3    H133866   3.069   0.840   3.047 -2.3521  0.0799 -0.7175
11303TIP3    H233867   2.938   0.806   3.115 -0.7503 -1.9506  1.5212
11304TIP3   OH233868   2.158   4.263   4.363  0.2372 -0.2037  1.0377
11304TIP3    H133869   2.065   4.255   4.381  0.0503 -1.4261 -0.2194
11304TIP3    H233870   2.193   4.316   4.435 -1.4181  0.3167  1.4959
11305TIP3   OH233871   1.442   5.404   1.134 -0.0665 -0.4371  0.2782
11305TIP3    H133872   1.403   5.328   1.177 -2.2429 -0.2844 -1.2800
11305TIP3    H233873   1.377   5.431   1.069  1.7108  1.2785 -0.8921
11306TIP3   OH233874   4.234   6.375   3.421 -0.1507  0.3573  0.1536
11306TIP3    H133875   4.176   6.299   3.422  1.0995 -0.6279  1.6521
11306TIP3    H233876   4.189   6.441   3.473  0.0692 -0.4484  1.4213
11307TIP3   OH233877   6.705   2.011   0.806  0.1419  0.4187 -0.1321
11307TIP3    H133878   6.675   1.927   0.840 -0.0058  0.4192 -0.2624
11307TIP3    H233879   6.778   2.035   0.864  1.1705 -0.5163 -0.9715
11308TIP3   OH233880   0.495   6.098   3.906  0.3631 -0.3218 -0.0522
11308TIP3    H133881   0.442   6.020   3.893  1.3363 -1.1574  0.8570
11308TIP3    H233882   0.461   6.137   3.986 -1.6359  1.5115 -1.6554
11309TIP3   OH233883   4.857   5.592   1.980  0.0329 -0.1943 -0.2223
11309TIP3    H133884   4.899   5.590   1.894  0.1585 -0.4078 -0.1571
11309TIP3    H233885   4.775   5.544   1.968  0.4621 -1.0090 -0.0118
11310TIP3   OH233886   1.216   5.276   1.309 -0.0527  0.0605  0.1920
11310TIP3    H133887   1.182   5.341   1.248  1.2109  1.4822  0.9355
11310TIP3    H233888   1.176   5.299   1.393  1.9906  1.2760  0.9124
11311TIP3   OH233889   2.875   6.954   6.259 -0.1150 -0.5748 -0.4301
11311TIP3    H133890   2.874   6.956   6.355  0.9202  0.2786 -0.4259
11311TIP3    H233891   2.834   7.036   6.233 -0.7674 -0.9915 -0.7311
11312TIP3   OH233892   4.767   6.146   2.621 -0.3115  0.3945  0.0060
11312TIP3    H133893   4.691   6.189   2.659 -0.2234  0.9648 -0.4535
11312TIP3    H233894   4.820   6.217   2.586 -0.4638 -0.1167 -1.3115
11313TIP3   OH233895   7.528   6.471   0.874 -0.0159 -0.2342  0.2522
11313TIP3    H133896   7.506   6.534   0.805 -1.4856 -0.4412  0.4938
11313TIP3    H233897   7.477   6.393   0.851 -0.0954 -0.4934  1.2760
11314TIP3   OH233898   1.651   4.089   1.011  0.1198 -0.0985  0.1403
11314TIP3    H133899   1.557   4.082   1.000  0.0862  0.6891 -0.1908
11314TIP3    H233900   1.687   4.026   0.948 -0.1882 -1.1276  0.9793
11315TIP3   OH233901   2.194   3.527   3.538  0.1966 -0.0765  0.0714
11315TIP3    H133902   2.199   3.470   3.615  0.2867 -0.0676  0.0719
11315TIP3    H233903   2.133   3.597   3.564 -0.1062 -0.3047 -0.0153
11316TIP3   OH233904   1.063   0.604   5.084 -0.3629  0.1719  0.0970
11316TIP3    H133905   1.010   0.648   5.150  0.1963 -1.6568  1.8747
11316TIP3    H233906   1.130   0.668   5.060 -0.0712  0.6174  1.9540
11317TIP3   OH233907   6.957   6.246   5.638  0.2601  0.4020  0.3783
11317TIP3    H133908   6.912   6.330   5.626 -0.3339 -0.1001 -1.2033
11317TIP3    H233909   7.042   6.269   5.675 -0.6323  1.5169  1.8299
11318TIP3   OH233910   1.940   0.608   2.321 -0.1184 -0.0691 -0.3052
11318TIP3    H133911   1.850   0.579   2.337  1.0875 -3.6712  0.8951
11318TIP3    H233912   1.979   0.615   2.408  1.3036 -0.6584 -0.8538
11319TIP3   OH233913   2.485   3.858   2.663  0.5726  0.0902 -0.4863
11319TIP3    H133914   2.441   3.879   2.745  0.2319  0.1003 -0.6705
11319TIP3    H233915   2.574   3.834   2.689  0.6401  0.6652 -0.1708
11320TIP3   OH233916   7.075   4.984   0.182 -0.2459 -0.5777  0.2987
11320TIP3    H133917   7.141   4.918   0.205  0.5413  0.5507  1.4444
11320TIP3    H233918   7.072   5.042   0.258 -1.1375  0.5277 -0.5448
11321TIP3   OH233919   3.179   6.131   0.506 -0.3263 -0.0317 -0.4348
11321TIP3    H133920   3.254   6.173   0.465  0.9427 -0.5271  1.2514
11321TIP3    H233921   3.129   6.093   0.433  1.9670 -1.1350 -1.5163
11322TIP3   OH233922   4.937   1.566   0.394  0.3644 -0.5344 -0.0539
11322TIP3    H133923   4.877   1.507   0.440  0.4450 -0.0449  0.7030
11322TIP3    H233924   4.911   1.560   0.302 -1.2266  0.0922  0.3244
11323TIP3   OH233925   1.462   1.808   3.054  0.0079 -0.1471 -0.1160
11323TIP3    H133926   1.472   1.881   2.993  0.2647 -0.4512 -0.4409
11323TIP3    H233927   1.367   1.796   3.062 -0.0374  0.2535 -0.0177
11324TIP3   OH233928   4.210   1.067   0.495  0.0214  0.0496  0.2522
11324TIP3    H133929   4.259   1.103   0.569 -0.0352  1.4117 -0.3603
11324TIP3    H233930   4.149   1.136   0.470  0.7068 -0.0043 -1.6903
11325TIP3   OH233931   5.753   7.279   5.423 -0.0084  0.3403 -0.2585
11325TIP3    H133932   5.676   7.316   5.466  0.0711  0.2010  0.0051
11325TIP3    H233933   5.719   7.238   5.343  0.0140  1.7529 -1.0262
11326TIP3   OH233934   7.824   4.149   6.135 -0.0135 -0.4823 -0.8577
11326TIP3    H133935   7.776   4.068   6.153  0.9108 -1.0745 -1.0223
11326TIP3    H233936   7.867   4.169   6.218  0.3115 -0.5375 -1.0129
11327TIP3   OH233937   1.839   5.422   0.607  0.1771 -0.0888 -0.3754
11327TIP3    H133938   1.744   5.424   0.620  0.2552  0.1607  0.1896
11327TIP3    H233939   1.874   5.395   0.692  0.6930  1.1867 -0.1651
11328TIP3   OH233940   6.398   4.350   0.401 -0.5243 -0.2060 -0.1004
11328TIP3    H133941   6.475   4.310   0.441  0.8159  2.1498 -0.1040
11328TIP3    H233942   6.330   4.342   0.468  0.7046  0.5809  1.3131
11329TIP3   OH233943   7.517   5.416   0.462  0.1412  0.2254 -0.0334
11329TIP3    H133944   7.449   5.375   0.408  0.8388 -1.1958  0.1271
11329TIP3    H233945   7.539   5.496   0.415 -1.9160  0.9304  0.1251
11330TIP3   OH233946   3.513   0.509   6.029  0.5742  0.0538  0.2413
11330TIP3    H133947   3.516   0.414   6.022  1.4475  0.1767 -1.9194
11330TIP3    H233948   3.420   0.531   6.021  0.3427 -0.5999  1.0001
11331TIP3   OH233949   8.017   3.081   6.170  0.0704  0.7598 -0.0658
11331TIP3    H133950   8.048   3.165   6.205  0.4742  0.2688  0.7720
11331TIP3    H233951   8.031   3.088   6.076  2.3537  0.7076  0.2245
11332TIP3   OH233952   8.025   7.163   3.816  0.4080 -0.3596 -0.0072
11332TIP3    H133953   7.981   7.083   3.790  0.5782 -0.4974  0.1275
11332TIP3    H233954   8.093   7.176   3.750  1.1002 -0.9245  0.5768
11333TIP3   OH233955   2.206   6.953   2.259 -0.3740 -0.3092  0.2153
11333TIP3    H133956   2.243   7.034   2.224  1.2251 -1.7309 -1.6196
11333TIP3    H233957   2.275   6.918   2.317 -0.1328 -1.3394 -0.6455
11334TIP3   OH233958   3.564   2.337   0.062 -0.3976 -0.0164  0.3755
11334TIP3    H133959   3.629   2.299   0.120  0.1992 -0.1805 -0.3880
11334TIP3    H233960   3.487   2.280   0.072  0.4690 -1.4426 -0.7277
11335TIP3   OH233961   0.332   6.436   3.105 -0.3405  1.0306  0.3693
11335TIP3    H133962   0.393   6.362   3.100 -0.4357  1.0162 -1.9821
11335TIP3    H233963   0.246   6.398   3.088 -0.3991  1.6022 -0.7683
11336TIP3   OH233964   5.611   7.103   1.834 -0.0439  0.4898  0.1288
11336TIP3    H133965   5.624   7.018   1.875 -0.9673  0.7425  0.9704
11336TIP3    H233966   5.656   7.165   1.892 -0.8994  0.7828  0.4985
11337TIP3   OH233967   2.033   1.531   1.414  0.0872  0.6081  0.1112
11337TIP3    H133968   2.073   1.569   1.492  0.6443  1.1211 -0.4135
11337TIP3    H233969   2.000   1.446   1.443  2.5670 -0.3771  0.2994
11338TIP3   OH233970   2.175   0.969   2.052  0.6778  0.2486  0.0510
11338TIP3    H133971   2.101   1.029   2.039 -0.5558 -1.1774  0.3312
11338TIP3    H233972   2.142   0.884   2.023  2.9794 -0.0161 -2.1367
11339TIP3   OH233973   0.585   7.313   2.188 -0.0798 -0.5967 -0.5205
11339TIP3    H133974   0.603   7.317   2.282 -0.1166  1.6552 -0.5406
11339TIP3    H233975   0.490   7.297   2.183 -0.3979  0.9576 -0.0944
11340TIP3   OH233976   4.738   6.960   1.071  0.0241  0.0874 -0.3705
11340TIP3    H133977   4.754   6.871   1.041 -2.0247 -0.1958 -0.7654
11340TIP3    H233978   4.691   6.950   1.153 -1.1549  0.7751 -0.9425
11341TIP3   OH233979   6.668   3.140   3.662 -0.1885  0.4280 -0.0199
11341TIP3    H133980   6.646   3.204   3.730  0.9814  0.6229  0.2019
11341TIP3    H233981   6.599   3.074   3.667  0.0980  0.2154  1.6506
11342TIP3   OH233982   3.836   4.063   5.905  0.4191  0.1355  0.1121
11342TIP3    H133983   3.827   3.982   5.956 -0.2410  0.7172  0.9536
11342TIP3    H233984   3.867   4.128   5.968  1.1930  0.4933 -0.6134
11343TIP3   OH233985   4.822   6.448   1.404  0.1095  0.1882 -0.3339
11343TIP3    H133986   4.843   6.411   1.319 -0.4197  1.9585 -1.2784
11343TIP3    H233987   4.896   6.505   1.425  0.0246  0.1149  0.1850
11344TIP3   OH233988   1.700   6.955   6.562  0.2303 -0.0814  0.1892
11344TIP3    H133989   1.652   7.034   6.538 -1.1754 -1.2401 -1.0042
11344TIP3    H233990   1.763   6.942   6.491 -1.9479 -1.9070 -1.5395
11345TIP3   OH233991   6.447   1.485   1.680 -0.1852 -0.1083 -0.0937
11345TIP3    H133992   6.457   1.563   1.627 -0.5592 -0.3244 -0.4883
11345TIP3    H233993   6.379   1.434   1.636 -1.9297  0.6046  1.6297
11346TIP3   OH233994   4.804   4.841   6.196  0.5729  0.2088 -0.6461
11346TIP3    H133995   4.861   4.848   6.273  1.2993 -1.5773 -0.9544
11346TIP3    H233996   4.716   4.834   6.232  0.8205  0.2949 -0.0037
11347TIP3   OH233997   4.209   3.898   3.249  0.3859 -0.1622 -0.0027
11347TIP3    H133998   4.207   3.880   3.343 -0.3196  0.0671  0.0273
11347TIP3    H233999   4.298   3.874   3.222  0.6151 -0.1576  0.7339
11348TIP3   OH234000   7.853   2.708   1.369  0.2865  0.8130  0.3892
11348TIP3    H134001   7.876   2.782   1.424 -0.6890  1.2013  0.2988
11348TIP3    H234002   7.770   2.675   1.406  0.6156 -0.1252  0.3293
11349TIP3   OH234003   6.064   0.886   6.027  0.5008  0.5082  0.1628
11349TIP3    H134004   6.127   0.954   6.004  1.2365 -0.2608 -0.1687
11349TIP3    H234005   6.099   0.806   5.986  0.4089 -0.3504  1.6712
11350TIP3   OH234006   3.495   6.899   2.353 -0.1427 -0.0884 -0.0910
11350TIP3    H134007   3.531   6.877   2.267  1.8796 -3.4289  1.4143
11350TIP3    H234008   3.564   6.952   2.393 -0.0485 -0.4865  0.2739
11351TIP3   OH234009   4.804   7.668   5.793  0.5695 -0.2362 -0.4977
11351TIP3    H134010   4.890   7.699   5.822  0.1372  0.0861  0.4705
11351TIP3    H234011   4.801   7.577   5.824 -0.2046  0.3409  1.2322
11352TIP3   OH234012   6.889   1.924   6.556  0.0710  0.2520  0.4574
11352TIP3    H134013   6.969   1.946   6.605 -0.4754  2.0493  0.6226
11352TIP3    H234014   6.878   1.996   6.494 -1.5665  0.1991  0.6358
11353TIP3   OH234015   4.872   0.069   4.327 -0.5642 -0.0339 -0.0143
11353TIP3    H134016   4.944   0.131   4.339 -0.1037 -0.0523 -2.2845
11353TIP3    H234017   4.903  -0.011   4.370  0.4735  0.1768 -0.3315
11354TIP3   OH234018   4.543   1.018   3.259 -0.0864 -0.2443  0.4377
11354TIP3    H134019   4.630   0.978   3.260 -1.4137 -3.4853  0.7059
11354TIP3    H234020   4.501   0.983   3.180 -1.8324 -0.5533  1.4371
11355TIP3   OH234021   2.414   2.359   2.303  0.1009 -1.2602  0.3840
11355TIP3    H134022   2.507   2.337   2.301  0.2486 -0.7067  0.7911
11355TIP3    H234023   2.410   2.449   2.270 -0.2382 -1.1203  0.8023
11356TIP3   OH234024   5.404   3.886   1.112  0.6048  0.2990  0.0377
11356TIP3    H134025   5.406   3.931   1.028  0.0381  2.1689  0.9767
11356TIP3    H234026   5.367   3.800   1.093 -0.2782  0.9867 -1.4905
11357TIP3   OH234027   6.185   3.526   0.271 -0.0332 -0.0869  0.4173
11357TIP3    H134028   6.184   3.577   0.352 -1.3248  1.7180 -0.6635
11357TIP3    H234029   6.124   3.454   0.286 -0.7042  0.5638  0.8658
11358TIP3   OH234030   7.484   6.205   4.555  0.1322  0.0314  0.7740
11358TIP3    H134031   7.413   6.151   4.589  0.5496 -0.1066  1.4440
11358TIP3    H234032   7.531   6.147   4.495  1.1624 -0.7156  2.2173
11359TIP3   OH234033   7.682   2.934   0.331  0.0123 -0.5696 -0.0663
11359TIP3    H134034   7.636   2.865   0.379 -0.6709  1.1607  1.9409
11359TIP3    H234035   7.768   2.938   0.372  0.6859 -1.3188 -1.3358
11360TIP3   OH234036   1.577   3.455   0.945  0.4018  0.5175  0.3155
11360TIP3    H134037   1.569   3.459   0.850 -2.3613 -0.2358  0.4276
11360TIP3    H234038   1.592   3.363   0.964 -3.1811 -0.1120  0.7008
11361TIP3   OH234039   5.322   5.743   6.698  0.1947 -0.0201  0.3667
11361TIP3    H134040   5.334   5.744   6.793  1.6445  0.3304  0.2019
11361TIP3    H234041   5.278   5.826   6.679 -0.0487 -0.0657  0.7224
11362TIP3   OH234042   8.129   7.612   2.250  0.4453  0.1002  0.3458
11362TIP3    H134043   8.077   7.540   2.216  0.1360  0.3760  0.2283
11362TIP3    H234044   8.162   7.657   2.172 -0.7400  1.0780  0.3607
11363TIP3   OH234045   7.271   5.262   2.804  0.2056  0.5999 -0.1664
11363TIP3    H134046   7.357   5.220   2.808 -0.1037 -0.2977 -2.0859
11363TIP3    H234047   7.221   5.219   2.874  0.1603 -1.7453 -1.5325
11364TIP3   OH234048   6.791   5.446   4.359 -0.3005  0.4747  0.3576
11364TIP3    H134049   6.733   5.497   4.303 -1.3695  2.0767  2.7666
11364TIP3    H234050   6.879   5.461   4.323 -0.8998  1.6980 -0.6654
11365TIP3   OH234051   4.754   3.196   5.664 -0.4520  0.3234 -1.0328
11365TIP3    H134052   4.719   3.187   5.575 -0.5694 -0.7741 -0.8852
11365TIP3    H234053   4.683   3.235   5.714 -0.5049  0.6271 -1.3425
11366TIP3   OH234054   8.086   3.653   6.327  0.0790 -0.3086  0.0135
11366TIP3    H134055   8.164   3.627   6.375 -0.3363 -0.1565  0.7951
11366TIP3    H234056   8.015   3.645   6.390 -0.4844 -0.0804 -0.5731
11367TIP3   OH234057   6.409   0.026   4.835  0.1570 -0.4526 -0.2092
11367TIP3    H134058   6.454   0.045   4.753  0.8542  2.2775  0.6679
11367TIP3    H234059   6.316   0.026   4.812  0.3004  0.9908 -0.9505
11368TIP3   OH234060   5.614   7.169   4.259  0.0569 -0.0681  0.4147
11368TIP3    H134061   5.682   7.116   4.217 -0.0409  0.4667 -0.4552
11368TIP3    H234062   5.542   7.108   4.276 -0.1469 -0.1876 -0.7875
11369TIP3   OH234063   6.998   7.455   6.418  0.1267  0.0415  0.3915
11369TIP3    H134064   6.944   7.393   6.370 -0.9998  0.2529  1.3363
11369TIP3    H234065   6.944   7.534   6.424  0.9661  0.6334  0.4539
11370TIP3   OH234066   6.720   0.701   3.613 -0.1247  0.2633  0.2834
11370TIP3    H134067   6.671   0.619   3.609  0.7083 -0.2340 -0.0515
11370TIP3    H234068   6.676   0.759   3.551  0.9538 -0.8889 -1.6619
11371TIP3   OH234069   0.787   0.452   4.422  0.2125 -0.3518  0.1936
11371TIP3    H134070   0.786   0.528   4.481 -0.1908 -0.2726  0.0908
11371TIP3    H234071   0.879   0.430   4.411  0.2588 -1.6958  2.5809
11372TIP3   OH234072   2.394   4.936   3.624  0.0851  0.1233  0.0817
11372TIP3    H134073   2.347   5.014   3.655 -1.9023 -0.4922 -1.2174
11372TIP3    H234074   2.363   4.865   3.680  2.7575  0.3506  2.0370
11373TIP3   OH234075   4.308   4.135   5.334  0.1453  0.1931 -0.0140
11373TIP3    H134076   4.303   4.213   5.279  0.0083 -0.1517 -0.5030
11373TIP3    H234077   4.241   4.148   5.402 -0.2550  0.2560 -0.4168
11374TIP3   OH234078   4.259   0.033   3.463  0.0892  0.0196 -0.2515
11374TIP3    H134079   4.202  -0.023   3.411 -0.6293  0.0380  0.4956
11374TIP3    H234080   4.301   0.091   3.400  0.8415 -1.3285 -1.0504
11375TIP3   OH234081   2.678   1.314   2.659 -0.0997  0.1257  0.1303
11375TIP3    H134082   2.604   1.292   2.602  0.9680 -1.4552 -0.7354
11375TIP3    H234083   2.670   1.253   2.733  0.0734  0.2590  0.2591
11376TIP3   OH234084   4.027   4.423   6.653 -0.0085 -0.3571  0.0771
11376TIP3    H134085   4.070   4.508   6.648  1.2007 -1.0192 -1.6177
11376TIP3    H234086   3.971   4.429   6.731  1.9729  1.0850  1.4973
11377TIP3   OH234087   8.160   1.581   3.567  0.2826 -0.3721 -0.0878
11377TIP3    H134088   8.188   1.489   3.568 -0.6472 -0.6736 -0.8541
11377TIP3    H234089   8.216   1.623   3.632  0.2779 -1.6207  0.7711
11378TIP3   OH234090   5.916   3.076   5.530 -0.1220 -0.2843  0.3764
11378TIP3    H134091   5.995   3.049   5.483 -0.2508 -0.4069  0.2308
11378TIP3    H234092   5.914   3.019   5.608  0.0587 -0.1211  0.5007
11379TIP3   OH234093   1.842   2.924   0.242 -0.4888 -0.2189 -0.3442
11379TIP3    H134094   1.888   2.853   0.196 -1.6635  1.2189 -4.1049
11379TIP3    H234095   1.911   2.987   0.263  0.4986 -2.1081  2.6587
11380TIP3   OH234096   3.780   5.853   2.437 -0.0859 -0.0798  0.3794
11380TIP3    H134097   3.800   5.761   2.453  0.2440  0.1950  1.7390
11380TIP3    H234098   3.859   5.889   2.397 -0.1011 -0.3235  0.1341
11381TIP3   OH234099   4.613   6.940   1.772  0.3934  0.0849 -0.3912
11381TIP3    H134100   4.532   6.987   1.752  0.3505 -0.2050 -0.9121
11381TIP3    H234101   4.681   7.008   1.773 -0.0369  0.5348  1.3343
11382TIP3   OH234102   6.324   7.515   1.912  0.2136 -0.3553  0.5584
11382TIP3    H134103   6.381   7.556   1.977  2.1643 -2.7796  0.5104
11382TIP3    H234104   6.263   7.462   1.963 -0.9041  0.8131  0.5115
11383TIP3   OH234105   8.152   2.861   1.515  0.4006  0.1460  0.6507
11383TIP3    H134106   8.082   2.923   1.492 -0.3182 -0.4942  1.0285
11383TIP3    H234107   8.145   2.853   1.610 -0.8604 -2.0162  0.4306
11384TIP3   OH234108   6.850   0.382   3.646  0.1526 -0.0245 -0.0861
11384TIP3    H134109   6.867   0.293   3.615  1.5673 -0.3237  1.3792
11384TIP3    H234110   6.936   0.425   3.644  0.1107  0.2862  2.1435
11385TIP3   OH234111   0.239   2.587   4.576 -0.3037 -0.4359  0.6507
11385TIP3    H134112   0.147   2.563   4.587 -0.0669 -1.3719  0.6615
11385TIP3    H234113   0.277   2.576   4.663 -0.0681 -0.5825  0.5299
11386TIP3   OH234114   3.603   1.169   4.421  0.1231  0.5431  0.3115
11386TIP3    H134115   3.527   1.155   4.365 -0.1074  0.7067  0.5802
11386TIP3    H234116   3.612   1.088   4.472  0.4839  0.2959 -0.1337
11387TIP3   OH234117   7.649   0.282   5.119  0.5572 -0.0121 -0.0679
11387TIP3    H134118   7.555   0.294   5.127  0.5462  1.1177 -1.4854
11387TIP3    H234119   7.667   0.199   5.163 -0.8605  0.4868  1.5336
11388TIP3   OH234120   1.711   4.332   0.675  0.0211 -0.0899 -0.2966
11388TIP3    H134121   1.803   4.309   0.669  0.1736  0.3648  0.2054
11388TIP3    H234122   1.665   4.248   0.681  0.7516 -0.3987  4.3309
11389TIP3   OH234123   4.585   2.229   5.393 -0.4190 -0.1859  0.4268
11389TIP3    H134124   4.516   2.286   5.359  1.2357  2.0487  0.6007
11389TIP3    H234125   4.615   2.272   5.473  1.5813 -0.7417  0.0289
11390TIP3   OH234126   6.761   5.303   5.749 -0.3472 -0.4070  0.2619
11390TIP3    H134127   6.840   5.258   5.777 -0.2911  0.0534  0.8769
11390TIP3    H234128   6.749   5.277   5.658 -0.5913 -2.0380  0.7353
11391TIP3   OH234129   6.551   2.112   5.188  0.5932 -0.2977 -0.3098
11391TIP3    H134130   6.476   2.132   5.244  1.2172 -1.8104  1.1488
11391TIP3    H234131   6.560   2.189   5.133 -1.0770  0.5720  0.5411
11392TIP3   OH234132   7.813   7.146   2.679 -0.6463 -0.1075 -0.2074
11392TIP3    H134133   7.826   7.230   2.635 -1.3796 -0.0229 -0.2750
11392TIP3    H234134   7.718   7.133   2.678 -0.5688 -0.7351  0.1794
11393TIP3   OH234135   5.454   0.680   1.686  0.3913 -0.0838 -0.2833
11393TIP3    H134136   5.479   0.606   1.740 -0.1291  1.0269  1.5790
11393TIP3    H234137   5.385   0.725   1.735  1.4804  2.2906 -0.7387
11394TIP3   OH234138   3.162   1.723   2.757 -0.6209  0.1052  0.4000
11394TIP3    H134139   3.120   1.805   2.729 -0.5804  0.0518  0.1807
11394TIP3    H234140   3.183   1.678   2.676 -0.7085 -0.1580  0.5231
11395TIP3   OH234141   2.672   6.872   3.440  0.5699  0.3315 -0.0059
11395TIP3    H134142   2.683   6.788   3.485  0.9800  0.5230  0.2547
11395TIP3    H234143   2.577   6.889   3.445  0.7665  1.0797  2.1462
11396TIP3   OH234144   6.400   4.617   0.271  0.1052 -0.0582  0.0659
11396TIP3    H134145   6.346   4.682   0.318  0.3459  0.1083  0.1153
11396TIP3    H234146   6.406   4.543   0.332  1.2863  0.5658  0.7550
11397TIP3   OH234147   7.656   3.116   0.592 -0.4002  1.0032  0.8409
11397TIP3    H134148   7.597   3.044   0.612 -1.2698  1.7805  1.1016
11397TIP3    H234149   7.636   3.183   0.656  0.1017  1.6537  0.3356
11398TIP3   OH234150   0.797   6.583   6.503  0.3131 -0.3278  0.0396
11398TIP3    H134151   0.789   6.510   6.441 -1.2717 -1.0942  1.0781
11398TIP3    H234152   0.752   6.656   6.461  1.5313 -0.0377 -0.8165
11399TIP3   OH234153   2.877   6.249   5.006  0.0950  0.0679  0.2134
11399TIP3    H134154   2.835   6.196   5.074 -0.9203  0.5348 -0.0288
11399TIP3    H234155   2.834   6.334   5.012  0.1105  0.1692 -0.8858
11400TIP3   OH234156   7.792   0.737   3.012  0.0358  0.5126 -0.2042
11400TIP3    H134157   7.821   0.674   2.946  1.1729  0.1894  0.5667
11400TIP3    H234158   7.818   0.822   2.977  3.3825  0.1636  1.0425
11401TIP3   OH234159   1.452   3.651   6.000  0.5112 -0.3630 -0.2995
11401TIP3    H134160   1.533   3.635   6.048  0.5992 -2.7294 -1.1313
11401TIP3    H234161   1.475   3.720   5.938  1.1785  0.7182  1.0937
11402TIP3   OH234162   2.037   0.041   4.850 -0.3955 -0.4587  0.1083
11402TIP3    H134163   1.986   0.098   4.908  0.4892  1.2236 -0.6804
11402TIP3    H234164   2.095  -0.007   4.909 -1.2584 -0.6702  0.8103
11403TIP3   OH234165   4.020   3.981   2.096 -0.7047 -0.3995 -0.2558
11403TIP3    H134166   4.011   4.023   2.182 -0.1571 -1.2014  0.2056
11403TIP3    H234167   4.029   3.888   2.116 -0.1917 -0.5524 -1.1632
11404TIP3   OH234168   2.596   6.895   0.128 -0.1064 -0.5115 -0.0811
11404TIP3    H134169   2.641   6.816   0.098 -0.1775 -0.3780 -0.5468
11404TIP3    H234170   2.553   6.868   0.209 -0.3240 -1.0190 -0.3596
11405TIP3   OH234171   7.436   5.986   2.148 -0.2909 -0.7960  0.2599
11405TIP3    H134172   7.444   5.915   2.085 -0.5424 -0.4400 -0.1755
11405TIP3    H234173   7.346   5.981   2.179 -0.2788 -0.7304  0.3059
11406TIP3   OH234174   5.024   2.871   0.752  0.5871  0.4706 -0.0032
11406TIP3    H134175   4.937   2.908   0.764  1.0420  1.4198  0.5171
11406TIP3    H234176   5.035   2.863   0.657 -0.6846 -1.2302 -0.0444
11407TIP3   OH234177   7.313   0.981   1.199  0.5064 -0.2351  0.2315
11407TIP3    H134178   7.360   0.998   1.117  0.4993  1.6417  0.5605
11407TIP3    H234179   7.225   0.956   1.171 -0.2024  2.5648 -0.4297
11408TIP3   OH234180   4.771   1.804   6.529 -0.5534 -0.2794 -0.4962
11408TIP3    H134181   4.712   1.791   6.603 -0.7231 -1.9814 -0.8869
11408TIP3    H234182   4.855   1.767   6.559 -0.7115 -1.2808 -1.2495
11409TIP3   OH234183   2.213   1.662   5.217 -0.0051  0.1880 -0.5984
11409TIP3    H134184   2.286   1.724   5.219  0.4018 -0.1765 -2.4141
11409TIP3    H234185   2.135   1.716   5.211  0.3225  0.5535 -1.7492
11410TIP3   OH234186   5.579   3.334   4.511  0.1370  0.0824  0.0337
11410TIP3    H134187   5.570   3.358   4.603 -0.4782  1.4274 -0.3584
11410TIP3    H234188   5.629   3.405   4.472  0.6250 -0.6099 -0.6264
11411TIP3   OH234189   4.378   3.593   0.483  0.0215  0.4594  0.1781
11411TIP3    H134190   4.311   3.646   0.439  0.6298 -0.1404 -1.5580
11411TIP3    H234191   4.399   3.642   0.562 -2.0133  0.9765  0.4706
11412TIP3   OH234192   5.318   0.674   1.187  0.0461 -0.0109 -0.3313
11412TIP3    H134193   5.343   0.623   1.264  0.8319 -1.1773 -1.3023
11412TIP3    H234194   5.297   0.607   1.121 -1.6999  0.9476 -0.8071
11413TIP3   OH234195   3.913   7.671   6.277  0.4375 -0.0550 -0.2538
11413TIP3    H134196   3.972   7.731   6.231 -0.3423  0.3150 -0.7944
11413TIP3    H234197   3.832   7.720   6.287  0.8639  0.2493  2.4278
11414TIP3   OH234198   6.898   5.946   3.471 -0.0923 -0.2316 -0.6980
11414TIP3    H134199   6.822   5.959   3.414  0.3055  3.2731 -0.7003
11414TIP3    H234200   6.972   5.979   3.420  1.3842 -2.8779 -0.4089
11415TIP3   OH234201   5.420   3.960   3.250 -0.2167 -0.0844 -0.3775
11415TIP3    H134202   5.488   3.914   3.201  0.5597  0.1847  0.4368
11415TIP3    H234203   5.383   4.022   3.187  0.8453  0.3367 -0.5983
11416TIP3   OH234204   3.797   0.108   3.079  0.2830 -0.2277  0.4824
11416TIP3    H134205   3.867   0.047   3.056  0.3568 -0.1331  0.4536
11416TIP3    H234206   3.843   0.181   3.122  0.2896  0.1893 -0.2171
11417TIP3   OH234207   0.873   3.308   5.296  0.0120 -0.1163  0.0043
11417TIP3    H134208   0.917   3.385   5.262  0.1947  0.2655  1.0607
11417TIP3    H234209   0.944   3.249   5.321 -0.1268 -0.7237 -0.9726
11418TIP3   OH234210   0.755   0.333   1.995  0.5512 -0.2064 -0.6737
11418TIP3    H134211   0.748   0.241   2.020  1.1778 -0.3492 -0.9954
11418TIP3    H234212   0.804   0.373   2.067 -5.0435  1.3314  2.9003
11419TIP3   OH234213   4.327   5.227   4.581  0.0503  0.3297  0.1661
11419TIP3    H134214   4.278   5.164   4.633  0.3960 -0.5474 -0.5447
11419TIP3    H234215   4.261   5.290   4.552 -0.0564  1.1780  2.1132
11420TIP3   OH234216   3.452   7.524   1.972 -0.4889 -0.0028 -0.3023
11420TIP3    H134217   3.491   7.515   2.059 -0.4860  2.2415 -0.0176
11420TIP3    H234218   3.426   7.435   1.949  0.3581 -0.8082  1.5783
11421TIP3   OH234219   5.985   3.472   1.209  0.3710  0.1794 -0.1707
11421TIP3    H134220   5.966   3.534   1.138  0.4870  1.4994  0.8994
11421TIP3    H234221   6.030   3.525   1.275  0.0040 -0.9292  1.0168
11422TIP3   OH234222   7.580   4.514   0.678  0.0004 -0.0341  0.4769
11422TIP3    H134223   7.509   4.458   0.708  0.2383 -0.3022  0.5478
11422TIP3    H234224   7.552   4.603   0.700 -0.8424 -0.0305 -0.5886
11423TIP3   OH234225   7.689   2.533   4.836  0.0136 -0.1757 -0.5374
11423TIP3    H134226   7.640   2.538   4.918  0.8283 -1.3798  0.0693
11423TIP3    H234227   7.687   2.440   4.813 -0.3075  0.1712 -1.9602
11424TIP3   OH234228   0.236   2.611   3.710 -0.2904  0.8768 -0.2581
11424TIP3    H134229   0.203   2.680   3.767  0.6878 -0.8028  2.5709
11424TIP3    H234230   0.172   2.540   3.719  0.4217  0.2024 -0.3853
11425TIP3   OH234231   3.627   3.999   5.502 -0.2902 -0.1623  0.4266
11425TIP3    H134232   3.688   3.957   5.563 -0.0188 -1.1761 -0.5107
11425TIP3    H234233   3.683   4.055   5.448 -0.4647  0.3834  0.8106
11426TIP3   OH234234   8.157   6.543   0.791 -0.1447  0.5078 -0.7340
11426TIP3    H134235   8.237   6.490   0.786  0.3056  1.0022  0.7236
11426TIP3    H234236   8.130   6.538   0.883 -1.0319  1.4445 -0.9179
11427TIP3   OH234237   0.420   5.384   4.214  0.2698  0.0041 -0.8150
11427TIP3    H134238   0.354   5.395   4.283  0.1291  2.2286 -1.2151
11427TIP3    H234239   0.371   5.348   4.140  0.1694 -1.2501 -0.1571
11428TIP3   OH234240   5.802   4.112   6.334  0.1614  0.0938  0.3968
11428TIP3    H134241   5.775   4.155   6.253 -1.6881  0.2069  1.0346
11428TIP3    H234242   5.845   4.031   6.306 -0.0209  0.3741 -0.7048
11429TIP3   OH234243   1.514   3.836   6.322 -0.9023  0.3514  0.0654
11429TIP3    H134244   1.425   3.846   6.358 -0.8448  3.8340 -0.4652
11429TIP3    H234245   1.511   3.880   6.237  1.2039  0.0245 -0.2300
11430TIP3   OH234246   2.934   5.766   6.632  0.6030  0.2837  0.7228
11430TIP3    H134247   2.993   5.744   6.560  0.7278  0.0567  0.8919
11430TIP3    H234248   2.929   5.686   6.684  2.6248  1.1694  2.4536
11431TIP3   OH234249   3.106   6.110   3.166 -0.1260  0.2254  0.1385
11431TIP3    H134250   3.066   6.087   3.082  1.0273  0.2522 -0.4428
11431TIP3    H234251   3.186   6.057   3.168 -0.6417 -0.5461  1.6918
11432TIP3   OH234252   6.120   1.544   1.726  0.6279  0.2760  0.4025
11432TIP3    H134253   6.113   1.587   1.641  0.2641  0.0634  0.3245
11432TIP3    H234254   6.170   1.606   1.780  0.8303  0.4256  0.0475
11433TIP3   OH234255   1.186   1.720   5.731 -0.5262 -0.4667  0.3595
11433TIP3    H134256   1.242   1.675   5.668 -0.9775 -1.4421  0.6413
11433TIP3    H234257   1.233   1.801   5.751 -0.2410 -0.2714 -1.0061
11434TIP3   OH234258   7.941   5.205   6.348  0.6119 -0.1199 -0.1073
11434TIP3    H134259   8.028   5.173   6.373 -0.1915 -0.9539  1.7492
11434TIP3    H234260   7.903   5.133   6.297  0.7732 -0.0049 -0.3912
11435TIP3   OH234261   4.376   3.123   5.515  0.0775  0.3655  0.2399
11435TIP3    H134262   4.285   3.104   5.539  0.2942  0.0750  0.8659
11435TIP3    H234263   4.427   3.084   5.586  0.6477  1.2787  0.3363
11436TIP3   OH234264   2.991   1.461   3.495  0.3316  0.0884 -0.4206
11436TIP3    H134265   2.945   1.469   3.578 -1.7155  0.4176 -1.5208
11436TIP3    H234266   3.008   1.367   3.485 -0.4263 -0.0801 -0.1553
11437TIP3   OH234267   0.291   0.229   5.804 -0.2874 -0.8144 -0.1726
11437TIP3    H134268   0.260   0.292   5.869  2.0863 -0.1229  0.3627
11437TIP3    H234269   0.374   0.264   5.773 -0.4756 -2.0671 -2.2681
11438TIP3   OH234270   1.774   0.669   4.834 -0.2849 -0.1688 -0.3164
11438TIP3    H134271   1.684   0.701   4.836  0.0383  0.8047 -0.7221
11438TIP3    H234272   1.792   0.653   4.742  1.0420  2.9548 -0.7263
11439TIP3   OH234273   2.700   6.800   1.172  0.1283 -0.6298  0.5635
11439TIP3    H134274   2.698   6.894   1.151 -0.9196 -1.0004 -1.1220
11439TIP3    H234275   2.793   6.779   1.177  0.3809  0.3126  0.1207
11440TIP3   OH234276   0.807   4.166   1.802  0.2769 -0.6213 -0.0956
11440TIP3    H134277   0.744   4.128   1.741  1.4061  0.6974 -2.1905
11440TIP3    H234278   0.754   4.189   1.879 -1.2547 -2.0476 -0.6502
11441TIP3   OH234279   8.117   3.279   4.443  0.2954  0.5403 -0.1625
11441TIP3    H134280   8.203   3.261   4.481 -0.5385 -0.5002  1.3187
11441TIP3    H234281   8.070   3.328   4.510 -0.2664  1.1652 -0.9858
11442TIP3   OH234282   4.493   1.339   1.513 -0.1145 -0.3005 -0.2687
11442TIP3    H134283   4.518   1.250   1.489  2.5063  0.5982 -1.1754
11442TIP3    H234284   4.462   1.378   1.431 -0.6188 -0.1510 -0.0133
11443TIP3   OH234285   0.782   4.261   6.060 -0.2062 -0.1734 -0.2248
11443TIP3    H134286   0.821   4.185   6.102 -0.1735 -1.0903 -1.8382
11443TIP3    H234287   0.850   4.328   6.063  1.5188 -1.6471 -2.7353
11444TIP3   OH234288   6.462   7.400   6.588 -0.0851  0.3535  0.5977
11444TIP3    H134289   6.451   7.461   6.661  0.7610 -0.8255  1.7617
11444TIP3    H234290   6.400   7.329   6.606  0.8137 -0.4288  0.7318
11445TIP3   OH234291   6.667   0.102   3.416 -0.4605  0.6127 -0.2779
11445TIP3    H134292   6.664   0.147   3.332  2.1005  1.2019 -0.1179
11445TIP3    H234293   6.592   0.042   3.413 -1.5655  1.9606 -2.1515
11446TIP3   OH234294   6.938   7.029   4.217 -0.3328  0.3230  0.7041
11446TIP3    H134295   7.000   7.066   4.280  1.1849  0.9927 -1.0982
11446TIP3    H234296   6.993   6.985   4.152 -1.7621  0.5841 -0.7490
11447TIP3   OH234297   3.519   1.442   3.983  0.3870 -0.3222  0.5806
11447TIP3    H134298   3.471   1.400   3.912  1.0415  1.8710 -1.2634
11447TIP3    H234299   3.610   1.415   3.971  0.2894 -1.1549  1.5542
11448TIP3   OH234300   0.496   0.459   6.183 -0.2964  0.3026  0.8571
11448TIP3    H134301   0.481   0.547   6.149  0.7347  0.1669  0.0242
11448TIP3    H234302   0.527   0.473   6.273  0.7951  0.8475  0.4107
11449TIP3   OH234303   0.656   3.160   3.932 -0.6990  0.2191 -0.4650
11449TIP3    H134304   0.633   3.102   4.004 -1.0723  1.6783  0.6310
11449TIP3    H234305   0.591   3.141   3.864 -0.8300 -0.6040 -0.1205
11450TIP3   OH234306   1.481   1.635   1.874  0.4429 -0.0209  0.4001
11450TIP3    H134307   1.530   1.695   1.819  2.1210  1.5102  3.3050
11450TIP3    H234308   1.406   1.686   1.904  0.5993 -0.1537  1.0331
11451TIP3   OH234309   0.795   6.250   6.745  0.8686  0.0298  0.1472
11451TIP3    H134310   0.801   6.272   6.652 -3.1384  1.6312  0.0496
11451TIP3    H234311   0.818   6.331   6.790  2.8509 -0.7579  0.6414
11452TIP3   OH234312   7.739   1.558   2.929 -0.2696  0.0123 -0.6152
11452TIP3    H134313   7.689   1.550   3.010 -1.4541  3.0953 -0.9026
11452TIP3    H234314   7.808   1.621   2.949 -0.7332  1.0221 -2.0257
11453TIP3   OH234315   4.176   5.656   6.341  0.1505  0.3113 -0.2539
11453TIP3    H134316   4.165   5.586   6.405  0.5201 -0.3709 -0.9170
11453TIP3    H234317   4.267   5.685   6.353 -0.1828  1.1367  0.4509
11454TIP3   OH234318   5.137   7.458   5.549  0.5612 -0.0596 -0.1246
11454TIP3    H134319   5.057   7.506   5.528 -0.6086 -0.9703  1.9200
11454TIP3    H234320   5.132   7.378   5.497  0.3543  0.0924 -0.3365
11455TIP3   OH234321   1.551   5.231   6.634  0.1527  0.0256 -0.1680
11455TIP3    H134322   1.511   5.270   6.556 -0.9591  0.6541  0.6746
11455TIP3    H234323   1.477   5.193   6.682  0.5936  0.9254  1.2799
11456TIP3   OH234324   4.348   2.784   5.785 -0.3460  0.2900 -0.5523
11456TIP3    H134325   4.277   2.801   5.848  0.0990  0.2738 -0.0402
11456TIP3    H234326   4.304   2.745   5.709 -0.9212  0.5293 -0.3470
11457TIP3   OH234327   6.523   3.964   3.382 -0.4467  0.6404  0.0615
11457TIP3    H134328   6.596   3.974   3.443 -0.5593 -1.1140  0.5483
11457TIP3    H234329   6.555   4.002   3.300 -0.3366  3.1542  1.1833
11458TIP3   OH234330   2.464   6.153   3.469  0.5320 -0.3484  0.0594
11458TIP3    H134331   2.417   6.116   3.394  0.0107  1.3406 -0.5019
11458TIP3    H234332   2.401   6.214   3.508  1.3811  0.0257  0.8714
11459TIP3   OH234333   5.985   4.365   6.270  0.6127  0.1222 -0.2636
11459TIP3    H134334   6.065   4.318   6.246  1.2249  0.6206  0.7385
11459TIP3    H234335   5.921   4.338   6.204  1.8976  0.5959 -1.7840
11460TIP3   OH234336   6.173   5.761   6.052  0.7567 -0.1201 -0.3427
11460TIP3    H134337   6.175   5.856   6.065  2.5787 -0.2251  0.4429
11460TIP3    H234338   6.228   5.726   6.122 -3.4460 -2.1914  2.3782
11461TIP3   OH234339   1.136   2.779   1.560 -0.4863  0.4731 -0.1022
11461TIP3    H134340   1.222   2.818   1.546 -0.6541  0.9036  0.0695
11461TIP3    H234341   1.076   2.853   1.566 -0.4302  0.4041  3.0389
11462TIP3   OH234342   4.785   0.611   5.805 -0.2270 -0.2014  0.5394
11462TIP3    H134343   4.716   0.650   5.859  1.4240  1.0446  1.8481
11462TIP3    H234344   4.815   0.682   5.749 -0.2882 -0.8702 -0.3745
11463TIP3   OH234345   5.252   3.960   1.602  0.2016  0.1347 -0.0485
11463TIP3    H134346   5.158   3.956   1.620 -0.1670 -0.1099 -1.7605
11463TIP3    H234347   5.273   3.871   1.572  1.1720 -0.0412  1.1128
11464TIP3   OH234348   7.314  -0.014   0.276  0.0536 -0.6650  0.4617
11464TIP3    H134349   7.282   0.074   0.297  1.2009 -0.0159 -0.3497
11464TIP3    H234350   7.244  -0.053   0.223  0.8032  1.0169 -1.9617
11465TIP3   OH234351   6.544   2.922   2.245  0.1264 -0.3467  0.1458
11465TIP3    H134352   6.497   2.855   2.196 -0.4408  0.6536 -0.7220
11465TIP3    H234353   6.622   2.940   2.192 -0.5909  0.8811 -0.5284
11466TIP3   OH234354   1.163   3.210   1.494  0.7632 -0.3482  0.3581
11466TIP3    H134355   1.172   3.212   1.399  0.2608  0.3826  0.3178
11466TIP3    H234356   1.184   3.299   1.523 -2.7877  0.5757  0.5404
11467TIP3   OH234357   2.711   5.593   6.093 -0.4406 -0.2764  0.5861
11467TIP3    H134358   2.799   5.618   6.066  0.3870  0.1892  3.3886
11467TIP3    H234359   2.708   5.498   6.083 -0.0288 -0.1893 -0.4965
11468TIP3   OH234360   7.136   7.679   5.134  0.3565 -0.2293  0.6356
11468TIP3    H134361   7.211   7.658   5.189  1.6362  1.0872 -0.5252
11468TIP3    H234362   7.144   7.622   5.058 -1.1899 -1.7686  1.5631
11469TIP3   OH234363   7.280   0.132   6.283  0.3121 -0.0776 -0.3661
11469TIP3    H134364   7.207   0.119   6.343 -1.3824  0.9441 -2.0968
11469TIP3    H234365   7.291   0.048   6.238 -0.7327  0.1217 -1.0369
11470TIP3   OH234366   1.271   5.757   1.720 -0.0311 -0.4541 -0.3639
11470TIP3    H134367   1.191   5.759   1.666  0.0742 -1.8831 -0.6127
11470TIP3    H234368   1.241   5.778   1.808 -0.6951 -0.9633 -0.4574
11471TIP3   OH234369   3.969   6.729   5.723 -0.1109 -0.4300  0.1573
11471TIP3    H134370   3.968   6.692   5.811 -1.5992  1.9355  1.2219
11471TIP3    H234371   3.877   6.729   5.696  0.2603 -0.5523 -1.1661
11472TIP3   OH234372   3.425   0.801   1.439  0.2800 -0.1966 -0.1117
11472TIP3    H134373   3.479   0.852   1.499  0.2336  0.2610 -0.4587
11472TIP3    H234374   3.338   0.842   1.443  0.2357 -0.2651 -0.3683
11473TIP3   OH234375   2.528   0.938   1.206  0.3313 -0.2082 -0.1319
11473TIP3    H134376   2.549   0.900   1.121  0.1029 -0.6663  0.0103
11473TIP3    H234377   2.443   0.981   1.192 -0.1726 -1.0977  0.0942
11474TIP3   OH234378   0.937   0.169   4.336  0.0966 -0.3005 -0.1780
11474TIP3    H134379   0.849   0.173   4.373  0.6314  1.5976  1.0180
11474TIP3    H234380   0.994   0.203   4.404  1.6347 -0.4134 -1.3424
11475TIP3   OH234381   1.025   2.178   4.847  0.6998  0.4664 -0.1999
11475TIP3    H134382   0.970   2.100   4.857  1.2598  0.2117  1.0074
11475TIP3    H234383   1.002   2.233   4.921  0.2302  1.5270 -1.1063
11476TIP3   OH234384   1.742   0.651   5.125  0.1207 -0.3564  0.4111
11476TIP3    H134385   1.785   0.681   5.045  1.9029 -0.3854  1.3202
11476TIP3    H234386   1.682   0.722   5.148  0.5806  0.2424 -0.2184
11477TIP3   OH234387   7.033   1.859   1.165 -0.0358  0.3176 -0.0020
11477TIP3    H134388   7.051   1.769   1.137  2.4522  1.2735 -1.9989
11477TIP3    H234389   7.109   1.883   1.219  0.3633  1.7308 -1.0931
11478TIP3   OH234390   3.860   7.324   2.531 -0.5926  0.1393 -0.1008
11478TIP3    H134391   3.846   7.339   2.624 -2.9328  0.9772 -0.5002
11478TIP3    H234392   3.954   7.309   2.522 -0.4958 -1.2932  2.5443
11479TIP3   OH234393   3.839   3.494   0.287  0.2423 -0.1130  0.0131
11479TIP3    H134394   3.832   3.399   0.292  0.7199 -0.1441  0.1352
11479TIP3    H234395   3.755   3.522   0.250  0.5184 -0.6678 -1.0936
11480TIP3   OH234396   4.698   6.750   3.549  0.2619  0.3153  0.0785
11480TIP3    H134397   4.700   6.821   3.485 -1.2802  2.6276  2.4183
11480TIP3    H234398   4.734   6.788   3.629  3.1606 -2.7951  0.4675
11481TIP3   OH234399   4.158   1.314   4.928  0.0548 -0.3949  0.0986
11481TIP3    H134400   4.167   1.324   4.833 -2.3930 -1.1836 -0.2961
11481TIP3    H234401   4.080   1.365   4.950 -1.0488 -2.4461  1.1951
11482TIP3   OH234402   7.307   6.697   5.221 -0.5999 -0.2235 -0.0902
11482TIP3    H134403   7.392   6.701   5.176 -0.7019  0.1402 -0.2566
11482TIP3    H234404   7.310   6.770   5.283 -0.1835 -1.1484  0.9898
11483TIP3   OH234405   7.287   2.059   3.047  0.5949 -0.0610 -0.3827
11483TIP3    H134406   7.324   2.054   3.136  0.9128 -2.2204 -0.5790
11483TIP3    H234407   7.256   2.149   3.039  0.7608  0.2508  1.8405
11484TIP3   OH234408   0.482   6.999   3.075  0.5378 -0.5859  0.3897
11484TIP3    H134409   0.489   7.088   3.112 -0.1158  0.3011 -1.5089
11484TIP3    H234410   0.389   6.978   3.082  0.8599 -1.6841  1.9576
11485TIP3   OH234411   5.347   3.449   1.430  0.1799 -0.2235 -0.0843
11485TIP3    H134412   5.374   3.388   1.361 -1.0028  0.4244 -1.1562
11485TIP3    H234413   5.257   3.424   1.451 -0.0922  0.7159 -0.0640
11486TIP3   OH234414   6.488   1.024   6.706  0.1555  0.0098  0.5990
11486TIP3    H134415   6.575   1.006   6.668  0.4470 -1.0373  1.7196
11486TIP3    H234416   6.479   0.961   6.776 -0.7368  1.3475  1.7381
11487TIP3   OH234417   0.152   2.483   4.846  0.0582  0.4416 -0.3114
11487TIP3    H134418   0.083   2.492   4.780  0.3420 -1.5974 -0.9489
11487TIP3    H234419   0.151   2.390   4.871  2.6268  0.2927 -0.4457
11488TIP3   OH234420   4.937   2.388   1.106  0.5425 -0.3946  0.2054
11488TIP3    H134421   4.857   2.339   1.128  0.6186 -0.7276 -0.2310
11488TIP3    H234422   4.918   2.478   1.132 -0.5743 -0.1480 -1.3001
11489TIP3   OH234423   2.825   5.222   0.993 -0.0621 -0.6249 -0.6632
11489TIP3    H134424   2.776   5.152   1.036  0.3775 -0.7577 -0.3695
11489TIP3    H234425   2.894   5.177   0.944  1.3607 -0.3517  0.9688
11490TIP3   OH234426   3.146   5.050   5.927 -0.2301  0.0382  0.4125
11490TIP3    H134427   3.145   4.973   5.983  0.1097 -0.0369  0.3202
11490TIP3    H234428   3.222   5.101   5.957 -0.3589  0.2583  0.3701
11491TIP3   OH234429   7.514   5.707   5.239 -0.2871 -0.0127  0.3213
11491TIP3    H134430   7.503   5.612   5.245 -2.0908  0.0043 -1.5891
11491TIP3    H234431   7.509   5.726   5.146  1.2552  1.8734  0.5553
11492TIP3   OH234432   0.093   3.848   6.720 -0.2986 -0.5126  0.5410
11492TIP3    H134433   0.020   3.889   6.674  0.5626  0.9107  0.3754
11492TIP3    H234434   0.170   3.870   6.667  0.3118 -1.5956  0.9476
11493TIP3   OH234435   5.127   4.627   1.843  0.0765 -0.0897 -0.0366
11493TIP3    H134436   5.157   4.710   1.807 -0.1005  0.2615  0.6091
11493TIP3    H234437   5.102   4.647   1.933 -1.0341 -0.6053 -0.2045
11494TIP3   OH234438   5.398   6.097   3.014 -0.9007  0.3744  0.2414
11494TIP3    H134439   5.427   6.016   2.973 -0.5987 -0.2505  1.6381
11494TIP3    H234440   5.464   6.115   3.081  0.2403  2.9542 -1.4139
11495TIP3   OH234441   3.209   3.201   5.121  0.0094  0.2622 -0.1540
11495TIP3    H134442   3.230   3.113   5.155 -0.9027 -0.4707 -1.4214
11495TIP3    H234443   3.180   3.250   5.198 -2.7418 -1.5782  0.1157
11496TIP3   OH234444   8.103   5.254   5.161 -0.7012 -0.5983 -0.7180
11496TIP3    H134445   8.185   5.270   5.116 -1.0126  0.6743 -0.8534
11496TIP3    H234446   8.113   5.166   5.198  0.7027 -0.4687 -0.7478
11497TIP3   OH234447   3.665   4.077   4.182 -0.2396 -0.5364  0.7043
11497TIP3    H134448   3.691   3.985   4.184 -0.1512 -0.5768 -1.0510
11497TIP3    H234449   3.577   4.077   4.145  0.3418  0.1609 -0.7723
11498TIP3   OH234450   0.941   1.316   5.813 -0.1321 -0.0971  0.1789
11498TIP3    H134451   0.984   1.361   5.740 -1.3290  0.5722 -0.1446
11498TIP3    H234452   0.872   1.265   5.772  0.3958 -1.2393  0.6782
11499TIP3   OH234453   3.017   5.491   6.704  0.2361 -0.0276  0.2486
11499TIP3    H134454   2.961   5.414   6.716  0.2517 -0.0971 -0.1091
11499TIP3    H234455   3.104   5.462   6.730 -0.0862  0.3993  1.8796
11500TIP3   OH234456   6.587   5.208   6.043 -0.5185 -0.2883 -0.6271
11500TIP3    H134457   6.577   5.282   5.983 -2.6028  1.6007  1.8415
11500TIP3    H234458   6.501   5.165   6.043 -0.4386 -0.4792  0.6937
11501TIP3   OH234459   1.406   0.313   2.012 -0.6004 -0.4952 -0.4990
11501TIP3    H134460   1.436   0.231   1.973  1.1064  0.3247 -0.9757
11501TIP3    H234461   1.314   0.318   1.986 -1.0552 -2.7302  0.4085
11502TIP3   OH234462   7.034   2.666   5.590  0.3648  0.0639 -0.2537
11502TIP3    H134463   7.041   2.622   5.674 -0.0124  0.6226  0.0779
11502TIP3    H234464   6.991   2.749   5.609  3.4156  1.8453 -0.3962
11503TIP3   OH234465   2.630   5.029   0.450  0.2688  0.1693  0.0077
11503TIP3    H134466   2.543   4.990   0.441 -0.4422  1.2595  1.6447
11503TIP3    H234467   2.686   4.976   0.394 -1.5499 -0.2160 -1.5589
11504TIP3   OH234468   4.191   3.373   2.465 -0.7722 -0.3670  0.3801
11504TIP3    H134469   4.235   3.444   2.420 -0.1468 -0.0574  1.4383
11504TIP3    H234470   4.190   3.400   2.557 -0.6728 -1.6379  0.7767
11505TIP3   OH234471   7.130   4.112   5.374 -0.4261  1.0309 -0.1701
11505TIP3    H134472   7.156   4.020   5.363 -2.0338  0.6982 -1.6280
11505TIP3    H234473   7.211   4.161   5.362 -0.1501  0.0096 -3.6133
11506TIP3   OH234474   5.411   3.612   4.859  0.3469 -0.7857  0.8400
11506TIP3    H134475   5.446   3.694   4.823  0.8235 -1.2636  0.2023
11506TIP3    H234476   5.335   3.592   4.805  0.3246 -0.8495  0.8941
11507TIP3   OH234477   4.325   1.710   3.391 -0.8525  0.2458  0.6593
11507TIP3    H134478   4.376   1.774   3.340 -0.0115 -0.7020  0.2812
11507TIP3    H234479   4.345   1.731   3.482 -0.6670  0.5837  0.5448
11508TIP3   OH234480   1.023   2.053   1.617 -0.0905 -0.1249 -0.5765
11508TIP3    H134481   1.055   2.136   1.582  2.8590  0.1020  2.1715
11508TIP3    H234482   0.995   2.073   1.706 -0.0467 -1.9258 -0.1199
11509TIP3   OH234483   0.608   5.049   5.103  0.0453  0.4866  0.0277
11509TIP3    H134484   0.616   4.953   5.105  0.6213  0.5382  0.5362
11509TIP3    H234485   0.649   5.075   5.021 -0.8379  0.2395 -0.5012
11510TIP3   OH234486   4.572   2.917   1.478  0.0929  0.1410 -0.0567
11510TIP3    H134487   4.664   2.942   1.472  0.4180 -1.3215 -3.3359
11510TIP3    H234488   4.524   2.995   1.450  0.3675  0.5218  0.5041
11511TIP3   OH234489   3.592   1.633   0.063  0.3137 -0.1998 -0.5561
11511TIP3    H134490   3.637   1.709   0.100 -1.1849 -0.3402  1.7409
11511TIP3    H234491   3.609   1.638  -0.031  0.6374  2.6939 -0.4117
11512TIP3   OH234492   7.989   4.249   4.121  0.2994 -0.4281  0.6979
11512TIP3    H134493   7.982   4.337   4.159 -1.2856 -0.8836  1.5473
11512TIP3    H234494   7.998   4.264   4.027  0.2587  0.6566  0.8528
11513TIP3   OH234495   1.447   3.067   5.001 -0.3101 -0.1973  0.2845
11513TIP3    H134496   1.456   2.984   4.954  3.2629 -0.3194  0.8885
11513TIP3    H234497   1.493   3.131   4.946 -1.3265  0.9955  0.7600
11514TIP3   OH234498   4.914   5.798   1.528  0.5940  0.2739  0.1852
11514TIP3    H134499   4.838   5.823   1.581  0.0712  0.1646 -0.4832
11514TIP3    H234500   4.929   5.873   1.471 -0.5972 -0.6105 -1.3993
11515TIP3   OH234501   7.124   7.214   6.059  0.1024  0.0349  0.2010
11515TIP3    H134502   7.087   7.190   5.974  0.5974  0.5935 -0.1723
11515TIP3    H234503   7.049   7.248   6.109 -0.0615  0.3376 -0.2476
11516TIP3   OH234504   2.549   4.719   6.651  0.2628  0.1909  0.2998
11516TIP3    H134505   2.510   4.805   6.639  0.7698  0.5113  0.8306
11516TIP3    H234506   2.639   4.729   6.621  0.4597 -0.0184  0.8028
11517TIP3   OH234507   3.438   3.662   5.719 -0.0872 -0.2540 -0.0820
11517TIP3    H134508   3.346   3.665   5.691 -0.8873 -0.0422  2.3541
11517TIP3    H234509   3.463   3.753   5.731  0.3976 -0.3228 -0.5181
11518TIP3   OH234510   2.710   0.532   0.950 -0.0855  0.0401 -0.6170
11518TIP3    H134511   2.777   0.476   0.989 -0.4609  1.2000  1.9029
11518TIP3    H234512   2.713   0.512   0.856  2.5403 -1.2016 -0.3493
11519TIP3   OH234513   7.025   5.915   2.485 -0.4271 -0.7614  0.2841
11519TIP3    H134514   6.947   5.958   2.448 -1.4309 -2.4798  0.2842
11519TIP3    H234515   7.002   5.899   2.577  1.1600  1.4248  1.1470
11520TIP3   OH234516   1.007   0.128   5.876  0.1285  0.0597  0.3754
11520TIP3    H134517   1.011   0.139   5.971 -2.3416 -0.2951  0.5757
11520TIP3    H234518   1.072   0.060   5.858  0.9288  0.4086  1.7296
11521TIP3   OH234519   2.668   7.395   1.481  0.1743  0.1824  0.1953
11521TIP3    H134520   2.737   7.417   1.543  1.2779  0.1704 -0.9838
11521TIP3    H234521   2.707   7.410   1.395 -0.7242 -1.4766 -0.5462
11522TIP3   OH234522   8.078   2.436   0.540 -0.1301 -0.0940  0.1992
11522TIP3    H134523   8.149   2.391   0.586 -0.7297  1.4761  2.9179
11522TIP3    H234524   7.999   2.387   0.564 -0.1879 -0.8896 -1.5041
11523TIP3   OH234525   4.493   6.757   5.268  0.0328 -0.4420 -0.2730
11523TIP3    H134526   4.567   6.709   5.231 -0.4934 -1.3300 -0.1988
11523TIP3    H234527   4.479   6.716   5.353  0.0778  0.3842  0.1363
11524TIP3   OH234528   2.165   2.119   4.809 -0.1342 -0.5601  0.3235
11524TIP3    H134529   2.115   2.199   4.822 -0.2221 -0.6040  0.2557
11524TIP3    H234530   2.115   2.069   4.745  1.3501  0.5919 -1.8755
11525TIP3   OH234531   1.998   1.208   4.849 -0.1073  0.2748  0.2858
11525TIP3    H134532   1.911   1.191   4.813  0.0878  0.3992 -0.2425
11525TIP3    H234533   2.022   1.294   4.815  0.4883 -0.0297 -0.0750
11526TIP3   OH234534   7.097   1.324   4.000 -0.5408  0.4911  0.2413
11526TIP3    H134535   7.060   1.316   3.912 -0.0332 -1.1541  0.1373
11526TIP3    H234536   7.024   1.352   4.055 -0.6032  2.6809 -0.8559
11527TIP3   OH234537   3.717   4.947   1.866 -0.2481  0.0513  0.0079
11527TIP3    H134538   3.657   4.872   1.865  0.3692 -0.4871  1.3143
11527TIP3    H234539   3.700   4.990   1.949 -0.5073  1.3133 -0.6816
11528TIP3   OH234540   6.561   5.643   5.609  0.6763 -0.0427  0.0219
11528TIP3    H134541   6.507   5.713   5.645  0.8148 -0.1917  0.5397
11528TIP3    H234542   6.635   5.687   5.568  0.4050  0.1416 -0.2708
11529TIP3   OH234543   5.525   3.500   4.025 -0.2016  0.0281 -0.3304
11529TIP3    H134544   5.489   3.589   4.030 -0.9819 -0.0812 -2.5688
11529TIP3    H234545   5.449   3.443   4.027 -0.1096 -0.3179 -2.9199
11530TIP3   OH234546   7.389   2.686   1.647 -0.4399  0.0080 -0.3177
11530TIP3    H134547   7.350   2.665   1.562 -0.1622 -1.7748 -0.0400
11530TIP3    H234548   7.314   2.688   1.707 -0.3114 -2.5866  0.0590
11531TIP3   OH234549   0.052   4.443   6.201 -0.0619  0.3389 -0.3474
11531TIP3    H134550  -0.020   4.402   6.249  0.3204  1.7649  1.5788
11531TIP3    H234551   0.035   4.422   6.109 -1.4305 -1.6113  0.2896
11532TIP3   OH234552   2.770   7.776   5.641  0.1618 -0.3023  0.5435
11532TIP3    H134553   2.777   7.686   5.672 -0.2574 -0.7853 -0.6895
11532TIP3    H234554   2.682   7.804   5.666  0.4900 -0.0289  1.4194
11533TIP3   OH234555   7.185   0.392   0.733  0.1079 -0.3519 -0.4357
11533TIP3    H134556   7.164   0.486   0.726 -0.0930 -0.4871 -1.7227
11533TIP3    H234557   7.178   0.359   0.644  3.0008 -1.0202 -0.5130
11534TIP3   OH234558   3.104   7.808   3.933 -0.0867 -0.3190 -0.1786
11534TIP3    H134559   3.052   7.729   3.926 -0.3857 -0.4732  2.6944
11534TIP3    H234560   3.040   7.879   3.937  0.0320 -0.2401  0.4256
11535TIP3   OH234561   2.163   1.799   4.245 -0.4374 -0.5462  0.6809
11535TIP3    H134562   2.103   1.822   4.175 -2.3788 -1.4747  1.9421
11535TIP3    H234563   2.237   1.758   4.201 -0.5423  0.9152 -0.9579
11536TIP3   OH234564   1.572   4.255   3.967 -0.4403 -0.6778  0.3472
11536TIP3    H134565   1.643   4.312   3.994 -1.8761  0.0642  2.9154
11536TIP3    H234566   1.551   4.282   3.877  0.3670  1.3246  0.7245
11537TIP3   OH234567   2.325   4.340   2.524 -0.8993 -0.4312 -0.0966
11537TIP3    H134568   2.388   4.365   2.456  0.0116 -1.3421  0.3790
11537TIP3    H234569   2.321   4.245   2.519  0.6916 -0.7139  2.3546
11538TIP3   OH234570   0.757   3.554   0.318 -0.2584  0.2998  0.4197
11538TIP3    H134571   0.757   3.510   0.233 -2.6931 -0.8836  0.9398
11538TIP3    H234572   0.736   3.645   0.298 -2.2266 -0.2398 -0.2100
11539TIP3   OH234573   3.862   3.950   3.812  0.7431  0.2520 -0.8120
11539TIP3    H134574   3.860   3.861   3.847  1.4656  0.9829  1.2065
11539TIP3    H234575   3.774   3.964   3.778 -0.2370 -0.3124  1.3418
11540TIP3   OH234576   1.691   6.773   1.777 -1.0296  0.1173 -0.5881
11540TIP3    H134577   1.701   6.809   1.689 -0.0890 -2.2685 -1.5386
11540TIP3    H234578   1.723   6.683   1.770  1.4829  0.5802  2.7796
11541TIP3   OH234579   0.883   6.808   4.567  0.6713 -0.3036 -0.3424
11541TIP3    H134580   0.951   6.868   4.598  1.3012 -0.8394 -0.6409
11541TIP3    H234581   0.920   6.721   4.583 -0.7668 -0.6581  1.3052
11542TIP3   OH234582   5.360   7.658   5.251 -0.6683  0.2663  0.4119
11542TIP3    H134583   5.379   7.565   5.246 -1.3038  0.0746  1.2187
11542TIP3    H234584   5.297   7.674   5.182 -0.6764  0.0646  0.3730
11543TIP3   OH234585   8.129   2.668   5.699 -0.4718  0.2186  0.2627
11543TIP3    H134586   8.204   2.648   5.755  0.2262  1.2789 -0.2812
11543TIP3    H234587   8.139   2.760   5.676 -2.3155  0.5808  0.7351
11544TIP3   OH234588   8.147   1.602   3.210 -0.2532 -0.4299 -0.3585
11544TIP3    H134589   8.187   1.589   3.297 -1.7700 -1.4473  0.2230
11544TIP3    H234590   8.108   1.517   3.189 -0.0418 -0.1547 -1.9961
11545TIP3   OH234591   3.178   6.869   1.209 -0.4362 -0.1580 -0.2010
11545TIP3    H134592   3.212   6.891   1.123  1.1550  0.2616  0.5120
11545TIP3    H234593   3.223   6.787   1.233  1.0832  1.0236  1.2513
11546TIP3   OH234594   3.120   6.498   5.799  0.1477 -0.1083  0.2003
11546TIP3    H134595   3.070   6.522   5.877 -1.4335  0.7089 -1.0042
11546TIP3    H234596   3.076   6.544   5.727  0.5473 -2.1061 -1.4207
11547TIP3   OH234597   0.138   4.055   4.662  0.3183 -0.0518 -0.1205
11547TIP3    H134598   0.057   4.009   4.642  0.5713 -0.8282  0.5593
11547TIP3    H234599   0.178   4.073   4.577 -0.2304 -0.2701 -0.4284
11548TIP3   OH234600   5.078   4.461   3.223 -0.3115 -0.0970 -0.4886
11548TIP3    H134601   5.165   4.448   3.261 -1.1372 -2.1190  0.9267
11548TIP3    H234602   5.094   4.477   3.130  1.6200  1.4552  0.0490
11549TIP3   OH234603   1.175   2.627   1.065 -0.7353  0.6885  0.5044
11549TIP3    H134604   1.085   2.650   1.046 -0.7881  0.1097 -0.0027
11549TIP3    H234605   1.196   2.674   1.146 -1.3584  1.1342  0.4128
11550TIP3   OH234606   5.894   3.901   6.195  0.2853  0.7382  0.0867
11550TIP3    H134607   5.913   3.878   6.104  0.0298  1.0614 -0.0499
11550TIP3    H234608   5.803   3.876   6.208  0.6635 -0.4308  0.6206
11551TIP3   OH234609   3.072   1.674   1.489 -0.2756  0.6141  0.0597
11551TIP3    H134610   3.032   1.722   1.561 -0.1785  0.1681  0.4114
11551TIP3    H234611   3.028   1.589   1.488  0.4879  0.2030  0.2997
11552TIP3   OH234612   1.007   1.397   1.508 -0.0904 -0.1407 -0.3292
11552TIP3    H134613   0.943   1.329   1.525  0.5751 -0.2731  2.0818
11552TIP3    H234614   0.969   1.450   1.438 -2.6481 -0.4171  0.7591
11553TIP3   OH234615   8.299   6.033   6.124  0.0231  0.0714  0.3936
11553TIP3    H134616   8.208   6.005   6.116  0.3456 -0.6617 -0.9750
11553TIP3    H234617   8.321   6.017   6.216 -0.3016 -2.7558  0.0676
11554TIP3   OH234618   0.326   1.674   1.232 -0.6402 -0.5393  0.4340
11554TIP3    H134619   0.284   1.614   1.171 -0.4904 -0.2319  0.0255
11554TIP3    H234620   0.336   1.756   1.183  0.5647 -0.6424  0.4681
11555TIP3   OH234621   3.092   1.210   6.454  0.2807  0.4536  0.2594
11555TIP3    H134622   3.023   1.266   6.417  0.4163  1.1083  0.9770
11555TIP3    H234623   3.173   1.248   6.420  0.2920 -2.0728 -3.0804
11556TIP3   OH234624   6.780   6.486   6.019  0.2818 -0.3069 -0.2053
11556TIP3    H134625   6.771   6.481   5.924  1.9875  0.3859 -0.4414
11556TIP3    H234626   6.875   6.481   6.034  0.0173 -0.8421  1.4936
11557TIP3   OH234627   7.692   4.352   2.653  0.1794 -0.3223 -0.2559
11557TIP3    H134628   7.685   4.335   2.747 -0.3758 -0.0717 -0.2525
11557TIP3    H234629   7.602   4.356   2.622  0.3557 -0.0608 -0.7401
11558TIP3   OH234630   8.239   4.686   0.583 -0.3097 -0.7371 -0.4030
11558TIP3    H134631   8.267   4.638   0.505  0.8601  0.1655 -0.5756
11558TIP3    H234632   8.237   4.778   0.555  2.6177 -0.0457  1.2010
11559TIP3   OH234633   2.990   4.583   0.747 -0.2565  0.1357 -0.4022
11559TIP3    H134634   2.975   4.652   0.811 -1.5137 -0.4559 -0.0395
11559TIP3    H234635   3.049   4.623   0.683 -2.4265  2.2406 -1.2494
11560TIP3   OH234636   6.691   0.147   6.199 -0.5664 -0.5888  0.2529
11560TIP3    H134637   6.654   0.110   6.119 -0.0501 -0.0265 -0.2676
11560TIP3    H234638   6.755   0.211   6.167 -1.1751  0.4809  1.1149
11561TIP3   OH234639   5.186   6.029   0.598 -0.0116 -0.0139  0.0739
11561TIP3    H134640   5.146   5.974   0.531 -0.5148  0.9763 -0.4659
11561TIP3    H234641   5.156   5.992   0.681  0.0989 -0.8657 -0.2608
11562TIP3   OH234642   2.157   1.256   1.048 -0.8703 -0.5228 -0.3823
11562TIP3    H134643   2.062   1.260   1.051 -0.8321  1.3242 -0.4687
11562TIP3    H234644   2.184   1.347   1.031  0.8962 -1.0223 -0.4060
11563TIP3   OH234645   3.288   7.591   3.072 -0.0307 -0.2277 -0.1956
11563TIP3    H134646   3.266   7.684   3.075  0.3219 -0.1618  0.7638
11563TIP3    H234647   3.204   7.547   3.070 -0.2176  0.0907  0.4191
11564TIP3   OH234648   7.752   3.694   3.177 -0.0939 -0.0398 -0.0705
11564TIP3    H134649   7.724   3.734   3.094  0.0967 -2.1017 -1.2050
11564TIP3    H234650   7.841   3.663   3.160  1.1234  2.0429  1.9044
11565TIP3   OH234651   4.916   0.529   1.052 -0.5060 -0.1542 -0.2648
11565TIP3    H134652   4.870   0.457   1.097 -2.5575  0.0337 -1.9146
11565TIP3    H234653   4.971   0.568   1.120 -1.0607 -1.8718  1.2455
11566TIP3   OH234654   5.014   3.873   2.647 -0.2663  0.8764 -0.3355
11566TIP3    H134655   5.087   3.832   2.693  0.1220  1.2341 -0.6279
11566TIP3    H234656   5.000   3.956   2.692  0.7389  1.6768 -1.4126
11567TIP3   OH234657   3.133   2.390   0.063  0.0756  0.6255 -0.2557
11567TIP3    H134658   3.073   2.320   0.089  0.5014  0.7803  1.2291
11567TIP3    H234659   3.138   2.383  -0.033  0.0785 -1.3244 -0.1447
11568TIP3   OH234660   3.151   6.679   0.853  0.2690  0.1669 -0.1938
11568TIP3    H134661   3.117   6.629   0.928 -0.7497  2.4110  0.9139
11568TIP3    H234662   3.209   6.744   0.893 -1.1002  2.0815 -1.2405
11569TIP3   OH234663   1.484   0.505   1.385 -0.2906 -0.1389  0.3415
11569TIP3    H134664   1.479   0.587   1.337  0.4093 -0.7124 -0.7518
11569TIP3    H234665   1.576   0.500   1.413  0.8499 -2.4509 -3.1864
11570TIP3   OH234666   7.122   4.341   2.410 -0.0874  0.5878 -0.5253
11570TIP3    H134667   7.180   4.390   2.352 -0.8337  1.1966 -0.7770
11570TIP3    H234668   7.157   4.252   2.410  1.6629  1.2260  0.4041
11571TIP3   OH234669   5.582   2.260   5.395 -0.5273 -0.3604 -0.2200
11571TIP3    H134670   5.509   2.205   5.423  0.6829 -1.1435  1.6210
11571TIP3    H234671   5.541   2.333   5.348 -2.4078 -1.1892  0.0480
11572TIP3   OH234672   3.208   7.499   2.364 -0.4903 -0.1192 -0.1837
11572TIP3    H134673   3.272   7.496   2.435 -2.2347  0.1448  1.4682
11572TIP3    H234674   3.224   7.419   2.314  1.4787  0.2244 -0.1967
11573TIP3   OH234675   5.217   0.411   1.138 -0.1234  0.4251 -0.0659
11573TIP3    H134676   5.259   0.401   1.053  1.0149  0.6760  0.4531
11573TIP3    H234677   5.243   0.334   1.188 -0.8853  0.2171  0.0292
11574TIP3   OH234678   4.404   0.648   0.420 -0.2833 -0.0095 -0.1798
11574TIP3    H134679   4.495   0.643   0.449  0.3493 -1.5184 -2.1710
11574TIP3    H234680   4.401   0.728   0.367 -0.0138 -0.1286 -0.3814
11575TIP3   OH234681   6.455   2.894   2.514  0.1716 -0.8058  0.3181
11575TIP3    H134682   6.533   2.854   2.551  1.4272 -1.1653 -2.4824
11575TIP3    H234683   6.479   2.917   2.424 -2.3316  0.9288 -0.0383
11576TIP3   OH234684  -0.018   1.202   0.516  0.1889 -0.3126 -0.4054
11576TIP3    H134685   0.068   1.207   0.475  0.4080 -1.1934 -0.0747
11576TIP3    H234686  -0.020   1.116   0.558 -0.8575 -0.3083 -0.4156
11577TIP3   OH234687   4.482   2.013   5.654  0.6745 -0.0964 -0.4606
11577TIP3    H134688   4.574   1.989   5.662  0.6474 -0.1310 -0.2479
11577TIP3    H234689   4.440   1.937   5.615  0.6807 -0.1993 -0.2667
11578TIP3   OH234690   5.649   4.275   3.592 -0.1362 -0.6824  0.1762
11578TIP3    H134691   5.725   4.327   3.566 -0.1690 -2.1269 -3.2290
11578TIP3    H234692   5.683   4.213   3.656  0.7228  0.8895  1.3386
11579TIP3   OH234693   2.854   5.326   1.509  0.7073  0.7153 -0.5897
11579TIP3    H134694   2.838   5.396   1.445 -1.8287  1.7390  0.9852
11579TIP3    H234695   2.800   5.253   1.479  2.2543 -0.1170 -1.4579
11580TIP3   OH234696   1.510   2.415   1.564 -0.0168  0.2692 -0.1214
11580TIP3    H134697   1.584   2.471   1.541  0.6653 -0.1134  1.0456
11580TIP3    H234698   1.440   2.476   1.585  0.5480  0.6966  0.5865
11581TIP3   OH234699   7.437   4.923   1.510  0.1948 -0.1189  0.1316
11581TIP3    H134700   7.366   4.859   1.522  0.8024 -0.7766  0.2730
11581TIP3    H234701   7.394   5.008   1.518 -0.6421 -0.5035 -0.1386
11582TIP3   OH234702   1.825   5.665   0.442  0.2835 -0.2164 -0.0662
11582TIP3    H134703   1.869   5.592   0.485  0.9191  0.8532  1.1530
11582TIP3    H234704   1.750   5.625   0.398 -0.5791 -1.3324  2.2772
11583TIP3   OH234705   6.246   5.710   2.278  0.1789  0.0040 -0.4740
11583TIP3    H134706   6.270   5.695   2.186 -1.1951  0.2368 -0.9038
11583TIP3    H234707   6.150   5.706   2.278  0.1879 -0.9729  1.1414
11584TIP3   OH234708   5.960   1.179   3.193 -0.4148  0.8694  0.3302
11584TIP3    H134709   5.972   1.099   3.245 -0.2863  0.9218  0.3789
11584TIP3    H234710   5.939   1.247   3.258 -3.0869  0.3630  0.1243
11585TIP3   OH234711   3.358   3.946   5.369  0.2290 -0.1148 -0.5854
11585TIP3    H134712   3.375   4.039   5.387  0.5982  0.0880 -1.8140
11585TIP3    H234713   3.444   3.911   5.344  0.1505 -0.8726  0.1708
11586TIP3   OH234714   4.213   5.720   4.097 -0.0191  0.1619  0.9469
11586TIP3    H134715   4.153   5.712   4.022  1.9952  1.5599 -0.9524
11586TIP3    H234716   4.211   5.813   4.120 -2.1662 -0.5286  4.1489
11587TIP3   OH234717   2.363   4.334   5.355 -0.0003  0.1490  0.4748
11587TIP3    H134718   2.351   4.390   5.279  1.0087 -0.2520 -0.0041
11587TIP3    H234719   2.421   4.385   5.413 -1.1124  0.6352  1.1908
11588TIP3   OH234720   5.794   4.767   0.091  0.1336  0.3065  0.2823
11588TIP3    H134721   5.805   4.850   0.045  0.6523  0.1050  0.0280
11588TIP3    H234722   5.714   4.778   0.143 -1.9952 -0.3262 -2.5884
11589TIP3   OH234723   7.997   0.799   0.572  0.4586 -0.1575 -0.2561
11589TIP3    H134724   7.954   0.866   0.626 -0.4964  0.6318 -1.9132
11589TIP3    H234725   7.926   0.760   0.521  1.2942 -1.0199 -0.7953
11590TIP3   OH234726   1.104   1.578   2.946 -0.0602  0.5610 -0.0971
11590TIP3    H134727   1.063   1.564   3.031 -0.6240 -1.8154 -0.6816
11590TIP3    H234728   1.049   1.643   2.903 -1.6674 -0.5822  0.1656
11591TIP3   OH234729   1.534   3.730   4.635 -0.0123 -0.4616 -0.0491
11591TIP3    H134730   1.572   3.679   4.564 -1.1363 -1.7098  0.1808
11591TIP3    H234731   1.586   3.706   4.712  1.3873  1.1134 -0.4765
11592TIP3   OH234732   3.686   5.219   4.123 -0.1154 -0.4389 -0.3442
11592TIP3    H134733   3.753   5.195   4.059  0.0581  1.1716 -0.8124
11592TIP3    H234734   3.725   5.198   4.208 -0.0008 -1.7723 -0.6971
11593TIP3   OH234735   2.917   0.977   0.074  0.0624  0.3253  0.1881
11593TIP3    H134736   2.843   0.946   0.127 -1.1164  2.1633 -0.2710
11593TIP3    H234737   2.884   1.057   0.033  1.2568 -0.4884 -2.5621
11594TIP3   OH234738   6.999   2.806   1.289 -0.3437  0.1026 -0.1724
11594TIP3    H134739   6.946   2.857   1.350  1.0390 -0.8991  1.9978
11594TIP3    H234740   6.981   2.715   1.312 -0.6460 -0.3705 -2.0895
11595TIP3   OH234741   1.261   4.710   1.871  0.0250  0.2515 -0.2946
11595TIP3    H134742   1.222   4.643   1.816 -0.0015 -0.7584  0.9280
11595TIP3    H234743   1.323   4.663   1.927 -1.1829  0.9478  1.7296
11596TIP3   OH234744   4.591   3.543   2.268  0.1265 -0.0230 -0.6109
11596TIP3    H134745   4.641   3.498   2.336 -0.3830  2.5541  1.5942
11596TIP3    H234746   4.655   3.599   2.224 -0.5195  2.9840  1.9598
11597TIP3   OH234747   5.803   7.546   5.663 -0.1725 -0.3067  0.0210
11597TIP3    H134748   5.800   7.452   5.645  0.3119 -0.6332  1.5405
11597TIP3    H234749   5.738   7.583   5.604 -1.4997 -1.7812  0.4807
11598TIP3   OH234750   5.949   6.693   5.676  0.9204  0.1383  0.3017
11598TIP3    H134751   5.881   6.745   5.719  0.2137 -0.0987 -0.5211
11598TIP3    H234752   6.019   6.756   5.657  0.6348  0.5228  0.5064
11599TIP3   OH234753   4.845   6.284   3.508  0.9603 -0.3365 -0.3233
11599TIP3    H134754   4.858   6.316   3.419  1.1744 -2.1142 -0.9796
11599TIP3    H234755   4.771   6.223   3.502 -1.4086  2.1223  1.4498
11600TIP3   OH234756   1.864   3.605   2.681 -0.0086  0.1040 -0.3606
11600TIP3    H134757   1.858   3.700   2.694  1.1417  0.1056  0.3124
11600TIP3    H234758   1.902   3.595   2.594  0.0157  0.2706 -0.3699
11601TIP3   OH234759   0.417   7.050   4.240 -0.3443  0.5495 -0.1975
11601TIP3    H134760   0.368   7.129   4.219 -0.7296  0.1044 -1.0163
11601TIP3    H234761   0.420   7.048   4.335 -2.3455  0.3532 -0.0935
11602TIP3   OH234762   4.418   4.565   3.631 -0.2206 -0.3235 -0.2263
11602TIP3    H134763   4.389   4.627   3.564 -0.5665 -0.0667  0.1492
11602TIP3    H234764   4.422   4.481   3.586  2.4860  0.3165 -1.3464
11603TIP3   OH234765   1.060   3.248   2.706 -0.2663 -0.0022 -0.6081
11603TIP3    H134766   1.112   3.319   2.668 -3.6365  1.4040 -3.0470
11603TIP3    H234767   0.987   3.291   2.749 -0.2638 -1.9498  1.5903
11604TIP3   OH234768   8.022   0.291   2.253 -0.0006 -0.6156 -0.2564
11604TIP3    H134769   8.058   0.284   2.342  0.4822 -0.4082 -0.4334
11604TIP3    H234770   7.940   0.241   2.257 -0.7081  0.5756  0.6872
11605TIP3   OH234771   4.062   2.895   3.066  0.0701 -0.0752 -0.0155
11605TIP3    H134772   4.044   2.903   3.160  1.1508  0.1826  0.1858
11605TIP3    H234773   4.146   2.941   3.054 -0.4255  0.5482 -1.2364
11606TIP3   OH234774   1.717   4.018   3.983 -0.0242  0.1064 -0.4236
11606TIP3    H134775   1.689   4.104   3.950  0.7162  0.4607 -0.1558
11606TIP3    H234776   1.813   4.021   3.980  0.0276 -1.4527 -2.3034
11607TIP3   OH234777   5.649   2.799   3.346  0.3320 -0.1563  0.0060
11607TIP3    H134778   5.704   2.876   3.362 -0.6486  0.4854  0.3388
11607TIP3    H234779   5.712   2.730   3.322  1.3246  0.4244  0.8400
11608TIP3   OH234780   3.979   4.180   4.487 -0.5208  0.1159 -0.0074
11608TIP3    H134781   4.023   4.265   4.489  0.2168 -0.2707  0.3944
11608TIP3    H234782   4.050   4.116   4.479 -0.8274 -0.6589  2.7229
11609TIP3   OH234783   4.721   4.640   0.552 -0.3442 -0.3205 -0.4245
11609TIP3    H134784   4.750   4.732   0.553 -0.4221 -0.2891  1.2275
11609TIP3    H234785   4.800   4.590   0.574 -0.7198 -0.5069  0.5033
11610TIP3   OH234786   2.020   0.065   0.958  0.1468  0.0827 -0.2480
11610TIP3    H134787   2.041   0.083   0.866  1.0211  1.9617  0.2569
11610TIP3    H234788   1.997  -0.028   0.960 -1.5337  0.3469 -2.6363
11611TIP3   OH234789   5.029   0.455   1.875 -0.4127 -0.0032  0.7307
11611TIP3    H134790   5.047   0.382   1.815 -1.7162 -0.9200  1.4184
11611TIP3    H234791   5.116   0.486   1.901  0.2081 -2.1083  1.3684
11612TIP3   OH234792   2.230   2.852   1.094  0.7535 -0.3441 -0.0899
11612TIP3    H134793   2.293   2.857   1.166  0.4478  0.8641  0.1080
11612TIP3    H234794   2.263   2.781   1.039  1.4980 -0.6755  0.7533
11613TIP3   OH234795   5.187   0.949   6.383  0.0177  0.1849 -0.1110
11613TIP3    H134796   5.185   0.879   6.449  1.3509  0.3040  0.0970
11613TIP3    H234797   5.110   0.933   6.329 -0.8019 -0.2449  1.1357
11614TIP3   OH234798   3.157   5.127   2.200  0.2388 -0.1794  0.2656
11614TIP3    H134799   3.249   5.154   2.199  0.4357 -0.8220 -0.5537
11614TIP3    H234800   3.108   5.208   2.192  0.7965  0.0246 -1.6063
11615TIP3   OH234801   2.634   4.303   6.731  0.0077 -0.2219 -0.3204
11615TIP3    H134802   2.727   4.292   6.750 -0.4169 -1.4664  1.2584
11615TIP3    H234803   2.607   4.378   6.785  0.1333  0.2864 -0.9563
11616TIP3   OH234804   0.426   3.080   0.501 -0.5639 -0.0669 -0.0881
11616TIP3    H134805   0.347   3.131   0.519  1.1190  2.0563  2.0606
11616TIP3    H234806   0.417   3.054   0.410 -3.0882  1.2818 -0.3261
11617TIP3   OH234807   0.733   5.113   0.939  0.1007  0.5596  0.2819
11617TIP3    H134808   0.640   5.094   0.947 -0.4215  2.3582 -0.9462
11617TIP3    H234809   0.740   5.207   0.953  1.5607  0.6627 -0.8644
11618TIP3   OH234810   7.423   1.826   4.303 -0.5459 -0.3081 -0.2202
11618TIP3    H134811   7.330   1.804   4.298 -0.5050 -0.3690 -0.7537
11618TIP3    H234812   7.428   1.913   4.262 -0.5339  0.1933  0.8154
11619TIP3   OH234813   0.010   0.224   0.430 -0.0637  0.0913 -0.2309
11619TIP3    H134814   0.073   0.295   0.418 -0.6663  0.6237 -0.3196
11619TIP3    H234815   0.058   0.144   0.407  0.9104  0.3644  0.8001
11620TIP3   OH234816   7.111   1.925   2.904  0.2037 -0.0034 -0.3657
11620TIP3    H134817   7.185   1.969   2.946  2.2095 -1.7233 -1.8742
11620TIP3    H234818   7.045   1.919   2.972  1.9271  0.5160  1.4462
11621TIP3   OH234819   2.699   6.758   5.430  0.0660 -0.2878  0.7219
11621TIP3    H134820   2.695   6.804   5.514  2.6913  1.1122  0.2038
11621TIP3    H234821   2.651   6.677   5.444 -0.9953  0.6502  3.0395
11622TIP3   OH234822   0.525   3.689   0.992  0.3690 -0.2143 -0.1487
11622TIP3    H134823   0.489   3.721   0.910  0.8669  1.6020  0.3034
11622TIP3    H234824   0.581   3.615   0.967  1.4803  1.0637 -1.6068
11623TIP3   OH234825   5.685   1.579   0.896  0.1725  0.0612  0.1149
11623TIP3    H134826   5.624   1.576   0.970  0.5316 -0.7403  0.3926
11623TIP3    H234827   5.749   1.645   0.921 -1.6212  2.3664 -1.0376
11624TIP3   OH234828   4.014   5.976   5.812 -0.5297 -0.0321 -0.3619
11624TIP3    H134829   3.925   5.972   5.848 -0.2462  1.4331  0.5804
11624TIP3    H234830   4.014   5.912   5.741 -1.1350 -3.0442  2.1480
11625TIP3   OH234831   0.645   3.877   1.930  0.2783 -0.5018  0.4142
11625TIP3    H134832   0.568   3.820   1.934  0.7309 -1.1366  0.3090
11625TIP3    H234833   0.716   3.819   1.900  0.9690 -0.1085  1.2541
11626TIP3   OH234834   3.867   1.175   6.698  0.3189 -0.1054 -0.0954
11626TIP3    H134835   3.924   1.201   6.625  1.2989  0.5512  0.8769
11626TIP3    H234836   3.927   1.154   6.769 -0.6462  0.3172  0.8707
11627TIP3   OH234837   7.754   5.752   4.368 -0.5848  0.2295  0.0605
11627TIP3    H134838   7.785   5.757   4.278 -1.3874 -1.9420 -0.3913
11627TIP3    H234839   7.717   5.665   4.376 -0.6239  0.3982  2.4848
11628TIP3   OH234840   0.345   3.243   0.041  0.8056 -0.5635  0.1283
11628TIP3    H134841   0.329   3.333   0.013 -2.0429 -1.4921 -1.6554
11628TIP3    H234842   0.367   3.196  -0.040 -2.6263 -2.3448  0.0666
11629TIP3   OH234843   6.447   3.586   5.722 -0.2085  0.1306 -0.0033
11629TIP3    H134844   6.464   3.529   5.797 -1.8065 -0.6725 -0.2105
11629TIP3    H234845   6.472   3.534   5.646  1.9038  1.1292 -0.0707
11630TIP3   OH234846   3.993   0.133   3.882  0.3470  0.4649 -0.1856
11630TIP3    H134847   4.043   0.212   3.859  1.7683  0.0173  1.1591
11630TIP3    H234848   4.029   0.065   3.824  0.5510  0.3701  0.0524
11631TIP3   OH234849   8.027   2.228   0.056 -0.3390 -0.4635 -0.0138
11631TIP3    H134850   8.014   2.133   0.049 -1.5423 -0.4954  2.0016
11631TIP3    H234851   8.034   2.244   0.150 -0.1345  1.4512 -0.3298
11632TIP3   OH234852   1.650   5.423   0.934 -0.3503 -0.6881 -0.4164
11632TIP3    H134853   1.558   5.444   0.949  0.4577  1.9758  1.4752
11632TIP3    H234854   1.666   5.345   0.987 -1.2800 -0.5107  0.1446
11633TIP3   OH234855   5.201   3.338   5.741  0.0072  0.2212 -0.1550
11633TIP3    H134856   5.148   3.418   5.754 -1.5182 -1.0353  2.2887
11633TIP3    H234857   5.283   3.356   5.787 -0.0300  0.6496 -0.2512
11634TIP3   OH234858   1.071   2.373   3.654 -0.2378  0.6526  0.2848
11634TIP3    H134859   1.154   2.394   3.696  0.4551 -1.1218 -0.1105
11634TIP3    H234860   1.016   2.450   3.670  1.4259  1.8187  0.6439
11635TIP3   OH234861   6.201   0.026   1.505 -0.3068  0.0660 -0.3524
11635TIP3    H134862   6.268   0.058   1.445  0.9607  2.5218  2.1472
11635TIP3    H234863   6.126   0.083   1.489 -0.6634 -0.5372 -0.8780
11636TIP3   OH234864   0.034   1.933   4.438  0.0184  0.1473  0.1746
11636TIP3    H134865   0.114   1.900   4.478  0.0579 -1.3809 -1.0552
11636TIP3    H234866  -0.037   1.895   4.490  0.0824 -1.2124 -0.6695
11637TIP3   OH234867   5.603   7.650   5.496 -0.5845 -0.0468 -0.0494
11637TIP3    H134868   5.599   7.729   5.550 -1.7213  0.4213 -0.7810
11637TIP3    H234869   5.654   7.677   5.419 -0.5810 -0.1606 -0.0865
11638TIP3   OH234870   7.432   7.081   5.567  0.1063  0.0609 -0.1390
11638TIP3    H134871   7.414   6.993   5.535 -0.0231 -0.4734  1.3199
11638TIP3    H234872   7.509   7.071   5.623  0.7851  1.0912 -0.8605
11639TIP3   OH234873   5.203   7.740   3.528  0.0279  0.2280  0.1868
11639TIP3    H134874   5.212   7.828   3.564 -1.3724  0.4811  0.0118
11639TIP3    H234875   5.288   7.720   3.489  0.3909  1.4679  0.3097
11640TIP3   OH234876   8.198   3.695   0.304 -0.5340 -0.9257  0.1763
11640TIP3    H134877   8.127   3.758   0.314  1.2103  0.8970  2.0887
11640TIP3    H234878   8.162   3.612   0.338 -1.6707  0.0230  1.3802
11641TIP3   OH234879   0.413   5.776   2.954 -0.0897  0.4049  0.1706
11641TIP3    H134880   0.499   5.763   2.995  0.9124 -0.7666 -2.1412
11641TIP3    H234881   0.406   5.871   2.945  1.4627  0.4877 -0.5394
11642TIP3   OH234882   6.134   5.339   0.648  0.1065 -0.3824 -0.7551
11642TIP3    H134883   6.137   5.356   0.553  0.0178  0.6120 -0.5981
11642TIP3    H234884   6.192   5.406   0.685 -1.5828  0.6865  0.0631
11643TIP3   OH234885   3.988   7.025   5.945 -0.0345  0.2056 -0.2167
11643TIP3    H134886   3.918   7.000   5.885  0.1913 -0.3701 -0.2497
11643TIP3    H234887   3.963   6.987   6.029  0.6923 -0.8481 -0.4439
11644TIP3   OH234888   4.400   7.623   4.196 -0.6600 -0.0106 -0.3425
11644TIP3    H134889   4.435   7.684   4.132  4.5384 -0.7058  1.3667
11644TIP3    H234890   4.460   7.548   4.195 -2.7207 -1.9612  2.4512
11645TIP3   OH234891   3.084   3.509   0.359 -0.0353  0.0751 -0.1065
11645TIP3    H134892   3.095   3.517   0.264 -1.9852  1.7219 -0.2454
11645TIP3    H234893   3.007   3.453   0.370 -0.0497  0.2078  0.5137
11646TIP3   OH234894   7.444   0.607   4.430  0.0805 -0.1087  0.1892
11646TIP3    H134895   7.502   0.597   4.354 -1.1012  0.8004 -0.8866
11646TIP3    H234896   7.477   0.684   4.475 -0.4690  0.6202 -0.6217
11647TIP3   OH234897   4.213   2.687   4.036 -0.0735 -0.3190 -0.1702
11647TIP3    H134898   4.237   2.756   4.098  0.2003  0.3051 -0.9491
11647TIP3    H234899   4.206   2.732   3.952 -0.5377 -1.1312 -0.5786
11648TIP3   OH234900   7.832   6.383   4.381 -0.1477  0.3830  0.0729
11648TIP3    H134901   7.867   6.400   4.294  0.1776  1.9004  0.4534
11648TIP3    H234902   7.789   6.465   4.406 -2.2645 -0.7844  0.4361
11649TIP3   OH234903   6.265   5.956   2.829 -0.3103  1.0256 -0.1184
11649TIP3    H134904   6.289   6.044   2.799  1.0139  0.6891 -0.0801
11649TIP3    H234905   6.324   5.897   2.781  0.7983  0.3586  1.9477
11650TIP3   OH234906   3.177   1.719   4.667  0.3459  1.0155 -0.6565
11650TIP3    H134907   3.084   1.736   4.653  0.2189  0.4897 -0.4847
11650TIP3    H234908   3.204   1.787   4.729 -0.3919  0.0330  0.8078
11651TIP3   OH234909   4.367   3.970   6.612 -0.6035 -0.0182 -0.3644
11651TIP3    H134910   4.338   4.060   6.596  1.2952  0.6704 -0.1354
11651TIP3    H234911   4.311   3.940   6.684  1.1651  2.3423  2.1648
11652TIP3   OH234912   2.463   6.017   4.750 -0.4121  0.7620  0.7558
11652TIP3    H134913   2.466   5.937   4.802 -0.3368  0.2723  0.0076
11652TIP3    H234914   2.505   5.994   4.667  1.0439  2.0124  1.0991
11653TIP3   OH234915   5.182   6.810   4.833 -0.9160  0.0844 -0.0325
11653TIP3    H134916   5.255   6.751   4.853  0.3539  2.4254  3.0060
11653TIP3    H234917   5.197   6.837   4.742  3.1715  1.7866  0.9243
11654TIP3   OH234918   3.074   0.052   0.547 -0.0364 -0.1685 -0.4744
11654TIP3    H134919   3.009   0.061   0.477 -0.6812  1.3081  0.2621
11654TIP3    H234920   3.124   0.134   0.543  0.4449 -0.4187  0.2809
11655TIP3   OH234921   0.818   7.611   2.971  0.0768 -0.0048 -0.2716
11655TIP3    H134922   0.832   7.634   2.879 -0.7347 -0.5520 -0.5469
11655TIP3    H234923   0.756   7.538   2.968 -1.1236  0.9298  0.7637
11656TIP3   OH234924   0.038   1.911   6.573 -0.0237 -0.1098 -0.5681
11656TIP3    H134925   0.062   1.845   6.507 -0.0272 -0.4829 -0.2002
11656TIP3    H234926   0.110   1.909   6.635 -1.3658 -1.8729  1.0390
11657TIP3   OH234927   4.838   6.578   5.282 -0.0270  0.2246 -0.6202
11657TIP3    H134928   4.799   6.631   5.352 -1.4776 -0.4467 -0.8739
11657TIP3    H234929   4.854   6.492   5.322 -1.1232 -0.2494 -1.1564
11658TIP3   OH234930   6.961   7.130   1.305 -0.3918 -0.2652  0.5431
11658TIP3    H134931   6.948   7.149   1.398  0.2144  0.8325  0.4172
11658TIP3    H234932   6.967   7.216   1.264 -2.5374 -0.6718 -0.8133
11659TIP3   OH234933   2.467   1.631   0.927  0.0495 -0.0986 -0.0401
11659TIP3    H134934   2.410   1.566   0.886 -0.7727  0.1030  0.7397
11659TIP3    H234935   2.452   1.619   1.021  1.5278 -0.2302  0.1940
11660TIP3   OH234936   5.037   1.339   6.412  0.2141  0.3622 -0.1919
11660TIP3    H134937   5.074   1.424   6.437 -0.3237 -0.1746  2.8812
11660TIP3    H234938   5.073   1.321   6.325  1.0855  3.2743 -0.5281
11661TIP3   OH234939   7.743   1.167   3.077  0.4702  0.2098 -0.1211
11661TIP3    H134940   7.808   1.098   3.065 -0.8352 -0.9629 -0.8084
11661TIP3    H234941   7.729   1.203   2.990 -1.2478 -0.9786 -0.4002
11662TIP3   OH234942   3.614   6.622   4.892  0.2792 -0.6945 -0.0863
11662TIP3    H134943   3.592   6.534   4.924 -3.0986 -0.3601 -1.1266
11662TIP3    H234944   3.590   6.680   4.964 -1.6073 -0.3733 -0.9300
11663TIP3   OH234945   1.049   0.808   4.380  0.2384  0.1693 -0.3704
11663TIP3    H134946   1.055   0.897   4.345  2.6824  0.6259  1.0140
11663TIP3    H234947   0.990   0.816   4.454 -1.2600  0.1356 -1.5041
11664TIP3   OH234948   0.809   4.091   1.126 -0.0332  0.7564 -0.1813
11664TIP3    H134949   0.777   4.008   1.090 -0.2045  0.5215  0.4898
11664TIP3    H234950   0.902   4.076   1.141  0.2961  1.2589 -1.6324
11665TIP3   OH234951   3.271   2.263   5.219  0.3918 -0.2484 -0.4247
11665TIP3    H134952   3.186   2.242   5.180  0.6602 -2.2954  0.0071
11665TIP3    H234953   3.320   2.302   5.146 -0.3651 -0.5274 -1.1094
11666TIP3   OH234954   6.692   6.518   5.760 -0.0138  0.2388  0.2508
11666TIP3    H134955   6.691   6.562   5.675 -0.0170 -0.7129 -0.2529
11666TIP3    H234956   6.609   6.470   5.764  0.6516 -0.9405  0.1332
11667TIP3   OH234957   4.174   2.388   1.906  0.4224  0.2063 -0.1474
11667TIP3    H134958   4.134   2.325   1.965 -1.5410 -0.6753 -2.2765
11667TIP3    H234959   4.102   2.447   1.883  1.3013  0.9130 -1.1477
11668TIP3   OH234960   5.458   3.095   2.960 -0.3958 -0.5767 -0.2870
11668TIP3    H134961   5.406   3.020   2.931 -2.4317 -0.0246  1.6725
11668TIP3    H234962   5.504   3.063   3.038 -2.2570  0.4512  1.3232
11669TIP3   OH234963   7.960   6.052   3.980 -0.2996 -0.1301  0.8720
11669TIP3    H134964   7.976   6.014   4.067  1.7948 -1.1960  0.0700
11669TIP3    H234965   8.032   6.113   3.968 -1.0618  0.6635  0.1918
11670TIP3   OH234966   1.593   7.181   0.339 -0.1389 -0.3635 -0.4692
11670TIP3    H134967   1.660   7.241   0.308  0.2521 -0.0660  0.8565
11670TIP3    H234968   1.522   7.189   0.276 -0.5675  2.3353  0.2349
11671TIP3   OH234969   4.913   5.028   3.266 -0.0047 -0.4068  0.0777
11671TIP3    H134970   4.914   4.940   3.229  0.2525  0.0275 -0.9702
11671TIP3    H234971   4.963   5.081   3.204 -1.4735  0.8052 -0.1400
11672TIP3   OH234972   6.438   1.911   3.549 -0.3454  0.7793  0.2960
11672TIP3    H134973   6.408   1.946   3.633  1.0128  0.5944  0.8933
11672TIP3    H234974   6.363   1.920   3.490 -1.0705  1.6405  1.3189
11673TIP3   OH234975   6.186   4.593   6.053  0.2035  0.6565  0.3434
11673TIP3    H134976   6.263   4.601   5.997 -1.6547 -0.8949 -2.6732
11673TIP3    H234977   6.198   4.510   6.099  1.6916  1.8935  2.3797
11674TIP3   OH234978   5.983   5.751   2.223  0.0940  1.1704 -0.2472
11674TIP3    H134979   5.968   5.830   2.172 -0.5815  0.1363 -1.6982
11674TIP3    H234980   5.900   5.734   2.267  0.5711  1.8640  0.9709
11675TIP3   OH234981   1.718   3.545   0.470 -0.0901  0.1696 -0.4027
11675TIP3    H134982   1.802   3.570   0.509  0.1415  1.2146 -1.5116
11675TIP3    H234983   1.671   3.627   0.460 -0.8113 -0.2814 -0.7856
11676TIP3   OH234984   6.663   1.945   1.644  0.4870 -0.0568  0.0926
11676TIP3    H134985   6.737   1.915   1.591  0.8107  0.4432  0.2569
11676TIP3    H234986   6.675   2.040   1.650 -0.0639  0.0015  0.2779
11677TIP3   OH234987   0.276   3.954   6.530  0.2056  0.2490 -0.0393
11677TIP3    H134988   0.369   3.972   6.519 -0.0765  2.1970  0.3997
11677TIP3    H234989   0.247   3.919   6.446  1.3568 -0.6127 -0.0974
11678TIP3   OH234990   6.024   4.949   3.005  0.1266  0.5703 -0.2137
11678TIP3    H134991   6.007   4.928   2.914  1.3796  0.5133 -0.4522
11678TIP3    H234992   6.029   5.045   3.007  0.9756  0.5369 -0.3843
11679TIP3   OH234993   1.464   6.057   1.693  0.4424 -0.2293 -0.8442
11679TIP3    H134994   1.376   6.052   1.730  1.9405 -0.1446  3.2378
11679TIP3    H234995   1.462   5.998   1.618 -2.9056 -0.7113 -0.5167
11680TIP3   OH234996   3.393   3.855   3.128 -0.4966  0.2602  0.3863
11680TIP3    H134997   3.455   3.794   3.087 -0.9588  0.2926 -0.3751
11680TIP3    H234998   3.322   3.798   3.158 -1.1326  0.4617 -0.7094
11681TIP3   OH234999   4.757   2.861   4.010 -0.0153  0.3691  0.1377
11681TIP3    H135000   4.737   2.893   4.098  1.4888 -0.0394  0.6660
11681TIP3    H235001   4.698   2.787   3.998  0.0314  0.1838  0.9747
11682TIP3   OH235002   3.752   2.593   5.144 -0.0444  0.1575 -0.5235
11682TIP3    H135003   3.679   2.616   5.202  0.5783  0.5736  0.1073
11682TIP3    H235004   3.739   2.649   5.067 -0.9195 -0.4572 -0.8369
11683TIP3   OH235005   5.822   3.192   2.218  0.0436  0.1322  0.3699
11683TIP3    H135006   5.792   3.192   2.309  0.2928  0.0115  0.4511
11683TIP3    H235007   5.782   3.270   2.179  0.9294  0.8584  0.8993
11684TIP3   OH235008   3.973   6.884   2.756 -0.7678 -0.0372 -0.4001
11684TIP3    H135009   4.005   6.942   2.826 -1.6887 -0.5144  0.4475
11684TIP3    H235010   4.049   6.832   2.732 -0.1895  0.7947 -0.4382
11685TIP3   OH235011   0.317   6.068   2.978 -0.1303  0.1401 -0.1497
11685TIP3    H135012   0.347   6.091   3.066 -0.0702 -0.6415  0.0425
11685TIP3    H235013   0.227   6.100   2.973 -0.0382  0.4370  0.0971
11686TIP3   OH235014   6.675   7.055   3.658 -0.3047  0.2147 -0.2360
11686TIP3    H135015   6.737   7.002   3.707 -0.6773  0.4801  0.5537
11686TIP3    H235016   6.604   7.072   3.721 -0.5417  1.0073 -0.6995
11687TIP3   OH235017   6.882   5.745   0.934  0.5268  0.0852  0.3805
11687TIP3    H135018   6.905   5.719   0.845  0.7403 -0.3502  0.5600
11687TIP3    H235019   6.870   5.663   0.981  0.9663  0.3111  0.8965
11688TIP3   OH235020   2.502   3.871   6.537  0.1316  0.0931  0.2487
11688TIP3    H135021   2.523   3.964   6.525  0.5686 -0.0389 -0.0470
11688TIP3    H235022   2.546   3.846   6.618 -0.5603  0.3109  0.7002
11689TIP3   OH235023   4.319   7.238   5.419  0.0756  0.7207 -0.1298
11689TIP3    H135024   4.279   7.276   5.498  0.2508  0.4988  0.0676
11689TIP3    H235025   4.412   7.230   5.440 -0.0337 -0.2761  0.0228
11690TIP3   OH235026   2.976   1.978   1.264 -0.0155  0.4126  1.3485
11690TIP3    H135027   2.893   1.932   1.277  0.5718 -1.1118  0.1163
11690TIP3    H235028   3.016   1.933   1.190  1.6886  1.4457  1.5958
11691TIP3   OH235029   7.837   0.328   6.433 -0.1550 -0.3086 -0.0252
11691TIP3    H135030   7.773   0.395   6.456  0.5248  0.7706 -1.1385
11691TIP3    H235031   7.920   0.374   6.428  0.5278 -1.4638  0.2847
11692TIP3   OH235032   1.116   6.952   2.869  0.3211 -0.5119 -0.3887
11692TIP3    H135033   1.031   6.995   2.866  0.7952  0.4093 -1.2615
11692TIP3    H235034   1.172   7.005   2.812  1.5109 -1.0320  0.2479
11693TIP3   OH235035   4.095   4.814   4.877 -0.0917  0.3570 -0.3088
11693TIP3    H135036   4.060   4.754   4.811  0.0326 -0.0536 -0.0115
11693TIP3    H235037   4.175   4.771   4.908 -0.3257  0.3785  0.3381
11694TIP3   OH235038   8.113   6.538   3.627 -0.2445  0.5278  0.2303
11694TIP3    H135039   8.078   6.502   3.709  0.1893  1.0113  0.6305
11694TIP3    H235040   8.148   6.624   3.651  1.2142  0.0774 -0.1513
11695TIP3   OH235041   3.292   0.446   1.597 -0.2893  0.2152  0.3212
11695TIP3    H135042   3.286   0.484   1.509 -2.1861 -0.7978 -0.0476
11695TIP3    H235043   3.241   0.505   1.653 -1.4218 -0.5702  0.1623
11696TIP3   OH235044   1.731   6.100   4.199  0.0026  0.6582 -0.0236
11696TIP3    H135045   1.745   6.185   4.157  1.3990  1.0934  1.2030
11696TIP3    H235046   1.810   6.050   4.178 -0.2780  0.0962  0.2416
11697TIP3   OH235047   3.458   0.995   3.530 -1.2647 -0.0898 -0.2629
11697TIP3    H135048   3.466   0.955   3.444  0.2028 -0.3755 -0.0127
11697TIP3    H235049   3.364   1.007   3.542 -1.7166 -2.6465 -0.7130
11698TIP3   OH235050   0.323   3.005   4.213  0.3283 -0.2694  0.1254
11698TIP3    H135051   0.383   3.060   4.265 -0.4152  0.0601  0.6543
11698TIP3    H235052   0.269   2.961   4.279 -0.5879  0.1103 -0.3546
11699TIP3   OH235053   7.406   4.567   0.046  0.0852  0.7599  0.0627
11699TIP3    H135054   7.329   4.623   0.052  0.1739  0.8445  0.4471
11699TIP3    H235055   7.480   4.626   0.063  0.2431  0.6990 -0.3959
11700TIP3   OH235056   6.135   3.961   5.628 -0.4261 -0.6522 -0.0061
11700TIP3    H135057   6.053   3.957   5.578  0.5655 -1.1401 -1.7019
11700TIP3    H235058   6.199   3.918   5.571  0.9933 -0.3378  1.2991
11701TIP3   OH235059   4.440   2.451   6.303 -0.1724  0.1978  0.4044
11701TIP3    H135060   4.418   2.414   6.218  2.2043  0.4251 -0.3942
11701TIP3    H235061   4.358   2.448   6.353 -1.0263 -2.3572 -0.9662
11702TIP3   OH235062   6.245   3.997   6.333 -0.1902 -0.6350 -0.3211
11702TIP3    H135063   6.167   3.948   6.359  0.8954 -1.6138  1.2430
11702TIP3    H235064   6.317   3.935   6.346  0.9214  0.4301 -1.1982
11703TIP3   OH235065   0.682   1.243   4.337  0.0788  0.0620  0.0134
11703TIP3    H135066   0.757   1.222   4.282  0.5269  0.5027  0.4424
11703TIP3    H235067   0.711   1.318   4.389 -0.8400  0.5529 -0.1744
11704TIP3   OH235068   0.869   2.712   5.084 -0.1510  0.2258  0.3980
11704TIP3    H135069   0.954   2.694   5.124 -0.3479  0.5455  0.9628
11704TIP3    H235070   0.864   2.650   5.011  0.5923  0.2438  0.3201
11705TIP3   OH235071   2.819   7.256   6.477  0.0693  0.1607  0.0242
11705TIP3    H135072   2.783   7.233   6.391 -0.1094  0.9288 -0.1159
11705TIP3    H235073   2.755   7.223   6.539  1.4645 -2.7844  0.0219
11706TIP3   OH235074   4.471   5.318   2.718  0.4985 -0.5902  0.0281
11706TIP3    H135075   4.443   5.230   2.743  1.7328 -0.5967  1.5050
11706TIP3    H235076   4.566   5.314   2.717  0.5885  0.8148  0.4686
11707TIP3   OH235077   4.747   6.430   3.898  0.0031 -0.0811  0.4997
11707TIP3    H135078   4.683   6.488   3.941  0.2958  0.9413 -0.4059
11707TIP3    H235079   4.823   6.433   3.956 -0.2076 -0.0585  0.7819
11708TIP3   OH235080   3.687   7.472   1.509 -0.0823 -0.2133 -0.2307
11708TIP3    H135081   3.740   7.488   1.586 -0.8354 -0.4706  0.3536
11708TIP3    H235082   3.736   7.511   1.437 -0.7077  2.6576  0.7677
11709TIP3   OH235083   0.839   2.669   0.936 -0.1684  0.0544 -0.1149
11709TIP3    H135084   0.825   2.620   1.018  0.5656 -1.2469 -0.7385
11709TIP3    H235085   0.766   2.643   0.880  0.8156 -1.2637 -0.8503
11710TIP3   OH235086   7.780   6.206   4.586  0.4294  0.2064  0.0341
11710TIP3    H135087   7.689   6.177   4.591  0.0902  1.3035  0.4837
11710TIP3    H235088   7.780   6.274   4.518  1.3256 -1.2131 -1.4645
11711TIP3   OH235089   1.465   7.201   4.930  0.7728 -0.4019  0.5915
11711TIP3    H135090   1.410   7.159   4.863  0.0467  0.1391  0.8308
11711TIP3    H235091   1.416   7.280   4.954  1.8802  0.3154  0.5131
11712TIP3   OH235092   0.959   7.379   3.080  0.5281  0.1238  0.4009
11712TIP3    H135093   0.896   7.451   3.084  0.8432  0.3757  1.0657
11712TIP3    H235094   0.931   7.318   3.148 -0.2008 -0.7913 -0.6760
11713TIP3   OH235095   2.447   0.048   5.840 -0.6165 -0.5297  0.4349
11713TIP3    H135096   2.412  -0.033   5.875  1.5082 -0.8915  1.9258
11713TIP3    H235097   2.525   0.066   5.893  1.7638 -0.0769 -2.8856
11714TIP3   OH235098   2.033   1.306   1.931  0.3713  0.1063 -0.1691
11714TIP3    H135099   2.103   1.344   1.984  0.3575 -1.4767  1.0867
11714TIP3    H235100   1.971   1.377   1.917  1.7692  1.3011 -0.5241
11715TIP3   OH235101   6.028   0.579   4.563  0.6685  0.4539 -0.5805
11715TIP3    H135102   6.072   0.664   4.565  0.3571  0.6193 -0.8159
11715TIP3    H235103   5.936   0.599   4.551  0.4429  0.1268  0.5666
11716TIP3   OH235104   0.659   6.673   1.913 -0.2931 -0.0503 -0.0938
11716TIP3    H135105   0.595   6.730   1.871  0.1936  1.5794  1.2697
11716TIP3    H235106   0.744   6.712   1.891  0.0350 -0.0341  1.1090
11717TIP3   OH235107   7.133   6.842   1.885  0.4223 -0.4549  0.4649
11717TIP3    H135108   7.177   6.894   1.952 -2.0942  2.7029 -0.0609
11717TIP3    H235109   7.183   6.858   1.805 -0.1683  1.0367  0.3683
11718TIP3   OH235110   4.598   7.626   3.475  0.8238  0.5967 -0.5447
11718TIP3    H135111   4.510   7.627   3.437  0.3084  0.2742  0.5671
11718TIP3    H235112   4.583   7.633   3.569  1.9455 -0.2552 -0.2733
11719TIP3   OH235113   1.034   5.587   0.030 -0.1094 -0.3935  0.2779
11719TIP3    H135114   0.946   5.615   0.004 -0.4880 -0.2941  1.5854
11719TIP3    H235115   1.093   5.635  -0.027 -0.7307  2.9240  2.1729
11720TIP3   OH235116   6.733   5.436   0.681  0.0232  0.0755 -0.4155
11720TIP3    H135117   6.675   5.420   0.755 -1.0594 -2.3981 -1.7037
11720TIP3    H235118   6.821   5.432   0.718 -0.5211  0.4605  0.9730
11721TIP3   OH235119   5.087   7.446   0.347 -0.7763  0.3104 -0.2879
11721TIP3    H135120   5.089   7.539   0.369  0.3244  0.5268 -1.1777
11721TIP3    H235121   5.170   7.431   0.302 -1.2251 -0.9578 -0.7273
11722TIP3   OH235122   6.062   0.051   3.149 -0.3568  0.0342  0.6585
11722TIP3    H135123   6.142   0.101   3.132  0.1031 -0.6645  0.6947
11722TIP3    H235124   6.090  -0.018   3.209 -0.6140 -1.2104 -0.5978
11723TIP3   OH235125   6.384   3.190   0.439  0.4201 -0.1239  0.3146
11723TIP3    H135126   6.473   3.198   0.405  0.4097 -2.0805 -0.3343
11723TIP3    H235127   6.338   3.139   0.372 -1.2865  1.1033  0.4911
11724TIP3   OH235128   7.115   6.692   2.524  0.5688  0.5201 -0.1297
11724TIP3    H135129   7.169   6.739   2.460 -1.4874  2.1570 -0.7627
11724TIP3    H235130   7.025   6.719   2.504 -0.3763 -0.9827  1.7975
11725TIP3   OH235131   6.175   2.250   6.657  0.7963 -0.1122 -0.1557
11725TIP3    H135132   6.163   2.294   6.573 -0.0609 -0.1862 -0.0818
11725TIP3    H235133   6.103   2.283   6.712  0.2508 -1.4456 -0.0387
11726TIP3   OH235134   6.103   3.429   3.601  0.3644  0.6776 -0.3121
11726TIP3    H135135   6.074   3.514   3.634 -0.3951 -0.1524  1.2668
11726TIP3    H235136   6.187   3.414   3.645 -0.2924 -0.0996  0.7265
11727TIP3   OH235137   4.131   2.587   0.004  0.6887 -0.0053  0.3442
11727TIP3    H135138   4.141   2.675   0.039  1.4266  0.1514 -0.2391
11727TIP3    H235139   4.047   2.588  -0.041 -1.3969 -0.8306  3.8673
11728TIP3   OH235140   0.875   2.880   4.397  0.3420 -0.3670  0.3912
11728TIP3    H135141   0.955   2.888   4.448  2.1489  0.5691 -2.3716
11728TIP3    H235142   0.895   2.814   4.331 -0.7967  0.6021 -0.9779
11729TIP3   OH235143   0.596   7.199   4.814  0.0026  0.1350 -0.1416
11729TIP3    H135144   0.616   7.250   4.893  1.8418  0.3394 -0.6856
11729TIP3    H235145   0.605   7.108   4.842  1.0514  0.2148 -0.1967
11730TIP3   OH235146   4.428   0.577   5.274  0.0211 -0.4388  0.6306
11730TIP3    H135147   4.516   0.615   5.263 -0.4347 -0.0756 -2.7897
11730TIP3    H235148   4.382   0.639   5.331  1.4515  0.2603  1.0847
11731TIP3   OH235149   4.682   7.725   5.345  0.1114  0.0564  0.3632
11731TIP3    H135150   4.639   7.669   5.410 -1.1913  0.1917 -0.3478
11731TIP3    H235151   4.683   7.673   5.265  1.6608 -0.0874  0.4431
11732TIP3   OH235152   6.256   4.327   3.584  0.3931  0.3012  0.1777
11732TIP3    H135153   6.262   4.269   3.509  0.1756  2.0050 -1.2113
11732TIP3    H235154   6.299   4.408   3.556 -0.1734  1.1686  1.6819
11733TIP3   OH235155   3.150   4.337   0.164  0.4231  0.0055  0.0357
11733TIP3    H135156   3.188   4.292   0.088 -0.6548 -0.3662 -0.2930
11733TIP3    H235157   3.223   4.345   0.225  1.5078  1.0000 -1.3239
11734TIP3   OH235158   5.713   0.788   4.650  0.7614  0.2579 -0.1429
11734TIP3    H135159   5.630   0.824   4.618  0.1642 -0.9890 -0.0448
11734TIP3    H235160   5.772   0.864   4.655 -0.5048  1.2347  0.2438
11735TIP3   OH235161   1.176   5.179   3.431 -0.0818 -0.2405  0.1265
11735TIP3    H135162   1.090   5.137   3.436  0.2844 -1.4875 -2.5881
11735TIP3    H235163   1.231   5.117   3.384  1.7712  1.3825  0.0286
11736TIP3   OH235164   4.597   0.553   1.147  0.7350 -0.2719 -0.0063
11736TIP3    H135165   4.668   0.498   1.180 -0.8858 -1.4537  1.7218
11736TIP3    H235166   4.538   0.564   1.222  0.5352  3.2029 -0.4905
11737TIP3   OH235167   1.926   4.081   3.667 -0.0149  0.3828  0.0243
11737TIP3    H135168   1.988   4.037   3.609  0.3127 -0.7943  1.2072
11737TIP3    H235169   1.964   4.071   3.754 -1.3162  0.6286  0.6442
11738TIP3   OH235170   7.075   2.998   3.237  0.6935  0.5560 -0.0095
11738TIP3    H135171   7.007   2.940   3.274  1.1052  0.0967  0.0411
11738TIP3    H235172   7.093   2.962   3.150  1.8228 -0.1473  0.4895
11739TIP3   OH235173   7.831   3.830   1.353  0.3279 -0.1293  0.0192
11739TIP3    H135174   7.821   3.749   1.303  1.0388 -0.1197 -0.1478
11739TIP3    H235175   7.870   3.892   1.291 -1.4562  0.7846 -0.2780
11740TIP3   OH235176   1.726   7.189   1.852 -0.4430  0.0382  0.1184
11740TIP3    H135177   1.769   7.107   1.877 -0.2662  0.0371 -0.1732
11740TIP3    H235178   1.634   7.176   1.874 -0.3579 -0.1121  0.3856
11741TIP3   OH235179   0.464   2.557   6.127 -0.2217  0.0049 -0.0598
11741TIP3    H135180   0.550   2.596   6.119 -0.3515  0.3801  0.3366
11741TIP3    H235181   0.474   2.490   6.195 -0.4343  0.6203  0.5910
11742TIP3   OH235182   0.523   1.366   1.216  0.0486  0.0100  0.7431
11742TIP3    H135183   0.436   1.349   1.252 -0.1141 -1.2529 -0.1756
11742TIP3    H235184   0.583   1.346   1.288 -0.2954 -1.9239  0.5486
11743TIP3   OH235185   5.415   4.112   2.242 -0.3695 -0.5661  0.3158
11743TIP3    H135186   5.359   4.168   2.188  0.6535  0.7110  0.5134
11743TIP3    H235187   5.401   4.024   2.207 -0.7505  0.0375 -1.1573
11744TIP3   OH235188   7.519   6.402   1.127  0.0108  0.1871 -0.1849
11744TIP3    H135189   7.541   6.416   1.035  1.4238 -2.2759 -0.3280
11744TIP3    H235190   7.581   6.334   1.156 -0.4089  0.8559  2.5815
11745TIP3   OH235191   6.954   3.351   4.692  0.0454  0.3051  0.6430
11745TIP3    H135192   7.031   3.325   4.742  0.4575  0.8077  0.2827
11745TIP3    H235193   6.890   3.377   4.758  1.1466  2.5544  0.9074
11746TIP3   OH235194   6.406   1.842   5.934 -0.4734  0.2192 -0.3274
11746TIP3    H135195   6.377   1.773   5.994 -0.4325  0.1198 -0.4220
11746TIP3    H235196   6.337   1.846   5.867 -0.8696  0.8078  0.1057
11747TIP3   OH235197   5.440   1.996   1.736 -0.1560  0.8556  0.7794
11747TIP3    H135198   5.356   1.955   1.716  0.6390  0.4131 -2.1795
11747TIP3    H235199   5.417   2.079   1.778 -1.9591 -0.1295  1.8629
11748TIP3   OH235200   4.322   6.889   4.458 -0.2110 -0.7894 -0.1482
11748TIP3    H135201   4.278   6.809   4.486 -1.7699  0.1258  0.1554
11748TIP3    H235202   4.278   6.913   4.376 -1.9956  1.3603  1.2946
11749TIP3   OH235203   7.244   3.629   5.505  0.1870  0.4065 -0.0562
11749TIP3    H135204   7.309   3.618   5.575 -0.0880 -0.7937  0.0227
11749TIP3    H235205   7.162   3.644   5.551  0.0130 -0.3440 -0.1100
11750TIP3   OH235206   2.511   4.722   3.858  0.4976 -0.1723  0.6445
11750TIP3    H135207   2.570   4.793   3.885  0.3862  0.4018 -0.5538
11750TIP3    H235208   2.510   4.727   3.762 -1.4133 -0.2269  0.6267
11751TIP3   OH235209   4.610   5.656   5.566 -0.1963 -0.1570 -0.0519
11751TIP3    H135210   4.655   5.716   5.505  0.9270 -0.0215  0.8718
11751TIP3    H235211   4.550   5.607   5.510 -0.0935  0.8131 -1.0757
11752TIP3   OH235212   4.678   2.565   5.264 -0.7274 -0.1520  0.2831
11752TIP3    H135213   4.762   2.522   5.249 -0.8513 -0.2189 -0.2507
11752TIP3    H235214   4.613   2.497   5.246 -0.9720  0.5799 -1.8844
11753TIP3   OH235215   5.509   2.348   6.141  0.4934  0.1975 -0.0341
11753TIP3    H135216   5.583   2.407   6.153  0.3866  0.3336 -0.0437
11753TIP3    H235217   5.440   2.385   6.196  0.8547 -0.6872  1.0734
11754TIP3   OH235218   4.351   0.924   2.725 -0.3032 -1.0831  0.2057
11754TIP3    H135219   4.299   0.906   2.647 -0.0963 -0.4879 -0.0669
11754TIP3    H235220   4.395   0.841   2.744 -2.4242 -2.0730  1.2763
11755TIP3   OH235221   5.137   6.756   6.753  0.4641 -0.1516 -0.1862
11755TIP3    H135222   5.178   6.670   6.762  0.8983 -0.0006 -0.6542
11755TIP3    H235223   5.066   6.742   6.690  0.1902 -0.2778  0.1455
11756TIP3   OH235224   2.744   2.118   5.672  0.0165  0.2771 -0.2055
11756TIP3    H135225   2.770   2.060   5.743  1.8332 -1.9405 -2.4950
11756TIP3    H235226   2.678   2.070   5.624 -0.1951  1.1407 -0.8040
11757TIP3   OH235227   6.422   3.016   3.598 -0.1749 -0.3704  0.2081
11757TIP3    H135228   6.356   3.071   3.556  0.0249 -0.6154 -0.4407
11757TIP3    H235229   6.372   2.945   3.639 -0.3117 -0.6502 -0.4267
11758TIP3   OH235230   4.749   7.227   2.638 -0.3282  0.2482 -0.3686
11758TIP3    H135231   4.843   7.234   2.624 -0.2869 -0.4656 -0.5124
11758TIP3    H235232   4.713   7.204   2.552 -0.7044  1.0784 -0.4413
11759TIP3   OH235233   7.437   0.259   6.023  0.4110 -0.2843  0.3707
11759TIP3    H135234   7.403   0.185   6.073 -1.8123 -0.0601 -0.7059
11759TIP3    H235235   7.424   0.235   5.931 -1.0926  1.7083 -0.0106
11760TIP3   OH235236   1.567   1.641   5.055  0.0019 -0.4240 -0.0224
11760TIP3    H135237   1.584   1.736   5.053  1.6513 -0.6811  0.0006
11760TIP3    H235238   1.653   1.602   5.043 -0.7964 -1.9405 -1.0214
11761TIP3   OH235239   6.722   7.301   0.822 -0.2657 -0.1470  0.3307
11761TIP3    H135240   6.640   7.325   0.866 -1.3275  0.0954 -1.6944
11761TIP3    H235241   6.753   7.383   0.783  0.2703 -0.5160 -0.0260
11762TIP3   OH235242   5.813   0.053   0.960 -0.1176  0.4247  0.5444
11762TIP3    H135243   5.786   0.145   0.952  0.7892  0.7520  1.0481
11762TIP3    H235244   5.809   0.019   0.871  1.4077  1.5080  0.0275
11763TIP3   OH235245   6.625   6.657   3.082 -0.3988  0.2446  0.3666
11763TIP3    H135246   6.557   6.601   3.119 -1.0328  0.7538  0.0008
11763TIP3    H235247   6.703   6.602   3.079 -0.9956 -0.6042  0.0518
11764TIP3   OH235248   1.322   4.522   2.187 -0.0958 -0.2720  0.5902
11764TIP3    H135249   1.386   4.479   2.130 -1.1368  0.2770 -1.0410
11764TIP3    H235250   1.373   4.590   2.231  0.3955  0.4178 -0.9750
11765TIP3   OH235251   5.828   3.167   2.862 -0.0206 -0.0730 -0.4427
11765TIP3    H135252   5.781   3.107   2.920  0.8172 -0.1830  0.1430
11765TIP3    H235253   5.915   3.127   2.851  0.2649  0.6067 -0.7254
11766TIP3   OH235254   3.657   1.611   3.387  0.5596 -0.5626  0.5036
11766TIP3    H135255   3.688   1.698   3.362 -1.2423 -0.3227 -1.1105
11766TIP3    H235256   3.588   1.628   3.451  1.4217 -0.9222  1.5543
11767TIP3   OH235257   1.819   4.755   3.333 -0.1098 -0.8707 -0.3511
11767TIP3    H135258   1.741   4.739   3.280 -1.4712  1.0153  0.9615
11767TIP3    H235259   1.863   4.828   3.290 -0.4565 -0.2638  0.3082
11768TIP3   OH235260   5.064   0.608   6.685 -0.0158  0.7205 -0.2127
11768TIP3    H135261   5.144   0.574   6.645 -0.3090  0.2362 -0.3921
11768TIP3    H235262   5.095   0.669   6.752  0.5195 -0.1464  0.3492
11769TIP3   OH235263   1.928   4.518   5.780  0.3223  0.6282  0.2255
11769TIP3    H135264   1.881   4.565   5.849  0.9206  0.4150  0.7876
11769TIP3    H235265   1.936   4.582   5.708  1.7880  1.6701  1.2577
11770TIP3   OH235266   4.632   0.323   3.679  0.2491 -0.6962 -0.2307
11770TIP3    H135267   4.601   0.377   3.606  0.3111 -1.0766 -0.5443
11770TIP3    H235268   4.660   0.386   3.745 -2.0606 -0.3369  0.4660
11771TIP3   OH235269   1.377   4.944   2.820 -0.3410 -0.0852  1.0048
11771TIP3    H135270   1.308   4.959   2.755  1.5676  1.7787 -0.7533
11771TIP3    H235271   1.381   5.026   2.869 -0.8082 -0.9767  2.6078
11772TIP3   OH235272   6.558   1.403   6.314 -0.4477  0.0473  0.3373
11772TIP3    H135273   6.585   1.312   6.313 -0.9563 -0.1492  1.5735
11772TIP3    H235274   6.620   1.448   6.258  0.9776 -0.7654  1.2132
11773TIP3   OH235275   4.863   4.809   2.333  0.3292 -0.7418  0.2820
11773TIP3    H135276   4.804   4.767   2.270  2.9482 -3.2777 -0.6975
11773TIP3    H235277   4.881   4.895   2.295  1.4697 -2.0231 -2.3406
11774TIP3   OH235278   6.935   0.600   5.851  0.0292 -0.0621  0.5890
11774TIP3    H135279   6.951   0.691   5.874  1.2651 -0.2212  0.4093
11774TIP3    H235280   7.022   0.560   5.847 -0.4135 -0.9919 -0.4132
11775TIP3   OH235281   7.007   7.046   3.569  0.1221  0.1557  0.0058
11775TIP3    H135282   6.944   6.988   3.526  0.2279  0.6127 -0.7972
11775TIP3    H235283   6.982   7.045   3.661 -0.0289 -0.9584 -0.0411
11776TIP3   OH235284   1.064   6.789   6.251 -0.1406 -0.5857  0.6768
11776TIP3    H135285   0.974   6.799   6.222  0.2579 -0.7691 -0.7210
11776TIP3    H235286   1.116   6.833   6.184  0.8403 -0.9439  1.1748
11777TIP3   OH235287   0.127   0.164   2.543 -0.2434  0.6408 -0.3663
11777TIP3    H135288   0.166   0.077   2.556  0.8050  0.7502 -2.3305
11777TIP3    H235289   0.115   0.198   2.631  2.9490  0.0402  0.4340
11778TIP3   OH235290   1.544   3.406   3.932  0.2456 -0.1062  0.2779
11778TIP3    H135291   1.540   3.315   3.960  0.2343 -0.4489 -0.8090
11778TIP3    H235292   1.500   3.407   3.847 -0.4327  1.0530  0.6124
11779TIP3   OH235293   2.071   5.724   2.918 -0.4384 -0.5908 -0.5426
11779TIP3    H135294   2.046   5.657   2.982 -2.9355  0.0119 -0.8247
11779TIP3    H235295   2.074   5.805   2.969  1.7042 -0.6895 -0.3956
11780TIP3   OH235296   0.384   1.640   5.417 -0.3411 -0.5228  0.4980
11780TIP3    H135297   0.477   1.652   5.435 -0.5048  1.0230  0.4428
11780TIP3    H235298   0.355   1.577   5.484  0.7391 -1.0662  0.4783
11781TIP3   OH235299   0.261   3.161   5.076  0.0081 -0.4522  0.2626
11781TIP3    H135300   0.313   3.134   5.152  1.3529  0.1033 -0.4200
11781TIP3    H235301   0.230   3.249   5.099 -1.7092 -1.2568  1.1763
11782TIP3   OH235302   0.763   1.571   1.673  0.0566  0.0029 -0.5277
11782TIP3    H135303   0.827   1.641   1.690 -0.6413  0.1366  2.0864
11782TIP3    H235304   0.781   1.506   1.742 -0.2772 -1.7172 -1.9914
11783TIP3   OH235305   1.932   0.259   0.733  0.3313 -0.4839 -0.0865
11783TIP3    H135306   1.904   0.257   0.641 -1.1843 -0.3280  0.3586
11783TIP3    H235307   1.870   0.203   0.779 -0.2688  1.1428  1.1875
11784TIP3   OH235308   1.248   7.826   4.764 -0.1812 -0.0800 -0.2371
11784TIP3    H135309   1.175   7.794   4.818  1.3076 -3.3043  0.0646
11784TIP3    H235310   1.322   7.830   4.824  0.7756 -0.5919 -1.3644
11785TIP3   OH235311   1.662   2.398   6.236  0.5890 -0.2817  0.2437
11785TIP3    H135312   1.604   2.369   6.307  1.3898 -0.8230  0.6887
11785TIP3    H235313   1.750   2.378   6.267  1.1108  1.4515  0.0050
11786TIP3   OH235314   2.271   0.101   1.323  0.2826  0.2239 -0.0966
11786TIP3    H135315   2.260   0.116   1.229 -2.4729  0.3884  0.1792
11786TIP3    H235316   2.214   0.166   1.365 -0.6401 -1.5562  1.5820
11787TIP3   OH235317   6.501   2.716   4.793 -0.1764  0.1123  0.2406
11787TIP3    H135318   6.577   2.764   4.825 -0.3185 -0.4885  1.5558
11787TIP3    H235319   6.470   2.666   4.869 -0.8451 -0.9981 -0.7206
11788TIP3   OH235320   1.810   5.081   3.624  0.5998  0.2196 -0.0452
11788TIP3    H135321   1.761   5.018   3.570 -0.3007 -0.6305  1.6632
11788TIP3    H235322   1.845   5.144   3.561  0.1955 -1.0906 -1.6805
11789TIP3   OH235323   8.140   7.596   3.426  0.9257 -0.5561 -0.3396
11789TIP3    H135324   8.065   7.579   3.369 -0.8177  3.3709  0.4553
11789TIP3    H235325   8.111   7.571   3.513  0.4745  0.8691 -0.0470
11790TIP3   OH235326   1.911   0.209   0.110  0.0612  0.1860 -0.4785
11790TIP3    H135327   1.930   0.174   0.023  0.8571  0.5440 -0.4536
11790TIP3    H235328   1.935   0.301   0.105 -0.6826  0.4087 -0.1192
11791TIP3   OH235329   8.007   4.928   3.787  0.3497  0.5883  0.1385
11791TIP3    H135330   7.939   4.874   3.748  1.4307 -0.0787 -0.9080
11791TIP3    H235331   7.964   5.010   3.810 -0.8257  0.1164 -0.3272
11792TIP3   OH235332   0.651   1.407   5.480  0.2753  0.1700  0.2792
11792TIP3    H135333   0.669   1.342   5.547  0.5960 -1.0407 -0.9408
11792TIP3    H235334   0.717   1.475   5.495 -0.2592  0.3989  1.7612
11793TIP3   OH235335   4.869   1.252   0.715  0.1067  0.3005  0.2462
11793TIP3    H135336   4.790   1.242   0.769  0.3397 -2.7480  0.2029
11793TIP3    H235337   4.941   1.243   0.777  0.4983  2.8334  0.2483
11794TIP3   OH235338   3.414   0.585   5.062 -0.2905  0.2740  0.1122
11794TIP3    H135339   3.369   0.516   5.013 -2.1946  0.5465  1.3696
11794TIP3    H235340   3.440   0.542   5.144 -0.7604  0.8188  0.5566
11795TIP3   OH235341   1.377   2.658   5.819  0.3806  0.2840 -0.6097
11795TIP3    H135342   1.390   2.570   5.785 -2.5418 -0.1518 -0.8404
11795TIP3    H235343   1.387   2.649   5.914  3.1643  0.4256 -0.7974
11796TIP3   OH235344   3.346   2.722   5.843 -0.3053 -0.4815 -0.4211
11796TIP3    H135345   3.307   2.798   5.800  0.4106 -0.1663 -0.5248
11796TIP3    H235346   3.368   2.663   5.770  1.1219  0.1521 -0.5338
11797TIP3   OH235347   2.194   0.718   1.350  0.2116 -0.6991 -0.0309
11797TIP3    H135348   2.173   0.628   1.324  1.6879 -0.8159 -0.9453
11797TIP3    H235349   2.126   0.772   1.310  1.7293 -0.9930 -3.3531
11798TIP3   OH235350   4.368   3.511   1.660 -0.2036 -0.1116 -0.1687
11798TIP3    H135351   4.289   3.481   1.615 -1.4772  2.8224 -0.1085
11798TIP3    H235352   4.345   3.510   1.753  0.1514 -0.1063 -0.0774
11799TIP3   OH235353   4.217   5.081   1.752 -0.2167 -0.8526  0.5852
11799TIP3    H135354   4.294   5.038   1.713  0.3773 -0.5571  1.4138
11799TIP3    H235355   4.253   5.152   1.804 -1.0596 -0.7178  0.9925
11800TIP3   OH235356   8.314   5.540   4.571 -0.3019  0.2126  0.2802
11800TIP3    H135357   8.317   5.601   4.644 -1.1614  0.7844 -0.1408
11800TIP3    H235358   8.224   5.509   4.569 -0.5111  0.8552 -1.0498
11801TIP3   OH235359   1.367   5.778   6.258  0.5860  0.3352  0.1238
11801TIP3    H135360   1.342   5.783   6.350  1.5740  0.7965  0.3807
11801TIP3    H235361   1.290   5.740   6.214  1.1186 -2.7634  1.5643
11802TIP3   OH235362   3.350   4.549   2.522 -0.0752  0.3279  0.3434
11802TIP3    H135363   3.323   4.469   2.478  0.9309  0.1052  0.1153
11802TIP3    H235364   3.445   4.543   2.528 -0.0223  1.2959  0.7336
11803TIP3   OH235365   7.337   1.253   3.818 -0.2191  0.1471 -0.4777
11803TIP3    H135366   7.417   1.297   3.848 -0.4769  0.7669 -0.6823
11803TIP3    H235367   7.266   1.301   3.861 -0.4947 -0.2072 -0.5356
11804TIP3   OH235368   4.124   5.597   6.653 -0.3213 -0.6202  0.3741
11804TIP3    H135369   4.047   5.586   6.597  0.2055 -0.7021 -0.3435
11804TIP3    H235370   4.090   5.589   6.742 -1.3967  0.8327  0.1296
11805TIP3   OH235371   5.344   5.392   3.798  0.2188 -0.1940  0.0662
11805TIP3    H135372   5.248   5.394   3.798  0.1253 -1.9813  1.4359
11805TIP3    H235373   5.365   5.304   3.766  1.5034  0.8533 -2.1857
11806TIP3   OH235374   2.408   6.072   0.503 -0.1322  0.1581 -0.0936
11806TIP3    H135375   2.427   5.999   0.562  1.4343  0.7488  0.1622
11806TIP3    H235376   2.355   6.033   0.433 -0.7866 -0.8496  0.9350
11807TIP3   OH235377   1.918   1.007   4.476 -0.2967 -0.5807 -0.9230
11807TIP3    H135378   1.886   1.097   4.470 -1.1736 -0.6599  1.5008
11807TIP3    H235379   1.990   1.010   4.539  0.4888 -1.4232 -1.7257
11808TIP3   OH235380   4.020   5.417   5.874 -0.0013  0.3843 -0.0777
11808TIP3    H135381   4.086   5.485   5.866  1.9455 -0.9012  2.9728
11808TIP3    H235382   4.047   5.350   5.811  1.1142  0.2696  0.5002
11809TIP3   OH235383   1.302   4.436   4.698  0.0714 -0.2073  0.4032
11809TIP3    H135384   1.213   4.448   4.730  0.1242  0.2644  0.3758
11809TIP3    H235385   1.328   4.522   4.666  0.9915 -0.0363  1.5591
11810TIP3   OH235386   2.154   7.032   3.398 -0.0346  0.5314  1.0467
11810TIP3    H135387   2.118   7.115   3.368  0.9979  0.4409 -0.5831
11810TIP3    H235388   2.203   7.054   3.477  0.5325  1.5688  0.4354
11811TIP3   OH235389   7.783   3.705   1.057  0.5838 -0.0914 -0.3816
11811TIP3    H135390   7.791   3.612   1.077 -0.0525  0.0033  0.3429
11811TIP3    H235391   7.849   3.721   0.990  2.0256 -0.6612  0.8559
11812TIP3   OH235392   2.007   7.168   2.197  0.9457 -0.0995 -0.2368
11812TIP3    H135393   1.918   7.164   2.162  1.6372  2.2166 -2.6298
11812TIP3    H235394   2.004   7.117   2.278 -2.2366 -1.0577 -0.8368
11813TIP3   OH235395   5.422   2.825   0.765 -0.5534  0.6912  0.0742
11813TIP3    H135396   5.507   2.853   0.799  2.2876 -0.8985 -4.7326
11813TIP3    H235397   5.400   2.748   0.817  0.5754  1.4799  1.8186
11814TIP3   OH235398   3.368   1.278   2.651 -0.1493  0.4760 -0.5246
11814TIP3    H135399   3.359   1.250   2.742 -1.3933  0.1048 -0.7529
11814TIP3    H235400   3.280   1.273   2.615  0.1826  1.4238 -1.5301
11815TIP3   OH235401   1.619   1.334   1.665  0.0871 -0.3849 -0.8490
11815TIP3    H135402   1.646   1.399   1.601  0.0357 -0.4496 -0.9377
11815TIP3    H235403   1.527   1.354   1.683  0.0938 -0.3835 -0.8168
11816TIP3   OH235404   5.720   0.967   3.131  0.2687 -0.1341 -1.3257
11816TIP3    H135405   5.678   1.028   3.191  0.9346  0.0913 -1.0856
11816TIP3    H235406   5.808   0.956   3.166  0.3054 -0.8656 -1.6348
11817TIP3   OH235407   6.139   0.197   4.833 -0.2627  0.3374 -0.3637
11817TIP3    H135408   6.118   0.199   4.739 -1.3640 -0.5332 -0.1538
11817TIP3    H235409   6.186   0.279   4.848  0.3685  0.2726 -1.7698
11818TIP3   OH235410   6.003   3.963   3.019 -0.1030 -0.5329  0.2581
11818TIP3    H135411   6.002   4.026   2.947  0.3147  1.0261  1.5543
11818TIP3    H235412   6.089   3.922   3.013 -0.3897 -1.0252 -0.6190
11819TIP3   OH235413   7.751   4.279   5.020  0.4972  0.7267  0.1502
11819TIP3    H135414   7.706   4.331   4.953 -0.6302 -0.1962  0.1510
11819TIP3    H235415   7.682   4.259   5.084  0.6357 -1.5191 -0.3182
11820TIP3   OH235416   3.570   2.228   1.173  0.3009  0.2224  0.2875
11820TIP3    H135417   3.504   2.177   1.126 -0.4699  0.2198  1.3561
11820TIP3    H235418   3.577   2.309   1.123  0.1460 -0.1399 -0.3386
11821TIP3   OH235419   2.338   3.059   6.136 -0.3898  0.1176 -0.7814
11821TIP3    H135420   2.354   3.125   6.203 -1.6200 -0.6995  0.3608
11821TIP3    H235421   2.424   3.020   6.120 -0.0350  0.5001  0.1367
11822TIP3   OH235422   7.233   2.509   2.129 -0.8722 -0.2092  0.8273
11822TIP3    H135423   7.248   2.594   2.087 -1.7696  0.4849  1.8641
11822TIP3    H235424   7.142   2.489   2.108 -1.8661  0.8807  3.5829
11823TIP3   OH235425   3.473   5.391   4.256  0.2909 -0.6308  0.4820
11823TIP3    H135426   3.403   5.327   4.272 -1.6204  1.3470  0.6029
11823TIP3    H235427   3.545   5.339   4.220 -1.8586 -2.5983 -1.3674
11824TIP3   OH235428   3.067   6.238   2.826 -0.0552 -0.0866 -0.4896
11824TIP3    H135429   3.089   6.302   2.758 -0.1225  0.5690  0.0976
11824TIP3    H235430   3.024   6.167   2.778  1.8036 -0.6345 -1.4340
11825TIP3   OH235431   1.257   4.961   5.470  0.0842 -0.2490 -0.0239
11825TIP3    H135432   1.179   4.983   5.522  0.2936 -2.0650  1.1658
11825TIP3    H235433   1.314   4.916   5.532  0.2330 -2.8260 -1.8761
11826TIP3   OH235434   7.971   7.401   2.156  0.0482 -0.0621 -0.0817
11826TIP3    H135435   8.019   7.347   2.093  0.5064  2.0324 -1.6553
11826TIP3    H235436   7.890   7.425   2.110  0.0382  0.9031  0.4107
11827TIP3   OH235437   3.492   0.419   1.824  0.2309  0.0895  0.0681
11827TIP3    H135438   3.502   0.499   1.774  1.0770 -0.1397 -0.1518
11827TIP3    H235439   3.448   0.446   1.905  2.6273  1.2423  1.0888
11828TIP3   OH235440   0.807   7.468   2.424  0.1944 -0.4161  0.2860
11828TIP3    H135441   0.850   7.459   2.509 -0.3262  0.7524  0.6846
11828TIP3    H235442   0.871   7.514   2.369  0.0241 -0.0095  0.4310
11829TIP3   OH235443   1.688   4.965   2.344  0.2078 -0.0201 -0.4655
11829TIP3    H135444   1.611   4.960   2.287  0.3105 -1.1825 -0.5329
11829TIP3    H235445   1.762   4.952   2.284  0.4010  0.1540 -0.2657
11830TIP3   OH235446   0.558   2.835   6.283  0.2734 -0.1106 -0.4564
11830TIP3    H135447   0.644   2.858   6.249 -0.5960 -2.0432 -4.5504
11830TIP3    H235448   0.571   2.750   6.324  0.4206 -0.1372 -0.5555
11831TIP3   OH235449   3.776   7.014   1.372 -0.2447  0.1066  0.2528
11831TIP3    H135450   3.750   7.094   1.418 -1.0234 -0.2623  0.4660
11831TIP3    H235451   3.825   6.964   1.437  0.5089  0.5247  0.0316
11832TIP3   OH235452   5.975   3.839   4.408 -0.0668  0.2970  0.3903
11832TIP3    H135453   5.929   3.826   4.325 -0.1042  0.2729  0.4145
11832TIP3    H235454   5.908   3.871   4.467 -0.1368 -0.0861  0.5240
11833TIP3   OH235455   0.828   1.195   3.843 -0.3270  0.3388  0.1919
11833TIP3    H135456   0.852   1.132   3.911  0.4541 -1.4928 -1.6923
11833TIP3    H235457   0.906   1.203   3.788 -1.1515  1.2219 -0.8989
11834TIP3   OH235458   6.203   3.010   4.200  0.3722  0.0980  0.1374
11834TIP3    H135459   6.223   3.032   4.110  2.1947 -0.8861  0.2515
11834TIP3    H235460   6.283   2.970   4.234  0.3369  1.9035  2.6987
11835TIP3   OH235461   1.868   1.534   1.995  0.3717  0.1740  0.0122
11835TIP3    H135462   1.871   1.575   2.082  0.2868  2.1322 -0.8747
11835TIP3    H235463   1.784   1.487   1.994  1.4086 -1.9197  1.8163
11836TIP3   OH235464   6.324   4.265   6.215 -0.3077 -0.8145  0.0996
11836TIP3    H135465   6.343   4.308   6.299 -0.9460 -0.3190 -0.0002
11836TIP3    H235466   6.318   4.172   6.236 -2.2334 -0.5336  0.9375
11837TIP3   OH235467   7.144   1.126   4.907  0.4689 -0.4789 -0.2940
11837TIP3    H135468   7.147   1.189   4.835  0.2803 -0.6422 -0.4444
11837TIP3    H235469   7.171   1.177   4.984 -1.2681  0.2181 -0.1057
11838TIP3   OH235470   1.720   5.810   0.632  0.8288  0.1610  0.1563
11838TIP3    H135471   1.748   5.750   0.700  1.4492  0.4412  0.1561
11838TIP3    H235472   1.735   5.762   0.550 -2.7655 -1.3911  0.2484
11839TIP3   OH235473   0.827   3.238   0.997 -0.1247  0.1667 -0.0531
11839TIP3    H135474   0.854   3.270   0.911 -0.3247 -0.3501 -0.3091
11839TIP3    H235475   0.752   3.181   0.979 -0.4890  0.4570  0.5124
11840TIP3   OH235476   0.745   1.572   0.993  0.5405  0.5826  0.7669
11840TIP3    H135477   0.691   1.651   0.986 -0.5706 -0.2326 -0.1845
11840TIP3    H235478   0.693   1.513   1.048  0.2026 -0.3988 -0.5695
11841TIP3   OH235479   6.295   5.847   0.577 -0.1082 -0.0271  0.0673
11841TIP3    H135480   6.315   5.892   0.495 -0.8549  0.9763  0.4234
11841TIP3    H235481   6.215   5.799   0.559  1.7389 -3.0273 -0.9640
11842TIP3   OH235482   6.165   6.530   0.469 -0.0812  0.2247 -0.0850
11842TIP3    H135483   6.126   6.465   0.527 -1.5917  0.2179 -1.0482
11842TIP3    H235484   6.148   6.614   0.512 -0.2894  0.1491 -0.0203
11843TIP3   OH235485   4.825   6.070   5.852  0.4533  0.4120  0.3310
11843TIP3    H135486   4.782   6.132   5.911 -0.7531  0.3208 -0.4236
11843TIP3    H235487   4.762   6.056   5.782  1.5916 -0.0128 -0.6327
11844TIP3   OH235488   1.803   3.734   5.777 -0.0707  0.0828  0.2871
11844TIP3    H135489   1.758   3.650   5.779  0.6978 -0.3570 -0.0844
11844TIP3    H235490   1.800   3.761   5.685 -0.8156  0.7479  0.4996
11845TIP3   OH235491   1.771   5.752   4.993 -0.5254  0.6068 -0.3251
11845TIP3    H135492   1.683   5.763   4.958 -0.3685  0.3541 -0.8033
11845TIP3    H235493   1.760   5.695   5.069 -0.7247  0.2594 -0.6147
11846TIP3   OH235494   6.283   1.716   6.584  0.1263  0.5245 -0.3292
11846TIP3    H135495   6.328   1.666   6.516 -1.3823 -1.1267 -0.2193
11846TIP3    H235496   6.264   1.651   6.652 -0.8147  1.5308  0.4149
11847TIP3   OH235497   6.309   3.858   0.379 -0.2711  0.2556 -0.0403
11847TIP3    H135498   6.350   3.790   0.326 -0.5013  1.5674 -2.0151
11847TIP3    H235499   6.334   3.940   0.336 -0.3525  1.4177  2.0023
11848TIP3   OH235500   4.229   6.428   0.002 -0.5614 -0.1167  0.8562
11848TIP3    H135501   4.264   6.407   0.089 -0.4806 -0.8500  0.6549
11848TIP3    H235502   4.185   6.347  -0.025 -1.5108  0.4508  0.6622
11849TIP3   OH235503   6.981   6.228   4.550 -0.3558  0.2591 -0.5157
11849TIP3    H135504   7.063   6.207   4.505  0.0962  1.5732 -0.3569
11849TIP3    H235505   7.002   6.305   4.603 -0.8917 -1.1158  1.8560
11850TIP3   OH235506   1.985   1.867   5.170  0.0315  0.4346  0.2552
11850TIP3    H135507   1.933   1.814   5.110 -0.6373  0.0531  1.1503
11850TIP3    H235508   2.050   1.911   5.114  0.1146 -0.7342 -0.5891
11851TIP3   OH235509   5.260   1.358   1.777 -0.2615  0.9020 -0.1196
11851TIP3    H135510   5.321   1.428   1.798  1.0835 -0.2413 -0.1186
11851TIP3    H235511   5.295   1.316   1.698  0.1344 -1.0684  1.0301
11852TIP3   OH235512   7.623   6.622   1.957  0.3833 -0.8158 -0.2873
11852TIP3    H135513   7.545   6.653   1.910 -0.9683 -1.6315  1.3093
11852TIP3    H235514   7.588   6.571   2.030  2.3608  0.4845  1.6915
11853TIP3   OH235515   0.470   2.855   4.009 -0.4268 -0.1312  0.0162
11853TIP3    H135516   0.464   2.853   3.913  2.7046 -1.5382 -0.2955
11853TIP3    H235517   0.415   2.928   4.035 -0.2709  1.2295 -3.0092
11854TIP3   OH235518   4.090   7.027   5.626 -0.7390  0.2791 -0.4236
11854TIP3    H135519   4.057   6.958   5.683  0.9701  0.9104  1.4272
11854TIP3    H235520   4.145   7.081   5.683  1.0933  0.9335 -2.6769
11855TIP3   OH235521   3.974   7.384   6.186  0.0493  0.0384 -0.7277
11855TIP3    H135522   3.887   7.344   6.191  0.6672 -1.3186 -0.2353
11855TIP3    H235523   3.964   7.470   6.228 -1.2071  0.2227 -1.3641
11856TIP3   OH235524   4.544   6.886   1.280  0.5617 -0.4970  0.6319
11856TIP3    H135525   4.484   6.813   1.269 -0.9917  0.8525 -0.4216
11856TIP3    H235526   4.514   6.930   1.360  0.4163 -0.0653  0.3432
11857TIP3   OH235527   3.301   6.657   6.250 -0.6189 -0.2396  0.5562
11857TIP3    H135528   3.362   6.587   6.273 -0.7695 -0.0279  1.6669
11857TIP3    H235529   3.356   6.730   6.223 -0.4452 -0.6043 -0.1054
11858TIP3   OH235530   2.165   4.824   0.303 -0.1581  0.0680  0.3950
11858TIP3    H135531   2.118   4.901   0.335  0.5495  0.3377  0.8244
11858TIP3    H235532   2.138   4.753   0.362  1.0419  0.5339  1.5610
11859TIP3   OH235533   4.273   5.731   4.636 -0.0552  0.4705 -0.5297
11859TIP3    H135534   4.344   5.752   4.697 -0.7487  1.3512 -0.0078
11859TIP3    H235535   4.266   5.635   4.639 -1.5091  0.5620  2.4585
11860TIP3   OH235536   3.630   7.575   6.737 -0.3539  0.0324  0.3385
11860TIP3    H135537   3.652   7.607   6.824 -0.4592  0.8469  0.0787
11860TIP3    H235538   3.710   7.589   6.686 -0.7605  0.9818 -0.0649
11861TIP3   OH235539   4.213   5.510   3.270 -0.0349 -0.3484  0.2662
11861TIP3    H135540   4.251   5.422   3.266 -1.6243 -1.0698  0.5566
11861TIP3    H235541   4.119   5.495   3.276 -0.2857  1.3705  0.9370
11862TIP3   OH235542   2.748   4.551   3.967  0.0963  0.0561 -0.0423
11862TIP3    H135543   2.670   4.606   3.961  0.7464  1.0957  0.7819
11862TIP3    H235544   2.721   4.468   3.927 -0.5641  1.3237 -2.4898
11863TIP3   OH235545   5.791   7.226   1.983 -0.0890  0.4227 -0.4251
11863TIP3    H135546   5.833   7.303   1.946 -0.5605  1.2392  0.6576
11863TIP3    H235547   5.859   7.185   2.037 -0.2174  0.8900  0.1116
11864TIP3   OH235548   5.099   7.272   5.358  0.3451 -0.2678  0.0440
11864TIP3    H135549   5.106   7.177   5.370 -0.5747 -0.4110 -0.4195
11864TIP3    H235550   5.023   7.283   5.300 -0.3619  0.8174  1.1361
11865TIP3   OH235551   5.584   5.440   5.785 -0.2630  0.6152  0.3633
11865TIP3    H135552   5.512   5.498   5.761  0.7702  2.1678  0.7941
11865TIP3    H235553   5.547   5.382   5.851 -1.6831 -0.1388 -1.0363
11866TIP3   OH235554   7.138   1.921   4.304 -0.6289  0.1302 -0.0117
11866TIP3    H135555   7.047   1.945   4.320 -1.0698 -0.7436 -1.1112
11866TIP3    H235556   7.137   1.872   4.222  0.9300  0.6884 -0.4191
11867TIP3   OH235557   1.868   0.361   5.755 -0.0535 -0.8270  0.2572
11867TIP3    H135558   1.875   0.266   5.770 -0.5456 -0.7070  1.3246
11867TIP3    H235559   1.950   0.384   5.712 -0.2431 -1.8602 -0.7346
11868TIP3   OH235560   1.294   7.139   2.720 -0.1559  0.0596  0.3919
11868TIP3    H135561   1.368   7.197   2.703  0.5883  0.0021  2.9787
11868TIP3    H235562   1.239   7.188   2.780 -0.8986 -0.9012  0.5125
11869TIP3   OH235563   4.119   3.124   0.019 -0.4495 -0.1426 -0.1889
11869TIP3    H135564   4.153   3.183   0.087 -0.9188 -2.0300  1.8101
11869TIP3    H235565   4.028   3.152   0.006 -1.3117 -1.4947  2.2015
11870TIP3   OH235566   7.657   0.855   0.870  0.0595  0.5103  0.1374
11870TIP3    H135567   7.608   0.857   0.788  0.8817  0.2983 -0.3758
11870TIP3    H235568   7.689   0.765   0.877  0.6326  0.7236  0.3003
11871TIP3   OH235569   1.067   3.953   5.792  0.1423 -0.0257  1.0044
11871TIP3    H135570   1.100   4.043   5.787 -1.3096  0.5607  1.4677
11871TIP3    H235571   0.985   3.955   5.742  0.2266 -1.1603  0.8054
11872TIP3   OH235572  -0.012   5.386   4.175  0.6523 -0.4380  0.8730
11872TIP3    H135573   0.042   5.443   4.230  1.3053 -0.3042  0.1182
11872TIP3    H235574   0.037   5.380   4.092 -0.7036  0.0481  0.0076
11873TIP3   OH235575   5.266   4.705   5.417  0.0724 -0.1857 -0.3380
11873TIP3    H135576   5.295   4.649   5.490 -0.9583  0.1597  0.3617
11873TIP3    H235577   5.328   4.777   5.417  0.1654 -0.2571  0.1232
11874TIP3   OH235578   6.051   1.679   6.244 -0.0954  0.2792 -0.1994
11874TIP3    H135579   6.048   1.773   6.261  0.3272  0.0328  1.4471
11874TIP3    H235580   5.987   1.643   6.306  0.8166 -0.6274  0.2432
11875TIP3   OH235581   5.862   4.171   2.417 -0.0381 -0.4652 -0.2070
11875TIP3    H135582   5.885   4.185   2.325 -1.4984 -0.9754 -0.6821
11875TIP3    H235583   5.924   4.106   2.448 -0.1026 -0.9666 -1.1055
11876TIP3   OH235584   6.415   5.027   4.456  0.2649  0.3294 -0.4217
11876TIP3    H135585   6.396   4.954   4.398 -0.7224  0.0775  0.1839
11876TIP3    H235586   6.489   4.997   4.509 -0.1389 -0.2456 -0.1727
11877TIP3   OH235587   2.191   5.968   4.287 -0.6017  0.0607 -0.2700
11877TIP3    H135588   2.277   6.000   4.315 -1.3189  0.9926  1.0042
11877TIP3    H235589   2.172   5.894   4.345 -0.1862 -0.8893 -1.3123
11878TIP3   OH235590   2.020   4.014   5.415  0.3876 -0.1404 -0.1138
11878TIP3    H135591   2.112   3.991   5.407 -0.0458 -1.4181 -2.5642
11878TIP3    H235592   2.018   4.109   5.411  1.6748  0.0207  1.8758
11879TIP3   OH235593   2.031   0.788   6.155  0.3358 -0.3364 -0.4470
11879TIP3    H135594   1.995   0.764   6.241 -0.3628 -0.1914 -0.6896
11879TIP3    H235595   2.026   0.707   6.104  2.0333 -0.7860  0.0568
11880TIP3   OH235596   1.806   3.434   6.341 -0.0745  0.0667 -0.4943
11880TIP3    H135597   1.778   3.348   6.374 -2.3141  0.7344 -0.4976
11880TIP3    H235598   1.875   3.461   6.401  1.5275 -2.1906 -1.1572
11881TIP3   OH235599   5.052   3.182   0.853  0.6924  0.5068  0.4768
11881TIP3    H135600   5.011   3.152   0.772  0.4699  0.0627  0.7520
11881TIP3    H235601   5.139   3.143   0.852 -0.2128 -1.7419  1.7106
11882TIP3   OH235602   1.189   3.534   6.749  0.0400 -0.3983  0.1920
11882TIP3    H135603   1.118   3.475   6.724 -0.9176 -0.1672  2.1581
11882TIP3    H235604   1.216   3.576   6.667 -1.6813 -0.9274 -0.6947
11883TIP3   OH235605   0.642   5.262   5.644  0.0653 -0.3150  0.0100
11883TIP3    H135606   0.549   5.243   5.654 -0.3303  1.4097  0.0103
11883TIP3    H235607   0.647   5.358   5.646  1.9435 -0.3810  0.9081
11884TIP3   OH235608   5.576   7.643   3.110  0.4021  0.7072  0.1301
11884TIP3    H135609   5.651   7.697   3.135  0.5947 -0.2056  1.6074
11884TIP3    H235610   5.586   7.562   3.159 -1.5607  0.5558  0.3854
11885TIP3   OH235611   5.814   4.060   4.307  0.1590  0.0598 -0.6336
11885TIP3    H135612   5.881   4.120   4.274 -1.0155  2.2104  0.6114
11885TIP3    H235613   5.732   4.109   4.297 -0.8017 -1.1388  0.9262
11886TIP3   OH235614   0.204   7.757   6.441 -0.3850 -0.2807  0.0842
11886TIP3    H135615   0.167   7.826   6.497 -0.7727  1.0823 -1.7484
11886TIP3    H235616   0.282   7.798   6.402  0.4862 -1.5689  0.4350
11887TIP3   OH235617   4.727   5.346   1.662  0.4468  0.2889  0.0195
11887TIP3    H135618   4.784   5.423   1.667 -1.3006  1.7851 -1.2182
11887TIP3    H235619   4.650   5.370   1.714  0.3723 -1.1706  0.6418
11888TIP3   OH235620   2.441   3.770   4.006 -0.1275 -0.0096 -0.4680
11888TIP3    H135621   2.362   3.767   3.952 -1.1608  2.3668  0.7467
11888TIP3    H235622   2.424   3.709   4.077 -0.6981  0.1305 -0.4742
11889TIP3   OH235623   5.666   4.359   5.292 -0.4744  0.0153 -0.2099
11889TIP3    H135624   5.647   4.378   5.200 -2.2474  1.0824  0.3139
11889TIP3    H235625   5.732   4.423   5.317 -1.2453  0.8865 -0.3265
11890TIP3   OH235626   7.523   2.167   2.618 -0.8094 -0.2853  0.1848
11890TIP3    H135627   7.581   2.119   2.559  0.9066 -0.1158  1.6263
11890TIP3    H235628   7.515   2.110   2.695  0.3479  1.2003  1.4574
11891TIP3   OH235629   0.755   4.198   0.752 -0.0369  0.0525  0.4033
11891TIP3    H135630   0.799   4.115   0.774 -0.4291  0.6237  3.7680
11891TIP3    H235631   0.827   4.261   0.742  0.1816 -0.3520 -0.8134
11892TIP3   OH235632   1.001   1.096   0.176  0.1264 -0.2499  0.1253
11892TIP3    H135633   0.976   1.102   0.268 -0.0682  1.2578  0.0027
11892TIP3    H235634   1.047   1.012   0.169 -1.8704 -1.4925  1.0718
11893TIP3   OH235635   7.628   5.153   6.507 -0.7578  0.5191  0.2658
11893TIP3    H135636   7.600   5.136   6.597  0.3229 -1.6821  0.2431
11893TIP3    H235637   7.557   5.117   6.453 -0.9002  0.8434  0.2371
11894TIP3   OH235638   5.004   2.051   5.037 -0.6851 -0.1871 -0.4319
11894TIP3    H135639   5.029   2.141   5.019 -0.1568 -0.5988 -1.8576
11894TIP3    H235640   4.951   2.057   5.117 -2.0216  1.5757 -1.3841
11895TIP3   OH235641   7.868   3.142   5.258  0.1515  0.4955  0.5178
11895TIP3    H135642   7.817   3.061   5.266 -1.2802  1.3971  0.9947
11895TIP3    H235643   7.863   3.164   5.165 -0.0630  0.3933  0.5031
11896TIP3   OH235644   6.635   7.141   6.757  0.0085 -0.6035  0.7358
11896TIP3    H135645   6.673   7.166   6.672  1.0840  0.1347  1.4008
11896TIP3    H235646   6.540   7.144   6.743  0.1627 -1.0723 -0.5900
11897TIP3   OH235647   7.226   2.209   4.407  0.1609  0.2593  0.3926
11897TIP3    H135648   7.201   2.189   4.497  1.4027  0.7758  0.8654
11897TIP3    H235649   7.279   2.289   4.414  2.2240 -0.9565 -0.5193
11898TIP3   OH235650   4.787   3.708   0.627  0.0279 -0.1703 -0.1933
11898TIP3    H135651   4.759   3.670   0.544 -2.3645  0.5000  0.2366
11898TIP3    H235652   4.871   3.751   0.607 -0.2844 -0.3919 -2.1448
11899TIP3   OH235653   3.757   7.036   6.712 -0.3891  0.0430 -0.0919
11899TIP3    H135654   3.830   7.057   6.653  1.0058 -0.6275  1.3300
11899TIP3    H235655   3.727   7.121   6.743 -3.5432  0.8016 -4.3119
11900TIP3   OH235656   0.376   3.792   5.549  0.4919  0.3057  0.0368
11900TIP3    H135657   0.284   3.814   5.536  0.6490  0.8567 -0.1843
11900TIP3    H235658   0.378   3.697   5.552  0.3587  0.0743 -3.5252
11901TIP3   OH235659   3.059   0.599   4.385 -0.4753 -0.1083 -0.4859
11901TIP3    H135660   3.089   0.557   4.304  1.3203 -1.2975  0.7149
11901TIP3    H235661   3.013   0.530   4.433  0.3853 -0.0618  0.4440
11902TIP3   OH235662   2.951   3.258   4.828 -0.0008 -0.4381 -0.7136
11902TIP3    H135663   2.932   3.246   4.735 -2.7612  0.7659 -0.4162
11902TIP3    H235664   2.892   3.198   4.873 -0.4278  0.6611  0.2673
11903TIP3   OH235665   8.286   2.636   0.051 -0.2862 -0.1851 -0.2263
11903TIP3    H135666   8.329   2.721   0.049  0.0224 -0.3498 -0.6518
11903TIP3    H235667   8.230   2.639   0.129  0.1115  0.2129  0.0448
11904TIP3   OH235668   2.819   5.860   1.601 -0.3693 -0.4694 -0.1820
11904TIP3    H135669   2.735   5.838   1.643  0.9160 -2.2820  1.6475
11904TIP3    H235670   2.812   5.953   1.580 -2.3685 -0.2866  1.0496
11905TIP3   OH235671   3.919   3.311   4.381  0.8940 -0.5148 -0.3691
11905TIP3    H135672   3.962   3.371   4.442 -0.0847 -0.4487  0.2881
11905TIP3    H235673   3.900   3.234   4.434  0.4613 -0.6526 -0.7190
11906TIP3   OH235674   8.269   3.713   2.486 -0.8801 -0.6068 -0.0446
11906TIP3    H135675   8.291   3.639   2.542 -2.5252 -0.5495  0.7313
11906TIP3    H235676   8.250   3.674   2.401 -2.7605 -1.2467  0.6223
11907TIP3   OH235677   2.606   6.781   2.454 -0.7507  0.2381 -0.4220
11907TIP3    H135678   2.689   6.822   2.431 -1.1817  0.4302 -1.7286
11907TIP3    H235679   2.616   6.690   2.425 -0.4820 -0.1181  0.7452
11908TIP3   OH235680   2.358   5.531   4.818 -0.3020  0.0922  0.2670
11908TIP3    H135681   2.306   5.601   4.779  2.4094  1.8029 -0.5427
11908TIP3    H235682   2.364   5.465   4.748 -0.6378  0.2900  0.0476
11909TIP3   OH235683   6.413   0.445   3.804 -0.0778  0.4834  0.0146
11909TIP3    H135684   6.429   0.446   3.709  0.7647  0.0787  0.1543
11909TIP3    H235685   6.490   0.487   3.842 -1.0268  1.9114  0.4410
11910TIP3   OH235686   4.451   3.850   3.104 -0.0819  0.0401 -0.6355
11910TIP3    H135687   4.515   3.898   3.157  2.0473 -1.5542 -1.5676
11910TIP3    H235688   4.463   3.885   3.016  0.7537 -1.3503 -1.1236
11911TIP3   OH235689   5.807   0.082   6.328  0.3073 -0.6103  0.0845
11911TIP3    H135690   5.805   0.156   6.388  2.0735  1.4309 -2.1577
11911TIP3    H235691   5.897   0.050   6.332  0.2808 -0.8444 -0.9368
11912TIP3   OH235692   5.041   5.230   1.805 -0.1527  0.0185  0.1504
11912TIP3    H135693   5.046   5.280   1.886  1.4419 -1.4734  1.0445
11912TIP3    H235694   5.000   5.290   1.742 -0.1728  1.6933  1.6828
11913TIP3   OH235695   1.249   4.638   6.112 -0.3475  0.4457  0.2649
11913TIP3    H135696   1.229   4.732   6.107 -1.7400  0.1824  0.5450
11913TIP3    H235697   1.253   4.620   6.206 -0.7200  0.0894  0.2095
11914TIP3   OH235698   0.690   4.340   0.124 -0.3256 -0.1138  0.7094
11914TIP3    H135699   0.630   4.412   0.105 -2.0161 -1.1922  1.7315
11914TIP3    H235700   0.635   4.271   0.160  1.5554 -1.1335  1.8056
11915TIP3   OH235701   6.892   5.560   5.488 -0.0370  0.6034 -0.2434
11915TIP3    H135702   6.910   5.652   5.468 -0.4401  0.8374  0.4238
11915TIP3    H235703   6.822   5.536   5.428 -0.9944  1.1970  0.5938
11916TIP3   OH235704   3.360   0.134   5.272 -0.2106 -0.0668  0.2475
11916TIP3    H135705   3.408   0.107   5.351 -0.1489  0.9806  0.5842
11916TIP3    H235706   3.275   0.091   5.280  1.0959 -3.2220 -1.1182
11917TIP3   OH235707   4.603   3.397   3.178 -0.0415  0.6683  0.1939
11917TIP3    H135708   4.615   3.313   3.133  1.5084  0.6478  0.5656
11917TIP3    H235709   4.612   3.377   3.271 -1.0760  1.0437  0.3897
11918TIP3   OH235710   4.698   2.832   6.078 -0.0467  0.1409 -0.2507
11918TIP3    H135711   4.751   2.765   6.119 -1.9967 -0.5222  1.3507
11918TIP3    H235712   4.614   2.789   6.060 -1.0398  1.8669 -0.0260
11919TIP3   OH235713   4.453   3.034   0.707 -0.1029  0.0914  0.0503
11919TIP3    H135714   4.446   3.128   0.719  0.9378  0.3859 -1.4454
11919TIP3    H235715   4.420   3.017   0.619  0.9033 -0.7589 -0.1905
11920TIP3   OH235716   6.675   7.099   1.269 -0.2457  0.2864 -0.1645
11920TIP3    H135717   6.768   7.118   1.255 -0.3979  0.8042 -0.4716
11920TIP3    H235718   6.629   7.168   1.222 -0.7835  0.3713  0.4733
11921TIP3   OH235719   1.981   0.612   4.177 -0.1933  0.4886  0.0138
11921TIP3    H135720   2.022   0.563   4.106 -0.3328  0.6210 -0.1588
11921TIP3    H235721   2.035   0.690   4.187 -0.3900  0.6520 -0.1980
11922TIP3   OH235722   4.968   6.624   4.916  0.3500  0.2998  0.1720
11922TIP3    H135723   5.049   6.625   4.865  0.3718 -1.8514  0.0516
11922TIP3    H235724   4.995   6.608   5.006  0.0701 -1.3341  0.0028
11923TIP3   OH235725   0.253   3.509   2.211 -0.9025 -0.3792 -0.4295
11923TIP3    H135726   0.283   3.420   2.191 -2.4834 -0.8084 -1.0076
11923TIP3    H235727   0.334   3.561   2.213 -0.1481 -1.3571 -2.4889
11924TIP3   OH235728   0.364   5.310   5.637  0.6751  0.8510  0.1325
11924TIP3    H135729   0.340   5.394   5.677  1.5718  1.2317 -0.1175
11924TIP3    H235730   0.307   5.304   5.560 -0.3929  0.5567  0.9309
11925TIP3   OH235731   7.326   6.091   1.307  0.5719 -0.1911  0.7511
11925TIP3    H135732   7.318   6.078   1.213 -2.1647  0.1642  0.8579
11925TIP3    H235733   7.243   6.131   1.333  1.7910  1.0395  3.1089
11926TIP3   OH235734   2.409   1.390   5.272 -0.3609 -0.3071  0.5393
11926TIP3    H135735   2.456   1.334   5.212 -0.6973 -0.0050 -0.0142
11926TIP3    H235736   2.348   1.332   5.317 -0.4649 -0.4444  0.2196
11927TIP3   OH235737   7.878   2.871   0.705  0.0350  0.4799  0.2079
11927TIP3    H135738   7.893   2.920   0.786  0.1330  1.7305 -0.5469
11927TIP3    H235739   7.799   2.820   0.722  1.0579 -0.6876  1.7131
11928TIP3   OH235740   6.015   5.791   6.380  0.4774  0.2161 -0.0570
11928TIP3    H135741   5.978   5.757   6.462  1.6907  0.5419  0.6456
11928TIP3    H235742   6.088   5.845   6.408 -0.3978  2.1115 -1.2313
11929TIP3   OH235743   0.471   3.927   1.144  0.0650 -0.1540 -0.3476
11929TIP3    H135744   0.482   3.982   1.066 -0.1149 -0.4425 -0.5791
11929TIP3    H235745   0.466   3.838   1.110 -0.5891 -0.2340 -0.0580
11930TIP3   OH235746   7.177   0.976   2.729 -0.0480  0.0528 -0.2715
11930TIP3    H135747   7.178   0.927   2.646 -1.4596 -1.7699  0.7109
11930TIP3    H235748   7.200   0.912   2.796 -1.3056  0.8662  1.0069
11931TIP3   OH235749   3.345   2.382   4.975 -0.3245  0.1079 -0.2027
11931TIP3    H135750   3.347   2.472   4.942  2.7061  1.1473  2.3226
11931TIP3    H235751   3.373   2.329   4.901 -0.0310  1.4965 -1.1331
11932TIP3   OH235752   5.887   4.918   0.390  0.2228  0.1232  0.4006
11932TIP3    H135753   5.872   4.852   0.458  3.5464 -1.0461  0.2174
11932TIP3    H235754   5.919   4.867   0.315 -1.0500  1.6157 -1.2072
11933TIP3   OH235755   2.124   6.343   2.850  0.4930 -0.0597  0.0150
11933TIP3    H135756   2.078   6.323   2.931  1.2392  0.4628  0.5849
11933TIP3    H235757   2.059   6.331   2.781 -1.6151  4.0470  0.9804
11934TIP3   OH235758   0.318   7.351   0.896  0.3253  0.1735 -0.3969
11934TIP3    H135759   0.364   7.297   0.960  1.0918  0.9691 -0.2505
11934TIP3    H235760   0.238   7.303   0.876  0.8981 -0.9122 -0.1316
11935TIP3   OH235761   4.329   2.614   2.050 -0.1296  0.2745  0.7597
11935TIP3    H135762   4.267   2.587   1.982  1.4155 -0.3227 -0.4737
11935TIP3    H235763   4.282   2.679   2.101 -1.2935  0.8813 -1.0059
11936TIP3   OH235764   5.825   7.483   6.579 -0.2164  0.3316  0.4258
11936TIP3    H135765   5.740   7.460   6.541  0.0623 -0.3815  0.2199
11936TIP3    H235766   5.873   7.525   6.508  0.0285 -0.3202  0.2025
11937TIP3   OH235767   4.101   1.685   5.702 -0.3456  0.4718 -0.0448
11937TIP3    H135768   4.072   1.776   5.697  1.4190  1.0572 -0.4004
11937TIP3    H235769   4.071   1.646   5.620 -1.0216  0.7459  0.0647
11938TIP3   OH235770   3.887   4.718   2.291  0.5024  0.0093  0.0133
11938TIP3    H135771   3.939   4.726   2.211  0.7635  2.7923  0.3443
11938TIP3    H235772   3.805   4.763   2.271  0.2307 -0.0035  1.0221
11939TIP3   OH235773   4.705   6.606   2.148 -0.3814  0.6863 -0.0139
11939TIP3    H135774   4.778   6.565   2.100  1.0578  1.9206  1.0213
11939TIP3    H235775   4.707   6.697   2.121 -1.4068  0.7865  0.2288
11940TIP3   OH235776   5.482   6.145   5.542  0.3036 -0.0432 -0.2675
11940TIP3    H135777   5.508   6.166   5.632  0.4632  1.3508 -0.6134
11940TIP3    H235778   5.552   6.089   5.509  1.3216  1.1398 -0.1791
11941TIP3   OH235779   2.713   7.701   0.320 -0.3950 -0.2209  0.5660
11941TIP3    H135780   2.671   7.623   0.284 -1.4003  0.9608 -1.0315
11941TIP3    H235781   2.650   7.735   0.383  0.1920 -0.8637  1.5126
11942TIP3   OH235782   2.480   5.371   2.756  1.1898  0.3453  0.4558
11942TIP3    H135783   2.498   5.400   2.846  1.0351  0.0499  0.5840
11942TIP3    H235784   2.439   5.447   2.715  1.2236  0.4693  0.6477
11943TIP3   OH235785   3.381   4.357   1.816  0.0713  0.3088  0.1430
11943TIP3    H135786   3.411   4.266   1.814 -0.2649  0.1721 -2.1396
11943TIP3    H235787   3.448   4.405   1.766 -0.7822  0.9240 -0.4393
11944TIP3   OH235788   7.747   5.531   2.190  0.0435 -0.2629  0.1784
11944TIP3    H135789   7.723   5.442   2.214 -1.1485 -0.1127 -0.3981
11944TIP3    H235790   7.795   5.522   2.108 -0.4215 -0.3508 -0.0878
11945TIP3   OH235791   0.067   5.452   2.214  0.0594  0.3379  0.2597
11945TIP3    H135792   0.019   5.390   2.268  0.5610  0.4483  0.8394
11945TIP3    H235793   0.157   5.450   2.247  0.8469 -0.9486 -1.7383
11946TIP3   OH235794   7.730   0.505   0.125 -0.5115 -0.0208  0.2166
11946TIP3    H135795   7.823   0.498   0.104  0.3654  2.4608  2.5878
11946TIP3    H235796   7.697   0.576   0.069 -0.4959  0.3579  0.6825
11947TIP3   OH235797   7.946   7.386   1.392 -0.0739 -0.5535 -0.7640
11947TIP3    H135798   8.023   7.422   1.349 -0.0956 -0.0251 -0.3705
11947TIP3    H235799   7.903   7.333   1.325 -1.3773  2.0592 -2.1558
11948TIP3   OH235800   5.388   4.604   1.002 -0.0217  0.2318 -0.6720
11948TIP3    H135801   5.408   4.512   1.015 -2.5074 -0.4190 -0.8315
11948TIP3    H235802   5.424   4.626   0.916  0.7124 -0.5408 -0.5643
11949TIP3   OH235803   7.380   4.928   6.679  0.4024 -0.2112 -0.1811
11949TIP3    H135804   7.442   4.974   6.736 -0.5951  0.6642  0.2538
11949TIP3    H235805   7.303   4.985   6.678 -0.1734 -0.9809 -1.1735
11950TIP3   OH235806   0.480   3.063   3.208  0.3826  0.0143 -1.0013
11950TIP3    H135807   0.450   3.106   3.289 -0.3575 -2.8471  0.3585
11950TIP3    H235808   0.410   3.001   3.187  2.2347 -1.9247 -1.7166
11951TIP3   OH235809   5.656   5.592   2.561  0.9667  0.1211  0.3420
11951TIP3    H135810   5.613   5.516   2.522  1.4482  0.4874 -0.9657
11951TIP3    H235811   5.687   5.561   2.646 -2.4530  0.0437  1.7104
11952TIP3   OH235812   1.532   5.045   5.072 -0.2906 -0.2987 -0.1083
11952TIP3    H135813   1.531   4.991   5.151 -0.7840 -0.5939 -0.3112
11952TIP3    H235814   1.453   5.099   5.079  0.1547  0.3358  0.0489
11953TIP3   OH235815   7.425   5.335   3.144 -0.0703 -0.0014 -0.0826
11953TIP3    H135816   7.356   5.269   3.137  0.0142 -0.0608 -0.3823
11953TIP3    H235817   7.489   5.310   3.078  0.0560  0.2703 -0.0666
11954TIP3   OH235818   3.101   2.856   6.133  0.2342  0.1639  0.3920
11954TIP3    H135819   3.150   2.871   6.214  2.1334 -1.4013 -0.3790
11954TIP3    H235820   3.068   2.766   6.141  5.0262 -2.2567 -2.5654
11955TIP3   OH235821   3.558   7.064   0.857 -0.0293  0.3491 -0.5390
11955TIP3    H135822   3.632   7.016   0.818  0.9994 -0.7594  2.5136
11955TIP3    H235823   3.481   7.010   0.836 -0.0375  1.2740 -3.3455
11956TIP3   OH235824   4.540   3.244   0.960 -0.1406  0.4004  0.1460
11956TIP3    H135825   4.498   3.315   0.911  1.1841  1.4486  0.4635
11956TIP3    H235826   4.608   3.212   0.901 -0.1185  0.0241  0.3761
11957TIP3   OH235827   1.851   1.682   4.372  0.1209 -0.3368  0.2335
11957TIP3    H135828   1.803   1.701   4.292  2.3242  0.0500 -1.0859
11957TIP3    H235829   1.818   1.745   4.436 -1.0744 -0.0978 -0.5898
11958TIP3   OH235830   4.639   2.985   1.806  0.2285  0.6606  0.0870
11958TIP3    H135831   4.561   2.938   1.777  0.0093  0.7198  0.5663
11958TIP3    H235832   4.605   3.055   1.862  0.6417  0.4993  0.5490
11959TIP3   OH235833   7.371   0.181   0.902 -0.2907 -0.2344 -0.5293
11959TIP3    H135834   7.340   0.271   0.898 -0.7480 -0.4112 -1.0503
11959TIP3    H235835   7.313   0.133   0.842 -2.4019 -1.5673  2.3395
11960TIP3   OH235836   3.311   4.288   0.587 -0.6471 -0.9457  0.0871
11960TIP3    H135837   3.356   4.270   0.670 -1.4274 -0.5253  0.6181
11960TIP3    H235838   3.358   4.363   0.550 -0.7732 -0.6353  0.5408
11961TIP3   OH235839   8.124   6.245   5.958  0.1586  0.1059  0.2772
11961TIP3    H135840   8.124   6.256   6.053  0.1687 -1.7751  0.5316
11961TIP3    H235841   8.216   6.253   5.933 -0.0227  2.3398  0.1529
11962TIP3   OH235842   1.030   4.330   6.467 -0.7093 -0.1025  0.5128
11962TIP3    H135843   0.952   4.362   6.512 -0.3857  1.0247  0.2899
11962TIP3    H235844   1.032   4.236   6.487 -1.0213  0.2091  2.1716
11963TIP3   OH235845   7.428   6.011   2.673 -0.2830  0.1310 -0.0609
11963TIP3    H135846   7.519   5.993   2.696 -0.0984 -0.8536 -1.4558
11963TIP3    H235847   7.433   6.085   2.612 -0.4676  0.3909  0.2355
11964TIP3   OH235848   6.185   4.421   4.740 -0.2232 -0.1193 -0.0545
11964TIP3    H135849   6.265   4.469   4.763 -0.1449 -0.0496 -0.4614
11964TIP3    H235850   6.186   4.343   4.796  1.3978 -1.3947 -1.7280
11965TIP3   OH235851   5.399   5.430   1.670 -0.0129  0.5004 -0.0267
11965TIP3    H135852   5.467   5.477   1.622 -0.1765  0.8586  0.0904
11965TIP3    H235853   5.354   5.497   1.721 -0.1686  0.1997  0.2387
11966TIP3   OH235854   1.675   5.638   2.623 -0.0048  0.0476  0.4463
11966TIP3    H135855   1.700   5.548   2.603  0.2324 -0.0085  0.9808
11966TIP3    H235856   1.597   5.629   2.678  0.3187  0.1485  0.9303
11967TIP3   OH235857   3.381   3.264   3.771 -0.4107  0.0012  0.0576
11967TIP3    H135858   3.400   3.172   3.791  0.8347  0.2608  0.1394
11967TIP3    H235859   3.410   3.276   3.681 -0.0573  0.4489  0.2272
11968TIP3   OH235860   3.488   3.857   2.202  0.4673  0.1932 -0.3412
11968TIP3    H135861   3.561   3.876   2.142 -0.1560 -0.5772 -1.3697
11968TIP3    H235862   3.505   3.768   2.232 -0.5678 -0.3895 -1.3961
11969TIP3   OH235863   1.213   0.388   3.409  0.5419  0.2568 -1.0150
11969TIP3    H135864   1.195   0.296   3.430  0.2473  0.3970 -0.6625
11969TIP3    H235865   1.252   0.384   3.321  1.2702 -0.2765 -0.6825
11970TIP3   OH235866   0.236   3.200   2.783 -0.0788 -0.6279  0.8393
11970TIP3    H135867   0.250   3.290   2.752 -0.2402 -0.9875 -0.2815
11970TIP3    H235868   0.147   3.201   2.818 -0.6272 -0.7052 -0.5013
11971TIP3   OH235869   6.752   7.606   6.456 -0.3613  0.6135  0.1244
11971TIP3    H135870   6.745   7.663   6.379  1.3025  0.4996 -0.1404
11971TIP3    H235871   6.702   7.652   6.524 -2.0470  0.6099 -1.0489
11972TIP3   OH235872   7.638   1.239   4.749  0.2329  0.4697  0.2246
11972TIP3    H135873   7.574   1.256   4.679  1.3488  1.1614 -0.6508
11972TIP3    H235874   7.622   1.309   4.813 -0.0962  0.4470  0.1716
11973TIP3   OH235875   3.607   4.712   2.775  0.7572  0.2952 -0.3123
11973TIP3    H135876   3.586   4.702   2.868  1.6838 -0.4565 -0.1612
11973TIP3    H235877   3.625   4.805   2.764  0.7439  0.3755  0.2961
11974TIP3   OH235878   6.309   3.952   3.692  0.3684 -0.0347  0.4396
11974TIP3    H135879   6.377   4.017   3.707  1.3952 -1.3430  1.7633
11974TIP3    H235880   6.351   3.884   3.639 -0.7216  0.3963 -1.0366
11975TIP3   OH235881   6.366   3.425   3.685  0.2108 -0.6195 -0.3715
11975TIP3    H135882   6.407   3.411   3.600  1.2955 -1.6628  0.2955
11975TIP3    H235883   6.432   3.399   3.749  0.6835  3.1484  0.9480
11976TIP3   OH235884   6.940   5.819   3.857 -0.2312 -0.2061  0.6354
11976TIP3    H135885   6.977   5.787   3.775 -0.4735 -0.1758  0.5132
11976TIP3    H235886   6.852   5.848   3.834  0.4585  1.9173  0.4230
11977TIP3   OH235887   7.571   7.257   4.527 -0.0282  0.0633  0.0930
11977TIP3    H135888   7.523   7.181   4.494  0.4540 -0.6683  1.0472
11977TIP3    H235889   7.550   7.327   4.464 -2.8284 -0.0366  0.7807
11978TIP3   OH235890   7.146   1.781   1.868 -0.0188  0.2771 -0.0710
11978TIP3    H135891   7.146   1.737   1.782 -0.0666  0.0347  0.0507
11978TIP3    H235892   7.054   1.802   1.884 -0.6948 -3.2385  1.6957
11979TIP3   OH235893   2.293   6.763   6.595  0.9363  0.5734 -0.1061
11979TIP3    H135894   2.377   6.720   6.582  0.9029  0.3599  0.3453
11979TIP3    H235895   2.315   6.856   6.599  0.9671  0.6336 -1.4007
11980TIP3   OH235896   2.844   3.381   0.385 -0.1780  0.0880  0.1142
11980TIP3    H135897   2.844   3.344   0.297  0.0174 -0.5400  0.3792
11980TIP3    H235898   2.783   3.326   0.435  0.7463 -0.4057  0.7216
11981TIP3   OH235899   5.002   1.320   2.398  0.3210  0.3766  0.4026
11981TIP3    H135900   5.059   1.369   2.339 -0.4535  1.0189  0.1650
11981TIP3    H235901   4.935   1.281   2.341  1.1486 -1.3303  0.5333
11982TIP3   OH235902   4.602   4.385   0.676 -0.7662 -0.5645 -0.0369
11982TIP3    H135903   4.519   4.432   0.682 -0.9262 -0.9792  1.6768
11982TIP3    H235904   4.659   4.443   0.626 -0.7625  1.8498  2.4915
11983TIP3   OH235905   7.723   5.746   1.910  0.3005 -0.4299 -0.8545
11983TIP3    H135906   7.761   5.663   1.939  0.6268 -0.2708 -0.8155
11983TIP3    H235907   7.785   5.812   1.940 -0.2996 -0.1140 -0.2840
11984TIP3   OH235908   7.619   0.837   0.619  0.8691  0.3985  0.4039
11984TIP3    H135909   7.606   0.899   0.548  2.0994  0.3970  0.1482
11984TIP3    H235910   7.633   0.753   0.575  0.2318  0.1266  0.7086
11985TIP3   OH235911   0.610   3.562   4.594  0.5445  0.7417  0.4861
11985TIP3    H135912   0.652   3.516   4.666 -1.8698 -2.5554  0.0359
11985TIP3    H235913   0.603   3.496   4.524 -3.1708  1.6713 -0.2424
11986TIP3   OH235914   6.371   4.312   5.698  0.1710 -0.1707 -0.1515
11986TIP3    H135915   6.403   4.270   5.618 -0.0310  1.5961 -1.2273
11986TIP3    H235916   6.438   4.292   5.763  1.0851 -0.4590 -1.1431
11987TIP3   OH235917   4.430   5.544   1.337 -0.1108 -0.4246 -0.4795
11987TIP3    H135918   4.428   5.510   1.427 -0.4568 -1.2217 -0.7737
11987TIP3    H235919   4.338   5.556   1.314 -0.0129 -0.0091 -0.6483
11988TIP3   OH235920   4.526   6.272   5.767  0.0896  0.3214  0.0254
11988TIP3    H135921   4.589   6.256   5.696  1.8093 -2.7252  1.9850
11988TIP3    H235922   4.446   6.228   5.737  0.7757 -0.8904 -0.1404
11989TIP3   OH235923   4.531   2.583   3.459  0.4516  0.2139 -0.0191
11989TIP3    H135924   4.480   2.505   3.438  1.1335 -1.1720  2.8627
11989TIP3    H235925   4.622   2.555   3.452  0.7166  0.8653  0.6118
11990TIP3   OH235926   0.295   7.822   1.928  0.2217 -0.8238 -0.2104
11990TIP3    H135927   0.337   7.753   1.979  0.1701 -0.5067  0.2606
11990TIP3    H235928   0.229   7.860   1.986 -1.4407 -1.9643 -1.2515
11991TIP3   OH235929   8.268   6.158   2.439 -0.5366  0.6424 -0.0838
11991TIP3    H135930   8.221   6.229   2.396 -0.6758  0.9028  0.4928
11991TIP3    H235931   8.343   6.201   2.481  0.3912  0.1968 -1.2324
11992TIP3   OH235932   6.685   3.085   3.106  0.2487  0.1967  0.5443
11992TIP3    H135933   6.720   3.129   3.029 -1.5096 -0.3330 -0.6147
11992TIP3    H235934   6.590   3.093   3.098 -0.0176 -0.8708  2.0619
11993TIP3   OH235935   1.291   1.491   0.109  0.0427  0.0917 -0.3147
11993TIP3    H135936   1.234   1.561   0.140  0.5190 -0.2884  1.6164
11993TIP3    H235937   1.244   1.452   0.036 -2.4526 -0.4876  1.4386
11994TIP3   OH235938   7.695   0.828   5.286  0.3157 -0.5225 -0.3192
11994TIP3    H135939   7.714   0.763   5.219  3.4282  0.4257 -0.4976
11994TIP3    H235940   7.777   0.841   5.333 -0.8232  1.4622  1.3604
11995TIP3   OH235941   0.082   0.271   4.534  0.0194  0.1867 -0.0924
11995TIP3    H135942  -0.008   0.298   4.554 -0.4924 -1.4363 -0.0176
11995TIP3    H235943   0.083   0.259   4.439 -0.2464 -1.0369  0.0396
11996TIP3   OH235944   7.873   7.357   3.471 -0.3847  0.2651  0.1080
11996TIP3    H135945   7.864   7.263   3.454 -3.2398  0.2691  0.9779
11996TIP3    H235946   7.872   7.398   3.385  1.1199 -0.4890 -0.2895
11997TIP3   OH235947   2.006   7.828   0.310  0.1322 -0.4559  0.0812
11997TIP3    H135948   1.925   7.806   0.264 -0.7989  0.7013  1.0938
11997TIP3    H235949   2.059   7.749   0.305 -0.9384 -1.1414 -0.8422
11998TIP3   OH235950   4.330   6.685   6.738 -0.5363  0.1974  0.1818
11998TIP3    H135951   4.380   6.762   6.766 -0.5426  0.1234  0.4005
11998TIP3    H235952   4.355   6.672   6.647  0.7125 -0.5157  0.6026
11999TIP3   OH235953   2.029   4.629   0.480  0.1483  0.1726  0.5015
11999TIP3    H135954   2.058   4.676   0.558  0.6301  0.0027  0.4281
11999TIP3    H235955   2.063   4.540   0.491  0.7084  0.2960 -0.1677
12000TIP3   OH235956   7.726   4.083   5.844 -0.3821  0.3468  0.4338
12000TIP3    H135957   7.806   4.061   5.891 -1.0221 -0.0263  1.3944
12000TIP3    H235958   7.703   4.171   5.876 -0.6395  0.2319  0.5664
12001TIP3   OH235959   2.843   3.018   6.492  0.0789  0.1658 -0.1161
12001TIP3    H135960   2.859   2.961   6.568  0.4746  1.3061  0.6826
12001TIP3    H235961   2.750   3.037   6.497 -0.6063 -2.2313 -1.7419
12002TIP3   OH235962   1.567   0.094   5.020 -0.0295 -0.2702 -0.3395
12002TIP3    H135963   1.575   0.022   5.084  1.2649 -0.5524 -0.7918
12002TIP3    H235964   1.625   0.162   5.054 -1.7132  0.8556  0.4145
12003TIP3   OH235965   2.889   3.665   4.700  0.6261 -0.4480  0.1362
12003TIP3    H135966   2.867   3.755   4.678  0.5426  0.1084  2.2580
12003TIP3    H235967   2.913   3.668   4.793 -0.2098 -2.7421  0.4968
12004TIP3   OH235968   3.429   0.672   3.924  0.4214  0.4863  0.2469
12004TIP3    H135969   3.453   0.677   3.831  0.9055 -2.5910  0.0766
12004TIP3    H235970   3.509   0.643   3.968 -0.5964 -1.3090  1.0365
12005TIP3   OH235971   0.601   5.181   2.249 -0.2104 -0.1318 -0.0246
12005TIP3    H135972   0.528   5.132   2.211 -1.9580  1.6189  0.9237
12005TIP3    H235973   0.659   5.113   2.283 -1.6161 -1.5953 -0.4070
12006TIP3   OH235974   3.505   0.807   2.845 -0.4313  0.4577 -0.5192
12006TIP3    H135975   3.522   0.753   2.768 -1.6132  0.7986 -1.0508
12006TIP3    H235976   3.410   0.822   2.843 -0.6614 -0.3716  1.5622
12007TIP3   OH235977   6.542   4.896   0.335 -0.3973 -0.2544 -0.0481
12007TIP3    H135978   6.587   4.936   0.410  2.3420  1.5979 -2.4557
12007TIP3    H235979   6.499   4.969   0.291  2.4984 -0.0995 -3.0723
12008TIP3   OH235980   7.936   2.582   3.008  0.2096 -0.3302 -0.4053
12008TIP3    H135981   8.024   2.576   3.044 -0.2018 -2.8050  0.3531
12008TIP3    H235982   7.942   2.543   2.921  0.2441  1.4679 -1.2685
12009TIP3   OH235983   2.518   7.113   2.875  0.0587 -0.4249 -0.0330
12009TIP3    H135984   2.513   7.065   2.792 -0.9470  0.1158 -0.3028
12009TIP3    H235985   2.436   7.092   2.920  0.8287 -1.1426  1.0759
12010TIP3   OH235986   3.489   4.330   0.002  0.0799  0.5542  0.0791
12010TIP3    H135987   3.453   4.321   0.090  0.3993 -0.5725  0.1105
12010TIP3    H235988   3.436   4.271  -0.052  0.7395  0.2226 -0.2199
12011TIP3   OH235989   4.361   5.389   6.297 -0.0554 -0.0517 -0.0965
12011TIP3    H135990   4.450   5.353   6.301 -0.8616 -2.1424  0.4813
12011TIP3    H235991   4.354   5.443   6.376  0.6283 -0.0167 -0.0505
12012TIP3   OH235992   1.056   1.472   4.988  0.2078 -0.4038 -0.1243
12012TIP3    H135993   1.128   1.430   5.035 -1.5524 -0.0795  3.0705
12012TIP3    H235994   1.018   1.403   4.934  1.9791 -0.9020 -0.8229
12013TIP3   OH235995   6.711   5.574   1.920 -0.1996  0.5804  0.0828
12013TIP3    H135996   6.659   5.497   1.897 -2.7083  1.6266  1.8711
12013TIP3    H235997   6.802   5.545   1.908 -1.0576 -1.5030 -2.6614
12014TIP3   OH235998   6.518   7.306   4.309  0.2864 -0.3545 -0.7299
12014TIP3    H135999   6.534   7.349   4.225  1.2474  0.0999 -0.3199
12014TIP3    H236000   6.592   7.248   4.322 -0.9482 -2.1316 -1.2340
12015TIP3   OH236001   0.267   1.303   1.790  0.3633 -0.5308 -0.7086
12015TIP3    H136002   0.247   1.378   1.846  1.1433 -0.9970  0.2339
12015TIP3    H236003   0.272   1.229   1.851  2.7331 -0.8042 -1.1255
12016TIP3   OH236004   4.280   4.247   0.845  0.0698 -0.0260  0.4952
12016TIP3    H136005   4.365   4.276   0.879  0.8665 -1.3160 -0.3390
12016TIP3    H236006   4.260   4.309   0.775  1.4806 -1.0719 -0.8895
12017TIP3   OH236007   0.885   7.248   0.699  0.1110 -0.1625  0.0932
12017TIP3    H136008   0.937   7.315   0.654 -0.7932 -0.6141 -1.7117
12017TIP3    H236009   0.801   7.248   0.654 -1.3197  0.1498  2.5732
12018TIP3   OH236010   5.458   6.731   0.902 -0.1496  0.0630  0.1640
12018TIP3    H136011   5.434   6.680   0.824  2.4025  0.3234 -0.8875
12018TIP3    H236012   5.423   6.818   0.886 -1.7126 -0.4814  0.4610
12019TIP3   OH236013   4.569   3.066   2.247 -0.0350  0.0890 -0.0665
12019TIP3    H136014   4.567   3.012   2.168 -0.4389 -0.0980  0.0701
12019TIP3    H236015   4.507   3.137   2.229 -1.0508 -0.6161  0.5458
12020TIP3   OH236016   7.759   5.456   4.742 -0.0914 -0.0606 -0.1192
12020TIP3    H136017   7.674   5.445   4.786 -0.9535 -0.8426 -1.9019
12020TIP3    H236018   7.817   5.394   4.786 -0.7347 -0.3099  0.3991
12021TIP3   OH236019   1.893   0.052   6.414  0.6680 -0.5159 -0.1845
12021TIP3    H136020   1.867   0.061   6.322 -2.7995  1.2201  0.7885
12021TIP3    H236021   1.929   0.138   6.437 -1.0741  0.0152  0.7079
12022TIP3   OH236022   5.441   1.689   2.594 -0.2044  0.0097 -0.0117
12022TIP3    H136023   5.448   1.782   2.573  0.4155 -0.3981 -1.7741
12022TIP3    H236024   5.524   1.652   2.563  0.2640 -0.9019  2.1228
12023TIP3   OH236025   3.863   3.065   6.500 -0.1158  0.4448  0.1463
12023TIP3    H136026   3.909   3.062   6.416 -0.4792 -2.4239 -0.0470
12023TIP3    H236027   3.807   3.142   6.493  0.8221  1.0290 -1.7000
12024TIP3   OH236028   7.277   6.971   2.851 -0.6039 -0.1485  0.3066
12024TIP3    H136029   7.237   6.995   2.767  2.3299  1.0764 -0.8538
12024TIP3    H236030   7.242   7.035   2.913 -0.5894  0.7904 -0.6201
12025TIP3   OH236031   0.496   0.642   1.720 -0.0187  0.2679  0.1501
12025TIP3    H136032   0.583   0.611   1.747 -0.6926 -0.1171  2.0391
12025TIP3    H236033   0.446   0.646   1.802 -1.6976  0.7884 -0.8597
12026TIP3   OH236034   1.115   3.446   5.566 -0.2574  0.3704 -0.0250
12026TIP3    H136035   1.108   3.385   5.492 -1.9721 -0.3974  0.7092
12026TIP3    H236036   1.183   3.407   5.622  0.9521  0.8832 -1.0822
12027TIP3   OH236037   0.893   7.586   6.039  0.2948  0.2817 -0.1878
12027TIP3    H136038   0.940   7.566   5.958 -1.5421  1.2782 -1.5549
12027TIP3    H236039   0.809   7.620   6.011 -0.3391  0.8495  2.1629
12028TIP3   OH236040   0.519   0.111   3.425 -0.3663  0.0343  0.0838
12028TIP3    H136041   0.607   0.080   3.446 -0.6873  1.0279  3.6363
12028TIP3    H236042   0.464   0.033   3.433  0.1036 -0.5167 -1.7948
12029TIP3   OH236043   1.927   0.496   6.022 -0.7388  0.0273 -0.0674
12029TIP3    H136044   1.933   0.466   5.931 -0.1387  0.1639 -0.0773
12029TIP3    H236045   1.835   0.485   6.045 -1.0284  0.6348 -0.9149
12030TIP3   OH236046   2.716   6.428   0.622  0.1265 -0.1589 -0.0938
12030TIP3    H136047   2.773   6.481   0.677  1.9030 -1.2938 -0.7541
12030TIP3    H236048   2.771   6.403   0.547 -1.2431 -1.2957 -0.7772
12031TIP3   OH236049   4.020   7.790   0.799  0.4651  0.1307  0.2740
12031TIP3    H136050   4.027   7.699   0.827  0.2286  0.9756  3.4637
12031TIP3    H236051   4.106   7.827   0.817  1.1847  0.2207 -2.7623
12032TIP3   OH236052   1.951   3.202   1.307 -0.1353  0.3505  0.9270
12032TIP3    H136053   1.911   3.259   1.242  0.9209  0.0340 -0.0420
12032TIP3    H236054   1.878   3.155   1.347 -0.7591 -0.0013 -0.5607
12033TIP3   OH236055   5.153   5.929   4.511  0.0670  0.0809 -0.5792
12033TIP3    H136056   5.247   5.928   4.528 -0.0077  1.1397 -0.0679
12033TIP3    H236057   5.145   5.965   4.422  0.0036  3.8294  0.7763
12034TIP3   OH236058   5.267   4.771   2.501  0.3353 -0.4319 -0.1934
12034TIP3    H136059   5.347   4.736   2.541  1.4512  0.0137 -1.9158
12034TIP3    H236060   5.246   4.710   2.430  0.3099  0.5020 -1.0122
12035TIP3   OH236061   1.546   5.447   4.749  0.0567 -0.7040 -0.0897
12035TIP3    H136062   1.476   5.387   4.775 -0.3969 -0.4797 -0.7561
12035TIP3    H236063   1.599   5.458   4.828 -0.1763 -1.5343  0.1923
12036TIP3   OH236064   3.713   0.813   0.534 -0.6097 -0.4947  0.4358
12036TIP3    H136065   3.660   0.787   0.458  2.1037 -0.6740 -1.5350
12036TIP3    H236066   3.736   0.730   0.576 -1.1419 -0.4669  0.7988
12037TIP3   OH236067   2.117   1.018   3.763 -0.0207  0.1078 -0.0304
12037TIP3    H136068   2.060   0.984   3.693  0.3979 -0.4412 -0.1123
12037TIP3    H236069   2.088   0.972   3.842  0.4224 -0.3003 -0.1051
12038TIP3   OH236070   4.516   6.958   0.339  0.2874  0.0917  0.0008
12038TIP3    H136071   4.597   7.005   0.360 -1.1110  1.5918  2.5429
12038TIP3    H236072   4.513   6.886   0.401 -0.2493 -0.0348 -0.1723
12039TIP3   OH236073   8.054   4.704   1.877 -0.1298  0.5453 -0.0606
12039TIP3    H136074   8.083   4.763   1.946  1.7088  1.6621 -1.6916
12039TIP3    H236075   8.091   4.619   1.900 -1.7222  0.2398  1.6203
12040TIP3   OH236076   7.109   3.828   1.026  0.1038  0.0791 -0.2429
12040TIP3    H136077   7.047   3.862   0.962 -0.8380 -2.4736 -0.8441
12040TIP3    H236078   7.113   3.894   1.094 -1.6045  1.3107 -1.2588
12041TIP3   OH236079   7.468   3.998   4.908  0.4379  0.5361 -0.1625
12041TIP3    H136080   7.553   4.024   4.871 -0.5181 -0.4782 -3.4593
12041TIP3    H236081   7.475   3.903   4.917 -0.2846  0.4637 -0.3406
12042TIP3   OH236082   6.989   5.841   1.897  0.1555 -0.3753 -0.2927
12042TIP3    H136083   7.050   5.820   1.827  1.2891 -1.2528  0.9056
12042TIP3    H236084   6.982   5.760   1.948 -0.6609  0.2211  0.5800
12043TIP3   OH236085   0.250   1.136   4.785 -0.0184  0.3778 -0.9416
12043TIP3    H136086   0.306   1.214   4.779 -0.2340  0.6250  0.0553
12043TIP3    H236087   0.312   1.063   4.780  0.4608  0.6538  0.4680
12044TIP3   OH236088   4.664   4.462   4.631  0.0529  0.2278  0.5573
12044TIP3    H136089   4.744   4.481   4.679  0.4585 -1.5475  0.6688
12044TIP3    H236090   4.656   4.533   4.568  1.0948  1.0390  1.3037
12045TIP3   OH236091   1.668   0.234   1.370  0.7515 -0.1273  0.0512
12045TIP3    H136092   1.689   0.231   1.464 -0.8553 -0.4614  0.4309
12045TIP3    H236093   1.743   0.280   1.331  0.8724  1.1783  1.6659
12046TIP3   OH236094   0.632   2.342   2.710 -0.8283  0.4001 -0.3540
12046TIP3    H136095   0.576   2.369   2.783  0.2640 -0.1775  0.7465
12046TIP3    H236096   0.720   2.372   2.736 -0.2431 -0.7638 -0.9225
12047TIP3   OH236097   5.795   0.306   3.527  0.0432 -0.0398 -0.5793
12047TIP3    H136098   5.705   0.272   3.531  0.0955 -0.3390 -1.6486
12047TIP3    H236099   5.803   0.362   3.604 -0.0620 -2.4405  1.2854
12048TIP3   OH236100   7.268   4.071   0.367  0.4110 -0.3638  0.1716
12048TIP3    H136101   7.337   4.063   0.301  0.9884 -1.4415  0.8923
12048TIP3    H236102   7.199   4.012   0.338 -0.2520  0.7512 -0.5752
12049TIP3   OH236103   6.123   7.003   4.436  0.5442  0.0144  0.5200
12049TIP3    H136104   6.066   6.946   4.384 -0.3832  0.7263  0.7450
12049TIP3    H236105   6.113   7.090   4.396  2.5997 -0.0927 -0.3655
12050TIP3   OH236106   3.485   4.528   6.466 -0.0982  0.1611 -0.0103
12050TIP3    H136107   3.537   4.471   6.523  0.0406 -0.6180 -0.8867
12050TIP3    H236108   3.549   4.590   6.430 -0.1630  0.5684  0.5718
12051TIP3   OH236109   7.918   5.472   2.715 -0.4098  0.3909  0.0046
12051TIP3    H136110   7.991   5.521   2.679  1.4274 -0.7474  1.9537
12051TIP3    H236111   7.858   5.539   2.747  1.0510  1.3874  0.7637
12052TIP3   OH236112   4.785   0.753   3.432  0.6802  0.0741 -0.2249
12052TIP3    H136113   4.856   0.762   3.496  0.1521 -2.9594  0.9277
12052TIP3    H236114   4.828   0.768   3.348  1.7913  2.2752  0.6613
12053TIP3   OH236115   5.837   7.512   2.947 -0.2846 -0.2615  0.2282
12053TIP3    H136116   5.771   7.445   2.927 -0.3936 -0.5498  1.4525
12053TIP3    H236117   5.914   7.486   2.896 -0.2628 -1.4410  0.8327
12054TIP3   OH236118   4.996   5.632   2.578  0.2268 -0.2738  0.0878
12054TIP3    H136119   4.971   5.556   2.525  0.8272 -0.5782  0.2347
12054TIP3    H236120   5.031   5.595   2.658 -0.6851  0.1871  0.7193
12055TIP3   OH236121   1.449   2.657   6.109 -0.3533  0.1871 -0.9792
12055TIP3    H136122   1.457   2.748   6.139  2.8527  0.0040 -0.9210
12055TIP3    H236123   1.411   2.610   6.183  0.8911  0.9734  0.1979
12056TIP3   OH236124   0.523   3.144   6.683 -0.5084  0.0237 -0.7259
12056TIP3    H136125   0.466   3.105   6.617  1.1346 -0.0983 -2.1362
12056TIP3    H236126   0.576   3.207   6.635 -0.1972  0.9285  0.7513
12057TIP3   OH236127   4.071   5.868   4.466  0.2325 -0.1338  0.0147
12057TIP3    H136128   4.099   5.913   4.545 -0.5746  0.0409  0.2122
12057TIP3    H236129   4.136   5.799   4.453  0.3216 -0.2234  0.8758
12058TIP3   OH236130   7.371   3.623   6.447 -0.4523 -0.2250  0.0853
12058TIP3    H136131   7.373   3.594   6.356  0.1234  1.1361 -0.3706
12058TIP3    H236132   7.278   3.627   6.469 -0.5737 -1.2116 -0.2144
12059TIP3   OH236133   1.874   7.826   5.085  0.1070 -0.0537 -0.8364
12059TIP3    H136134   1.890   7.744   5.038 -1.0911 -0.5961 -0.3372
12059TIP3    H236135   1.790   7.813   5.129 -0.1247  1.4649 -0.7695
12060TIP3   OH236136   6.427   3.827   5.532 -0.0836 -0.3335  0.3527
12060TIP3    H136137   6.382   3.760   5.480 -2.1904 -0.2109  1.9141
12060TIP3    H236138   6.491   3.778   5.584  2.1194 -0.4535 -2.2459
12061TIP3   OH236139   3.588   2.490   4.720 -0.5250 -0.0093  0.0293
12061TIP3    H136140   3.623   2.471   4.633 -1.2012 -0.5681 -0.1267
12061TIP3    H236141   3.526   2.419   4.737 -1.2671  0.7332  0.4720
12062TIP3   OH236142   0.438   6.681   1.628 -0.2956  0.4030  0.0183
12062TIP3    H136143   0.508   6.631   1.587 -0.8077  0.2806 -0.7200
12062TIP3    H236144   0.481   6.761   1.660  0.2058  0.2548 -0.2747
12063TIP3   OH236145   2.532   1.687   2.267  0.0387 -0.2409 -0.2275
12063TIP3    H136146   2.606   1.746   2.250 -0.3352  0.1930 -0.3771
12063TIP3    H236147   2.543   1.661   2.358  0.3649 -0.1623 -0.2421
12064TIP3   OH236148   1.949   3.166   3.792  0.3143 -0.1413  0.3314
12064TIP3    H136149   1.965   3.126   3.877 -2.4183 -0.1157  0.9346
12064TIP3    H236150   1.960   3.095   3.729  0.0487 -0.7303  0.9399
12065TIP3   OH236151   7.634   4.142   3.523  0.2622  0.6466  0.3814
12065TIP3    H136152   7.682   4.152   3.605 -1.2730  0.8705  1.2939
12065TIP3    H236153   7.672   4.065   3.482  2.0097  1.3396  0.6061
12066TIP3   OH236154   0.600   0.701   5.929 -0.6699  0.4149 -0.2798
12066TIP3    H136155   0.543   0.713   6.006 -0.1470  1.2837 -0.0140
12066TIP3    H236156   0.549   0.645   5.870 -1.0913 -0.2475  0.6843
12067TIP3   OH236157   5.016   3.115   5.854  0.0724 -0.3135  1.0332
12067TIP3    H136158   4.937   3.148   5.898 -0.2684 -1.0811  1.0176
12067TIP3    H236159   5.054   3.191   5.811 -2.7116 -0.5202 -2.1905
12068TIP3   OH236160   0.236   4.456   3.000  0.1457 -0.0704  0.5205
12068TIP3    H136161   0.154   4.413   2.975  0.0566  0.4462 -0.0960
12068TIP3    H236162   0.303   4.388   2.988 -0.0211 -0.1058 -0.2625
12069TIP3   OH236163   0.225   7.517   5.837  0.0019 -0.0077 -0.0110
12069TIP3    H136164   0.278   7.578   5.786  1.2876 -0.1450  1.0902
12069TIP3    H236165   0.231   7.549   5.927 -2.1387  0.1814  0.1222
12070TIP3   OH236166   6.267   4.307   0.148  0.1039  0.0986  0.2368
12070TIP3    H136167   6.189   4.335   0.197  0.5849  0.3789  0.8564
12070TIP3    H236168   6.335   4.300   0.214  0.7964  0.5753 -0.4068
12071TIP3   OH236169   5.090   2.273   5.926  0.2663 -0.2739 -0.5736
12071TIP3    H136170   5.183   2.296   5.924 -0.0344  1.0960  0.0328
12071TIP3    H236171   5.068   2.272   6.019 -0.9607  2.3669 -0.7308
12072TIP3   OH236172   0.643   3.595   1.334  0.2711 -0.5390  0.1862
12072TIP3    H136173   0.664   3.545   1.255  0.3934 -2.0019  1.1029
12072TIP3    H236174   0.633   3.529   1.403 -0.3497  0.6527  1.2962
12073TIP3   OH236175   1.098   2.210   4.543  0.2572 -0.5181 -0.2415
12073TIP3    H136176   1.016   2.214   4.493  0.9767  1.0349 -1.4157
12073TIP3    H236177   1.071   2.196   4.633 -1.3219  0.0541 -0.5878
12074TIP3   OH236178   5.765   4.243   6.069 -0.0092 -0.1793  0.0430
12074TIP3    H136179   5.714   4.318   6.039 -0.4828 -0.1433  0.8919
12074TIP3    H236180   5.814   4.214   5.992 -1.7024 -0.5514 -0.9431
12075TIP3   OH236181   7.628   1.080   4.425 -0.3607  0.1890  0.5428
12075TIP3    H136182   7.645   1.161   4.378 -0.7143 -0.5292 -0.8848
12075TIP3    H236183   7.710   1.031   4.418 -0.7725 -0.3952 -0.3431
12076TIP3   OH236184   4.142   3.720   0.032 -0.0392 -1.3132  0.8105
12076TIP3    H136185   4.139   3.794   0.093 -0.6386 -0.2700 -0.4405
12076TIP3    H236186   4.069   3.735  -0.027  1.3840 -1.4832 -1.0793
12077TIP3   OH236187   7.822   1.948   0.813  0.3376 -0.0816  0.1112
12077TIP3    H136188   7.730   1.937   0.835  0.3032 -0.7216 -0.3205
12077TIP3    H236189   7.846   2.034   0.849 -0.7537  0.6595 -0.8548
12078TIP3   OH236190   8.207   0.042   6.048  0.1959  0.3152 -0.5152
12078TIP3    H136191   8.142  -0.027   6.057 -0.3085  0.5743 -1.8966
12078TIP3    H236192   8.157   0.120   6.026  0.7779  1.1139  0.8726
12079TIP3   OH236193   6.194   7.259   4.319 -1.1402 -0.1859 -0.5621
12079TIP3    H136194   6.165   7.315   4.247  2.8547  0.9787 -1.4854
12079TIP3    H236195   6.229   7.320   4.384  2.1456 -1.3745 -1.0238
12080TIP3   OH236196   4.877   7.544   5.553 -0.6187 -0.3333  0.1477
12080TIP3    H136197   4.838   7.610   5.611  0.9092  1.7017 -1.0284
12080TIP3    H236198   4.802   7.501   5.513 -1.7485  2.1469 -0.6161
12081TIP3   OH236199   4.084   1.203   0.898 -0.0844  0.4135 -0.0387
12081TIP3    H136200   4.034   1.126   0.925  0.1145  0.4225  0.3633
12081TIP3    H236201   4.098   1.253   0.979 -0.1009  0.8066 -0.2738
12082TIP3   OH236202   3.795   0.401   2.768 -0.3369  0.4605  0.1284
12082TIP3    H136203   3.812   0.315   2.729 -1.1497  1.0561 -1.6469
12082TIP3    H236204   3.881   0.444   2.769  0.0563 -0.2921  0.9277
12083TIP3   OH236205   1.441   7.334   5.350  0.0568  0.7785  0.1331
12083TIP3    H136206   1.456   7.321   5.444  0.8530 -1.2997 -0.2169
12083TIP3    H236207   1.492   7.411   5.327  0.6737  0.7069  1.2143
12084TIP3   OH236208   5.384   3.745   1.454 -0.0174  0.1341  0.1596
12084TIP3    H136209   5.381   3.650   1.445 -0.2762  0.1981 -0.5310
12084TIP3    H236210   5.477   3.765   1.467 -0.0352 -0.2556  0.9370
12085TIP3   OH236211   4.960   5.557   1.676  0.1676 -0.2938  0.3476
12085TIP3    H136212   5.051   5.574   1.650 -0.1374  0.0846 -0.5100
12085TIP3    H236213   4.910   5.626   1.633 -0.4077  0.2034  1.7545
12086TIP3   OH236214   3.842   3.935   5.654 -0.3908 -0.4468  0.1317
12086TIP3    H136215   3.869   3.956   5.743 -1.4845 -0.7158  0.5469
12086TIP3    H236216   3.889   3.854   5.634 -1.7688 -1.6263  1.3280
12087TIP3   OH236217   6.355   4.056   3.063 -0.2256 -0.5229 -0.3080
12087TIP3    H136218   6.330   4.149   3.055  0.9416 -0.1957 -0.3690
12087TIP3    H236219   6.443   4.059   3.099  0.4598 -1.5645 -1.8334
12088TIP3   OH236220   3.916   2.631   3.733 -0.1745 -0.1662 -0.0421
12088TIP3    H136221   3.981   2.681   3.784  0.4137 -0.0011 -0.9377
12088TIP3    H236222   3.841   2.624   3.792  0.2816  0.5006  0.6492
12089TIP3   OH236223   4.166   4.473   3.257 -0.4283 -0.1904  0.5856
12089TIP3    H136224   4.109   4.548   3.267 -1.5554 -0.8974 -0.3627
12089TIP3    H236225   4.191   4.450   3.347 -1.0063  0.5839  0.9525
12090TIP3   OH236226   3.737   1.881   3.306 -0.3970 -0.2614 -0.2064
12090TIP3    H136227   3.743   1.824   3.230 -0.8767  1.2577 -1.4281
12090TIP3    H236228   3.827   1.912   3.320  0.1678 -2.3449  1.3704
12091TIP3   OH236229   5.380   3.353   6.207  0.6477 -0.0984  0.0578
12091TIP3    H136230   5.307   3.374   6.150 -1.0660 -1.0415  1.8014
12091TIP3    H236231   5.449   3.322   6.148 -0.4296  0.5584 -1.5980
12092TIP3   OH236232   3.582   0.991   2.373 -0.1978 -0.4477  0.1194
12092TIP3    H136233   3.519   0.944   2.427  0.5065 -1.0983  0.4003
12092TIP3    H236234   3.631   1.045   2.435  1.3987 -2.0771  0.3387
12093TIP3   OH236235   5.068   1.494   5.792  0.3919  0.0540 -0.0976
12093TIP3    H136236   5.091   1.449   5.874 -0.5313 -2.9178 -1.3402
12093TIP3    H236237   4.975   1.475   5.780  0.6823 -0.2521 -2.2142
12094TIP3   OH236238   4.730   3.233   0.454  0.6425  0.5875 -0.1617
12094TIP3    H136239   4.641   3.253   0.424  0.5112 -0.3639 -0.4466
12094TIP3    H236240   4.751   3.150   0.411  1.2971  0.3158  0.6692
12095TIP3   OH236241   2.555   3.163   5.891 -0.2602 -0.1766  0.2001
12095TIP3    H136242   2.611   3.241   5.895  0.0069 -0.4027  1.1282
12095TIP3    H236243   2.593   3.103   5.954 -0.7866 -0.8573 -0.1143
12096TIP3   OH236244   2.796   0.093   6.631 -0.2127  0.2353 -0.1718
12096TIP3    H136245   2.738   0.032   6.677  1.7562 -2.6206 -1.2403
12096TIP3    H236246   2.759   0.101   6.544 -0.2236  0.2003 -0.1706
12097TIP3   OH236247   6.240   5.541   3.879 -0.0858 -0.4982 -0.7974
12097TIP3    H136248   6.150   5.517   3.901 -0.0036  1.3317  2.0882
12097TIP3    H236249   6.260   5.615   3.936  3.4684 -1.2416 -0.8111
12098TIP3   OH236250   1.305   2.577   1.653  0.8838  0.4658  0.3469
12098TIP3    H136251   1.300   2.577   1.749 -0.9832  0.5380  0.2953
12098TIP3    H236252   1.221   2.614   1.625  1.5170  0.7249 -1.3235
12099TIP3   OH236253   1.911   0.927   3.602 -0.4164 -0.3179  0.0791
12099TIP3    H136254   1.846   0.867   3.639 -0.8199  1.4698  2.6064
12099TIP3    H236255   1.859   0.992   3.555  0.0886 -2.4985 -3.9313
12100TIP3   OH236256   3.368   7.697   4.650  0.2194  0.6061  0.3283
12100TIP3    H136257   3.289   7.724   4.603  0.1911  1.4870  0.8442
12100TIP3    H236258   3.440   7.722   4.592  0.1365  0.3311  0.1073
12101TIP3   OH236259   0.846   5.836   0.984 -0.1422  0.5176 -0.0445
12101TIP3    H136260   0.904   5.877   1.048  0.2122  1.0133 -0.6649
12101TIP3    H236261   0.903   5.780   0.932 -0.3489  0.4582 -0.2096
12102TIP3   OH236262   0.311   3.820   4.010 -0.3939 -0.3081  0.2079
12102TIP3    H136263   0.293   3.914   4.011  0.4167 -0.1374  0.9600
12102TIP3    H236264   0.406   3.815   3.997 -0.4736 -1.0357 -0.1243
12103TIP3   OH236265   1.498   6.204   4.622  0.5432 -0.2398  0.0515
12103TIP3    H136266   1.573   6.218   4.564  0.4009  0.3669 -0.0005
12103TIP3    H236267   1.532   6.151   4.694  1.0211  0.0304  0.0293
12104TIP3   OH236268   4.290   7.703   0.202 -0.0228  0.7014  0.0401
12104TIP3    H136269   4.302   7.608   0.202  1.1690  0.8190 -0.9889
12104TIP3    H236270   4.211   7.717   0.150 -1.3129  0.2044  1.7821
12105TIP3   OH236271   3.226   5.819   5.918  0.2377 -0.7891  0.2742
12105TIP3    H136272   3.189   5.907   5.925  1.4474 -0.2815  0.5840
12105TIP3    H236273   3.263   5.816   5.830 -0.4567 -1.2627 -0.0049
12106TIP3   OH236274   6.521   6.832   4.683  0.7103  0.1554  0.3489
12106TIP3    H136275   6.434   6.851   4.647  0.7120  1.0006  0.7744
12106TIP3    H236276   6.530   6.737   4.674  0.1367  0.1745 -0.5732
12107TIP3   OH236277   7.594   3.951   0.817  0.3273 -0.2061  0.9011
12107TIP3    H136278   7.664   3.918   0.874 -1.5269 -0.6277  3.0767
12107TIP3    H236279   7.521   3.968   0.876 -2.0227 -1.3680 -1.4634
12108TIP3   OH236280   8.042   3.115   0.990 -0.0327  0.0971 -0.0844
12108TIP3    H136281   8.085   3.029   0.995 -0.8933 -0.3282  0.0977
12108TIP3    H236282   7.953   3.096   0.962 -0.4068  0.8752  0.5499
12109TIP3   OH236283   1.454   0.680   5.183 -0.3331 -0.1877 -0.1198
12109TIP3    H136284   1.428   0.588   5.175  0.3018 -0.2779 -1.3090
12109TIP3    H236285   1.402   0.726   5.117 -0.1740  0.2192  0.0292
12110TIP3   OH236286   4.615   3.638   6.361 -0.0656 -0.0051 -0.5255
12110TIP3    H136287   4.686   3.673   6.308  0.6290 -1.1525 -0.3854
12110TIP3    H236288   4.556   3.712   6.373  2.0288  1.5370  0.9775
12111TIP3   OH236289   1.424   6.983   1.271  0.7733 -0.0548  0.3839
12111TIP3    H136290   1.398   7.040   1.343 -3.8474 -1.6875  0.3269
12111TIP3    H236291   1.493   6.927   1.308  0.2972  0.7933  2.7080
12112TIP3   OH236292   0.055   1.269   2.565 -0.0409  0.5198  0.4634
12112TIP3    H136293   0.029   1.227   2.483 -1.5566  2.5373 -0.1703
12112TIP3    H236294   0.061   1.198   2.628  0.1002 -0.9430 -1.1405
12113TIP3   OH236295   4.171   0.217   5.615  0.0344 -0.7828 -0.3758
12113TIP3    H136296   4.083   0.240   5.644 -0.1963 -0.6496 -1.1739
12113TIP3    H236297   4.197   0.287   5.555  0.4635 -1.1045 -0.5757
12114TIP3   OH236298   3.526   3.582   2.264  0.4354 -0.1978 -0.0090
12114TIP3    H136299   3.540   3.491   2.238  0.6456  0.1751 -1.2435
12114TIP3    H236300   3.614   3.620   2.269  0.6823 -0.8399  3.7130
12115TIP3   OH236301   1.616   3.962   1.797 -0.5605 -0.1604 -0.2570
12115TIP3    H136302   1.655   3.876   1.808  0.8935  0.3565 -1.0676
12115TIP3    H236303   1.523   3.945   1.787 -0.6452 -1.4367  1.9523
12116TIP3   OH236304   3.595   7.558   0.093  0.4384  0.2625  0.5574
12116TIP3    H136305   3.648   7.512   0.158  1.0495 -0.7822 -0.6200
12116TIP3    H236306   3.562   7.635   0.138 -0.8321 -1.4454  2.7128
12117TIP3   OH236307   5.060   1.426   1.079  0.1937 -0.3575  0.0292
12117TIP3    H136308   5.088   1.446   1.168 -2.3255  1.1160  0.6004
12117TIP3    H236309   5.023   1.509   1.047  1.1958 -0.7886 -2.4930
12118TIP3   OH236310   2.494   1.395   2.155 -0.2318  0.1016 -0.2926
12118TIP3    H136311   2.435   1.430   2.088 -0.8391  1.3201  0.8469
12118TIP3    H236312   2.527   1.472   2.201  0.2043 -0.7094  0.7876
12119TIP3   OH236313   3.317   6.233   2.949 -0.1174 -0.4301 -0.1026
12119TIP3    H136314   3.242   6.273   2.905  0.2307 -0.0809 -0.3909
12119TIP3    H236315   3.338   6.156   2.896  0.9943  0.5994 -1.2214
12120TIP3   OH236316   3.631   4.547   2.544 -0.2313 -0.6310 -0.1837
12120TIP3    H136317   3.704   4.497   2.580 -1.0178 -2.1283 -0.5824
12120TIP3    H236318   3.620   4.620   2.605  0.0743 -1.6937  1.2072
12121TIP3   OH236319   4.570   1.111   2.709 -0.8069  0.6320  0.6949
12121TIP3    H136320   4.559   1.090   2.801 -0.8972  2.1173  1.0480
12121TIP3    H236321   4.488   1.084   2.668 -0.1930 -1.5026  0.7122
12122TIP3   OH236322   2.268   6.340   3.572  0.1869 -0.0143  0.0226
12122TIP3    H136323   2.222   6.396   3.510 -0.3455 -0.0343  0.4011
12122TIP3    H236324   2.324   6.401   3.622 -1.5368  0.4391  1.5008
12123TIP3   OH236325   5.629   5.911   3.943  0.0168 -0.2823 -0.1282
12123TIP3    H136326   5.652   5.910   4.036  2.6254  1.5029 -0.6443
12123TIP3    H236327   5.534   5.908   3.942 -0.2380  2.1946  2.7224
12124TIP3   OH236328   6.496   4.462   1.617 -0.0915 -0.2157  0.5768
12124TIP3    H136329   6.468   4.492   1.704 -0.8491 -1.7569  0.9079
12124TIP3    H236330   6.546   4.382   1.635 -2.6476 -2.2110 -0.4803
12125TIP3   OH236331   3.588   3.096   3.990  0.5302  0.4621  0.5471
12125TIP3    H136332   3.664   3.130   3.942  0.7411  0.1505  0.6583
12125TIP3    H236333   3.574   3.009   3.953 -0.7315  1.1096 -0.5662
12126TIP3   OH236334   1.501   4.343   3.702 -0.1153 -0.1649  0.0051
12126TIP3    H136335   1.489   4.434   3.676 -0.7453 -0.2974 -0.1748
12126TIP3    H236336   1.596   4.333   3.708 -0.0227  0.3710 -0.4460
12127TIP3   OH236337   3.444   0.076   6.259  0.6029 -0.0785  0.4990
12127TIP3    H136338   3.456   0.144   6.194 -1.3440  0.7339  0.9081
12127TIP3    H236339   3.499   0.102   6.333  1.1032  0.1718  0.0415
12128TIP3   OH236340   5.281   6.509   3.132 -0.0309 -0.6573  0.2861
12128TIP3    H136341   5.214   6.565   3.094 -1.3420 -2.1680  0.2214
12128TIP3    H236342   5.279   6.430   3.078  0.8084 -1.2913  1.1539
12129TIP3   OH236343   4.445   3.409   6.282 -0.1572  0.0328  0.5619
12129TIP3    H136344   4.514   3.473   6.303  0.5863 -0.3628 -0.5790
12129TIP3    H236345   4.364   3.459   6.289  0.4009  1.0801 -0.1559
12130TIP3   OH236346   0.327   2.053   6.136 -0.1264  0.2773 -0.4111
12130TIP3    H136347   0.372   1.999   6.201  2.3852  0.5399 -1.8099
12130TIP3    H236348   0.375   2.136   6.137 -1.4333  1.0739 -1.0680
12131TIP3   OH236349   0.211   5.745   4.487  0.0154 -0.1140  0.4253
12131TIP3    H136350   0.193   5.768   4.578 -0.3441 -0.7631  0.5183
12131TIP3    H236351   0.127   5.750   4.443  0.1095 -0.2532  0.2261
12132TIP3   OH236352   6.013   2.979   3.695  0.1732 -0.5723 -0.1758
12132TIP3    H136353   5.963   2.898   3.681 -0.9561 -0.3128  2.0305
12132TIP3    H236354   5.947   3.048   3.695  0.9329  0.1610 -0.3839
12133TIP3   OH236355   1.766   1.122   0.295  0.0177 -0.0371 -0.0603
12133TIP3    H136356   1.833   1.160   0.238 -0.4769  1.0939  0.0815
12133TIP3    H236357   1.802   1.130   0.384  0.1859 -0.5079 -0.0821
12134TIP3   OH236358   1.745   7.735   4.661 -0.0945  0.1006  0.1775
12134TIP3    H136359   1.650   7.742   4.654 -0.1217 -0.7844 -0.6948
12134TIP3    H236360   1.777   7.761   4.574  0.4374  0.1640  0.3903
12135TIP3   OH236361   0.604   0.204   5.256  0.4850  0.4580  0.1542
12135TIP3    H136362   0.612   0.110   5.275  0.1661  0.3346 -0.2916
12135TIP3    H236363   0.527   0.232   5.304  1.6487  0.9379  1.8579
12136TIP3   OH236364   1.472   2.908   1.163 -0.3743  0.5056 -0.2691
12136TIP3    H136365   1.406   2.876   1.225  0.0522 -0.8667 -0.4859
12136TIP3    H236366   1.519   2.829   1.136 -0.1193  1.1683 -1.8332
12137TIP3   OH236367   8.207   2.120   1.494 -0.2758  0.2329  0.3514
12137TIP3    H136368   8.245   2.204   1.521  0.0549 -1.0159  4.4731
12137TIP3    H236369   8.280   2.059   1.492 -0.9462 -0.5998  0.5027
12138TIP3   OH236370   7.657   1.104   3.577 -0.3649 -0.0624 -0.2124
12138TIP3    H136371   7.638   1.102   3.483 -0.2616 -0.1971 -0.2300
12138TIP3    H236372   7.596   1.040   3.615 -0.8393  0.4413 -0.1106
12139TIP3   OH236373   6.049   6.555   6.600 -0.1639 -0.0087  0.3351
12139TIP3    H136374   6.134   6.513   6.606 -0.2311 -0.2438 -0.2663
12139TIP3    H236375   6.053   6.626   6.664  1.4333  1.6158 -1.4438
12140TIP3   OH236376   4.772   3.637   5.251 -0.2418  0.2589 -0.2314
12140TIP3    H136377   4.690   3.681   5.229  0.4139  0.9236 -1.4269
12140TIP3    H236378   4.805   3.604   5.168  1.5198  1.4478 -0.0614
12141TIP3   OH236379   5.135   4.656   0.086 -0.1146  0.8085 -0.0936
12141TIP3    H136380   5.092   4.684   0.005  0.2600  0.4087 -0.4402
12141TIP3    H236381   5.227   4.683   0.074  0.2780 -0.6065 -0.4741
12142TIP3   OH236382   5.883   2.068   3.524 -0.1916  0.3938  0.2267
12142TIP3    H136383   5.956   2.124   3.551 -0.7003  1.5652 -0.6992
12142TIP3    H236384   5.808   2.127   3.523 -0.8836 -0.4808 -0.1089
12143TIP3   OH236385   0.419   6.066   6.281  0.1976 -0.1638  0.0941
12143TIP3    H136386   0.445   6.041   6.192  1.9285  1.5590  0.0355
12143TIP3    H236387   0.351   6.004   6.305 -0.3368 -0.6602 -2.4427
12144TIP3   OH236388   3.671   2.408   1.393  0.1490  0.7869 -0.0498
12144TIP3    H136389   3.737   2.356   1.439  0.0345  1.6623  1.1629
12144TIP3    H236390   3.619   2.344   1.344  0.6029 -0.1276  0.6305
12145TIP3   OH236391   2.744   1.346   5.716  0.1532  0.2365 -0.7240
12145TIP3    H136392   2.798   1.297   5.654  0.8844 -0.6764  0.5835
12145TIP3    H236393   2.711   1.280   5.776 -1.0862  1.0166 -0.5239
12146TIP3   OH236394   6.400   1.505   1.974  0.3584 -0.1881 -0.5725
12146TIP3    H136395   6.337   1.437   1.999  0.2996 -1.0815 -2.9179
12146TIP3    H236396   6.382   1.521   1.881  1.7755  1.5549 -0.5989
12147TIP3   OH236397   8.061   3.901   5.585 -0.3796 -0.1683 -0.7510
12147TIP3    H136398   8.007   3.822   5.580  1.1480 -1.3078 -0.0709
12147TIP3    H236399   8.120   3.884   5.658  1.2696  0.7963 -1.8157
12148TIP3   OH236400   4.520   6.311   3.820  0.4336 -0.2867 -0.2620
12148TIP3    H136401   4.603   6.356   3.837  1.4749 -1.1586 -2.4986
12148TIP3    H236402   4.517   6.240   3.884  0.3717  0.9654  1.1665
12149TIP3   OH236403   0.272   0.720   0.837 -0.1801 -0.2398  0.1252
12149TIP3    H136404   0.193   0.704   0.787 -0.6490 -1.2419  1.1336
12149TIP3    H236405   0.342   0.726   0.772 -0.9792 -0.0089 -0.7230
12150TIP3   OH236406   2.812   1.512   2.785  0.1865  0.1032  0.4554
12150TIP3    H136407   2.779   1.453   2.718  0.6161  1.8173 -1.3826
12150TIP3    H236408   2.754   1.588   2.780  1.9051  1.4620 -0.0404
12151TIP3   OH236409   6.761   6.387   5.291 -0.3955  0.7687 -0.0052
12151TIP3    H136410   6.674   6.371   5.328 -0.2205  0.9195  0.4866
12151TIP3    H236411   6.816   6.408   5.367 -0.0046  0.9981 -0.3439
12152TIP3   OH236412   0.666   5.036   3.486  0.1423  0.2175 -0.2483
12152TIP3    H136413   0.706   4.987   3.414 -0.1499 -1.6289  0.7681
12152TIP3    H236414   0.575   5.006   3.488  0.0531  0.5195  0.6353
12153TIP3   OH236415   6.738   7.047   4.610 -0.1103 -0.2694 -0.4815
12153TIP3    H136416   6.754   7.098   4.531 -0.2298 -0.3266 -0.5433
12153TIP3    H236417   6.825   7.025   4.642 -0.0584 -0.0176 -0.4483
12154TIP3   OH236418   4.737   7.146   5.201 -0.3954  0.3389  0.4018
12154TIP3    H136419   4.688   7.228   5.201  0.2466  0.8225 -2.5165
12154TIP3    H236420   4.826   7.172   5.176 -0.0874 -1.1882 -0.1917
12155TIP3   OH236421   7.140   2.406   0.886 -0.0975 -0.0234 -0.4700
12155TIP3    H136422   7.093   2.415   0.969  0.0763  0.1032 -0.3852
12155TIP3    H236423   7.073   2.420   0.819 -0.1120  0.5048 -0.3467
12156TIP3   OH236424   0.030   2.482   3.789 -0.5824 -0.0059  0.0853
12156TIP3    H136425  -0.048   2.537   3.796 -0.5011  0.0127  0.8776
12156TIP3    H236426   0.060   2.471   3.879  1.2066  1.2235 -0.3203
12157TIP3   OH236427   5.645   5.344   1.462 -0.5921  0.0892  0.1024
12157TIP3    H136428   5.730   5.304   1.480 -1.0873 -0.6175  1.0564
12157TIP3    H236429   5.606   5.288   1.394 -0.1403  0.6441 -0.6133
12158TIP3   OH236430   7.212   5.391   6.300  0.6375 -0.2217 -0.3739
12158TIP3    H136431   7.141   5.369   6.360  1.2329 -0.3114  0.3070
12158TIP3    H236432   7.177   5.370   6.213 -0.7386  1.1831 -0.2110
12159TIP3   OH236433  -0.033   3.168   5.493 -0.3780 -0.6559 -0.3975
12159TIP3    H136434   0.010   3.152   5.578 -0.8625  1.7242  0.3665
12159TIP3    H236435   0.024   3.125   5.429  0.4301 -1.8325  1.0366
12160TIP3   OH236436   3.350   6.670   3.080  0.0381 -0.3462  0.4543
12160TIP3    H136437   3.386   6.589   3.118  0.4239  0.1377  1.1617
12160TIP3    H236438   3.414   6.696   3.014 -0.6735 -1.2351 -0.6122
12161TIP3   OH236439   8.174   1.246   1.246  0.1776 -0.6324 -0.8178
12161TIP3    H136440   8.089   1.203   1.254 -0.4586  0.7879  0.5405
12161TIP3    H236441   8.236   1.185   1.286 -0.4715 -0.9303 -0.2499
12162TIP3   OH236442   2.223   6.778   2.028  0.1785 -0.1350  0.0250
12162TIP3    H136443   2.218   6.857   2.081  1.1180 -1.5232  2.3587
12162TIP3    H236444   2.172   6.713   2.077  1.1438 -1.5039 -0.7076
12163TIP3   OH236445   7.606   3.679   4.849  0.1373 -0.0034 -0.0874
12163TIP3    H136446   7.591   3.673   4.943  0.5762  0.5183  0.0224
12163TIP3    H236447   7.523   3.710   4.812  1.1336  4.0852  0.6408
12164TIP3   OH236448   0.160   6.762   0.692  0.6984 -0.4429  0.0039
12164TIP3    H136449   0.173   6.681   0.643 -1.5196 -3.1383  3.4080
12164TIP3    H236450   0.228   6.761   0.760  0.1850  0.1279  0.5429
12165TIP3   OH236451   0.361   3.512   3.999 -0.3947  0.0026  0.2311
12165TIP3    H136452   0.284   3.482   3.950  0.6887 -1.2352 -0.8227
12165TIP3    H236453   0.345   3.604   4.016 -1.2031  0.2946 -1.8094
12166TIP3   OH236454   4.487   3.540   4.574 -0.2914  0.2992  0.1618
12166TIP3    H136455   4.566   3.563   4.622  1.2186 -1.6373 -1.2474
12166TIP3    H236456   4.417   3.543   4.640  1.5963 -1.7911  2.4197
12167TIP3   OH236457   1.440   2.774   2.316  0.7159 -0.2271  0.1994
12167TIP3    H136458   1.515   2.802   2.369  1.6356 -0.2487 -1.0543
12167TIP3    H236459   1.387   2.722   2.376  2.5972 -1.6998  0.6638
12168TIP3   OH236460   2.422   4.103   6.753 -0.1560 -0.3322 -0.1062
12168TIP3    H136461   2.441   4.196   6.743  0.4110 -0.5913 -1.8393
12168TIP3    H236462   2.334   4.092   6.716 -0.4660 -0.4049  0.6339
12169TIP3   OH236463   3.208   1.568   2.551  0.0513  0.5417  0.6327
12169TIP3    H136464   3.253   1.503   2.498  1.2972  1.3763  0.6022
12169TIP3    H236465   3.154   1.617   2.489  0.8853  0.9992  0.2495
12170TIP3   OH236466   5.345   7.383   5.254 -0.4988  0.3979  0.3987
12170TIP3    H136467   5.264   7.364   5.301  0.1470 -0.8651  1.0623
12170TIP3    H236468   5.369   7.299   5.215 -0.4621  1.1762 -1.3483
12171TIP3   OH236469   5.821   7.288   0.627  0.1865  0.0706 -0.5358
12171TIP3    H136470   5.898   7.244   0.662  0.4684 -0.6418 -1.9917
12171TIP3    H236471   5.803   7.359   0.690 -0.1441 -1.9151  1.7541
12172TIP3   OH236472   3.403   1.101   4.244  0.0823  0.4474 -0.2442
12172TIP3    H136473   3.414   1.052   4.163  1.9852  0.6771 -0.1920
12172TIP3    H236474   3.386   1.035   4.311  0.5013  0.0571 -0.5178
12173TIP3   OH236475   1.184   4.659   4.062  0.2149  0.0656  0.7099
12173TIP3    H136476   1.129   4.656   4.140  0.5815 -2.1530  0.9565
12173TIP3    H236477   1.183   4.569   4.028 -0.1015  0.9809 -1.9838
12174TIP3   OH236478   7.383   2.334   0.855 -0.3600  0.3688 -0.0012
12174TIP3    H136479   7.296   2.373   0.845  0.5203  1.8810 -2.5997
12174TIP3    H236480   7.386   2.265   0.788  0.0341 -0.5358  0.9212
12175TIP3   OH236481   3.717   1.631   3.715  0.7496  0.1092 -0.1981
12175TIP3    H136482   3.777   1.657   3.644  1.6145 -0.1333  0.4236
12175TIP3    H236483   3.768   1.644   3.795 -0.2039  0.3486  0.3861
12176TIP3   OH236484   1.475   7.767   4.958  0.2884 -0.6683 -0.3711
12176TIP3    H136485   1.514   7.679   4.956  1.1381 -0.2881 -1.2676
12176TIP3    H236486   1.550   7.826   4.967 -0.3308 -0.0581  0.9171
12177TIP3   OH236487   4.276   1.965   1.664 -0.2816 -0.1610 -0.1140
12177TIP3    H136488   4.297   2.049   1.706  2.6643 -0.4550 -0.8110
12177TIP3    H236489   4.279   1.983   1.570 -0.8367 -0.8115 -0.2675
12178TIP3   OH236490   8.277   5.102   0.949 -0.0587  0.0549 -0.1597
12178TIP3    H136491   8.301   5.011   0.965  0.3349 -0.4547 -2.9747
12178TIP3    H236492   8.189   5.111   0.985 -0.3601 -1.6663 -0.3907
12179TIP3   OH236493   2.884   5.940   6.105 -0.6671 -0.5264 -0.1918
12179TIP3    H136494   2.826   6.016   6.109  0.6753  0.5031  0.1618
12179TIP3    H236495   2.841   5.874   6.159 -0.8727  0.6730  1.1696
12180TIP3   OH236496   1.101   4.359   3.169 -0.5775 -0.5436 -0.0439
12180TIP3    H136497   1.022   4.305   3.165  0.0342 -1.4627  0.0214
12180TIP3    H236498   1.133   4.347   3.258 -1.0671  0.8799  0.3549
12181TIP3   OH236499   8.218   5.811   1.155 -0.2971 -0.2071  0.2637
12181TIP3    H136500   8.194   5.892   1.200  0.7098  0.9365 -1.1601
12181TIP3    H236501   8.140   5.756   1.161 -1.7916  1.7065 -0.5288
12182TIP3   OH236502   3.059   4.120   5.541  0.3153 -0.2349 -0.2142
12182TIP3    H136503   3.133   4.178   5.524  0.1969 -0.3266 -1.0610
12182TIP3    H236504   3.097   4.045   5.588  0.9485 -0.7782 -1.5524
12183TIP3   OH236505   5.546   1.320   2.083 -0.0073  0.7080 -0.2573
12183TIP3    H136506   5.483   1.382   2.048 -0.9804 -0.5009 -0.7366
12183TIP3    H236507   5.495   1.240   2.098  1.0909  0.1642  0.7844
12184TIP3   OH236508   5.363   3.453   0.170  0.3154 -0.4350 -0.1084
12184TIP3    H136509   5.395   3.368   0.141  2.9630  0.4198  0.0813
12184TIP3    H236510   5.442   3.507   0.180 -1.0634  1.3829  1.9299
12185TIP3   OH236511   6.336   2.005   2.897 -0.5816  0.7442  0.2638
12185TIP3    H136512   6.297   2.026   2.813 -1.8111  0.2360  0.6938
12185TIP3    H236513   6.424   1.972   2.876 -1.7847 -1.8610 -1.0310
12186TIP3   OH236514   5.229   3.750   6.470 -0.5128 -0.7082  0.1049
12186TIP3    H136515   5.262   3.701   6.394  3.4788  1.2200  0.3787
12186TIP3    H236516   5.227   3.841   6.441  1.2835  0.0975  2.2856
12187TIP3   OH236517   2.234   2.745   5.296  0.0979  0.3446 -0.2114
12187TIP3    H136518   2.146   2.761   5.330  0.8722 -1.4117  3.0634
12187TIP3    H236519   2.279   2.829   5.305 -0.9508  0.9954 -0.9694
12188TIP3   OH236520   4.248   3.871   5.689 -0.4727 -0.4303 -0.0387
12188TIP3    H136521   4.296   3.790   5.672 -0.4093 -0.7470  1.5332
12188TIP3    H236522   4.287   3.905   5.770 -0.6580  1.0556 -0.5475
12189TIP3   OH236523   0.294   7.547   2.446  0.6509 -0.3445 -0.1801
12189TIP3    H136524   0.339   7.619   2.402  0.5497 -0.4636 -0.4797
12189TIP3    H236525   0.292   7.476   2.382  0.3741 -0.4706 -0.0372
12190TIP3   OH236526   4.025   4.859   1.814  0.2743 -0.3405  0.4978
12190TIP3    H136527   4.114   4.891   1.804 -0.2552  0.8560 -0.8589
12190TIP3    H236528   3.976   4.905   1.746 -1.2203 -1.5704  0.6871
12191TIP3   OH236529   5.744   4.198   4.833  0.0978 -0.1975 -0.1142
12191TIP3    H136530   5.760   4.259   4.761  0.3755 -0.6122 -0.4090
12191TIP3    H236531   5.672   4.237   4.882  3.0268  2.6763  2.3144
12192TIP3   OH236532   6.935   0.518   1.115 -0.0437 -0.2751 -0.1355
12192TIP3    H136533   6.955   0.528   1.022 -0.7442  1.7758 -0.1152
12192TIP3    H236534   7.019   0.530   1.160 -0.0348  0.8614 -0.4234
12193TIP3   OH236535   7.130   6.183   2.362 -0.1495 -0.0580 -0.3195
12193TIP3    H136536   7.225   6.183   2.361 -0.0332  3.2546 -1.3546
12193TIP3    H236537   7.107   6.194   2.454  0.4615 -0.6823 -0.0861
12194TIP3   OH236538   5.948   4.150   4.546 -0.4146  0.1254  0.3445
12194TIP3    H136539   5.886   4.111   4.485 -0.9102 -0.2601  1.0814
12194TIP3    H236540   5.942   4.096   4.625  1.4040 -0.3852  0.1755
12195TIP3   OH236541   4.315   6.181   0.879  0.0063 -0.1079  0.1578
12195TIP3    H136542   4.342   6.123   0.807 -0.2143 -0.4705  0.3649
12195TIP3    H236543   4.327   6.129   0.958 -1.4811 -0.3676  0.2477
12196TIP3   OH236544   5.278   2.352   4.581 -0.0206 -0.1071  0.4538
12196TIP3    H136545   5.200   2.383   4.535  1.8464  1.4829 -1.8736
12196TIP3    H236546   5.321   2.432   4.611  0.2447 -1.0010  2.6875
12197TIP3   OH236547   0.740   7.717   0.165 -0.0049  0.4027 -0.3131
12197TIP3    H136548   0.739   7.723   0.070  0.5622 -1.0585 -0.4342
12197TIP3    H236549   0.686   7.640   0.185 -2.0043  1.9589  0.7011
12198TIP3   OH236550   0.016   3.029   5.749  0.1137  0.0782 -0.1264
12198TIP3    H136551   0.043   2.961   5.686 -0.1132 -1.6481  1.5470
12198TIP3    H236552   0.068   3.011   5.827  0.7086  2.4496  0.0940
12199TIP3   OH236553   2.505   1.004   0.322  0.3168  0.6914  0.0547
12199TIP3    H136554   2.526   0.920   0.363 -0.3816  0.8126  0.6848
12199TIP3    H236555   2.445   0.982   0.251 -0.2952  0.7026  0.5612
12200TIP3   OH236556   6.765   4.976   5.932 -0.1968  0.0225 -1.5163
12200TIP3    H136557   6.857   5.004   5.925 -0.4240  1.3042 -0.0201
12200TIP3    H236558   6.716   5.058   5.937 -0.9810 -0.4855  2.3648
12201TIP3   OH236559   6.952   4.454   4.022 -0.4436  0.4237 -0.7162
12201TIP3    H136560   6.999   4.404   4.089  1.6191  2.5975 -0.3795
12201TIP3    H236561   6.907   4.523   4.071  0.9188  1.9179 -1.4634
12202TIP3   OH236562   2.398   1.109   2.087 -0.1680 -0.4653 -0.3974
12202TIP3    H136563   2.384   1.169   2.159  1.5022 -0.4593 -0.0366
12202TIP3    H236564   2.314   1.064   2.076 -0.5683 -0.1684  1.2584
12203TIP3   OH236565   1.365   5.975   0.175  0.1855  0.3073 -0.2194
12203TIP3    H136566   1.332   6.058   0.208  0.1731  0.5048 -0.7214
12203TIP3    H236567   1.414   5.938   0.248  0.8828  1.1328 -0.2459
12204TIP3   OH236568   3.600   3.481   4.168  0.6607 -0.5236  0.0814
12204TIP3    H136569   3.526   3.535   4.198  0.3607 -1.0081  0.2162
12204TIP3    H236570   3.605   3.410   4.232  0.8490 -0.8372 -0.2805
12205TIP3   OH236571   0.314   4.816   0.219 -0.2476  0.0208  0.3830
12205TIP3    H136572   0.301   4.908   0.240 -1.5036 -0.2896  1.1073
12205TIP3    H236573   0.232   4.789   0.177  0.6539 -0.4232 -1.1827
12206TIP3   OH236574   7.051   5.418   4.281 -0.4302  0.2471 -0.3820
12206TIP3    H136575   7.141   5.408   4.312 -0.9904 -2.1284  0.7244
12206TIP3    H236576   7.060   5.444   4.189  1.4005 -0.5734 -0.4756
12207TIP3   OH236577   4.234   6.785   2.632 -0.2072 -0.4015 -0.4236
12207TIP3    H136578   4.258   6.876   2.619 -1.6729  0.3851  1.7434
12207TIP3    H236579   4.311   6.744   2.672 -0.0367  0.2844 -0.0455
12208TIP3   OH236580   5.748   2.371   0.909 -0.2324 -0.4113 -0.1211
12208TIP3    H136581   5.696   2.333   0.980 -0.7573 -0.8250 -0.7191
12208TIP3    H236582   5.778   2.455   0.943  0.5603 -1.1337  1.0624
12209TIP3   OH236583   7.171   1.617   3.039  0.2030  0.4079 -0.5037
12209TIP3    H136584   7.235   1.686   3.057 -1.0592  1.9065 -1.4974
12209TIP3    H236585   7.089   1.651   3.073 -0.4388 -0.6395 -0.9611
12210TIP3   OH236586   2.914   3.884   3.652  0.0282 -0.1508 -0.5012
12210TIP3    H136587   2.913   3.847   3.564 -0.9513 -1.2424 -0.0671
12210TIP3    H236588   2.862   3.964   3.645  0.5115  0.1218 -1.0444
12211TIP3   OH236589   7.774   5.180   1.431  0.2312  0.0791  0.0943
12211TIP3    H136590   7.686   5.149   1.449  0.1540 -0.1792 -0.6958
12211TIP3    H236591   7.827   5.147   1.503  0.2281 -2.2398 -0.8861
12212TIP3   OH236592   6.522   0.388   5.656 -0.3400  0.3119 -0.0277
12212TIP3    H136593   6.562   0.431   5.581  1.9403  0.4260  1.1500
12212TIP3    H236594   6.592   0.386   5.722 -1.2538 -2.5831  1.0026
12213TIP3   OH236595   0.088   4.966   4.469  0.2844 -0.1705  0.1214
12213TIP3    H136596  -0.007   4.962   4.480 -0.2948 -0.7126 -3.8373
12213TIP3    H236597   0.103   5.050   4.426  1.3808 -0.7452 -0.6556
12214TIP3   OH236598   2.717   4.845   2.927 -0.5170  0.0145 -0.4602
12214TIP3    H136599   2.740   4.925   2.974 -1.3536 -0.3607  0.6266
12214TIP3    H236600   2.765   4.776   2.973 -2.1630 -0.5004  0.5808
12215TIP3   OH236601   4.423   5.673   1.058 -0.5095  0.0276 -0.1694
12215TIP3    H136602   4.384   5.623   1.129  0.4145  0.2440  0.5109
12215TIP3    H236603   4.352   5.683   0.994 -2.3596  2.3938  1.9975
12216TIP3   OH236604   6.989   3.447   0.679  0.3925 -0.1694  0.0825
12216TIP3    H136605   7.078   3.478   0.698  0.1010  0.9862 -0.3304
12216TIP3    H236606   6.933   3.498   0.738 -0.1925  0.8638 -1.3033
12217TIP3   OH236607   4.885   4.297   5.129  0.6520  0.0476  0.1753
12217TIP3    H136608   4.795   4.310   5.099  0.3130 -2.2129 -0.0030
12217TIP3    H236609   4.940   4.334   5.061 -0.1017  2.2870  0.7107
12218TIP3   OH236610   0.126   4.609   3.440  0.3959 -0.0985 -0.2261
12218TIP3    H136611   0.109   4.553   3.516 -1.1655 -0.1403 -0.5721
12218TIP3    H236612   0.062   4.580   3.375  0.9177  0.7480 -1.1308
12219TIP3   OH236613   5.790   7.075   6.109  0.8182 -0.6457  0.0456
12219TIP3    H136614   5.749   7.160   6.093  2.1358  0.1771  0.8719
12219TIP3    H236615   5.733   7.013   6.063 -0.7878  0.5337  0.3260
12220TIP3   OH236616   5.522   1.469   1.393 -0.2680 -0.6308 -0.0005
12220TIP3    H136617   5.542   1.529   1.320 -0.7524 -1.4937 -0.8573
12220TIP3    H236618   5.527   1.525   1.471 -2.3572  0.9468 -0.8902
12221TIP3   OH236619   7.456   6.430   6.471 -0.1019 -0.2639  0.5279
12221TIP3    H136620   7.495   6.517   6.473  0.2059 -0.4204  1.8362
12221TIP3    H236621   7.439   6.408   6.562  0.6595 -1.9405  0.3170
12222TIP3   OH236622   2.802   5.735   4.609 -0.6387  0.3421 -0.0368
12222TIP3    H136623   2.878   5.781   4.574 -1.5459  1.1439 -1.0149
12222TIP3    H236624   2.779   5.784   4.688  0.0347 -0.0947  0.4421
12223TIP3   OH236625   8.288   5.637   6.400 -0.2868  0.0662  0.2121
12223TIP3    H136626   8.315   5.656   6.489 -0.1224  1.6521 -0.1495
12223TIP3    H236627   8.210   5.581   6.410  0.6855 -1.1628  1.2949
12224TIP3   OH236628   1.292   6.520   4.955  1.3771  0.4793 -0.0138
12224TIP3    H136629   1.280   6.465   5.032 -0.3696  0.1579 -0.4714
12224TIP3    H236630   1.386   6.518   4.937  1.4109 -2.0273  0.2111
12225TIP3   OH236631   2.516   4.724   6.309  0.0368 -0.2468 -0.0231
12225TIP3    H136632   2.606   4.695   6.326 -0.2040 -0.4200  0.9889
12225TIP3    H236633   2.461   4.652   6.338 -0.3949 -1.1021 -2.7009
12226TIP3   OH236634   5.250   7.659   6.047  0.3771  0.2731 -0.4200
12226TIP3    H136635   5.177   7.619   6.094  1.9307 -1.4072  0.7385
12226TIP3    H236636   5.246   7.622   5.959 -1.4842  2.0345 -1.1633
12227TIP3   OH236637   1.649   4.436   2.022 -0.1225  0.0146 -0.2541
12227TIP3    H136638   1.705   4.482   1.960  1.4258 -0.3583  0.7993
12227TIP3    H236639   1.669   4.343   2.010  0.8739 -0.0240  1.3523
12228TIP3   OH236640   6.317   7.453   6.100  0.0095  0.0945 -0.3903
12228TIP3    H136641   6.303   7.534   6.050  0.0334  0.4178  0.1201
12228TIP3    H236642   6.231   7.431   6.134 -0.5766 -1.5669 -2.6822
12229TIP3   OH236643   3.103   1.388   5.694  0.4457 -0.0666 -0.2486
12229TIP3    H136644   3.137   1.328   5.761 -0.7448  1.1577  1.5406
12229TIP3    H236645   3.044   1.446   5.741 -0.7702  0.6224 -2.4714
12230TIP3   OH236646   3.352   5.057   5.215 -0.1555 -0.6034 -0.0521
12230TIP3    H136647   3.370   5.076   5.307  0.2964 -1.3568  0.0274
12230TIP3    H236648   3.355   5.142   5.171 -0.8079 -0.1824  0.6996
12231TIP3   OH236649   2.743   6.122   1.513  0.1065  0.2743 -0.1285
12231TIP3    H136650   2.780   6.114   1.425  2.5435  0.7019  0.7774
12231TIP3    H236651   2.659   6.165   1.499  0.7124  0.9337 -2.2017
12232TIP3   OH236652   7.968   3.347   3.966 -0.7205 -0.1049 -0.2023
12232TIP3    H136653   7.890   3.403   3.967 -1.8671 -1.6349  0.3256
12232TIP3    H236654   8.028   3.388   4.029 -1.7537  0.2220  0.5957
12233TIP3   OH236655   6.258   1.298   5.655 -0.0200  0.3920  0.3084
12233TIP3    H136656   6.284   1.382   5.692  1.8210 -0.5938  1.3814
12233TIP3    H236657   6.274   1.307   5.561 -0.2251  1.3659  0.3603
12234TIP3   OH236658   5.270   0.498   3.054 -0.1551 -0.1064  0.1504
12234TIP3    H136659   5.180   0.487   3.083  0.2206  0.9645  1.8887
12234TIP3    H236660   5.289   0.590   3.069  0.5160  0.2587 -2.4556
12235TIP3   OH236661   1.324   1.154   4.839  0.4305  0.3271  0.0578
12235TIP3    H136662   1.269   1.076   4.827  1.1975 -0.1860 -0.1754
12235TIP3    H236663   1.377   1.159   4.760 -0.5443  1.8752 -0.5318
12236TIP3   OH236664   4.646   3.999   0.711  0.1219 -0.2948  0.2606
12236TIP3    H136665   4.663   3.991   0.617  1.4182 -4.3362  0.6712
12236TIP3    H236666   4.713   3.945   0.753 -3.3411 -2.8465  3.1356
12237TIP3   OH236667   7.605   5.897   6.695  0.2693 -1.0292 -0.2707
12237TIP3    H136668   7.687   5.918   6.652  0.6570 -0.1031  0.8882
12237TIP3    H236669   7.602   5.953   6.773 -1.3071 -1.2665 -0.1128
12238TIP3   OH236670   3.768   7.477   2.836  0.5727 -0.3852 -0.3038
12238TIP3    H136671   3.823   7.554   2.826 -0.0525  0.0940 -0.0919
12238TIP3    H236672   3.679   7.508   2.818  0.4407 -1.3042 -1.3907
12239TIP3   OH236673   0.994   4.349   2.850  0.7106  0.3253  0.1106
12239TIP3    H136674   1.054   4.406   2.898  1.0909  0.6080 -0.6652
12239TIP3    H236675   0.973   4.398   2.771  0.1599 -0.1518 -0.0441
12240TIP3   OH236676   2.511   7.397   2.838 -0.3572  0.2903 -0.3496
12240TIP3    H136677   2.526   7.310   2.875  0.7956  0.2801 -0.7948
12240TIP3    H236678   2.545   7.392   2.749 -3.3582  0.2118 -1.6253
12241TIP3   OH236679   7.082   7.547   0.011 -0.6690  0.0419 -0.3462
12241TIP3    H136680   7.110   7.632   0.045 -1.3092 -0.2211  0.9247
12241TIP3    H236681   7.156   7.517  -0.041  0.7304  0.1756  1.4416
12242TIP3   OH236682   5.113   4.515   0.319 -0.1278  0.3068  0.4287
12242TIP3    H136683   5.195   4.488   0.360  0.1816  1.3898  0.5459
12242TIP3    H236684   5.138   4.583   0.257 -0.6235 -1.0316 -1.3478
12243TIP3   OH236685   0.064   7.227   5.054  0.0206  0.6573 -0.3235
12243TIP3    H136686  -0.024   7.263   5.066 -0.1442 -0.2872  1.6504
12243TIP3    H236687   0.049   7.135   5.032  0.4669  0.0496  1.6833
12244TIP3   OH236688  -0.005   7.220   1.407 -0.4717 -0.5469 -0.4080
12244TIP3    H136689   0.014   7.275   1.331  1.0147 -0.5325 -0.0557
12244TIP3    H236690   0.036   7.136   1.387 -0.8278 -0.8216 -0.0025
12245TIP3   OH236691   6.004   7.201   2.656 -0.3357 -0.1198 -0.0090
12245TIP3    H136692   6.055   7.274   2.620 -0.6454  0.1029 -0.0054
12245TIP3    H236693   5.918   7.211   2.615 -0.8796  0.4884  1.2536
12246TIP3   OH236694   0.306   6.389   1.645  0.3146  0.1276  0.1430
12246TIP3    H136695   0.234   6.430   1.598 -0.5053 -0.8800  0.4675
12246TIP3    H236696   0.289   6.408   1.737  1.5062  1.4594  0.1289
12247TIP3   OH236697   7.039   6.727   1.543  0.0764  0.1409  0.6746
12247TIP3    H136698   6.964   6.786   1.543 -0.1490 -0.1421  0.7102
12247TIP3    H236699   7.113   6.781   1.572  0.2330  0.8566 -0.9437
12248TIP3   OH236700   3.375   3.978   0.179  0.5138 -0.2022 -0.1831
12248TIP3    H136701   3.390   3.966   0.085  0.8336  0.1099 -0.1731
12248TIP3    H236702   3.313   3.909   0.202  0.9875 -0.7428 -0.4762
12249TIP3   OH236703   1.493   5.277   1.592  0.1132  0.4895 -0.2228
12249TIP3    H136704   1.446   5.359   1.576  0.2979  0.5554 -0.4196
12249TIP3    H236705   1.482   5.261   1.686 -0.7738  0.2179 -0.3610
12250TIP3   OH236706   0.129   0.206   6.110  0.3002  0.2453 -0.3700
12250TIP3    H136707   0.112   0.232   6.201  0.9687  1.9338 -0.6959
12250TIP3    H236708   0.048   0.164   6.081  0.2593 -0.8330  1.1566
12251TIP3   OH236709   2.873   3.192   4.566  0.3770  0.4821  0.1054
12251TIP3    H136710   2.793   3.172   4.517  0.5215 -0.7122  0.3294
12251TIP3    H236711   2.928   3.240   4.504  0.7603 -1.4171 -1.0983
12252TIP3   OH236712   3.788   0.609   6.333  0.0312  0.2841 -0.4439
12252TIP3    H136713   3.803   0.700   6.357 -0.9920  0.1392  0.8207
12252TIP3    H236714   3.822   0.558   6.406 -0.8880 -0.2708 -0.3849
12253TIP3   OH236715   7.597   3.027   2.165 -0.6520  0.1239 -0.0574
12253TIP3    H136716   7.668   3.087   2.142  0.3798 -0.7278  0.7866
12253TIP3    H236717   7.638   2.940   2.163 -1.2050 -0.2421  2.1048
12254TIP3   OH236718   5.302   5.163   0.332 -0.6988  0.1094  0.7015
12254TIP3    H136719   5.210   5.170   0.308 -0.9372  0.1384  1.5702
12254TIP3    H236720   5.301   5.153   0.428  0.1814 -0.1981  0.6904
12255TIP3   OH236721   1.816   5.114   4.119 -0.5403  0.3324  0.3179
12255TIP3    H136722   1.878   5.041   4.123  0.5925  1.1678 -0.9230
12255TIP3    H236723   1.817   5.141   4.027 -1.7526  1.2279  0.5413
12256TIP3   OH236724   3.656   4.218   0.429  0.2804 -0.3556 -0.4015
12256TIP3    H136725   3.679   4.126   0.442  1.0075 -0.1110  0.1440
12256TIP3    H236726   3.655   4.255   0.518  0.2430  0.2162 -0.6361
12257TIP3   OH236727   6.572   7.472   4.089 -0.1286  1.1826 -0.1747
12257TIP3    H136728   6.562   7.562   4.057 -3.7122  0.8264 -0.4396
12257TIP3    H236729   6.496   7.426   4.054 -0.7352 -0.9008  3.4573
12258TIP3   OH236730   2.155   4.890   2.830  0.2226  0.9272  0.5896
12258TIP3    H136731   2.068   4.851   2.825  0.4078  0.2467  2.1761
12258TIP3    H236732   2.143   4.970   2.881  0.2716  1.7316 -0.6002
12259TIP3   OH236733   5.757   5.074   1.628 -0.1429  0.1285 -0.1086
12259TIP3    H136734   5.818   5.021   1.680 -0.7655 -0.9868 -0.4847
12259TIP3    H236735   5.685   5.094   1.688  0.0775  0.5434  0.0243
12260TIP3   OH236736   3.592   4.966   0.170 -0.2811 -0.8569 -0.0219
12260TIP3    H136737   3.631   4.977   0.257 -0.0877 -0.2575 -0.1782
12260TIP3    H236738   3.513   4.914   0.186 -1.0761  0.5261  0.7463
12261TIP3   OH236739   4.612   6.948   6.483  0.0834  0.3489  0.5351
12261TIP3    H136740   4.598   6.854   6.484 -0.8807  0.4272 -0.9498
12261TIP3    H236741   4.677   6.964   6.550 -0.4585 -1.2521  1.4998
12262TIP3   OH236742   5.857   5.504   1.743  0.6376  0.4449 -0.9028
12262TIP3    H136743   5.847   5.480   1.836  0.3943 -0.5797 -1.1828
12262TIP3    H236744   5.852   5.599   1.743 -1.8148  0.3845 -0.1454
12263TIP3   OH236745   2.718   4.682   0.389 -0.0397  0.7814  0.0750
12263TIP3    H136746   2.770   4.732   0.452 -0.1534 -0.5217  1.2541
12263TIP3    H236747   2.782   4.640   0.332  0.3223 -1.2049  1.8179
12264TIP3   OH236748   4.957   3.404   0.404  0.3523 -0.4265  0.1070
12264TIP3    H136749   4.904   3.454   0.342  0.5947  0.6233  0.7247
12264TIP3    H236750   4.893   3.352   0.454  0.0281 -0.1360 -0.0066
12265TIP3   OH236751   4.614   5.929   4.281  0.5624  0.3229  0.4595
12265TIP3    H136752   4.701   5.947   4.247  1.1933  0.8766  2.2589
12265TIP3    H236753   4.617   5.838   4.309  0.8976  0.6288  1.4406
12266TIP3   OH236754   3.718   2.329   5.228 -0.0258  0.0263 -0.0431
12266TIP3    H136755   3.749   2.418   5.213  0.0199  0.3993  1.9097
12266TIP3    H236756   3.796   2.282   5.258  0.2733 -1.0858 -2.3974
12267TIP3   OH236757   4.332   1.197   3.354  0.4760  0.0324  0.4700
12267TIP3    H136758   4.352   1.250   3.277  0.7037  1.2718  1.3610
12267TIP3    H236759   4.348   1.107   3.325  0.6859  0.4803 -0.8876
12268TIP3   OH236760   3.261   1.957   6.688  0.0243 -0.2911  0.1680
12268TIP3    H136761   3.213   1.892   6.635  0.7080 -0.7922  0.1550
12268TIP3    H236762   3.299   2.017   6.624 -2.2115  1.3209  0.2279
12269TIP3   OH236763   1.291   4.022   3.271 -0.7528 -0.0523 -0.2153
12269TIP3    H136764   1.316   4.030   3.179  0.1642  1.7298  0.1582
12269TIP3    H236765   1.310   3.930   3.293  0.3493 -0.1361 -1.4248
12270TIP3   OH236766   0.693   4.461   2.707  0.1014 -0.6939 -0.3137
12270TIP3    H136767   0.662   4.525   2.643 -0.3550 -0.7973 -0.2009
12270TIP3    H236768   0.787   4.452   2.689  0.1462 -0.0816 -0.4031
12271TIP3   OH236769   4.581   1.411   4.211  0.1978 -0.1339  0.4458
12271TIP3    H136770   4.617   1.364   4.136 -2.3458 -0.6055 -0.5967
12271TIP3    H236771   4.565   1.499   4.178 -0.7303 -0.2827  0.4826
12272TIP3   OH236772   5.307   7.350   1.890  0.3384 -0.7126 -0.0157
12272TIP3    H136773   5.354   7.294   1.952  1.0618  0.9121  0.9389
12272TIP3    H236774   5.219   7.356   1.925  0.0955 -1.6480 -0.4141
12273TIP3   OH236775   6.761   0.134   4.101 -0.1538 -0.0447 -0.6650
12273TIP3    H136776   6.841   0.182   4.122  0.5603 -0.3127 -2.5412
12273TIP3    H236777   6.716   0.189   4.036  0.2527 -1.4186 -2.1937
12274TIP3   OH236778   5.413   0.953   3.757 -0.4883 -0.0828 -0.1325
12274TIP3    H136779   5.410   1.045   3.730  3.0107 -0.2302 -1.6495
12274TIP3    H236780   5.379   0.953   3.846  0.8639  3.0404  0.5315
12275TIP3   OH236781   4.323   0.103   2.787  0.7619  0.5672  0.1926
12275TIP3    H136782   4.368   0.165   2.729  0.3017 -0.4632 -1.3343
12275TIP3    H236783   4.231   0.107   2.760  0.0491  1.8808  2.5713
12276TIP3   OH236784   6.895   7.179   1.017  0.2890  0.9101  0.5952
12276TIP3    H136785   6.984   7.214   1.013  0.5460  0.1920 -0.1540
12276TIP3    H236786   6.853   7.211   0.937 -0.7285  2.7551  1.7791
12277TIP3   OH236787   5.910   4.558   4.433 -0.0700  0.0254  0.3774
12277TIP3    H136788   5.960   4.530   4.357 -1.6797 -2.3536  0.0814
12277TIP3    H236789   5.840   4.613   4.397 -0.4340 -0.5490  0.1900
12278TIP3   OH236790   5.506   6.369   6.795 -0.0119 -0.2040  0.3587
12278TIP3    H136791   5.564   6.326   6.733  0.3171  0.1841  0.3915
12278TIP3    H236792   5.418   6.337   6.773  0.1208 -0.1825 -0.2055
12279TIP3   OH236793   3.463   1.187   5.408  0.6951  0.1726 -0.3678
12279TIP3    H136794   3.485   1.273   5.371 -1.0619  0.6628 -0.3546
12279TIP3    H236795   3.429   1.137   5.335 -2.6102  1.0771  0.3937
12280TIP3   OH236796   6.521   6.071   6.492 -0.2738 -0.2946  0.2599
12280TIP3    H136797   6.522   6.000   6.556 -1.6952 -0.5006  0.0876
12280TIP3    H236798   6.611   6.076   6.460  0.1833 -0.9861  1.3886
12281TIP3   OH236799   2.602   6.955   1.997  0.8715 -0.1126 -0.3269
12281TIP3    H136800   2.589   6.866   2.031 -0.4408 -0.3721 -1.4262
12281TIP3    H236801   2.551   7.010   2.056 -1.2277 -0.5375 -1.6541
12282TIP3   OH236802   5.701   3.417   2.747 -0.6014  0.6303 -0.5237
12282TIP3    H136803   5.741   3.339   2.786  0.9916  1.2360 -0.8484
12282TIP3    H236804   5.743   3.490   2.792  0.4260  1.3331 -2.4757
12283TIP3   OH236805   6.629   4.117   4.547  0.2985 -0.5492  0.1878
12283TIP3    H136806   6.585   4.176   4.609  0.1478 -1.4278  0.9400
12283TIP3    H236807   6.605   4.151   4.461 -2.5851 -1.4542  0.5263
12284TIP3   OH236808   3.766   6.017   5.921  0.2745  0.5824 -0.1108
12284TIP3    H136809   3.681   5.973   5.923 -0.9936  2.8924  0.7764
12284TIP3    H236810   3.761   6.078   5.847  2.1712 -0.9742 -1.6288
12285TIP3   OH236811   1.550   7.348   0.560 -0.0165  0.0919  0.3457
12285TIP3    H136812   1.545   7.285   0.488 -1.4012  1.8080 -1.1585
12285TIP3    H236813   1.619   7.408   0.535  2.8331 -1.8503  2.8022
12286TIP3   OH236814   0.209   5.154   2.706 -0.4137  0.6989 -0.5141
12286TIP3    H136815   0.114   5.145   2.705 -0.2753 -1.6313  0.5347
12286TIP3    H236816   0.237   5.120   2.621 -0.5083  1.7550 -0.9837
12287TIP3   OH236817   6.232   4.302   3.028  0.2395  0.2572  0.1059
12287TIP3    H136818   6.145   4.282   3.062  0.5347 -0.1161  0.6612
12287TIP3    H236819   6.225   4.288   2.934 -0.6074  1.3605 -0.0019
12288TIP3   OH236820   4.004   2.746   6.585 -0.1716  0.0827  0.0257
12288TIP3    H136821   4.014   2.777   6.495 -1.2583  2.1053  0.5573
12288TIP3    H236822   4.093   2.724   6.612  1.4013  5.4738  0.4558
12289TIP3   OH236823   7.465   1.309   4.532 -0.1896 -0.2149 -0.0779
12289TIP3    H136824   7.522   1.386   4.532 -1.1791  0.5531  0.7819
12289TIP3    H236825   7.487   1.263   4.451 -0.0245  1.3325 -0.9520
12290TIP3   OH236826   5.417   6.056   0.799  0.5802 -0.1476  0.1623
12290TIP3    H136827   5.479   6.012   0.740  1.7065  0.3976  0.8982
12290TIP3    H236828   5.368   6.114   0.741 -1.5690 -2.8794 -1.0004
12291TIP3   OH236829   0.892   1.872   2.195  0.1741  0.0214  0.1518
12291TIP3    H136830   0.830   1.804   2.223 -0.2446  0.5530  0.5465
12291TIP3    H236831   0.861   1.899   2.109  0.8907 -0.9317 -0.4262
12292TIP3   OH236832   8.103   5.731   5.890 -0.4162 -0.5450 -0.2205
12292TIP3    H136833   8.092   5.796   5.959  3.6546  1.6596 -1.2930
12292TIP3    H236834   8.112   5.648   5.935 -1.5091  0.2631  1.5676
12293TIP3   OH236835   8.111   7.241   1.989 -0.2399  0.2773 -0.4065
12293TIP3    H136836   8.173   7.305   1.954  1.4297 -1.6344 -1.1161
12293TIP3    H236837   8.132   7.159   1.944 -3.6525 -0.3776 -1.0538
12294TIP3   OH236838   7.066   7.670   1.466 -0.3194 -0.1023  0.0572
12294TIP3    H136839   6.989   7.704   1.420 -0.4321 -1.2060 -0.6277
12294TIP3    H236840   7.126   7.645   1.396  0.4282  0.2078  0.5766
12295TIP3   OH236841   6.674   4.671   4.402  0.2091 -0.3501 -0.1201
12295TIP3    H136842   6.609   4.661   4.470  0.6725  0.9647  0.5578
12295TIP3    H236843   6.756   4.640   4.441  0.6669  1.2611  0.3096
12296TIP3   OH236844   3.801   5.438   0.548  0.3122  0.0656 -0.1697
12296TIP3    H136845   3.782   5.513   0.605  1.6079 -0.6614  1.2747
12296TIP3    H236846   3.829   5.478   0.466 -1.7004  1.1337 -0.4242
12297TIP3   OH236847   3.774   6.427   3.397  0.0173  0.2987 -0.2883
12297TIP3    H136848   3.739   6.454   3.482  1.2743  1.7067 -0.1800
12297TIP3    H236849   3.822   6.346   3.417  0.6728  0.8541  0.4382
12298TIP3   OH236850   2.212   3.307   0.650 -0.6763 -0.4462  0.1902
12298TIP3    H136851   2.227   3.217   0.620  0.2181 -0.0236 -0.6806
12298TIP3    H236852   2.199   3.299   0.745  0.7249 -1.3470  0.3286
12299TIP3   OH236853   7.208   1.851   4.572 -0.2469  0.0555  0.0324
12299TIP3    H136854   7.164   1.877   4.491 -1.0819 -0.8692  0.1695
12299TIP3    H236855   7.250   1.932   4.603 -4.3040  1.8356  1.4834
12300TIP3   OH236856   8.219   6.086   3.549 -0.4400 -0.0220 -0.3537
12300TIP3    H136857   8.197   6.179   3.546 -0.5610 -0.0411 -0.1082
12300TIP3    H236858   8.315   6.084   3.549 -0.4366  0.0718 -1.1360
12301TIP3   OH236859   4.466   1.352   0.034  0.1957  1.0372 -0.6371
12301TIP3    H136860   4.467   1.360   0.130  0.2859 -0.3590 -0.5030
12301TIP3    H236861   4.399   1.415   0.006  0.0258  1.3271  0.3532
12302TIP3   OH236862   2.252   6.555   0.800 -0.3095 -1.0275  0.0342
12302TIP3    H136863   2.333   6.561   0.750 -0.2787  1.9968  0.2656
12302TIP3    H236864   2.279   6.570   0.891 -1.0416 -0.3639  0.1586
12303TIP3   OH236865   4.709   5.141   0.401  0.3301  0.2340  0.3579
12303TIP3    H136866   4.694   5.231   0.432  1.2292  0.9185 -1.0966
12303TIP3    H236867   4.621   5.107   0.385 -0.0021  1.3380 -0.3207
12304TIP3   OH236868   3.371   5.227   3.295 -0.6625 -0.1470 -0.0526
12304TIP3    H136869   3.417   5.179   3.363 -1.3520  1.1403  1.3713
12304TIP3    H236870   3.322   5.295   3.342 -1.6153  0.4186 -1.7757
12305TIP3   OH236871   7.641   2.174   4.384  0.3034  0.5800  0.5679
12305TIP3    H136872   7.676   2.098   4.430 -2.1403 -0.5006  0.8167
12305TIP3    H236873   7.716   2.211   4.337  1.5791 -1.9805  0.4288
12306TIP3   OH236874   3.865   1.620   0.714  0.0310 -0.2261  0.0115
12306TIP3    H136875   3.911   1.662   0.786  0.4270 -2.0135  0.8782
12306TIP3    H236876   3.896   1.664   0.635  2.0338 -0.3183  0.7089
12307TIP3   OH236877   4.820   3.322   2.801  0.1659 -0.2093  0.2483
12307TIP3    H136878   4.748   3.384   2.785 -1.3597 -1.6028  1.3486
12307TIP3    H236879   4.868   3.359   2.874 -0.1785  0.1363  0.3034
12308TIP3   OH236880   3.104   2.329   0.434 -0.1054 -0.4509  0.0245
12308TIP3    H136881   3.184   2.361   0.392  0.0587  0.9027  1.3080
12308TIP3    H236882   3.096   2.380   0.514 -3.4891  1.1413 -1.1433
12309TIP3   OH236883   6.306   6.127   4.780  0.3127 -0.3273  0.0698
12309TIP3    H136884   6.352   6.064   4.724  1.7344  2.2607 -1.8590
12309TIP3    H236885   6.215   6.122   4.751  0.6881 -0.4327 -1.1623
12310TIP3   OH236886   0.967   5.408   4.935 -0.4385 -0.3723 -0.1377
12310TIP3    H136887   1.023   5.403   4.858  0.0118 -1.4943  0.2382
12310TIP3    H236888   0.884   5.440   4.902  0.1756  0.5300 -0.8445
12311TIP3   OH236889   0.684   6.872   6.457 -0.0623  0.1122 -0.1374
12311TIP3    H136890   0.675   6.874   6.362 -0.2041  1.8331 -0.1117
12311TIP3    H236891   0.600   6.903   6.490  0.5621  1.1818  0.4963
12312TIP3   OH236892   8.158   6.318   5.118 -0.2144  0.3583 -0.3237
12312TIP3    H136893   8.224   6.249   5.117  0.0423  0.5964 -0.1160
12312TIP3    H236894   8.209   6.400   5.117 -0.4852  0.5476  0.4942
12313TIP3   OH236895   1.073   0.485   3.635 -0.0295  0.1540 -0.4431
12313TIP3    H136896   1.109   0.463   3.549 -0.2921  0.4615 -0.6339
12313TIP3    H236897   1.078   0.404   3.684  0.8674  0.1693 -0.4847
12314TIP3   OH236898   4.969   3.614   6.562  0.2567 -0.1721 -0.2131
12314TIP3    H136899   4.990   3.522   6.545  0.7396 -0.7254  2.8720
12314TIP3    H236900   5.054   3.658   6.559  0.5264 -0.4962  1.7279
12315TIP3   OH236901   6.940   3.122   0.832 -0.2071 -0.4131  0.0003
12315TIP3    H136902   6.903   3.101   0.918 -1.3283  1.8790  0.1722
12315TIP3    H236903   7.013   3.181   0.851 -0.2936 -0.1068 -0.6058
12316TIP3   OH236904   7.084   0.615   3.252  0.2761 -0.4033 -0.0987
12316TIP3    H136905   7.079   0.703   3.288  0.7292 -0.8620  1.1218
12316TIP3    H236906   7.177   0.600   3.237  0.2459 -0.8596  0.1683
12317TIP3   OH236907   3.461   1.999   3.298  0.2549  0.7753  0.5907
12317TIP3    H136908   3.545   1.953   3.309  0.8598  1.8121  0.4071
12317TIP3    H236909   3.395   1.930   3.309  1.1340 -0.1620  0.2204
12318TIP3   OH236910   1.612   2.532   2.682  0.1950 -0.3896  0.3220
12318TIP3    H136911   1.660   2.453   2.657 -1.0221 -0.9722 -0.2595
12318TIP3    H236912   1.620   2.536   2.778 -0.1900 -1.5481  0.4226
12319TIP3   OH236913   2.760   3.934   2.756 -0.0636 -0.1616 -0.1761
12319TIP3    H136914   2.710   3.998   2.706 -1.3662 -1.5546 -0.7364
12319TIP3    H236915   2.728   3.944   2.846 -0.0375  0.1734 -0.2033
12320TIP3   OH236916   4.651   1.659   2.968 -0.2106 -0.2808 -0.2586
12320TIP3    H136917   4.576   1.619   3.012  0.3405 -3.0250 -1.6217
12320TIP3    H236918   4.708   1.687   3.039 -1.2945 -0.6278  0.7855
12321TIP3   OH236919   5.646   0.528   2.113 -0.0553  0.1000 -0.5231
12321TIP3    H136920   5.579   0.576   2.064  0.9821  0.3791 -1.7141
12321TIP3    H236921   5.685   0.469   2.048  1.0347  0.1390  0.0717
12322TIP3   OH236922   1.839   5.372   2.056  0.3514  0.0553  0.1938
12322TIP3    H136923   1.888   5.444   2.016 -1.9348  3.1888  2.4748
12322TIP3    H236924   1.885   5.355   2.138 -0.6332  0.9909  0.9764
12323TIP3   OH236925   5.809   7.208   4.501  0.3782 -0.1812 -0.2947
12323TIP3    H136926   5.821   7.141   4.435 -0.2929 -1.5312  0.9046
12323TIP3    H236927   5.821   7.162   4.584  0.2926  1.2680  0.5533
12324TIP3   OH236928   1.567   6.875   6.772  0.1282 -0.5448  0.3334
12324TIP3    H136929   1.574   6.781   6.788  0.4826 -0.6091 -0.1529
12324TIP3    H236930   1.602   6.887   6.683 -1.6873 -0.2163 -0.3962
12325TIP3   OH236931   6.847   6.729   4.221  0.4614  0.5165 -0.4157
12325TIP3    H136932   6.898   6.658   4.260 -1.4940 -0.6092  0.2727
12325TIP3    H236933   6.820   6.782   4.296  1.2865  1.5719 -0.8543
12326TIP3   OH236934   1.523   6.818   4.687 -0.1867 -0.1244 -0.5419
12326TIP3    H136935   1.566   6.750   4.635 -2.0183 -0.4053 -1.7858
12326TIP3    H236936   1.503   6.887   4.624 -1.6302 -0.0686 -0.0623
12327TIP3   OH236937   6.453   4.332   4.615 -0.7812  0.5575  0.0629
12327TIP3    H136938   6.478   4.423   4.601  0.8362  0.2030  0.3617
12327TIP3    H236939   6.418   4.303   4.531 -0.0791  1.0855 -0.4211
12328TIP3   OH236940   4.916   0.097   2.010 -0.1891  0.4159 -0.0312
12328TIP3    H136941   4.919   0.065   2.101 -0.3094  1.0424  0.1995
12328TIP3    H236942   5.007   0.121   1.990 -0.2545  0.7936  0.1163
12329TIP3   OH236943   5.576   1.000   1.829 -0.0947 -0.1706  0.3040
12329TIP3    H136944   5.620   0.916   1.811 -0.4339  0.1689 -2.5593
12329TIP3    H236945   5.640   1.066   1.802 -0.5093  0.4611  0.8484
12330TIP3   OH236946   0.332   1.357   0.889 -0.5941 -0.1703 -0.6315
12330TIP3    H136947   0.304   1.445   0.915 -0.5828 -0.1292 -0.7551
12330TIP3    H236948   0.281   1.298   0.944  1.7290 -0.0605  1.8262
12331TIP3   OH236949   7.639   6.124   0.144 -0.4019  0.0656 -0.6267
12331TIP3    H136950   7.646   6.076   0.226 -3.1239  1.4428  0.5430
12331TIP3    H236951   7.641   6.056   0.076  0.5344 -1.2203  0.6481
12332TIP3   OH236952   2.170   7.472   3.941  0.1435 -0.0878  0.5952
12332TIP3    H136953   2.079   7.454   3.918  0.0165  0.6553  0.4815
12332TIP3    H236954   2.221   7.444   3.865  0.1230 -1.4819  1.0655
12333TIP3   OH236955   4.474   5.431   1.737  0.4031 -0.1739 -0.4564
12333TIP3    H136956   4.470   5.520   1.701  2.3447  0.8361  1.5893
12333TIP3    H236957   4.439   5.440   1.826 -0.0866 -1.6511 -0.4704
12334TIP3   OH236958   7.437   0.310   1.416 -0.1265  0.1869  0.0352
12334TIP3    H136959   7.463   0.245   1.482  0.3942 -0.2064 -0.5487
12334TIP3    H236960   7.487   0.286   1.338 -1.1000  0.3475 -0.6542
12335TIP3   OH236961   1.008   6.772   1.697  0.3629  0.0779  0.4663
12335TIP3    H136962   0.974   6.776   1.786  1.0030 -0.0226  0.7188
12335TIP3    H236963   1.103   6.772   1.707  0.4409 -0.1204 -0.2085
12336TIP3   OH236964   0.549   5.434   2.962  0.1991  0.3019  0.7067
12336TIP3    H136965   0.537   5.341   2.945  0.9238  0.0127  1.6844
12336TIP3    H236966   0.495   5.478   2.896  3.2643 -0.6596 -2.7357
12337TIP3   OH236967   0.036   3.017   1.800 -0.3867 -0.3655 -0.1835
12337TIP3    H136968  -0.023   3.080   1.759 -2.1566 -1.7774  0.0533
12337TIP3    H236969   0.004   3.010   1.890  1.5280  0.4199  0.5982
12338TIP3   OH236970   5.578   2.255   2.151  0.2376 -0.0694  0.3750
12338TIP3    H136971   5.531   2.327   2.193 -2.0056 -2.0678  1.5382
12338TIP3    H236972   5.638   2.298   2.090 -2.1635  2.7554 -0.2428
12339TIP3   OH236973   4.135   3.559   1.518 -0.3043  0.5104 -0.2538
12339TIP3    H136974   4.143   3.581   1.425  0.6774 -1.4177 -0.6890
12339TIP3    H236975   4.044   3.531   1.529  0.0201 -1.0347 -1.1279
12340TIP3   OH236976   5.590   1.382   3.475 -0.6350 -0.4664 -0.4494
12340TIP3    H136977   5.624   1.425   3.554  0.4191 -1.9849 -0.0427
12340TIP3    H236978   5.498   1.407   3.473 -0.7473 -0.5974  1.4121
12341TIP3   OH236979   4.652   1.697   1.132 -0.3847 -0.4733  0.0154
12341TIP3    H136980   4.734   1.726   1.170  0.0534 -0.6898 -0.7518
12341TIP3    H236981   4.656   1.601   1.136 -0.0609 -0.5169 -1.1206
12342TIP3   OH236982   2.991   3.269   2.120  0.1698  0.5844  0.2892
12342TIP3    H136983   2.959   3.309   2.200  1.1801 -1.0542  1.5726
12342TIP3    H236984   3.056   3.205   2.149  0.4123 -0.2167 -1.8256
12343TIP3   OH236985   7.773   6.098   5.254  0.0974 -0.3595  0.1347
12343TIP3    H136986   7.724   6.033   5.304 -0.0366  1.3912  2.4420
12343TIP3    H236987   7.849   6.118   5.308  1.6766 -0.6178 -1.8602
12344TIP3   OH236988   0.267   7.149   0.575 -0.3220 -0.2330  0.4090
12344TIP3    H136989   0.187   7.157   0.523  0.7736 -3.7566 -2.1478
12344TIP3    H236990   0.335   7.187   0.520  0.3898 -1.0229  0.7324
12345TIP3   OH236991   5.807   5.435   2.252  0.2182  0.3781 -0.1207
12345TIP3    H136992   5.712   5.447   2.254  0.0734 -0.4962 -1.1243
12345TIP3    H236993   5.826   5.409   2.163  0.8056 -4.1479  1.1065
12346TIP3   OH236994   0.152   1.475   4.511  0.2589  0.2113  0.0116
12346TIP3    H136995   0.193   1.390   4.528  0.9946  0.6165  0.3393
12346TIP3    H236996   0.143   1.515   4.597 -0.5349  0.2724 -0.0934
12347TIP3   OH236997   4.490   1.335   0.569 -0.3126  0.4764 -0.3104
12347TIP3    H136998   4.519   1.266   0.509  1.2785 -0.5829  1.5740
12347TIP3    H236999   4.437   1.289   0.635  0.4618  1.0804  0.7659
12348TIP3   OH237000   0.354   2.202   3.550 -0.2888 -0.2329 -0.2155
12348TIP3    H137001   0.421   2.149   3.507  0.8011  0.6431  0.3448
12348TIP3    H237002   0.402   2.252   3.616 -1.7431 -0.7644  1.3111
12349TIP3   OH237003   3.440   3.889   4.610 -0.0086  0.1413 -0.0101
12349TIP3    H137004   3.432   3.805   4.566 -0.4531  0.3717 -0.3737
12349TIP3    H237005   3.418   3.954   4.543  1.4671  0.6164 -0.0706
12350TIP3   OH237006   0.170   1.609   1.445 -0.3515 -0.0111 -0.0119
12350TIP3    H137007   0.081   1.603   1.409 -0.8799  1.0604  1.0422
12350TIP3    H237008   0.224   1.634   1.370 -0.8321 -1.1980 -0.7843
12351TIP3   OH237009   0.976   2.462   5.478  0.2992  0.1856  0.0242
12351TIP3    H137010   1.028   2.387   5.450 -0.4089 -0.7422  1.0634
12351TIP3    H237011   0.894   2.455   5.428  0.5025  0.6709 -0.3818
12352TIP3   OH237012   3.461   0.441   4.258  0.2006  0.1867 -0.1701
12352TIP3    H137013   3.502   0.409   4.338 -0.2305  0.5674  0.2048
12352TIP3    H237014   3.527   0.428   4.190  0.0330 -1.5805 -0.0463
12353TIP3   OH237015   6.601   4.773   6.015 -0.4725 -0.6498  0.6631
12353TIP3    H137016   6.527   4.811   5.967 -0.5328  0.6052  1.6808
12353TIP3    H237017   6.670   4.840   6.010  0.7777 -1.9491 -0.5907
12354TIP3   OH237018   6.673   5.952   1.162 -0.3194 -0.1781 -0.0422
12354TIP3    H137019   6.727   5.890   1.211 -0.3701 -0.8257 -0.7701
12354TIP3    H237020   6.608   5.897   1.118  1.1164  0.0424 -2.6885
12355TIP3   OH237021   1.788   1.144   1.774  0.8159 -0.0599 -0.2676
12355TIP3    H137022   1.747   1.069   1.732 -0.9061  0.5678  0.1651
12355TIP3    H237023   1.727   1.217   1.757  1.6379  0.8760  0.6375
12356TIP3   OH237024   3.933   0.480   2.374 -0.7341  0.3868  0.1477
12356TIP3    H137025   3.959   0.559   2.422 -0.2268 -0.9979  2.3125
12356TIP3    H237026   4.015   0.445   2.339 -1.0694  1.2433 -1.5922
12357TIP3   OH237027   5.907   6.802   2.151 -0.5570  0.3692 -0.4965
12357TIP3    H137028   5.917   6.874   2.213 -1.2135 -0.3312  0.4611
12357TIP3    H237029   5.952   6.832   2.072  0.7515  1.0833  0.4700
12358TIP3   OH237030   7.863   1.600   3.549 -0.1061  0.2596 -0.0395
12358TIP3    H137031   7.953   1.590   3.579 -0.6614 -3.8743  0.8364
12358TIP3    H237032   7.860   1.551   3.466 -1.3269  1.1884 -0.5743
12359TIP3   OH237033   5.423   4.564   2.837 -0.6551  0.1783 -0.3389
12359TIP3    H137034   5.435   4.469   2.835 -0.6223  0.1652  0.3308
12359TIP3    H237035   5.436   4.591   2.746 -2.4239 -0.6680 -0.8866
12360TIP3   OH237036   5.258   1.121   2.714 -0.2944  0.4584 -0.1043
12360TIP3    H137037   5.293   1.083   2.634 -1.8055 -2.0001  0.2924
12360TIP3    H237038   5.204   1.194   2.684  0.6134  0.7229 -1.1457
12361TIP3   OH237039   7.263   1.772   0.832  0.1248 -0.5805  0.7600
12361TIP3    H137040   7.326   1.784   0.760 -0.3886 -0.6341  0.3005
12361TIP3    H237041   7.259   1.858   0.874 -1.4038  0.1741 -0.7856
12362TIP3   OH237042   0.536   2.618   2.846  0.0962 -0.2769  0.4603
12362TIP3    H137043   0.565   2.678   2.915  0.6551  0.2919 -0.2537
12362TIP3    H237044   0.536   2.532   2.888 -3.3836  0.4520  2.3588
12363TIP3   OH237045   5.322   6.111   5.912 -0.0921 -0.2492 -0.1680
12363TIP3    H137046   5.234   6.108   5.949 -0.5372 -0.3110 -1.1871
12363TIP3    H237047   5.327   6.197   5.870  0.1611 -0.4402 -0.5296
12364TIP3   OH237048   3.017   6.892   5.924  0.1320 -0.5500 -0.2748
12364TIP3    H137049   3.105   6.930   5.913  0.1375 -0.7932 -1.2043
12364TIP3    H237050   2.997   6.903   6.017  0.8056  0.2580 -0.2109
12365TIP3   OH237051   7.246   1.472   6.248 -0.4090  0.3362  0.2543
12365TIP3    H137052   7.325   1.504   6.206  0.0612 -1.8280 -0.6511
12365TIP3    H237053   7.276   1.401   6.305 -1.5706  0.2828  0.8377
12366TIP3   OH237054   7.097   7.540   2.408  0.5296 -0.4794 -0.3739
12366TIP3    H137055   7.136   7.523   2.494  2.5028 -1.3504 -1.3816
12366TIP3    H237056   7.062   7.456   2.381  1.4726 -0.6388 -1.1422
12367TIP3   OH237057   6.477   6.071   5.987  0.2383 -0.2953  0.4972
12367TIP3    H137058   6.522   6.145   6.027  1.6305 -0.6517 -0.3346
12367TIP3    H237059   6.394   6.108   5.954  0.2570  0.5500  1.3631
12368TIP3   OH237060   7.396   4.045   6.676  0.1910 -0.0498  0.3876
12368TIP3    H137061   7.443   3.979   6.624  0.1971 -0.5133  0.9676
12368TIP3    H237062   7.352   3.994   6.744  1.9927  0.6997  2.2290
12369TIP3   OH237063   7.261   5.900   6.556  0.2126 -0.0222 -0.2459
12369TIP3    H137064   7.312   5.866   6.629  0.6038  0.4067 -0.3220
12369TIP3    H237065   7.326   5.922   6.489  0.0270  1.5807  0.0801
12370TIP3   OH237066   5.650   4.608   4.864  0.0776 -0.3507  0.2633
12370TIP3    H137067   5.655   4.627   4.770  2.6761 -2.2083 -0.0821
12370TIP3    H237068   5.691   4.683   4.906 -0.7060  0.2924 -0.1009
12371TIP3   OH237069   6.975   4.447   5.631  0.0212  0.5222  0.6465
12371TIP3    H137070   6.962   4.358   5.664 -2.4275  0.2083 -0.9271
12371TIP3    H237071   7.057   4.442   5.581 -0.9439 -1.3798 -0.8954
12372TIP3   OH237072   5.107   6.588   5.556 -0.0805 -0.8934 -0.6412
12372TIP3    H137073   5.168   6.515   5.543  0.6594 -0.6264  0.9975
12372TIP3    H237074   5.034   6.549   5.604  0.1944 -0.6438  0.0025
12373TIP3   OH237075   4.214   0.680   4.106 -0.4276 -0.2511  0.0908
12373TIP3    H137076   4.189   0.617   4.039  1.0280  0.5715 -1.2774
12373TIP3    H237077   4.307   0.664   4.121 -0.4546  0.3900  1.0304
12374TIP3   OH237078   2.347   2.145   6.257 -0.2030 -0.1911 -0.0018
12374TIP3    H137079   2.402   2.220   6.277  2.0605 -1.6687 -0.2966
12374TIP3    H237080   2.287   2.176   6.190  1.6001  1.0105 -1.1373
12375TIP3   OH237081   6.503   7.000   0.168  0.0851  0.3680 -0.0167
12375TIP3    H137082   6.576   7.062   0.177  0.3832 -0.0221  0.2699
12375TIP3    H237083   6.538   6.917   0.201 -0.0869 -0.1240 -1.0528
12376TIP3   OH237084   5.853   0.022   6.007 -0.6056 -0.2796 -0.1329
12376TIP3    H137085   5.900  -0.061   6.002 -2.0076 -1.1586  0.6726
12376TIP3    H237086   5.912   0.080   6.056 -0.2699 -1.3083  0.7335
12377TIP3   OH237087   1.987   7.532   6.726  0.3834 -0.0637 -0.3190
12377TIP3    H137088   2.037   7.458   6.690 -0.4156 -0.9465  0.3423
12377TIP3    H237089   1.927   7.492   6.788 -1.0966  0.9764 -1.0262
12378TIP3   OH237090   0.992   2.857   1.082  0.3762 -0.1577 -0.4665
12378TIP3    H137091   0.956   2.815   1.160  1.2904 -1.2681 -0.6165
12378TIP3    H237092   0.954   2.808   1.009 -1.4372  1.6442 -0.8142
12379TIP3   OH237093   4.415   5.934   0.717  0.3845 -0.2949  0.5305
12379TIP3    H137094   4.436   5.922   0.625 -1.6783  1.9005 -0.3265
12379TIP3    H237095   4.334   5.884   0.731  0.7033 -0.6499  1.1644
12380TIP3   OH237096   1.617   1.034   3.190  0.6039 -0.3208 -0.4315
12380TIP3    H137097   1.606   1.020   3.285  0.2319 -0.0103 -0.4284
12380TIP3    H237098   1.687   0.973   3.166 -1.2512 -2.5871 -0.4839
12381TIP3   OH237099   3.101   2.503   4.377  0.7681  0.1740 -0.1652
12381TIP3    H137100   3.145   2.498   4.462  0.4886 -0.8392 -0.0599
12381TIP3    H237101   3.170   2.529   4.316  1.2544 -0.2433  0.1929
12382TIP3   OH237102   4.452   5.752   4.890 -0.1620  0.2856 -0.4105
12382TIP3    H137103   4.521   5.802   4.846  0.0774  1.1232  0.8635
12382TIP3    H237104   4.383   5.817   4.907 -0.1491  0.0354  0.6471
12383TIP3   OH237105   3.825   3.815   6.037 -0.4445  0.1584  0.1470
12383TIP3    H137106   3.806   3.784   6.126  0.6329  1.9246  1.0409
12383TIP3    H237107   3.896   3.758   6.007 -1.6966 -1.3202 -0.1568
12384TIP3   OH237108   2.214   4.610   0.921  0.2368 -0.2722 -0.6711
12384TIP3    H137109   2.127   4.639   0.947  0.2138 -0.1162 -0.9170
12384TIP3    H237110   2.202   4.518   0.896  0.5400 -0.8763  1.2599
12385TIP3   OH237111   4.883   1.127  -0.017  0.0948  0.4335  0.3360
12385TIP3    H137112   4.929   1.178   0.049  0.5917  0.8039 -0.2862
12385TIP3    H237113   4.935   1.047  -0.027 -0.9167 -0.4338  1.6256
12386TIP3   OH237114   5.609   4.314   3.900 -0.7210 -0.1153  0.3617
12386TIP3    H137115   5.521   4.310   3.861 -0.8796  1.5214  0.4689
12386TIP3    H237116   5.662   4.360   3.835 -0.4583  0.7143  1.1424
12387TIP3   OH237117   7.270   1.592   1.356  0.1188 -0.1066 -0.0753
12387TIP3    H137118   7.253   1.525   1.290 -0.0954 -0.4842  0.3600
12387TIP3    H237119   7.358   1.624   1.336 -0.2353  0.3342 -1.0208
12388TIP3   OH237120   7.850   4.893   1.179 -0.8174 -0.5106 -0.4425
12388TIP3    H137121   7.779   4.839   1.146 -0.6995 -0.9444 -0.0019
12388TIP3    H237122   7.833   4.900   1.273 -0.4008 -0.4334 -0.3718
12389TIP3   OH237123   0.174   0.315   3.371  0.3156  0.7327 -0.2938
12389TIP3    H137124   0.205   0.385   3.429  1.1521  0.2085 -0.0890
12389TIP3    H237125   0.219   0.237   3.402 -1.4724 -0.1598  0.2261
12390TIP3   OH237126   3.386   5.955   1.292  0.9611  0.0117  0.2729
12390TIP3    H137127   3.303   5.963   1.339  0.3017 -0.2122 -0.8025
12390TIP3    H237128   3.391   6.035   1.239  0.8522 -0.5038 -0.5355
12391TIP3   OH237129   0.898   6.605   4.984 -0.3536  0.0298  0.0980
12391TIP3    H137130   0.872   6.523   4.941  0.8703 -0.6434  0.5818
12391TIP3    H237131   0.969   6.638   4.929  0.6716 -0.4163  1.1226
12392TIP3   OH237132   6.467   6.204   3.447 -0.2186 -0.1063 -0.1736
12392TIP3    H137133   6.554   6.189   3.484  0.3375  1.6578 -0.7128
12392TIP3    H237134   6.417   6.243   3.519 -0.6957 -1.4028  0.2325
12393TIP3   OH237135   5.416   7.551   2.065 -0.2253 -0.3186 -0.4582
12393TIP3    H137136   5.494   7.592   2.027  0.3078 -0.6133  0.2811
12393TIP3    H237137   5.415   7.463   2.026  0.4848 -0.7223  0.3973
12394TIP3   OH237138   4.175   1.860   0.900  0.0410  0.0118  0.6294
12394TIP3    H137139   4.088   1.822   0.914  0.2549 -0.9102 -0.4481
12394TIP3    H237140   4.236   1.793   0.931  0.4184 -0.5116 -1.1426
12395TIP3   OH237141   7.996   2.351   5.390  0.0349 -0.4682  0.1369
12395TIP3    H137142   7.951   2.320   5.469 -1.0671 -0.2160 -0.3787
12395TIP3    H237143   7.987   2.278   5.328  2.1017 -1.2486  0.6449
12396TIP3   OH237144   5.476   0.703   4.369  0.6585 -0.6343  0.2344
12396TIP3    H137145   5.493   0.770   4.434 -0.7797  0.9342 -0.9141
12396TIP3    H237146   5.392   0.664   4.396  0.5640 -0.6769 -0.1126
12397TIP3   OH237147   0.041   3.691   1.824  0.4760  0.1760 -0.2022
12397TIP3    H137148   0.052   3.780   1.859  2.3029  0.8842 -2.3753
12397TIP3    H237149  -0.037   3.697   1.768  0.7519  0.4855 -0.5555
12398TIP3   OH237150   6.626   6.193   2.277 -0.7990 -0.0087  0.4509
12398TIP3    H137151   6.587   6.140   2.207 -3.2822  1.2215  0.7868
12398TIP3    H237152   6.638   6.279   2.237  1.8496 -0.3350  0.3397
12399TIP3   OH237153   5.366   7.337   4.139  0.6996  0.1581 -0.6997
12399TIP3    H137154   5.375   7.267   4.075  1.0549  1.3504 -2.0138
12399TIP3    H237155   5.451   7.380   4.141  0.3189  0.9381 -0.3822
12400TIP3   OH237156   8.253   7.549   5.746  0.3904 -0.4300  0.2447
12400TIP3    H137157   8.256   7.454   5.742 -0.1591 -0.4098 -1.3904
12400TIP3    H237158   8.339   7.574   5.779  0.9535 -1.4697 -0.3693
12401TIP3   OH237159   6.907   2.744   0.292  0.0668  0.3660 -0.6187
12401TIP3    H137160   6.906   2.656   0.330  1.4519  1.0773  1.2331
12401TIP3    H237161   6.850   2.738   0.215 -0.5366 -1.9172 -0.0652
12402TIP3   OH237162   2.647   1.293   2.975  0.2507 -0.0247 -0.2626
12402TIP3    H137163   2.742   1.298   2.966  0.4564  1.5816  2.0048
12402TIP3    H237164   2.632   1.230   3.045 -0.2617  0.4804  0.0976
12403TIP3   OH237165   2.691   1.930   2.250 -0.0155 -0.0046  0.0817
12403TIP3    H137166   2.722   1.959   2.336  0.1214 -0.7940  0.3102
12403TIP3    H237167   2.768   1.935   2.193  0.3440 -1.1514  0.4411
12404TIP3   OH237168   2.083   0.570   2.554 -0.2041  0.4342 -0.1854
12404TIP3    H137169   2.140   0.610   2.619 -1.1874  0.4910  0.6690
12404TIP3    H237170   2.092   0.476   2.567  0.0051  0.4338 -0.3306
12405TIP3   OH237171   5.312   0.425   0.133  0.0311 -0.3521  0.1565
12405TIP3    H137172   5.381   0.382   0.185  0.0952 -1.1710 -0.5859
12405TIP3    H237173   5.319   0.385   0.047 -1.0656 -0.0903 -0.0636
12406TIP3   OH237174   2.617   3.691   5.216  0.2298  0.0614  0.2224
12406TIP3    H137175   2.574   3.720   5.136 -0.0630  2.2468  1.1128
12406TIP3    H237176   2.551   3.702   5.285  1.3790  1.0652  1.2168
12407TIP3   OH237177   1.047   5.770   1.511 -0.5403 -0.2554 -0.0434
12407TIP3    H137178   1.073   5.862   1.511  1.1693 -0.7023 -0.8964
12407TIP3    H237179   0.990   5.761   1.587  1.6323  0.8996  1.8353
12408TIP3   OH237180   6.188   7.600   3.036  0.0616  0.2115 -0.2759
12408TIP3    H137181   6.255   7.556   3.087 -0.3343 -1.7678 -1.3869
12408TIP3    H237182   6.189   7.556   2.951 -2.5979  0.1099 -0.3413
12409TIP3   OH237183   1.654   2.718   6.687 -1.0202 -0.2039 -0.6666
12409TIP3    H137184   1.700   2.698   6.606  0.1010 -0.9994  0.1450
12409TIP3    H237185   1.585   2.652   6.693 -3.5561  2.0268 -2.7763
12410TIP3   OH237186   7.291   5.999   3.486 -0.1070  0.2365 -0.6542
12410TIP3    H137187   7.219   6.040   3.438 -0.9908  0.8316  1.0798
12410TIP3    H237188   7.362   5.991   3.422 -1.5816 -0.0405 -2.3203
12411TIP3   OH237189   5.979   1.982   6.267  0.1893  0.2373 -0.1220
12411TIP3    H137190   6.006   2.058   6.214  1.4856 -0.2700 -0.2202
12411TIP3    H237191   6.039   1.983   6.341  0.1520 -0.6397 -0.0779
12412TIP3   OH237192   7.484   1.380   2.790 -0.8400  0.1262 -0.4532
12412TIP3    H137193   7.484   1.336   2.705 -1.1259  0.5075 -0.6532
12412TIP3    H237194   7.498   1.472   2.769 -1.6696  0.3301 -0.1443
12413TIP3   OH237195   5.335   6.076   1.812  0.1061 -0.1348 -0.0501
12413TIP3    H137196   5.408   6.053   1.869  0.0121  1.0960  0.6074
12413TIP3    H237197   5.329   6.171   1.818 -0.5673 -0.0721 -1.3189
12414TIP3   OH237198   4.820   2.151   2.857 -0.2834  0.0543 -0.4374
12414TIP3    H137199   4.831   2.149   2.762  3.3733 -0.6434 -0.1709
12414TIP3    H237200   4.799   2.061   2.881  1.8225 -0.5049 -0.4623
12415TIP3   OH237201   1.764   3.264   0.101  0.1799  0.1403  0.0511
12415TIP3    H137202   1.801   3.316   0.029 -0.2262  0.9156  0.3960
12415TIP3    H237203   1.770   3.322   0.178  2.3996 -1.3377  1.1089
12416TIP3   OH237204   3.825   3.275   3.410 -0.3899  0.2489 -0.2214
12416TIP3    H137205   3.789   3.189   3.388 -0.7937  0.7129 -1.4226
12416TIP3    H237206   3.752   3.335   3.400 -0.7020  0.5085  2.6764
12417TIP3   OH237207   0.126   1.758   2.873  0.7475 -0.6879  0.0987
12417TIP3    H137208   0.201   1.770   2.931  0.8275  0.6719 -0.2627
12417TIP3    H237209   0.113   1.843   2.831 -0.0370 -1.3171 -1.0104
12418TIP3   OH237210   4.409   3.322   0.722  0.2883 -0.2112 -0.4567
12418TIP3    H137211   4.331   3.329   0.667  0.0387 -2.2756 -0.4413
12418TIP3    H237212   4.457   3.403   0.706 -2.6031  1.9447  0.7870
12419TIP3   OH237213   2.343   5.316   4.641  0.0846  0.6100  0.0155
12419TIP3    H137214   2.337   5.354   4.553  0.8981 -0.2967 -0.4583
12419TIP3    H237215   2.351   5.222   4.625 -2.3337  0.1499  1.1623
12420TIP3   OH237216   4.153   6.068   4.639 -0.4944 -0.4091 -0.2960
12420TIP3    H137217   4.085   6.124   4.602 -0.6031 -0.3303  0.0145
12420TIP3    H237218   4.162   6.098   4.729  1.5346  1.0891 -0.9323
12421TIP3   OH237219   7.760   1.652   2.681 -0.0069 -0.0461  0.4696
12421TIP3    H137220   7.678   1.617   2.646  0.5813 -0.8739 -0.1356
12421TIP3    H237221   7.766   1.615   2.769 -0.2195 -0.0957  0.4639
12422TIP3   OH237222   6.031   4.772   3.897 -0.2735  0.2378  0.4674
12422TIP3    H137223   5.969   4.765   3.825  0.6369  0.6313 -0.3682
12422TIP3    H237224   6.116   4.753   3.858  0.2162  0.3025  1.4685
12423TIP3   OH237225   5.077   4.162   3.530  0.2143 -0.1301 -0.4787
12423TIP3    H137226   5.168   4.133   3.530 -0.4144 -2.2459 -0.7929
12423TIP3    H237227   5.083   4.257   3.516  2.3685 -0.1243  0.0272
12424TIP3   OH237228   8.301   4.335   2.105 -0.4633 -0.3136 -0.4633
12424TIP3    H137229   8.245   4.372   2.036  0.9915  2.0913 -0.4861
12424TIP3    H237230   8.244   4.331   2.182 -1.2978 -0.1489 -1.0539
12425TIP3   OH237231   0.387   0.073   0.967  0.0574 -0.1475  0.4146
12425TIP3    H137232   0.385   0.001   1.030  0.6823 -1.1033 -0.6267
12425TIP3    H237233   0.478   0.102   0.966  0.5430 -1.5584 -1.5611
12426TIP3   OH237234   6.818   5.320   0.116 -0.4042  0.4354  0.1023
12426TIP3    H137235   6.758   5.376   0.067 -0.6839 -1.4502 -1.8513
12426TIP3    H237236   6.854   5.260   0.050  0.9319 -0.7715  1.8455
12427TIP3   OH237237   5.299   5.180   6.746 -0.7516  0.3021  0.1271
12427TIP3    H137238   5.296   5.120   6.671  0.3440 -1.0453  1.1175
12427TIP3    H237239   5.217   5.164   6.792 -0.3672 -0.6365  0.5116
12428TIP3   OH237240   2.986   2.464   4.994  0.4898 -0.1939 -0.2141
12428TIP3    H137241   2.936   2.425   4.923  0.0668 -0.0253 -0.0171
12428TIP3    H237242   2.992   2.395   5.060 -0.9986  0.2966  0.5015
12429TIP3   OH237243   5.066   4.099   3.801  0.0575 -0.0754 -0.4689
12429TIP3    H137244   5.109   4.017   3.825  1.0213  0.2937 -0.8759
12429TIP3    H237245   5.087   4.112   3.708  1.6935  1.6500  0.0779
12430TIP3   OH237246   8.045   0.976   3.629  0.2240  0.1536 -0.0399
12430TIP3    H137247   8.101   1.032   3.576 -1.6802  1.3448 -0.9094
12430TIP3    H237248   8.080   0.984   3.718 -0.1381  3.0352 -0.0526
12431TIP3   OH237249   0.804   5.643   3.778 -0.3327  0.4507  0.0183
12431TIP3    H137250   0.727   5.647   3.721  1.0378 -1.0662 -2.0741
12431TIP3    H237251   0.874   5.684   3.727  0.6604  0.2433  1.1667
12432TIP3   OH237252   4.907   6.107   4.879 -0.0678 -0.6332  1.0460
12432TIP3    H137253   4.996   6.072   4.871 -0.4448 -1.5817  0.8198
12432TIP3    H237254   4.915   6.179   4.941  1.1776  0.4653 -0.3375
12433TIP3   OH237255   0.091   5.159   6.153  0.2639 -0.5901  0.0735
12433TIP3    H137256   0.146   5.181   6.078 -0.5331  0.3281 -0.2669
12433TIP3    H237257   0.032   5.091   6.120 -0.6853  0.4511 -0.4195
12434TIP3   OH237258   2.788   5.767   3.623  0.0343  0.0189  0.4670
12434TIP3    H137259   2.838   5.789   3.702 -0.8625  1.4118  0.6693
12434TIP3    H237260   2.706   5.731   3.656 -0.2515  0.3975  0.1734
12435TIP3   OH237261   4.866   5.462   3.286 -0.0714  0.0853 -0.0273
12435TIP3    H137262   4.903   5.526   3.346  1.5659 -0.7159 -0.1323
12435TIP3    H237263   4.779   5.442   3.322  0.3693  0.5445  1.3419
12436TIP3   OH237264   7.118   2.727   3.746 -0.3776 -0.0235  0.0978
12436TIP3    H137265   7.092   2.819   3.738  0.4400  0.1216 -1.1551
12436TIP3    H237266   7.202   2.731   3.793 -0.8775 -0.2245  1.0256
12437TIP3   OH237267   4.783   2.763   6.629  0.1994  0.0870 -0.4194
12437TIP3    H137268   4.737   2.790   6.550 -0.1302  0.0541 -0.2407
12437TIP3    H237269   4.722   2.784   6.700  0.8358  0.8989 -0.1029
12438TIP3   OH237270   1.292   4.707   0.336 -0.0802 -0.6086 -0.0039
12438TIP3    H137271   1.229   4.679   0.402 -0.2935  0.7161  0.3784
12438TIP3    H237272   1.347   4.630   0.322  0.3483 -0.7495  2.1522
12439TIP3   OH237273   2.132   5.075   1.340  0.2540  0.4299 -0.0006
12439TIP3    H137274   2.077   5.104   1.267  0.3896 -0.3556 -0.4208
12439TIP3    H237275   2.074   5.079   1.416 -0.3787 -0.3475 -0.4342
12440TIP3   OH237276   8.227   6.021   0.084  0.0306  0.0623 -0.4784
12440TIP3    H137277   8.271   6.105   0.099  1.7027 -0.9735  0.7581
12440TIP3    H237278   8.250   5.998  -0.006  0.4771  0.4033 -0.4564
12441TIP3   OH237279   1.226   4.016   3.818  0.2433 -0.5489  0.0304
12441TIP3    H137280   1.254   4.107   3.802 -1.2934 -0.0319  0.0798
12441TIP3    H237281   1.205   3.982   3.731 -0.4042 -0.4179  0.1294
12442TIP3   OH237282   1.316   3.003   3.777  0.0664 -0.2038 -0.0339
12442TIP3    H137283   1.274   3.085   3.752 -1.7416 -0.4481  1.8781
12442TIP3    H237284   1.364   3.023   3.857 -1.2445 -1.1730  1.0470
12443TIP3   OH237285   5.616   3.559   1.399  0.0936  0.2245  0.6785
12443TIP3    H137286   5.704   3.563   1.437  0.3573 -1.6066  0.3048
12443TIP3    H237287   5.571   3.491   1.449  0.3723 -2.1327 -2.0515
12444TIP3   OH237288   7.506   6.781   4.500 -0.1958 -0.4163 -0.2051
12444TIP3    H137289   7.555   6.819   4.572  1.5728 -1.2872 -0.8843
12444TIP3    H237290   7.428   6.744   4.540  0.3272 -0.1223  1.1157
12445TIP3   OH237291   2.288   0.775   6.587  0.0102 -0.1048  0.1737
12445TIP3    H137292   2.309   0.700   6.531  0.2117 -0.4080  0.6472
12445TIP3    H237293   2.314   0.851   6.535 -1.6840 -0.2591 -0.9771
12446TIP3   OH237294   1.618   3.152   1.046 -0.2397 -0.4638  0.5259
12446TIP3    H137295   1.583   3.075   1.090 -0.3537 -0.6424  0.1273
12446TIP3    H237296   1.619   3.128   0.953  0.0371 -0.1080  0.4367
12447TIP3   OH237297   5.772   3.437   2.109 -0.2921 -0.1995 -0.0568
12447TIP3    H137298   5.684   3.446   2.143 -1.0623  0.2745 -2.0322
12447TIP3    H237299   5.773   3.492   2.030  1.8198 -0.0420  0.0260
12448TIP3   OH237300   4.895   1.083   3.930  0.3385 -0.4044  0.2093
12448TIP3    H137301   4.894   1.041   4.017 -0.2076 -1.6052 -0.3511
12448TIP3    H237302   4.865   1.014   3.870  0.1407  0.5879 -0.8586
12449TIP3   OH237303   4.023   3.154   2.498 -0.0898 -0.1901  0.3759
12449TIP3    H137304   4.034   3.246   2.472  0.0631  0.7483  3.4406
12449TIP3    H237305   4.111   3.118   2.494 -0.0006  0.0543  0.0448
12450TIP3   OH237306   3.325   1.315   0.534 -0.2611  0.5209  0.2381
12450TIP3    H137307   3.322   1.367   0.453  1.4183 -1.3053 -1.0910
12450TIP3    H237308   3.394   1.356   0.586 -0.5329  0.9868  0.2417
12451TIP3   OH237309   1.872   1.775   3.720  0.3035  0.0565 -0.1554
12451TIP3    H137310   1.882   1.832   3.797  1.1777 -0.8884  0.4624
12451TIP3    H237311   1.778   1.764   3.710  0.1263  1.5348 -0.2344
12452TIP3   OH237312   7.135   4.877   1.525 -0.1149  0.0862 -0.2490
12452TIP3    H137313   7.056   4.850   1.572  0.4204 -1.5311 -0.2144
12452TIP3    H237314   7.143   4.816   1.453  0.1328  1.3634 -1.3442
12453TIP3   OH237315   6.051   3.393   2.159  0.4524  0.1729 -0.3413
12453TIP3    H137316   5.965   3.414   2.123  1.1398 -0.3994 -2.4575
12453TIP3    H237317   6.045   3.301   2.184  1.2775 -0.8573 -3.4628
12454TIP3   OH237318   5.123   4.985   0.616 -0.2025  0.6805  0.4697
12454TIP3    H137319   5.213   5.015   0.627  0.0208 -0.0743  0.8434
12454TIP3    H237320   5.100   5.007   0.526 -0.0167  1.8306  0.6936
12455TIP3   OH237321   2.910   7.510   0.097  0.0994  0.0893 -0.5285
12455TIP3    H137322   2.970   7.457   0.044 -0.7235  0.8985 -2.3523
12455TIP3    H237323   2.910   7.595   0.054 -2.1386  0.1981 -0.3953
12456TIP3   OH237324   5.490   6.761   0.203  0.4375 -0.1070  0.0219
12456TIP3    H137325   5.404   6.737   0.238  1.0891 -2.0297  0.4000
12456TIP3    H237326   5.507   6.849   0.238 -0.1771 -0.8060  2.1740
12457TIP3   OH237327   4.383   6.994   2.302  0.0171 -0.0553 -0.0184
12457TIP3    H137328   4.466   6.948   2.313 -0.1918 -1.3392 -2.8318
12457TIP3    H237329   4.350   6.963   2.218 -2.6033  1.5619  0.3079
12458TIP3   OH237330   7.657   0.271   4.013 -0.7636 -0.3472  0.4383
12458TIP3    H137331   7.738   0.290   3.965 -1.0734 -0.8454 -0.3061
12458TIP3    H237332   7.682   0.276   4.105  0.6334 -2.5160  0.2436
12459TIP3   OH237333   2.845   5.827   5.204 -0.2560  0.5385  0.2970
12459TIP3    H137334   2.856   5.745   5.251 -0.7405  1.7983  2.7762
12459TIP3    H237335   2.773   5.811   5.143 -2.3620 -0.0827  2.8092
12460TIP3   OH237336   0.288   5.080   0.249  0.3044 -0.2529  0.1586
12460TIP3    H137337   0.340   5.116   0.321 -0.2692  0.5041  0.2149
12460TIP3    H237338   0.245   5.157   0.211 -0.1340 -0.7649 -0.3895
12461TIP3   OH237339   4.978   6.686   3.392  0.0923 -0.4040  0.1398
12461TIP3    H137340   5.032   6.619   3.350  3.4378  1.2888  1.4106
12461TIP3    H237341   4.924   6.637   3.454 -0.0844 -2.2330 -1.3933
12462TIP3   OH237342   0.719   0.561   1.488 -0.3566 -0.2764  0.1765
12462TIP3    H137343   0.735   0.594   1.400 -0.6639 -0.1457  0.1701
12462TIP3    H237344   0.634   0.597   1.512 -0.5654 -0.8323  0.2776
12463TIP3   OH237345   6.589   4.555   3.690 -0.3925  0.0379  0.2849
12463TIP3    H137346   6.572   4.473   3.736 -0.0566 -0.6243 -0.7427
12463TIP3    H237347   6.525   4.557   3.619 -3.2415  2.6754  2.6307
12464TIP3   OH237348   0.918   4.037   4.330  0.2548  0.6831 -0.0435
12464TIP3    H137349   0.987   4.077   4.277  0.9585  0.3722  0.6080
12464TIP3    H237350   0.949   4.047   4.420  0.0937 -0.6388  0.1811
12465TIP3   OH237351   4.000   5.066   1.420 -0.4049 -0.1527  0.0720
12465TIP3    H137352   3.974   5.158   1.414 -0.1291 -0.0264  0.7210
12465TIP3    H237353   3.957   5.035   1.500  0.0389 -0.4074  0.2136
12466TIP3   OH237354   0.465   0.631   3.186 -0.0789  0.0517 -0.0802
12466TIP3    H137355   0.490   0.639   3.094  2.0839 -2.5153  0.1842
12466TIP3    H237356   0.375   0.601   3.184  0.3112 -1.1350 -1.4259
12467TIP3   OH237357   1.992   4.553   4.268 -0.0253  0.3155 -0.1652
12467TIP3    H137358   2.065   4.532   4.209 -0.1402  0.2754 -0.2942
12467TIP3    H237359   1.985   4.648   4.266  0.9040  0.4235  0.9073
12468TIP3   OH237360   5.698   4.550   0.567 -0.1211  0.7355  0.3361
12468TIP3    H137361   5.709   4.457   0.586 -0.8683  0.2120 -1.5830
12468TIP3    H237362   5.622   4.577   0.618 -0.0910  0.2308  0.6518
12469TIP3   OH237363   1.644   1.531   2.805  0.6923  0.2411  0.3075
12469TIP3    H137364   1.659   1.618   2.769  0.0454  0.8962  1.5602
12469TIP3    H237365   1.570   1.541   2.865  1.2777 -0.9332  1.2955
12470TIP3   OH237366   1.562   5.690   0.267 -0.6640 -0.6177  0.0096
12470TIP3    H137367   1.604   5.641   0.196 -3.0102 -1.2154 -1.0591
12470TIP3    H237368   1.469   5.668   0.260 -1.3862  1.6413  1.4208
12471TIP3   OH237369   1.023   7.597   5.756 -0.0248  0.0831 -0.5526
12471TIP3    H137370   1.043   7.671   5.699 -2.5166  0.8580 -0.5485
12471TIP3    H237371   1.097   7.593   5.817  0.8181  1.7076 -1.3998
12472TIP3   OH237372   1.580   6.793   3.796  0.1169 -0.5457 -0.0302
12472TIP3    H137373   1.612   6.774   3.707  1.2750  1.5379 -0.1122
12472TIP3    H237374   1.493   6.752   3.799  0.5687 -1.7383 -1.6740
12473TIP3   OH237375   0.345   1.348   3.876  0.1245  0.1757 -0.1115
12473TIP3    H137376   0.253   1.358   3.902  0.1562  0.7758 -0.2086
12473TIP3    H237377   0.391   1.415   3.926  0.6421 -0.6543  0.5452
12474TIP3   OH237378   2.480   5.766   4.908  0.1499 -0.1904 -0.3559
12474TIP3    H137379   2.443   5.794   4.992  1.6755 -1.9684  1.0214
12474TIP3    H237380   2.429   5.689   4.883  0.9230 -0.8394 -0.0033
12475TIP3   OH237381   7.766   2.293   2.456 -0.6832 -0.3028 -0.1856
12475TIP3    H137382   7.819   2.269   2.532 -0.3567 -0.7876 -0.5591
12475TIP3    H237383   7.689   2.337   2.493  0.7928  2.0600  0.2889
12476TIP3   OH237384   3.499   3.495   2.634 -0.2419  0.1313  0.1195
12476TIP3    H137385   3.464   3.576   2.598 -2.1474  0.4843  2.4890
12476TIP3    H237386   3.459   3.426   2.582 -1.8881  0.6467  0.6447
12477TIP3   OH237387   8.150   7.519   0.575 -0.2306 -0.3557 -0.0154
12477TIP3    H137388   8.065   7.479   0.594  0.3244 -1.8393 -0.5211
12477TIP3    H237389   8.203   7.499   0.652 -0.6022  1.4718  0.7691
12478TIP3   OH237390   0.932   6.880   0.195 -0.1385  0.8529  0.6802
12478TIP3    H137391   0.898   6.910   0.111 -0.4216  1.8257  1.1296
12478TIP3    H237392   0.861   6.897   0.257  0.1953  0.4550  1.1810
12479TIP3   OH237393   7.431   1.770   5.386 -0.5334  0.4346  0.1933
12479TIP3    H137394   7.360   1.755   5.323 -0.6816 -0.0802  0.4733
12479TIP3    H237395   7.397   1.838   5.444 -1.0542 -0.2271  0.6911
12480TIP3   OH237396   6.724   3.349   1.887 -0.4451 -0.3763  0.1562
12480TIP3    H137397   6.812   3.312   1.889  0.6915  2.1528  0.0138
12480TIP3    H237398   6.719   3.403   1.966 -0.8557  1.6069 -1.1676
12481TIP3   OH237399   7.225   1.485   2.779 -0.6440  0.4698 -1.0409
12481TIP3    H137400   7.288   1.413   2.790  2.8501  2.6872 -4.1378
12481TIP3    H237401   7.224   1.529   2.864 -3.0961 -3.1140  1.0260
12482TIP3   OH237402   4.006   1.080   5.773 -0.1017 -0.3230 -0.0886
12482TIP3    H137403   3.998   1.175   5.769  1.1450 -0.0634  2.0604
12482TIP3    H237404   3.918   1.049   5.795 -0.6210  0.2470 -1.2437
12483TIP3   OH237405   1.239   1.319   4.417  0.0878 -0.3627 -0.0394
12483TIP3    H137406   1.175   1.299   4.486  0.6873 -1.8664  0.1247
12483TIP3    H237407   1.316   1.351   4.463 -0.7396  2.1755 -0.2821
12484TIP3   OH237408   2.648   6.874   1.551  0.2247 -0.2498 -0.0644
12484TIP3    H137409   2.729   6.828   1.571  0.8298  0.0565 -1.6617
12484TIP3    H237410   2.607   6.822   1.481 -0.8279 -0.2543  0.5303
12485TIP3   OH237411   5.333   3.392   5.437  0.2350  0.6696  0.1915
12485TIP3    H137412   5.291   3.382   5.522  1.4266  0.0932  0.7338
12485TIP3    H237413   5.260   3.399   5.375 -0.6649 -0.4518  1.0754
12486TIP3   OH237414   3.202   4.934   3.877  0.0524  0.9092  0.2544
12486TIP3    H137415   3.212   4.912   3.784  0.9508  2.7458 -0.1184
12486TIP3    H237416   3.269   5.000   3.894 -1.1285  1.7771  1.8338
12487TIP3   OH237417   0.063   2.297   5.135  0.4169  0.0190  0.4327
12487TIP3    H137418   0.003   2.333   5.070  1.4894  1.3574  0.1352
12487TIP3    H237419   0.067   2.203   5.115 -0.2103  0.2091 -0.6434
12488TIP3   OH237420   1.695   7.393   6.293 -0.4613  0.3855  0.3709
12488TIP3    H137421   1.765   7.433   6.241 -0.5604 -0.2829 -0.2899
12488TIP3    H237422   1.699   7.439   6.378  1.2472 -0.1241  0.6045
12489TIP3   OH237423   1.863   6.491   3.577 -0.0660  0.4390  0.1434
12489TIP3    H137424   1.812   6.570   3.595 -0.2738  0.3693 -0.1397
12489TIP3    H237425   1.798   6.422   3.564  0.1249 -0.0070  1.4012
12490TIP3   OH237426   3.351   2.705   4.719 -0.0272 -0.2744  0.3587
12490TIP3    H137427   3.319   2.795   4.716  0.5739 -0.0810 -1.1277
12490TIP3    H237428   3.391   2.697   4.805  1.3175  1.3941 -0.0667
12491TIP3   OH237429   1.041   2.920   4.796 -0.1254 -0.2154  0.4971
12491TIP3    H137430   1.072   2.919   4.706 -1.9412 -0.3603 -0.1786
12491TIP3    H237431   1.081   2.843   4.837  0.9130 -0.0037 -0.1053
12492TIP3   OH237432   1.514   5.928   1.979  0.2858  0.4975 -0.0492
12492TIP3    H137433   1.514   5.986   1.903  0.3967  1.5809  0.7435
12492TIP3    H237434   1.543   5.843   1.946 -2.0957  0.2410 -1.7060
12493TIP3   OH237435   7.610   2.668   5.079  0.2448  0.7083 -0.5406
12493TIP3    H137436   7.669   2.629   5.144 -0.9745 -1.5465 -0.6978
12493TIP3    H237437   7.642   2.758   5.069  1.6525  0.5418  1.7256
12494TIP3   OH237438   5.608   6.193   5.792  0.5805  0.3499  0.2318
12494TIP3    H137439   5.673   6.142   5.840 -0.5245 -0.3457  1.0298
12494TIP3    H237440   5.616   6.282   5.828  0.8192  0.1829  0.5982
12495TIP3   OH237441   1.851   2.959   2.662  0.7332  0.0464  0.2276
12495TIP3    H137442   1.944   2.981   2.666  0.2221  2.3485  0.9406
12495TIP3    H237443   1.834   2.911   2.743  1.5723 -1.8436 -0.6504
12496TIP3   OH237444   5.481   7.677   1.699 -0.2376  0.2664  0.1361
12496TIP3    H137445   5.427   7.755   1.682  1.2283  1.3244  0.1180
12496TIP3    H237446   5.457   7.616   1.628 -0.8235  1.0204 -0.3362
12497TIP3   OH237447   4.831   1.499   4.593  0.4523 -0.1793 -0.2723
12497TIP3    H137448   4.857   1.504   4.500  0.2783  0.9223 -0.2813
12497TIP3    H237449   4.816   1.590   4.618  0.4089 -0.4745  0.8245
12498TIP3   OH237450   3.289   2.741   2.254 -0.5550 -0.3536  0.1156
12498TIP3    H137451   3.224   2.675   2.279 -0.5269 -0.7364 -0.7881
12498TIP3    H237452   3.321   2.712   2.168  1.3928 -0.6124  0.8756
12499TIP3   OH237453   6.696   5.703   5.945 -0.1391 -0.5277 -0.1662
12499TIP3    H137454   6.642   5.624   5.950  1.1045 -1.3791  0.7485
12499TIP3    H237455   6.749   5.691   5.866 -0.3788 -0.3170 -0.3588
12500TIP3   OH237456   3.535   0.990   1.612  0.0896  0.0777  0.3515
12500TIP3    H137457   3.469   1.048   1.650  1.7477  1.0986  1.8187
12500TIP3    H237458   3.599   1.049   1.573  1.1592 -0.7780  0.7581
12501TIP3   OH237459   2.214   5.194   5.469  0.0401 -0.3829 -0.0167
12501TIP3    H137460   2.157   5.117   5.468 -1.6804  0.7514  2.2321
12501TIP3    H237461   2.217   5.222   5.377 -1.3105 -1.6876 -0.5021
12502TIP3   OH237462   0.536   1.642   1.937  0.2376  0.1349  0.0242
12502TIP3    H137463   0.541   1.734   1.913 -2.2053  0.8582  1.8245
12502TIP3    H237464   0.594   1.633   2.012  1.7468 -0.2459 -1.1411
12503TIP3   OH237465   1.811   1.493   3.956  0.5937 -1.2783 -0.1352
12503TIP3    H137466   1.744   1.425   3.953  0.1768 -0.8649 -0.2508
12503TIP3    H237467   1.894   1.445   3.963  0.1669 -1.7770  2.4725
12504TIP3   OH237468   8.047   5.790   5.387 -0.7356 -0.1760 -0.2574
12504TIP3    H137469   7.960   5.767   5.353 -0.8288 -2.7563  1.4707
12504TIP3    H237470   8.081   5.708   5.423  2.7656  0.5511 -1.5044
12505TIP3   OH237471   4.033   2.630   4.734  0.2135  0.2675 -0.0121
12505TIP3    H137472   4.124   2.612   4.757 -0.2937  0.4579  2.4669
12505TIP3    H237473   3.983   2.561   4.779 -1.1335  2.7618  2.6250
12506TIP3   OH237474   0.654   2.614   0.730 -0.2884 -0.0406  0.8712
12506TIP3    H137475   0.602   2.685   0.692  1.2956  0.4541 -0.4939
12506TIP3    H237476   0.696   2.573   0.655  0.5364 -1.0408  1.8452
12507TIP3   OH237477   1.563   1.204   0.643 -0.3366 -0.4771  0.2449
12507TIP3    H137478   1.636   1.225   0.585  1.8197 -2.9533  1.8272
12507TIP3    H237479   1.485   1.228   0.594  1.4889  2.9477 -1.2786
12508TIP3   OH237480   6.388   5.254   3.761  0.7137  0.4719  0.3715
12508TIP3    H137481   6.336   5.237   3.683  2.6273  0.3777 -0.9468
12508TIP3    H237482   6.341   5.209   3.832 -0.7186  0.0202 -0.8121
12509TIP3   OH237483   1.435   7.810   0.655 -0.2106  0.5356 -0.1902
12509TIP3    H137484   1.489   7.889   0.651 -0.0653  0.4488  0.0386
12509TIP3    H237485   1.461   7.761   0.577 -0.4917  0.8332 -0.4744
12510TIP3   OH237486   3.829   0.017   4.984  0.1175  0.4203  0.2247
12510TIP3    H137487   3.848   0.068   5.063  0.6379 -0.6757  0.8399
12510TIP3    H237488   3.737  -0.008   4.993  0.1538  0.3643  0.4599
12511TIP3   OH237489   4.543   2.654   1.505  0.5825 -0.3110 -0.1682
12511TIP3    H137490   4.551   2.749   1.512 -0.9902 -0.1384 -0.4941
12511TIP3    H237491   4.476   2.640   1.438  0.7005 -1.6529 -0.0321
12512TIP3   OH237492   3.958   0.043   2.172  0.2164 -0.3042  0.1549
12512TIP3    H137493   3.888   0.009   2.117  0.5210 -1.0954  0.2416
12512TIP3    H237494   4.031  -0.018   2.159  0.4931 -0.1684  0.9648
12513TIP3   OH237495   2.382   5.951   5.754 -0.4235 -0.1797 -0.3195
12513TIP3    H137496   2.321   6.015   5.716 -1.6663 -0.7783  0.6167
12513TIP3    H237497   2.345   5.930   5.839  2.0291  0.7283  1.0562
12514TIP3   OH237498   7.099   5.062   5.364 -0.6413 -0.0150 -0.5182
12514TIP3    H137499   7.116   5.115   5.286 -1.6429 -0.2703 -0.9237
12514TIP3    H237500   7.057   5.122   5.425 -1.2589 -0.1904 -0.7636
12515TIP3   OH237501   2.416   4.575   5.165 -0.1379 -0.1382  0.1934
12515TIP3    H137502   2.470   4.532   5.099 -0.1023 -1.7672  1.2227
12515TIP3    H237503   2.336   4.601   5.118  0.1923 -0.6076 -0.6425
12516TIP3   OH237504   6.825   5.937   2.305  0.2147  0.1612  0.5061
12516TIP3    H137505   6.733   5.926   2.279 -0.1471 -0.0208  1.7720
12516TIP3    H237506   6.849   6.024   2.273  0.2940 -0.6199 -1.7237
12517TIP3   OH237507   2.542   6.925   5.248 -0.1078  0.4027 -0.6060
12517TIP3    H137508   2.600   6.983   5.199  2.2839 -0.5865  0.9242
12517TIP3    H237509   2.600   6.869   5.299 -2.3919 -1.4034  0.2060
12518TIP3   OH237510   2.897   4.323   4.713  0.3044  0.1227 -0.5127
12518TIP3    H137511   2.885   4.414   4.741  1.2500 -0.2738  1.3696
12518TIP3    H237512   2.838   4.313   4.639  1.2761  2.7004 -1.7757
12519TIP3   OH237513   6.864   2.755   6.428  0.2351  0.1278  0.2286
12519TIP3    H137514   6.878   2.664   6.451  0.0776 -0.3392 -1.4205
12519TIP3    H237515   6.841   2.798   6.511  1.7688 -1.0068  1.2843
12520TIP3   OH237516   4.660   5.390   5.674  0.3199  0.1447 -1.3664
12520TIP3    H137517   4.620   5.393   5.761  1.7328 -2.4006 -0.5147
12520TIP3    H237518   4.679   5.482   5.654 -0.7504  0.8884  0.6493
12521TIP3   OH237519   2.535   1.146   5.834 -0.3025  0.3206 -0.3092
12521TIP3    H137520   2.478   1.114   5.903 -1.3723  1.1419 -0.7728
12521TIP3    H237521   2.493   1.116   5.753 -1.0317  2.2819 -0.7345
12522TIP3   OH237522   6.866   2.412   5.572  0.0554  1.0649 -0.9379
12522TIP3    H137523   6.869   2.359   5.492  0.5991 -0.4324  0.0229
12522TIP3    H237524   6.957   2.416   5.602 -0.3588  0.0066  0.5694
12523TIP3   OH237525   2.755   2.322   0.597  0.1059  0.4365  0.6572
12523TIP3    H137526   2.822   2.385   0.570 -1.2279  1.1459 -1.1778
12523TIP3    H237527   2.739   2.269   0.519 -1.7270  0.5385  0.9323
12524TIP3   OH237528   2.900   7.120   4.429 -0.5880 -0.0274  0.5956
12524TIP3    H137529   2.929   7.068   4.504  1.2908 -1.0404 -0.7354
12524TIP3    H237530   2.908   7.211   4.458 -1.2050 -0.4054  2.0408
12525TIP3   OH237531   4.456   5.877   2.548 -0.1442  0.7488  0.2490
12525TIP3    H137532   4.414   5.920   2.473 -0.7778  0.6216  0.5224
12525TIP3    H237533   4.403   5.903   2.623  0.3909  0.7431  0.6358
12526TIP3   OH237534   1.770   1.994   1.133  0.1453 -0.1891  0.5660
12526TIP3    H137535   1.854   2.038   1.148  0.6876 -1.3626  1.1169
12526TIP3    H237536   1.706   2.046   1.182  0.7119  0.1850  0.9134
12527TIP3   OH237537   1.421   5.694   2.716  0.3517 -0.1707 -0.4091
12527TIP3    H137538   1.431   5.771   2.660  0.9254  0.7218  0.9024
12527TIP3    H237539   1.339   5.709   2.763  0.7228 -0.1030  0.2268
12528TIP3   OH237540   1.012   6.697   2.735 -0.3408 -0.3685  0.0457
12528TIP3    H137541   1.000   6.631   2.803 -3.7437 -1.1504 -1.1323
12528TIP3    H237542   1.023   6.779   2.782 -1.7119 -1.0076  1.5555
12529TIP3   OH237543   2.327   2.192   2.127  0.0277  0.1098 -0.2389
12529TIP3    H137544   2.352   2.258   2.192 -1.9574  0.2386  0.4446
12529TIP3    H237545   2.363   2.110   2.161 -0.2106  0.3276  0.5685
12530TIP3   OH237546   1.258   2.467   4.510  0.3060 -0.1969  0.6191
12530TIP3    H137547   1.234   2.381   4.546  1.6659 -1.3286 -0.9894
12530TIP3    H237548   1.194   2.482   4.440  0.8209 -0.5291  0.0651
12531TIP3   OH237549   0.525   3.077   4.398 -0.3329  0.4495 -0.2908
12531TIP3    H137550   0.558   3.034   4.476 -1.5475  1.3841  0.7718
12531TIP3    H237551   0.569   3.032   4.325 -1.2465 -2.2689  0.7601
12532TIP3   OH237552   2.114   6.222   6.192  0.1819  0.1175 -0.4105
12532TIP3    H137553   2.170   6.299   6.198 -0.3055  0.5054 -0.7895
12532TIP3    H237554   2.058   6.226   6.269  1.1913 -0.6939  0.3903
12533TIP3   OH237555   5.215   3.429   0.400 -0.0452  0.4617  0.0454
12533TIP3    H137556   5.121   3.414   0.395 -0.2419  0.8722  1.8288
12533TIP3    H237557   5.241   3.451   0.311 -1.4213 -0.7828 -0.6899
12534TIP3   OH237558   5.608   6.885   5.347  0.2992  0.0570  0.6435
12534TIP3    H137559   5.522   6.890   5.389  0.7112  0.1834  1.5117
12534TIP3    H237560   5.628   6.975   5.322  0.2523  0.0578  0.6094
12535TIP3   OH237561   2.048   7.126   6.714 -1.0875 -0.2940  1.0253
12535TIP3    H137562   2.106   7.115   6.789  1.8073 -1.1011 -1.1547
12535TIP3    H237563   2.069   7.214   6.681 -0.6553 -0.8169 -0.1211
12536TIP3   OH237564   7.519   2.557   3.387  0.0321 -0.8068 -0.0821
12536TIP3    H137565   7.599   2.560   3.334 -0.5812  0.5147 -1.0110
12536TIP3    H237566   7.486   2.647   3.385 -0.9539 -1.1107  1.1214
12537TIP3   OH237567   3.912   7.062   6.459 -0.0404  0.4283 -0.0293
12537TIP3    H137568   3.895   7.152   6.485 -0.8876  0.1889  0.2830
12537TIP3    H237569   4.003   7.046   6.485  0.1517  1.2109 -0.1739
12538TIP3   OH237570   1.797   0.972   0.996 -0.2747 -0.2453 -0.2173
12538TIP3    H137571   1.863   1.036   0.970 -0.6461 -0.5864 -2.1751
12538TIP3    H237572   1.713   1.016   0.982 -0.5048 -0.7641 -0.5321
12539TIP3   OH237573   3.092   5.755   3.124  0.1775 -0.2800 -0.2269
12539TIP3    H137574   3.176   5.773   3.166  1.8955 -2.9681 -2.1811
12539TIP3    H237575   3.076   5.833   3.070  1.1758  0.4613  0.4899
12540TIP3   OH237576   6.119   3.704   5.532  0.0567 -0.0157  0.3351
12540TIP3    H137577   6.086   3.615   5.523  0.2130  0.1221 -2.7771
12540TIP3    H237578   6.042   3.755   5.557 -0.6004 -0.7102 -0.2086
12541TIP3   OH237579   2.839   5.507   0.199  0.5006 -0.7463  0.3302
12541TIP3    H137580   2.865   5.598   0.210 -0.3327 -0.7402  2.9201
12541TIP3    H237581   2.758   5.512   0.147 -0.3635  0.1787  1.6807
12542TIP3   OH237582   7.217   3.546   0.374  0.1773 -0.3292 -0.9128
12542TIP3    H137583   7.248   3.568   0.286  1.6567 -0.7369 -0.5193
12542TIP3    H237584   7.149   3.480   0.359 -0.5999  0.6374 -1.8057
12543TIP3   OH237585   0.873   3.769   5.591  0.2095  0.3661  0.1959
12543TIP3    H137586   0.891   3.709   5.664 -0.0127  0.8098  0.6212
12543TIP3    H237587   0.830   3.844   5.632 -0.6210  0.2826 -0.4961
12544TIP3   OH237588   3.599   3.082   2.845  0.7214  0.1794 -0.3669
12544TIP3    H137589   3.573   2.990   2.839 -0.1994  0.3132  0.9615
12544TIP3    H237590   3.658   3.096   2.772 -0.7261 -0.9364 -1.8090
12545TIP3   OH237591   1.362   7.181   0.165 -0.0007 -0.0352  0.0061
12545TIP3    H137592   1.306   7.104   0.160  2.2259 -1.6878 -2.2386
12545TIP3    H237593   1.381   7.203   0.074 -0.9240  3.5479  0.5362
12546TIP3   OH237594   1.335   1.155   5.928  0.3555 -0.4322  0.3560
12546TIP3    H137595   1.325   1.250   5.922  0.1812 -0.5385 -3.3464
12546TIP3    H237596   1.247   1.122   5.945 -0.4933 -0.0123 -2.6498
12547TIP3   OH237597   7.898   2.636   4.018 -0.0826 -0.0251  0.1147
12547TIP3    H137598   7.823   2.695   4.007 -0.9435 -1.1740 -0.4485
12547TIP3    H237599   7.905   2.622   4.112 -2.9417 -2.7388  0.0780
12548TIP3   OH237600   0.423   1.473   5.638  0.4361 -0.1465  0.2621
12548TIP3    H137601   0.505   1.455   5.591 -0.4310 -1.2504 -0.9118
12548TIP3    H237602   0.386   1.386   5.654  0.3046  0.2514  2.3363
12549TIP3   OH237603   2.298   2.456   3.226  0.0218 -0.0771  0.5225
12549TIP3    H137604   2.351   2.397   3.173  2.5768  1.2971  1.3507
12549TIP3    H237605   2.362   2.504   3.279 -1.9597  2.7157  0.6157
12550TIP3   OH237606   5.070   6.044   5.946 -0.3916 -0.2642 -0.4470
12550TIP3    H137607   4.984   6.056   5.904 -0.5598 -0.9539 -0.3112
12550TIP3    H237608   5.063   5.961   5.992  0.6076 -0.7087 -1.0655
12551TIP3   OH237609   0.181   1.252   0.175 -0.0957 -0.2706  0.5032
12551TIP3    H137610   0.179   1.254   0.270  0.4909 -1.7759  0.5698
12551TIP3    H237611   0.271   1.276   0.152 -0.0232 -0.6503  0.3731
12552TIP3   OH237612   6.317   1.873   0.275  0.0898  0.4868 -0.4856
12552TIP3    H137613   6.260   1.805   0.240 -0.4029  0.7675 -0.2380
12552TIP3    H237614   6.263   1.919   0.339  0.8071  0.3302  0.2453
12553TIP3   OH237615   2.226   4.408   1.134  0.0209  0.5812 -0.3537
12553TIP3    H137616   2.223   4.496   1.170 -0.5456 -0.0042  1.0883
12553TIP3    H237617   2.287   4.360   1.190  1.3693  0.3670 -1.9221
12554TIP3   OH237618   0.039   3.970   1.576 -0.4298 -0.7976  0.6954
12554TIP3    H137619  -0.007   3.886   1.574  1.3952 -1.8317  0.0568
12554TIP3    H237620   0.122   3.951   1.620  0.3100  0.5054 -0.0644
12555TIP3   OH237621   0.880   6.076   5.395  0.1497 -0.2513  0.0218
12555TIP3    H137622   0.913   6.132   5.465 -0.9800 -0.3652  0.6676
12555TIP3    H237623   0.953   6.017   5.376  0.1013 -1.0002  1.9423
12556TIP3   OH237624   7.617   6.322   5.129 -0.7061  0.7255 -0.2915
12556TIP3    H137625   7.674   6.281   5.195 -0.5805  0.5733 -0.4917
12556TIP3    H237626   7.667   6.398   5.098 -0.3061  0.2043 -0.9606
12557TIP3   OH237627   5.307   5.510   1.215  0.1350  0.6170 -0.1057
12557TIP3    H137628   5.371   5.530   1.283  1.6341  0.2762 -1.3633
12557TIP3    H237629   5.305   5.588   1.159 -0.6186  0.6596 -0.0259
12558TIP3   OH237630   5.989   3.635   4.988  0.1660 -0.0693  0.1790
12558TIP3    H137631   5.983   3.673   5.075 -0.7910 -1.3004  0.6892
12558TIP3    H237632   6.008   3.542   5.004 -1.8966 -0.7246 -0.8140
12559TIP3   OH237633   6.896   5.686   0.603  0.2076 -0.2317 -0.4116
12559TIP3    H137634   6.841   5.674   0.526 -1.8347 -0.0324  0.9366
12559TIP3    H237635   6.931   5.599   0.621 -1.4210 -0.8441 -0.0709
12560TIP3   OH237636   3.206   4.862   5.714  0.1113  0.0674  0.0967
12560TIP3    H137637   3.301   4.858   5.709  0.2701  2.6364 -0.5043
12560TIP3    H237638   3.188   4.943   5.763 -1.7264  0.1922 -0.6968
12561TIP3   OH237639   1.811   2.078   5.038 -0.1816  0.2468  0.2899
12561TIP3    H137640   1.854   2.148   4.988 -0.2451 -0.5735 -0.9542
12561TIP3    H237641   1.875   2.053   5.104  0.5422  0.2747 -0.3841
12562TIP3   OH237642   4.491   0.064   0.312  1.1675  0.0931  0.2321
12562TIP3    H137643   4.531   0.094   0.393  1.4104 -0.6907  0.4107
12562TIP3    H237644   4.497   0.139   0.253  1.5261  0.4752  0.7431
12563TIP3   OH237645   3.791   0.146   1.653 -0.2494  0.1217 -0.7172
12563TIP3    H137646   3.838   0.216   1.607 -0.4736  0.1254 -0.9417
12563TIP3    H237647   3.699   0.161   1.631 -0.5543  1.1791  1.1193
12564TIP3   OH237648   2.984   3.519   1.419  0.1946 -0.0043  0.0053
12564TIP3    H137649   2.919   3.526   1.349  1.2377 -1.7763 -1.2277
12564TIP3    H237650   2.990   3.607   1.456 -0.5755  0.9360 -1.9910
12565TIP3   OH237651   0.149   6.733   2.033 -0.0611  0.0874  0.3197
12565TIP3    H137652   0.163   6.642   2.060  0.4694 -0.4371 -1.6040
12565TIP3    H237653   0.066   6.757   2.074  0.9411 -0.4044  2.8816
12566TIP3   OH237654  -0.004   6.768   4.379  0.1077 -0.1273 -0.4531
12566TIP3    H137655   0.036   6.839   4.429 -1.6430  0.8296 -0.3226
12566TIP3    H237656   0.070   6.716   4.347  1.3406  0.3592  1.4635
12567TIP3   OH237657   6.249   7.135   1.490 -0.0175 -0.5094  0.4496
12567TIP3    H137658   6.248   7.183   1.573  0.7219  2.4868 -1.1556
12567TIP3    H237659   6.163   7.151   1.453  0.0872 -0.7914  0.0876
12568TIP3   OH237660   5.412   1.993   1.268 -0.4853 -0.1716  0.1625
12568TIP3    H137661   5.397   2.067   1.210 -1.3167 -0.9687 -0.6865
12568TIP3    H237662   5.480   1.941   1.224 -0.2064 -0.1326  0.5415
12569TIP3   OH237663   8.231   1.965   2.178  0.1537 -0.0789  0.1434
12569TIP3    H137664   8.138   1.956   2.155  0.4338 -1.7647 -0.4383
12569TIP3    H237665   8.264   1.876   2.180  2.4973  0.5508 -2.7650
12570TIP3   OH237666   6.295   0.576   0.665 -0.4856 -0.1037 -0.0122
12570TIP3    H137667   6.239   0.525   0.724  0.9098 -1.2870  0.3494
12570TIP3    H237668   6.373   0.595   0.717 -0.1015  0.6349 -0.8263
12571TIP3   OH237669   4.038   3.718   5.668 -0.0170  0.0781 -0.1128
12571TIP3    H137670   4.104   3.787   5.659 -0.0693 -0.0284 -1.6062
12571TIP3    H237671   4.059   3.656   5.598 -0.1016 -1.3370  1.0564
12572TIP3   OH237672   6.500   3.479   0.981 -0.3404  0.7859 -0.2073
12572TIP3    H137673   6.514   3.490   0.887 -0.6920  0.4357 -0.3036
12572TIP3    H237674   6.582   3.443   1.014 -0.4941  0.1487 -0.5137
12573TIP3   OH237675   2.255   5.931   6.651  0.1256  0.0394  0.9421
12573TIP3    H137676   2.346   5.923   6.622 -0.0147 -0.6032  0.6502
12573TIP3    H237677   2.226   6.014   6.615  0.1914 -0.3856 -0.1421
12574TIP3   OH237678   7.435   4.302   2.586 -0.4707  0.1212 -0.6785
12574TIP3    H137679   7.358   4.355   2.605 -1.2384 -1.4605  0.9642
12574TIP3    H237680   7.403   4.212   2.585  1.2573 -0.5431 -0.4693
12575TIP3   OH237681   4.448   6.620   4.640 -0.4543  0.0121 -0.4923
12575TIP3    H137682   4.405   6.683   4.697 -0.1397 -2.0902  2.3164
12575TIP3    H237683   4.536   6.611   4.676 -0.2104 -1.3760 -1.3437
12576TIP3   OH237684   3.241   5.956   3.851  0.8395 -0.4273 -0.1821
12576TIP3    H137685   3.257   6.025   3.786  1.4395 -1.4734 -1.1670
12576TIP3    H237686   3.313   5.966   3.913  0.8930 -0.1290 -0.2859
12577TIP3   OH237687   0.271   4.588   2.715  0.6113  0.7488 -0.1934
12577TIP3    H137688   0.306   4.514   2.765  3.0324  1.1552 -1.1395
12577TIP3    H237689   0.255   4.552   2.628  0.5497  1.0602 -0.3103
12578TIP3   OH237690   4.962   4.332   5.846  0.3553 -0.1970 -0.2937
12578TIP3    H137691   4.879   4.328   5.798 -0.4287  0.1710  0.9803
12578TIP3    H237692   5.026   4.294   5.786 -0.6186  0.0585 -1.5406
12579TIP3   OH237693   3.944   2.187   1.705  0.0006 -0.0595 -0.0278
12579TIP3    H137694   4.007   2.158   1.771  0.6890  2.2045  0.3736
12579TIP3    H237695   3.998   2.226   1.636 -0.8864  0.5121 -0.4156
12580TIP3   OH237696   7.541   5.453   4.954  0.1479 -0.0536 -0.2660
12580TIP3    H137697   7.592   5.469   5.033  0.6072  0.9619 -0.7487
12580TIP3    H237698   7.483   5.529   4.946  0.6067  0.2209 -1.2670
12581TIP3   OH237699   1.268   5.160   3.675 -0.1467 -0.0250 -0.0706
12581TIP3    H137700   1.237   5.161   3.584  0.2912 -1.7969 -0.2837
12581TIP3    H237701   1.359   5.191   3.669  0.2377 -1.1591 -0.4261
12582TIP3   OH237702   0.818   4.462   6.630 -0.7074  0.7868  0.2046
12582TIP3    H137703   0.740   4.507   6.664 -0.3848  1.9448 -0.5310
12582TIP3    H237704   0.875   4.533   6.600 -0.6173 -0.1419 -1.9480
12583TIP3   OH237705   5.397   3.718   4.128  0.4831  0.0751 -0.0266
12583TIP3    H137706   5.301   3.714   4.132  0.4714 -2.3904 -1.1875
12583TIP3    H237707   5.419   3.800   4.173 -2.1860  1.1193 -0.4429
12584TIP3   OH237708   0.402   4.426   4.701 -0.5876  0.2217 -0.5523
12584TIP3    H137709   0.483   4.375   4.706 -0.0530  1.0523 -0.7054
12584TIP3    H237710   0.340   4.377   4.755 -0.1174 -0.6533 -0.7886
12585TIP3   OH237711   4.464   2.212   3.634  0.3729 -0.0787 -0.5711
12585TIP3    H137712   4.430   2.299   3.657  0.1025 -0.5998  1.0812
12585TIP3    H237713   4.434   2.199   3.544 -2.2324  0.3017  0.1552
12586TIP3   OH237714   4.023   0.613   0.583 -0.2257  0.0790  0.0312
12586TIP3    H137715   4.010   0.700   0.547 -0.4720 -0.1727 -0.4945
12586TIP3    H237716   3.936   0.574   0.585  0.0239 -0.5457 -0.7485
12587TIP3   OH237717   2.905   1.790   3.686  0.1624  0.6293  0.3452
12587TIP3    H137718   2.830   1.846   3.709  0.7822  0.6202  2.6348
12587TIP3    H237719   2.939   1.760   3.770  1.0594 -1.6374 -0.7512
12588TIP3   OH237720   2.086   0.874   1.735 -0.2325  0.0851  0.4489
12588TIP3    H137721   2.074   0.968   1.723 -0.3245 -0.1975 -2.3381
12588TIP3    H237722   2.175   0.858   1.704 -0.4255 -0.8235  0.3457
12589TIP3   OH237723   4.513   3.608   1.186 -1.0317  0.1522 -0.3577
12589TIP3    H137724   4.497   3.620   1.279 -0.3191 -3.7271  0.4393
12589TIP3    H237725   4.593   3.657   1.169  0.6790 -1.6282  1.9342
12590TIP3   OH237726   1.116   2.316   0.936  0.4121  0.3953  0.3354
12590TIP3    H137727   1.113   2.386   1.001 -0.6861 -0.7517  1.5633
12590TIP3    H237728   1.032   2.323   0.890  0.9322  0.8199 -0.5743
12591TIP3   OH237729   8.236   4.162   3.232  0.1317 -0.3762 -0.2545
12591TIP3    H137730   8.154   4.189   3.272  1.4103  2.0889  0.8724
12591TIP3    H237731   8.259   4.081   3.277 -0.4380  0.2393  1.1960
12592TIP3   OH237732   5.371   2.475   6.380 -0.3631  0.2285 -0.6658
12592TIP3    H137733   5.297   2.470   6.440 -1.1488 -1.4973 -1.7157
12592TIP3    H237734   5.385   2.569   6.366 -0.3249  0.6985  1.9404
12593TIP3   OH237735   6.273   5.616   4.825 -0.5205 -0.0840  0.3068
12593TIP3    H137736   6.279   5.696   4.773 -1.2506 -0.1572  0.1058
12593TIP3    H237737   6.193   5.573   4.795 -0.2702 -0.7661  0.5907
12594TIP3   OH237738   7.602   6.764   4.089 -0.2169  0.0204  0.1615
12594TIP3    H137739   7.524   6.722   4.124 -1.8267  3.0774  0.5745
12594TIP3    H237740   7.579   6.784   3.998  0.8370 -0.7320 -0.2830
12595TIP3   OH237741   8.088   2.840   5.170  0.3133 -0.2601 -0.1725
12595TIP3    H137742   8.119   2.907   5.231 -1.0717 -0.7059  1.0604
12595TIP3    H237743   8.136   2.858   5.089  1.6872  0.7735  0.8211
12596TIP3   OH237744   3.282   7.138   5.534 -0.5117  0.1126  0.0897
12596TIP3    H137745   3.216   7.197   5.498 -0.2681 -0.4414 -1.3062
12596TIP3    H237746   3.258   7.051   5.501  1.4631  0.0328 -1.3062
12597TIP3   OH237747   3.977   7.157   4.486  0.5294 -0.1830  0.4145
12597TIP3    H137748   3.963   7.064   4.508 -1.9129  0.1208  0.3879
12597TIP3    H237749   3.892   7.198   4.499  0.9615  1.6331 -1.7973
12598TIP3   OH237750   0.264   7.073   4.790 -0.1959  0.5953  0.0931
12598TIP3    H137751   0.349   7.029   4.785 -0.4980  0.0900 -0.8704
12598TIP3    H237752   0.201   7.001   4.794 -0.6898  0.9235 -1.3009
12599TIP3   OH237753   5.385   1.019   2.458  0.0507 -0.5770 -0.1824
12599TIP3    H137754   5.430   1.094   2.418 -0.2721 -0.6834 -0.7547
12599TIP3    H237755   5.439   0.996   2.533  0.2543  0.1156 -0.1099
12600TIP3   OH237756   3.618   5.871   6.432  0.4107  0.3155 -0.1962
12600TIP3    H137757   3.538   5.841   6.391 -0.1012 -1.5503  1.9721
12600TIP3    H237758   3.589   5.920   6.509  1.3587  1.0112 -0.2531
12601TIP3   OH237759   6.113   6.165   2.410 -0.1176  0.4160 -0.4321
12601TIP3    H137760   6.150   6.254   2.411 -1.3919  0.9767 -1.1585
12601TIP3    H237761   6.177   6.114   2.360  1.1780  0.6449  0.9202
12602TIP3   OH237762   5.664   7.703   6.134  0.4614 -0.2089 -0.1238
12602TIP3    H137763   5.598   7.765   6.104  1.9947  1.1712 -0.8368
12602TIP3    H237764   5.677   7.643   6.061  0.0476 -0.4438 -0.0049
12603TIP3   OH237765   0.695   1.908   4.569  0.7975 -0.1844  0.6258
12603TIP3    H137766   0.755   1.975   4.535 -2.0300  1.8418 -0.8024
12603TIP3    H237767   0.624   1.958   4.610 -1.4550 -2.2735 -0.4872
12604TIP3   OH237768   5.078   6.997   3.501  0.2511 -0.2292  0.2434
12604TIP3    H137769   5.084   6.973   3.594 -3.0029  0.1700  0.6743
12604TIP3    H237770   5.074   6.913   3.455  3.6033 -0.4777  0.1673
12605TIP3   OH237771   7.231   1.319   1.201  0.8292 -0.6972 -0.5084
12605TIP3    H137772   7.213   1.258   1.129  0.8413 -0.3903 -0.7713
12605TIP3    H237773   7.309   1.282   1.244  0.6377 -1.0516 -0.4571
12606TIP3   OH237774   4.371   0.182   2.288 -0.3074  0.3394 -0.0318
12606TIP3    H137775   4.331   0.195   2.203 -0.5284  0.0490  0.0284
12606TIP3    H237776   4.461   0.154   2.269 -0.8275 -1.3049 -0.1913
12607TIP3   OH237777   2.864   0.922   1.145  0.3292  1.1446  0.0578
12607TIP3    H137778   2.915   0.859   1.095  0.6392  0.8461  0.7382
12607TIP3    H237779   2.777   0.920   1.104  0.1411 -0.2096  0.4613
12608TIP3   OH237780   8.044   3.802   2.636 -0.0666 -0.0905  0.0065
12608TIP3    H137781   8.100   3.847   2.699  0.7096 -0.2605 -0.5552
12608TIP3    H237782   8.102   3.778   2.564 -0.4034 -2.2658  0.4085
12609TIP3   OH237783   3.427   4.921   2.508  0.8281  0.5027  0.0958
12609TIP3    H137784   3.388   4.887   2.428  1.6850  0.3534 -0.2730
12609TIP3    H237785   3.410   4.854   2.574  1.6053 -0.1811 -0.3797
12610TIP3   OH237786   3.140   7.507   0.312  0.5766 -0.1129 -0.1110
12610TIP3    H137787   3.225   7.463   0.312  0.5466 -0.1698  0.1186
12610TIP3    H237788   3.138   7.553   0.228  1.5529  1.2629  0.5741
12611TIP3   OH237789   1.406   5.415   4.238  0.2593 -0.5576 -0.2350
12611TIP3    H137790   1.470   5.345   4.255 -1.5749 -2.3238 -0.2518
12611TIP3    H237791   1.367   5.392   4.154 -0.9711  0.0234  0.1574
12612TIP3   OH237792   5.710   1.680   3.462  0.3907  0.0281  0.5769
12612TIP3    H137793   5.735   1.590   3.484  0.1691 -0.0996  0.3151
12612TIP3    H237794   5.616   1.675   3.444  0.1362  0.5256  1.6736
12613TIP3   OH237795   6.136   4.133   0.442  0.0215 -0.2294  0.3308
12613TIP3    H137796   6.050   4.095   0.461  0.0114  0.1892  1.1477
12613TIP3    H237797   6.177   4.070   0.384 -0.7183 -0.5895  0.1799
12614TIP3   OH237798   7.514   7.193   3.430 -0.7411  0.0905  0.4199
12614TIP3    H137799   7.521   7.288   3.416 -0.4921  0.0049 -0.0580
12614TIP3    H237800   7.586   7.173   3.489 -0.6170  0.1549  0.2920
12615TIP3   OH237801   6.865   1.738   3.756 -1.0686 -0.0111 -0.2486
12615TIP3    H137802   6.959   1.753   3.760 -1.1394  0.2407  2.5234
12615TIP3    H237803   6.854   1.668   3.692  1.0507 -0.3791 -0.2696
12616TIP3   OH237804   8.294   6.205   6.461 -0.2900  0.4329 -0.5482
12616TIP3    H137805   8.206   6.210   6.423 -0.9177  3.9698  0.9033
12616TIP3    H237806   8.351   6.243   6.395 -0.0351 -0.6788 -0.9826
12617TIP3   OH237807   2.162   4.081   1.880  0.0628  0.0337  0.4781
12617TIP3    H137808   2.094   4.137   1.841 -0.1025 -0.7911 -0.4545
12617TIP3    H237809   2.230   4.076   1.812  0.5525 -0.0568  0.9668
12618TIP3   OH237810   5.687   3.154   3.190  0.0463  0.4831 -0.3249
12618TIP3    H137811   5.697   3.092   3.117 -3.6554 -0.6933 -0.0062
12618TIP3    H237812   5.740   3.117   3.260  0.7968 -0.3113 -1.2803
12619TIP3   OH237813   0.606   5.709   6.370  0.2729 -0.3206  0.0157
12619TIP3    H137814   0.676   5.644   6.371 -0.6117 -1.3259  1.3553
12619TIP3    H237815   0.536   5.668   6.422 -1.1689  0.7882 -1.0039
12620TIP3   OH237816   1.010   0.554   4.243 -0.1463  0.4701 -0.3497
12620TIP3    H137817   1.058   0.630   4.274  0.7070 -0.6356  1.1758
12620TIP3    H237818   0.941   0.590   4.188  1.8175  2.1898 -1.8560
12621TIP3   OH237819   8.131   7.051   2.530 -0.1050 -0.4571 -0.2268
12621TIP3    H137820   8.043   7.027   2.503 -0.1808 -0.1752 -0.2306
12621TIP3    H237821   8.130   7.146   2.536  0.4395 -0.3967 -1.0404
12622TIP3   OH237822   3.130   3.854   0.646  0.2466 -0.1104  0.0297
12622TIP3    H137823   3.194   3.910   0.602 -0.8413  1.4569  0.3366
12622TIP3    H237824   3.104   3.904   0.724 -0.3798 -1.3025  0.6227
12623TIP3   OH237825   6.467   1.429   0.660 -0.1510  0.0550  0.5955
12623TIP3    H137826   6.437   1.510   0.700 -1.8330  0.9612 -2.2011
12623TIP3    H237827   6.420   1.360   0.706  2.0470  0.3931  3.7037
12624TIP3   OH237828   3.264   0.363   6.225 -0.0224 -0.5852 -0.0769
12624TIP3    H137829   3.275   0.457   6.207  0.9680 -0.8279 -0.8231
12624TIP3    H237830   3.244   0.325   6.140 -0.4588 -1.0484  0.2328
12625TIP3   OH237831   5.514   7.651   2.645  0.4756 -0.5366 -0.5087
12625TIP3    H137832   5.457   7.612   2.578 -0.0331  0.4458 -0.6620
12625TIP3    H237833   5.476   7.622   2.728 -1.8480  2.0864 -0.4964
12626TIP3   OH237834   7.582   5.460   0.984 -0.4824  0.7703  0.3099
12626TIP3    H137835   7.575   5.365   0.986 -2.0373  0.8617  1.2763
12626TIP3    H237836   7.519   5.488   0.918  2.1478  1.0587 -2.2739
12627TIP3   OH237837   7.117   3.773   0.510  0.2959  0.5870  0.4546
12627TIP3    H137838   7.113   3.684   0.476 -1.2422  0.3747  1.1008
12627TIP3    H237839   7.097   3.829   0.435 -0.7084  0.2581  0.4670
12628TIP3   OH237840   0.237   7.169  -0.002  0.7816  0.0160  0.0937
12628TIP3    H137841   0.303   7.152   0.065  0.4894  0.5253  0.5178
12628TIP3    H237842   0.181   7.237   0.035  0.4445  0.1066 -0.5514
12629TIP3   OH237843   7.245   3.986   6.341 -0.0774 -0.3063  0.4796
12629TIP3    H137844   7.224   3.892   6.335 -0.2452 -0.4500  2.6821
12629TIP3    H237845   7.234   4.018   6.252 -0.6080 -2.2628 -0.2126
12630TIP3   OH237846   3.831   7.593   1.325  0.2944  0.1045 -0.3594
12630TIP3    H137847   3.864   7.673   1.366 -1.0729 -0.0178  1.0390
12630TIP3    H237848   3.901   7.567   1.264  1.3055  1.6485  0.0858
12631TIP3   OH237849   0.797   2.929   6.190  1.0623  0.0783  0.2397
12631TIP3    H137850   0.834   2.874   6.121  2.4389  1.7243 -0.4077
12631TIP3    H237851   0.868   2.940   6.252  1.5514  2.7099 -0.6574
12632TIP3   OH237852   0.869   0.344   2.512  0.0240 -0.4224 -0.1246
12632TIP3    H137853   0.951   0.386   2.536 -0.3288  0.4710 -0.4460
12632TIP3    H237854   0.805   0.415   2.512 -0.4603 -0.8373 -1.2958
12633TIP3   OH237855   4.597   6.292   4.993 -0.7409  0.2882 -0.0477
12633TIP3    H137856   4.573   6.240   4.916 -2.3134  0.7552  0.1030
12633TIP3    H237857   4.664   6.239   5.037 -1.6117 -1.1659 -0.4105
12634TIP3   OH237858   7.001   7.054   5.584 -0.4909 -0.0782 -0.6255
12634TIP3    H137859   6.940   7.110   5.537 -0.4198  1.3476  0.8981
12634TIP3    H237860   6.948   7.013   5.653  0.1797  1.1442  0.6875
12635TIP3   OH237861   3.751   1.563   5.284 -0.6979 -0.1876  0.3265
12635TIP3    H137862   3.733   1.635   5.223 -0.5783 -0.9055 -0.5680
12635TIP3    H237863   3.672   1.509   5.281  0.1189 -1.3757 -0.8350
12636TIP3   OH237864   4.791   0.170   6.323  0.4631 -0.3166 -0.2994
12636TIP3    H137865   4.876   0.208   6.303 -0.1577  0.9151 -0.6630
12636TIP3    H237866   4.781   0.183   6.417  0.5412 -0.1811 -0.3095
12637TIP3   OH237867   4.580   2.584   2.690 -0.3336  0.6004 -0.7764
12637TIP3    H137868   4.530   2.632   2.624 -0.5358  0.3619 -0.8011
12637TIP3    H237869   4.520   2.576   2.764  0.2125  1.6830 -0.1934
12638TIP3   OH237870   7.166   3.271   0.944 -0.0904 -0.5889  0.6075
12638TIP3    H137871   7.168   3.234   1.032 -2.0930 -2.4709 -0.0617
12638TIP3    H237872   7.119   3.354   0.954 -0.1761 -0.7183  1.3161
12639TIP3   OH237873   1.455   6.687   0.578 -0.4246 -0.0309 -0.6387
12639TIP3    H137874   1.461   6.758   0.515  0.3585  2.0785  1.6497
12639TIP3    H237875   1.545   6.657   0.589 -0.1791  1.1958  1.0785
12640TIP3   OH237876   7.088   2.806   1.783 -0.7369  0.0284 -0.8320
12640TIP3    H137877   7.053   2.761   1.705  1.2770 -1.6261 -0.8763
12640TIP3    H237878   7.079   2.899   1.764 -3.9088 -0.2763 -1.3149
12641TIP3   OH237879   3.456   1.737   3.519 -0.2483 -0.0244 -0.4146
12641TIP3    H137880   3.387   1.764   3.458 -0.6995 -1.2880 -0.4968
12641TIP3    H237881   3.413   1.736   3.605  0.1027  0.7165 -0.2207
12642TIP3   OH237882   3.671   6.309   4.721  0.3553 -0.3871 -0.3805
12642TIP3    H137883   3.614   6.339   4.791  1.0855  0.0850  0.0312
12642TIP3    H237884   3.754   6.354   4.737  0.4855 -0.1283 -1.6536
12643TIP3   OH237885   4.956   7.047   0.049 -0.0971 -0.2578 -0.3599
12643TIP3    H137886   4.933   6.991   0.123 -0.8691  1.3772  0.6733
12643TIP3    H237887   5.052   7.047   0.048 -0.0720  0.1076  0.9624
12644TIP3   OH237888   2.105   0.436   5.637 -0.3335  0.1554 -0.2637
12644TIP3    H137889   2.090   0.391   5.554 -0.1630  0.9918 -0.7550
12644TIP3    H237890   2.177   0.388   5.678 -1.0555 -0.8601 -0.1391
12645TIP3   OH237891   6.786   1.621   4.672 -0.5866 -0.4366 -0.7291
12645TIP3    H137892   6.751   1.673   4.599 -1.6900 -0.3356 -0.1375
12645TIP3    H237893   6.709   1.593   4.721  0.1915  1.2726  1.6145
12646TIP3   OH237894   1.113   1.550   0.806  0.2460 -0.7541  0.1254
12646TIP3    H137895   1.136   1.601   0.884  1.5764 -1.2734  0.0972
12646TIP3    H237896   1.020   1.568   0.792  0.6306  1.6275  0.1567
12647TIP3   OH237897   1.178   2.631   0.027 -0.1143  0.3399 -0.0904
12647TIP3    H137898   1.175   2.536   0.033 -1.2657  0.3991  0.3918
12647TIP3    H237899   1.098   2.655  -0.019  0.4538  1.0436 -0.7368
12648TIP3   OH237900   1.635   1.337   3.677 -0.2566 -0.3322 -0.2059
12648TIP3    H137901   1.636   1.427   3.646 -0.4333 -0.3525 -0.2717
12648TIP3    H237902   1.580   1.338   3.755  1.0879 -0.0707  0.7656
12649TIP3   OH237903   0.967   1.317   3.152 -0.4385 -0.2119  0.2622
12649TIP3    H137904   1.037   1.272   3.105  1.2377  0.3514  2.0769
12649TIP3    H237905   0.953   1.265   3.231 -0.4454  0.9016  1.0182
12650TIP3   OH237906   7.200   0.679   1.055 -0.3876 -0.0814 -0.6634
12650TIP3    H137907   7.243   0.639   1.131  2.1076 -0.1783 -2.0434
12650TIP3    H237908   7.194   0.608   0.991  0.2779  0.7048 -1.6291
12651TIP3   OH237909   3.221   0.269   0.582 -0.0668 -0.4862 -0.3231
12651TIP3    H137910   3.251   0.347   0.535 -0.5629  0.5311  0.9825
12651TIP3    H237911   3.297   0.242   0.633 -0.6066  0.7083  1.1939
12652TIP3   OH237912   8.180   7.298   4.047  0.5867  0.0327 -0.3473
12652TIP3    H137913   8.128   7.333   3.975 -1.4602  1.5405  1.7014
12652TIP3    H237914   8.221   7.219   4.012 -0.0046  0.9052 -3.2189
12653TIP3   OH237915   0.213   3.293   0.614  0.2763  0.1344  0.0277
12653TIP3    H137916   0.165   3.314   0.534 -2.1268 -1.4785  0.9519
12653TIP3    H237917   0.249   3.377   0.642 -0.0256  0.9999 -1.9435
12654TIP3   OH237918   6.622   1.482   5.802  0.2076 -0.3808 -0.5727
12654TIP3    H137919   6.700   1.537   5.800  0.5737 -0.8719  0.0481
12654TIP3    H237920   6.580   1.503   5.886  1.5838 -2.7099  0.7913
12655TIP3   OH237921   6.743   2.082   5.899  0.1603  0.2145  0.6371
12655TIP3    H137922   6.741   1.989   5.922  0.4227  0.3045  1.0383
12655TIP3    H237923   6.653   2.112   5.913 -0.2071 -0.2409 -0.6431
12656TIP3   OH237924   0.871   0.796   5.002 -0.0203 -0.0041 -0.1456
12656TIP3    H137925   0.779   0.806   5.027 -0.4228  0.0736 -1.6124
12656TIP3    H237926   0.888   0.702   5.010 -0.6039 -0.1982 -1.1318
12657TIP3   OH237927   1.615   2.855   0.637  0.5351 -0.0739  0.6284
12657TIP3    H137928   1.528   2.895   0.638  0.2898 -0.4409 -1.6158
12657TIP3    H237929   1.675   2.930   0.640  0.0829  0.3983 -0.9278
12658TIP3   OH237930   3.267   5.264   0.872  0.0218  0.5481 -0.1982
12658TIP3    H137931   3.312   5.349   0.879  0.6584  0.4577 -2.5193
12658TIP3    H237932   3.196   5.279   0.809 -0.1103 -0.5497 -0.3317
12659TIP3   OH237933   7.973   3.936   4.323  0.1169 -0.7304  0.2060
12659TIP3    H137934   7.898   3.990   4.298  0.6004  0.8326  1.8947
12659TIP3    H237935   8.042   3.961   4.261  0.2930  0.5542  0.8834
12660TIP3   OH237936   5.342   6.796   5.481 -0.4694 -0.3012  0.5923
12660TIP3    H137937   5.326   6.864   5.548 -1.2117  1.3055 -1.1210
12660TIP3    H237938   5.262   6.744   5.481 -1.0309  0.5311  0.0656
12661TIP3   OH237939   6.080   2.302   4.674 -0.1261 -0.0336 -0.4878
12661TIP3    H137940   5.998   2.289   4.723  1.0897 -2.5087  1.1136
12661TIP3    H237941   6.147   2.261   4.729  1.9457  0.4031 -2.5419
12662TIP3   OH237942   4.793   3.173   6.391  0.2301 -0.2828 -0.1329
12662TIP3    H137943   4.831   3.192   6.306  2.2152 -1.7077  0.3594
12662TIP3    H237944   4.771   3.080   6.387 -1.4243  0.0481  0.3124
12663TIP3   OH237945   5.187   0.961   3.969  0.1045  0.1556 -0.2720
12663TIP3    H137946   5.104   0.976   3.923 -0.6293 -1.0537  0.6072
12663TIP3    H237947   5.164   0.906   4.044  1.5054  0.9164  0.7561
12664TIP3   OH237948   3.998   0.841   1.741 -0.3324  0.2694  0.6176
12664TIP3    H137949   4.056   0.910   1.773 -0.7292  0.5990  0.6344
12664TIP3    H237950   3.923   0.845   1.800  0.5420 -1.5593  1.9348
12665TIP3   OH237951   2.176   6.286   4.099 -0.2464  0.0188  0.2208
12665TIP3    H137952   2.227   6.205   4.095 -2.2178 -1.2420 -2.0971
12665TIP3    H237953   2.230   6.350   4.052  1.2861  0.1053  1.9971
12666TIP3   OH237954   8.004   4.022   1.198  0.3426 -0.4617 -0.3426
12666TIP3    H137955   7.926   4.071   1.227  0.0273 -0.9832 -0.2979
12666TIP3    H237956   8.076   4.062   1.246 -0.0846 -0.8947  0.7011
12667TIP3   OH237957   1.031   2.296   0.114  0.3568  0.2855  0.8365
12667TIP3    H137958   0.959   2.239   0.140  0.0094  0.1840 -0.2633
12667TIP3    H237959   1.107   2.263   0.162  0.4040 -1.7950 -0.5269
12668TIP3   OH237960   6.438   4.570   5.920 -0.8939 -0.1474  0.0875
12668TIP3    H137961   6.518   4.582   5.971 -1.6962  0.6213  1.2136
12668TIP3    H237962   6.452   4.623   5.841 -1.0363  1.6303  1.1907
12669TIP3   OH237963   1.707   0.613   3.035  0.1426  0.0500  0.3405
12669TIP3    H137964   1.740   0.664   2.961  1.0897  0.5942  1.1151
12669TIP3    H237965   1.749   0.527   3.025  0.3596  0.1592  0.3151
12670TIP3   OH237966   4.033   4.102   3.225  0.5549  0.5914  0.4809
12670TIP3    H137967   4.080   4.158   3.163  0.4909 -0.2651 -0.3637
12670TIP3    H237968   4.094   4.032   3.246 -0.1449 -0.2751 -0.2638
12671TIP3   OH237969   4.001   3.187   2.152  0.3993 -0.3628 -0.2060
12671TIP3    H137970   4.003   3.210   2.059  1.8100  3.6784  0.6013
12671TIP3    H237971   4.087   3.150   2.170  0.2000 -0.9477 -0.4186
12672TIP3   OH237972   2.324   2.710   1.929 -0.5941 -0.0719 -0.8298
12672TIP3    H137973   2.330   2.676   2.018  1.5916 -0.0655 -0.9269
12672TIP3    H237974   2.283   2.796   1.939  0.4685  0.3299  0.3039
12673TIP3   OH237975   3.203   1.828   2.220  0.4849 -0.0379  0.1386
12673TIP3    H137976   3.281   1.852   2.271 -0.1500  1.8231  0.2902
12673TIP3    H237977   3.166   1.911   2.192 -0.6736 -0.9483 -1.1474
12674TIP3   OH237978   1.002   7.629   6.277 -0.1198  0.2233 -0.3848
12674TIP3    H137979   0.961   7.631   6.191 -0.2132  0.6301 -0.3342
12674TIP3    H237980   1.096   7.623   6.259 -0.0971  0.9484 -0.5266
12675TIP3   OH237981   6.863   4.035   2.354 -0.6185 -0.1275 -0.0059
12675TIP3    H137982   6.808   4.113   2.351 -0.2505  0.1741  0.7822
12675TIP3    H237983   6.908   4.035   2.269 -1.4637 -0.1181 -0.4677
12676TIP3   OH237984   5.874   4.042   0.434  0.3035 -0.0574  0.6778
12676TIP3    H137985   5.816   4.043   0.510 -0.5110  0.5317  0.0663
12676TIP3    H237986   5.870   3.951   0.403  0.7456 -0.3326  1.4059
12677TIP3   OH237987   7.230   0.933   1.771 -0.4320 -0.1724  0.2697
12677TIP3    H137988   7.233   1.004   1.707 -1.3311  0.5920  1.0372
12677TIP3    H237989   7.227   0.977   1.856  1.1483 -1.1700  0.8791
12678TIP3   OH237990   4.091   4.956   6.042 -0.0622 -0.8195 -0.3337
12678TIP3    H137991   4.021   4.921   6.097  0.5541 -1.9078 -0.2046
12678TIP3    H237992   4.150   4.882   6.029  0.8124 -0.0529 -0.8454
12679TIP3   OH237993   5.696   5.888   1.182 -0.2216  0.2742 -0.0989
12679TIP3    H137994   5.693   5.853   1.271 -1.7606 -0.1897 -0.3070
12679TIP3    H237995   5.751   5.826   1.134  1.3645  0.9995  0.6836
12680TIP3   OH237996   2.895   6.627   5.696  0.0400 -0.3082 -0.9462
12680TIP3    H137997   2.857   6.672   5.772 -0.8753  0.5017 -1.8514
12680TIP3    H237998   2.830   6.560   5.673  0.6626 -1.0478 -0.5674
12681TIP3   OH237999   6.103   2.178   2.092  0.0947  0.7947  0.1036
12681TIP3    H138000   6.019   2.175   2.139  1.5680  0.9206  2.9527
12681TIP3    H238001   6.099   2.259   2.042 -0.7759  1.7809  1.6895
12682TIP3   OH238002   3.212   1.926   6.322 -0.5831  0.0120 -0.2726
12682TIP3    H138003   3.261   1.995   6.367  1.1169  0.5243 -2.6768
12682TIP3    H238004   3.216   1.851   6.380  1.4933  0.6217  0.4360
12683TIP3   OH238005   8.021   4.296   0.266  0.2230 -0.4238  0.1320
12683TIP3    H138006   8.100   4.344   0.237  0.7244 -0.8506  0.7687
12683TIP3    H238007   7.980   4.268   0.184  0.7991 -0.3022 -0.2129
12684TIP3   OH238008   1.976   3.189   6.651  0.3556 -0.0955  0.2662
12684TIP3    H138009   1.907   3.158   6.711 -0.8795  1.3773 -0.3227
12684TIP3    H238010   2.057   3.181   6.701 -0.4359 -0.4047  1.5481
12685TIP3   OH238011   4.712   0.279   1.926  0.6082  0.2485 -0.2560
12685TIP3    H138012   4.795   0.231   1.926  1.6509  1.8758 -2.3304
12685TIP3    H238013   4.707   0.318   2.013  0.8168 -1.7231  0.6943
12686TIP3   OH238014   2.117   1.714   4.506  0.3985 -0.0170 -0.0168
12686TIP3    H138015   2.136   1.731   4.414 -0.4546  0.0193 -0.1910
12686TIP3    H238016   2.046   1.650   4.505  1.0584 -0.7983  0.6243
12687TIP3   OH238017   4.307   6.031   3.798 -0.4481  0.7628 -0.1573
12687TIP3    H138018   4.312   6.074   3.712 -0.6848  1.8101  0.3287
12687TIP3    H238019   4.371   6.079   3.851 -0.1405 -0.0300  0.1920
12688TIP3   OH238020   6.088   6.542   5.902  0.2669 -0.3162  0.5846
12688TIP3    H138021   6.090   6.469   5.840  2.3830 -0.1134  0.3430
12688TIP3    H238022   6.082   6.620   5.847  0.4708 -0.2098  0.7124
12689TIP3   OH238023   4.488   5.865   6.025 -0.4252  0.2262 -0.2420
12689TIP3    H138024   4.446   5.781   6.006 -0.6492 -0.0914  1.4852
12689TIP3    H238025   4.582   5.844   6.030 -0.6039 -0.2572  1.6597
12690TIP3   OH238026   5.400   4.989   1.465  0.1684  0.2131 -0.0817
12690TIP3    H138027   5.349   4.908   1.476  2.5368 -1.0598  3.0130
12690TIP3    H238028   5.356   5.053   1.522 -0.6107  0.5817 -1.0685
12691TIP3   OH238029   3.973   4.108   1.856 -0.5865 -0.1240 -0.7272
12691TIP3    H138030   3.988   4.052   1.933  0.4436 -0.5418 -1.2096
12691TIP3    H238031   4.011   4.192   1.879  0.1447 -0.3857 -0.9314
12692TIP3   OH238032   7.106   1.088   6.112 -0.3701  0.1342  0.3342
12692TIP3    H138033   7.067   1.001   6.107 -0.0325  0.0269 -0.5339
12692TIP3    H238034   7.044   1.145   6.066 -0.1528  0.1940  0.1134
12693TIP3   OH238035   7.968   3.060   4.863 -0.0478  0.4874  0.1192
12693TIP3    H138036   8.019   3.140   4.873  1.9480 -0.6351 -0.6927
12693TIP3    H238037   8.030   2.995   4.830 -2.2484 -0.6174 -2.2411
12694TIP3   OH238038   5.044   5.434   4.157  0.1655 -0.0647 -0.5152
12694TIP3    H138039   5.072   5.525   4.172 -1.7518  0.4327  0.3336
12694TIP3    H238040   4.948   5.439   4.154 -0.0057 -2.1817  0.2786
12695TIP3   OH238041   8.077   3.888   2.918 -0.1977  0.1183  0.0273
12695TIP3    H138042   8.166   3.920   2.909  1.0231 -2.9509 -0.0932
12695TIP3    H238043   8.082   3.825   2.990 -2.2088 -0.3014 -0.1451
12696TIP3   OH238044   0.393   1.326   3.001 -0.4460 -0.0122  0.6350
12696TIP3    H138045   0.417   1.419   3.002 -0.7262  0.0600  0.5921
12696TIP3    H238046   0.316   1.320   3.056  0.3586 -0.4440  1.7429
12697TIP3   OH238047   2.154   0.403   6.682  0.0443  1.1403 -0.1651
12697TIP3    H138048   2.243   0.428   6.656  0.3468  0.9435  0.6327
12697TIP3    H238049   2.132   0.462   6.754 -0.0352  0.4739  0.3695
12698TIP3   OH238050   6.887   1.362   1.794  0.1263  0.2211  0.3142
12698TIP3    H138051   6.794   1.358   1.818 -0.3017  0.6966 -1.1139
12698TIP3    H238052   6.906   1.274   1.761  0.0813  0.2118  0.3119
12699TIP3   OH238053   2.283   5.456   2.520  0.0241 -0.2281 -0.4317
12699TIP3    H138054   2.193   5.432   2.541 -0.6731  1.4617 -1.2971
12699TIP3    H238055   2.290   5.548   2.547  0.6205  0.4924 -2.8119
12700TIP3   OH238056   1.629   0.976   6.498 -0.3158 -0.3396 -0.2279
12700TIP3    H138057   1.689   1.047   6.524 -0.1549 -0.5614  0.0056
12700TIP3    H238058   1.648   0.905   6.559 -3.9367  1.0649  2.9028
12701TIP3   OH238059   0.700   5.559   4.181  0.4520 -0.1310  0.5720
12701TIP3    H138060   0.721   5.468   4.160  1.5381  0.6140 -1.9144
12701TIP3    H238061   0.610   5.556   4.212 -0.3796 -1.8412 -1.7081
12702TIP3   OH238062   3.653   0.728   3.232  0.2832 -0.2205  0.0932
12702TIP3    H138063   3.602   0.710   3.153  0.0953  0.7651 -0.0191
12702TIP3    H238064   3.643   0.822   3.246  2.6266  0.1514 -0.3247
12703TIP3   OH238065   1.043   5.361   4.217 -0.3773  0.1158 -0.2820
12703TIP3    H138066   1.017   5.376   4.127 -0.3040 -2.5218 -0.8207
12703TIP3    H238067   0.965   5.327   4.259  0.1489 -0.6474  0.0972
12704TIP3   OH238068   5.387   5.560   4.026  0.1460  0.0651  0.3698
12704TIP3    H138069   5.386   5.510   3.944  1.3092  0.1267  0.2951
12704TIP3    H238070   5.416   5.648   4.000 -0.0326  0.2468  0.7724
12705TIP3   OH238071   1.721   7.128   4.871  0.6443 -0.0099 -0.2088
12705TIP3    H138072   1.773   7.196   4.913  0.3373  0.8858 -1.2309
12705TIP3    H238073   1.630   7.156   4.882  0.2502 -1.8195  2.0211
12706TIP3   OH238074   2.559   3.244   4.936  0.3506 -0.1561  0.0514
12706TIP3    H138075   2.604   3.313   4.987  1.8205  1.2332 -2.8669
12706TIP3    H238076   2.586   3.260   4.846 -1.7536 -2.7531 -1.1674
12707TIP3   OH238077   0.173   3.456   3.810  0.1496  0.2040  0.4038
12707TIP3    H138078   0.138   3.463   3.721  1.5556  0.9316 -0.1223
12707TIP3    H238079   0.113   3.395   3.854 -0.1587 -0.7615 -1.2420
12708TIP3   OH238080   1.096   0.483   0.094  0.0251  0.4613  0.1206
12708TIP3    H138081   1.062   0.478   0.183  0.4980 -0.7837  0.2583
12708TIP3    H238082   1.024   0.452   0.039  0.5140 -1.0941  0.3106
12709TIP3   OH238083   3.128   6.069   3.444 -0.3285 -0.2837  0.4496
12709TIP3    H138084   3.049   6.112   3.475 -0.1467  2.4166 -2.3243
12709TIP3    H238085   3.117   6.064   3.349  2.1820 -1.2301  0.1313
12710TIP3   OH238086   4.579   2.611   1.184  0.4081 -0.3319  0.2078
12710TIP3    H138087   4.546   2.693   1.222  0.4087 -0.6504  0.9076
12710TIP3    H238088   4.546   2.611   1.094 -1.4388 -0.6015  0.8521
12711TIP3   OH238089   5.131   3.850   2.399  0.2403  0.1800  0.0611
12711TIP3    H138090   5.081   3.852   2.481 -0.1870  0.3423 -0.2030
12711TIP3    H238091   5.077   3.898   2.337  0.1199 -0.7360 -0.5687
12712TIP3   OH238092   5.125   1.909   4.679 -0.2954 -0.3096 -0.1136
12712TIP3    H138093   5.080   1.992   4.694  0.5438  0.2764 -0.7465
12712TIP3    H238094   5.115   1.893   4.586 -0.7907 -1.1417  0.0689
12713TIP3   OH238095   1.401   4.346   6.177 -0.1061  0.3865 -0.4748
12713TIP3    H138096   1.384   4.392   6.094 -1.3482  2.8759  1.0379
12713TIP3    H238097   1.335   4.277   6.180 -1.9814  2.0751 -0.3549
12714TIP3   OH238098   4.551   1.658   1.451 -0.2713  0.2642 -0.2494
12714TIP3    H138099   4.566   1.743   1.410  0.4184  1.1797  1.7963
12714TIP3    H238100   4.498   1.677   1.528 -1.2480 -1.3556 -0.4665
12715TIP3   OH238101   7.630   3.720   0.692 -0.0578 -0.2856  0.1513
12715TIP3    H138102   7.612   3.811   0.718  1.2423  0.1895 -0.5401
12715TIP3    H238103   7.586   3.711   0.608 -1.8893 -0.9627  1.1059
12716TIP3   OH238104   0.268   6.967   2.073 -0.1524 -0.1685 -0.3765
12716TIP3    H138105   0.252   6.873   2.059 -0.8827 -0.1789  0.4447
12716TIP3    H238106   0.185   7.000   2.106 -1.2314  1.5935 -4.2524
12717TIP3   OH238107   2.652   7.641   6.160 -0.2389 -0.1434  0.5468
12717TIP3    H138108   2.705   7.716   6.135  1.7832 -1.0043  2.0380
12717TIP3    H238109   2.595   7.673   6.229 -0.7524  0.4513 -0.1339
12718TIP3   OH238110   1.131   6.147   3.037 -0.2986  0.3928 -0.3896
12718TIP3    H138111   1.056   6.119   2.984 -1.4968  3.5528 -0.6108
12718TIP3    H238112   1.199   6.169   2.973 -0.2708  0.3632 -0.3703
12719TIP3   OH238113   5.080   3.690   4.937  0.3108 -0.0474  0.0004
12719TIP3    H138114   5.054   3.603   4.966 -0.1691 -0.0753 -0.5003
12719TIP3    H238115   5.134   3.676   4.860  0.6334  0.0773  0.2020
12720TIP3   OH238116   4.664   7.512   2.398  0.3669  0.4608  0.0115
12720TIP3    H138117   4.593   7.507   2.462 -0.0562  0.6128 -0.4329
12720TIP3    H238118   4.678   7.606   2.386  0.1014  0.4477 -0.4729
12721TIP3   OH238119   1.074   6.566   0.888 -0.1537  0.1220 -0.0745
12721TIP3    H138120   1.023   6.557   0.968 -0.5937  1.9833 -0.0983
12721TIP3    H238121   1.165   6.566   0.917 -0.3154  0.8830  0.4489
12722TIP3   OH238122   4.991   5.737   2.186  0.3623  0.0275 -0.0351
12722TIP3    H138123   4.947   5.694   2.113 -1.6008  0.9246  0.5491
12722TIP3    H238124   4.923   5.744   2.254  1.2954  1.7815  0.7882
12723TIP3   OH238125   7.444   7.045   4.389 -0.6029 -0.6966  0.1779
12723TIP3    H138126   7.464   6.957   4.421  0.6645 -0.6682 -0.4812
12723TIP3    H238127   7.486   7.050   4.303  0.7904  1.1025  0.9044
12724TIP3   OH238128   7.500   4.049   6.113 -0.4916  0.2521  0.3434
12724TIP3    H138129   7.548   4.026   6.192  1.0529  2.1952  0.0648
12724TIP3    H238130   7.467   4.137   6.129 -0.0027  0.7612 -1.1734
12725TIP3   OH238131   5.309   0.747   6.537 -0.0239  0.2720  0.3379
12725TIP3    H138132   5.284   0.658   6.516  0.7170 -0.3949  2.0617
12725TIP3    H238133   5.395   0.759   6.497  1.0094 -0.7018  2.1119
12726TIP3   OH238134   5.342   7.160   6.419  0.3049 -0.1943  0.5300
12726TIP3    H138135   5.296   7.239   6.447 -1.0812 -0.8799  0.2636
12726TIP3    H238136   5.434   7.179   6.436  0.1757  2.0366 -0.8310
12727TIP3   OH238137   3.346   4.388   5.749  0.2182  0.4198  0.1829
12727TIP3    H138138   3.315   4.451   5.684 -2.7732 -0.3942  0.6940
12727TIP3    H238139   3.361   4.440   5.828  1.1291  0.9744 -0.3404
12728TIP3   OH238140   4.449   2.725   6.284  0.6024  0.0086 -0.0117
12728TIP3    H138141   4.454   2.713   6.189 -1.6313  1.4908 -0.3924
12728TIP3    H238142   4.423   2.640   6.318 -0.5126 -0.0499 -0.9603
12729TIP3   OH238143   3.159   5.582   2.011  0.3151 -1.1097  0.9192
12729TIP3    H138144   3.195   5.545   1.930  1.5052 -0.4132  1.1041
12729TIP3    H238145   3.066   5.559   2.009 -0.1903  0.6505 -1.6944
12730TIP3   OH238146   6.702   5.832   4.705  0.0529 -0.1468 -0.2558
12730TIP3    H138147   6.707   5.743   4.669 -0.9917 -0.4365  0.2689
12730TIP3    H238148   6.762   5.883   4.651  0.5426 -1.1371 -0.6710
12731TIP3   OH238149   2.933   7.134   3.742 -0.7284  0.1834  0.1283
12731TIP3    H138150   2.861   7.160   3.684  1.7255 -1.6529 -4.2919
12731TIP3    H238151   2.924   7.039   3.749 -0.1348  0.2265  1.6973
12732TIP3   OH238152   2.708   7.311   3.940 -0.3091  0.0991  0.0213
12732TIP3    H138153   2.658   7.375   3.991  1.2472  1.9124 -0.6360
12732TIP3    H238154   2.754   7.259   4.006 -0.6668  0.4254  0.5389
12733TIP3   OH238155   1.129   1.657   5.318  0.0919 -0.0691  0.4585
12733TIP3    H138156   1.216   1.629   5.289 -0.3789  0.4704 -1.6409
12733TIP3    H238157   1.127   1.751   5.302  0.4988  0.7875  4.3833
12734TIP3   OH238158   4.694   1.583   4.869  1.0768 -0.0782  0.1350
12734TIP3    H138159   4.646   1.619   4.794  3.8643  2.4190 -0.6514
12734TIP3    H238160   4.663   1.493   4.876  0.2893 -0.2839 -3.6951
12735TIP3   OH238161   5.986   0.641   4.007  0.6129 -0.3739  0.1003
12735TIP3    H138162   6.024   0.568   3.956  0.4376 -0.2515 -0.2107
12735TIP3    H238163   6.061   0.697   4.027  0.4016  0.8764 -2.1613
12736TIP3   OH238164   5.989   0.429   0.298  0.7423  0.1386 -0.3090
12736TIP3    H138165   6.082   0.437   0.317  0.7215 -1.0201  0.4431
12736TIP3    H238166   5.982   0.347   0.249 -0.0481 -0.7738  1.2377
12737TIP3   OH238167   4.561   1.413   1.778  0.1027 -0.5646 -0.5151
12737TIP3    H138168   4.575   1.321   1.800  0.0040 -0.4516  0.0246
12737TIP3    H238169   4.528   1.411   1.688 -2.0587 -1.2297  0.2292
12738TIP3   OH238170   1.587   2.171   1.237  0.0002  0.0992 -0.0623
12738TIP3    H138171   1.645   2.205   1.305 -0.1081 -1.0085  0.6014
12738TIP3    H238172   1.501   2.167   1.278  0.0233 -1.0326 -0.0929
12739TIP3   OH238173   5.534   2.064   2.747  0.2418 -0.2026  0.4378
12739TIP3    H138174   5.563   2.090   2.659  1.2900  0.2547  0.9044
12739TIP3    H238175   5.517   2.147   2.792  0.3709 -0.4181  0.8881
12740TIP3   OH238176   7.166   6.754   4.298  0.1562 -0.3365  0.3337
12740TIP3    H138177   7.181   6.714   4.384 -0.0139  0.3662  0.6932
12740TIP3    H238178   7.127   6.683   4.246 -2.3467 -0.0293  1.6546
12741TIP3   OH238179   5.832   2.113   3.093 -0.0268 -0.6977 -0.0758
12741TIP3    H138180   5.755   2.057   3.092 -0.2894 -0.3472 -1.1195
12741TIP3    H238181   5.805   2.191   3.045  0.7388 -0.2418  0.2211
12742TIP3   OH238182   3.914   5.802   0.124  0.1939  0.0536  0.3317
12742TIP3    H138183   3.890   5.829   0.036  0.2026  0.8641  0.5734
12742TIP3    H238184   3.830   5.786   0.168  0.0813  2.0476  0.9140
12743TIP3   OH238185   8.020   4.379   6.024 -0.0414 -0.2769 -0.0782
12743TIP3    H138186   7.940   4.419   5.989 -0.2126  0.0323  0.6581
12743TIP3    H238187   8.089   4.444   6.006 -0.5598  1.1099  2.4473
12744TIP3   OH238188   1.310   4.230   1.036 -0.2611  0.3207  0.3312
12744TIP3    H138189   1.263   4.294   0.983 -1.0980 -1.1056 -0.7122
12744TIP3    H238190   1.346   4.167   0.974  0.2882 -0.3992  1.3350
12745TIP3   OH238191   7.858   7.330   0.434  0.3420 -0.3462 -0.0559
12745TIP3    H138192   7.766   7.336   0.459 -0.1538 -2.0369 -1.2825
12745TIP3    H238193   7.905   7.321   0.517 -0.4932  1.2035  0.6336
12746TIP3   OH238194   4.510   0.129   1.570  0.1960  0.4190  0.1459
12746TIP3    H138195   4.602   0.126   1.544  0.0430  0.5115 -0.4380
12746TIP3    H238196   4.463   0.098   1.492 -0.1520 -1.6562  1.1243
12747TIP3   OH238197   2.873   7.503   4.185  0.4538 -0.3750 -0.0604
12747TIP3    H138198   2.789   7.524   4.144 -0.2342  0.3233  1.5890
12747TIP3    H238199   2.907   7.588   4.214  1.1722 -0.7728  0.2830
12748TIP3   OH238200   4.344   0.753   3.602  0.3113  0.1644  0.1038
12748TIP3    H138201   4.319   0.803   3.524  1.7960 -1.1597 -1.2961
12748TIP3    H238202   4.391   0.816   3.657  0.1182  0.8791 -0.5331
12749TIP3   OH238203   6.641   0.675   3.336 -0.7207  0.1535  0.0836
12749TIP3    H138204   6.633   0.613   3.408 -0.8050 -0.1775 -0.2101
12749TIP3    H238205   6.563   0.730   3.344 -1.0262 -0.2449 -0.0924
12750TIP3   OH238206   0.973   3.411   2.334 -0.1819  0.2118 -0.2873
12750TIP3    H138207   1.011   3.332   2.373 -0.6625 -0.0001 -0.2450
12750TIP3    H238208   0.944   3.463   2.409  1.2500  1.0173 -0.2461
12751TIP3   OH238209   0.668   4.408   5.489 -0.1750 -0.0244 -0.6706
12751TIP3    H138210   0.675   4.332   5.432 -0.4993  0.3099 -1.1663
12751TIP3    H238211   0.748   4.407   5.541 -0.0516 -0.5441 -0.8669
12752TIP3   OH238212   2.683   0.992   6.394 -0.0956 -0.3752 -0.5556
12752TIP3    H138213   2.610   0.954   6.442 -2.2973  1.7043 -2.0086
12752TIP3    H238214   2.747   1.016   6.461 -2.5733  1.4360  1.3499
12753TIP3   OH238215   1.871   0.532   6.725 -0.1500 -0.0591  0.0920
12753TIP3    H138216   1.924   0.541   6.646  1.1162 -3.5431  0.3928
12753TIP3    H238217   1.801   0.471   6.701 -1.5735  1.1684  0.8987
12754TIP3   OH238218   5.803   1.667   4.114 -0.1931  0.9835  0.2459
12754TIP3    H138219   5.728   1.661   4.174 -0.6843  1.8530 -0.2565
12754TIP3    H238220   5.879   1.674   4.171 -0.0468 -3.1351  0.8870
12755TIP3   OH238221   2.204   2.838   6.197  0.0619  0.4771 -0.7040
12755TIP3    H138222   2.251   2.914   6.165  0.2258  0.6375 -0.0977
12755TIP3    H238223   2.272   2.784   6.238 -0.2228  0.5450 -0.1333
12756TIP3   OH238224   1.146   2.892   3.956 -0.0243  0.1219  0.3377
12756TIP3    H138225   1.072   2.873   3.899 -1.2203  1.5929  1.3429
12756TIP3    H238226   1.221   2.899   3.896 -1.0645  0.6579 -0.9423
12757TIP3   OH238227   7.199   2.901   2.979  1.0074  0.4175 -0.1512
12757TIP3    H138228   7.162   2.814   2.970  0.9564  0.5923 -2.3443
12757TIP3    H238229   7.290   2.886   3.006  0.1926 -0.1118  2.6244
12758TIP3   OH238230   3.164   5.838   2.774 -0.4626 -0.2055  0.2477
12758TIP3    H138231   3.143   5.749   2.746 -0.4745 -0.0965 -0.0821
12758TIP3    H238232   3.105   5.853   2.848 -1.7278  0.1712 -0.8023
12759TIP3   OH238233   1.086   2.573   2.372  0.1996  0.0456  0.3429
12759TIP3    H138234   1.157   2.591   2.434  0.1749  1.3084  0.0307
12759TIP3    H238235   1.109   2.623   2.294 -0.7060 -0.0678 -0.0086
12760TIP3   OH238236   6.097   6.215   2.022  0.3581  0.7298 -0.3417
12760TIP3    H138237   6.018   6.260   2.053 -0.6485 -1.1705 -0.0409
12760TIP3    H238238   6.168   6.276   2.042 -1.0194  2.6004 -0.8404
12761TIP3   OH238239   4.919   2.824   4.866  0.6328 -0.2163 -0.5708
12761TIP3    H138240   4.839   2.800   4.913  0.5166  0.6612 -0.2918
12761TIP3    H238241   4.961   2.741   4.845 -0.9212 -0.7597 -1.7210
12762TIP3   OH238242   4.653   0.718   5.298  0.6290 -0.1914 -0.3869
12762TIP3    H138243   4.729   0.679   5.342 -0.1619 -0.0480  1.1836
12762TIP3    H238244   4.665   0.812   5.309 -0.0027 -0.1843  0.2794
12763TIP3   OH238245   4.978   6.401   4.008  0.5158 -0.0529 -0.0417
12763TIP3    H138246   5.021   6.465   4.064 -1.2543  0.6437  0.5910
12763TIP3    H238247   5.039   6.387   3.935  1.4405  1.4531  0.4147
12764TIP3   OH238248   7.174   5.289   1.942  0.1246 -0.0458  0.4545
12764TIP3    H138249   7.198   5.196   1.948  0.9071  0.0380 -0.9622
12764TIP3    H238250   7.079   5.289   1.955  0.1056 -1.0563  0.4498
12765TIP3   OH238251   7.241   1.711   5.195  0.0193  0.1463 -0.2848
12765TIP3    H138252   7.162   1.687   5.243  0.1591  0.5164  0.1393
12765TIP3    H238253   7.210   1.758   5.118 -0.3824 -2.8051 -2.0805
12766TIP3   OH238254   0.104   6.170   5.082 -0.3086  0.3803  0.6554
12766TIP3    H138255   0.147   6.184   5.166  0.7642  0.3189  0.1422
12766TIP3    H238256   0.174   6.139   5.024 -0.8620  1.0986 -0.4405
12767TIP3   OH238257   0.484   4.122   0.915 -0.1474  0.0760  0.0137
12767TIP3    H138258   0.461   4.214   0.921  1.0840  0.3540  0.7246
12767TIP3    H238259   0.538   4.116   0.836  1.8921  0.4647  1.3179
12768TIP3   OH238260   4.497   5.492   2.977  0.1475  0.0506  0.2672
12768TIP3    H138261   4.483   5.416   3.033  0.0222 -0.8780 -0.9676
12768TIP3    H238262   4.441   5.475   2.901 -0.3963  1.7188  0.2665
12769TIP3   OH238263   1.752   7.024   0.632  0.1020  0.2225 -0.1280
12769TIP3    H138264   1.664   6.996   0.609  0.4182 -0.2866 -0.7707
12769TIP3    H238265   1.740   7.086   0.704 -0.8215  0.6368 -0.6222
12770TIP3   OH238266   6.691   2.310   0.978  0.8041 -0.0104  0.0108
12770TIP3    H138267   6.745   2.322   1.056  2.0390  0.5150 -0.8880
12770TIP3    H238268   6.739   2.355   0.909 -0.9867  0.7955 -0.7641
12771TIP3   OH238269   3.407   5.119   3.911  0.3250 -0.0840  0.0867
12771TIP3    H138270   3.423   5.181   3.840 -0.2204 -0.0375  0.0043
12771TIP3    H238271   3.424   5.169   3.991 -0.3844  0.2560  0.0299
12772TIP3   OH238272   8.067   3.154   3.771  0.0797 -0.0728  0.0727
12772TIP3    H138273   8.039   3.223   3.831  0.7170  0.2247  0.0369
12772TIP3    H238274   8.029   3.074   3.806 -2.0374  0.4976 -0.7638
12773TIP3   OH238275   1.279   6.792   1.514 -0.3260 -0.1960 -0.3660
12773TIP3    H138276   1.223   6.868   1.497  1.2609  1.5013  1.4227
12773TIP3    H238277   1.354   6.804   1.456  0.1026 -0.2091  0.1839
12774TIP3   OH238278   3.298   6.580   4.782 -0.2009 -0.1798  0.0404
12774TIP3    H138279   3.268   6.664   4.747  1.6576 -0.0498 -1.4183
12774TIP3    H238280   3.315   6.527   4.704  0.5697 -1.2096  0.8833
12775TIP3   OH238281   3.993   2.891   5.682  0.0483  0.2817 -0.3623
12775TIP3    H138282   4.013   2.826   5.750  0.3895 -0.0328 -0.7582
12775TIP3    H238283   3.950   2.841   5.613 -1.1550  0.7677  0.0158
12776TIP3   OH238284   2.275   1.662   3.810 -0.4037 -0.2400 -0.5210
12776TIP3    H138285   2.234   1.583   3.774  0.3381 -1.1369  0.5371
12776TIP3    H238286   2.342   1.686   3.746 -0.6061 -0.4907 -0.8321
12777TIP3   OH238287   3.745   7.468   5.991  0.4145 -0.0691 -0.1419
12777TIP3    H138288   3.819   7.457   5.931 -0.2014 -0.9627 -0.7748
12777TIP3    H238289   3.758   7.400   6.057  1.1424  0.9764  0.8237
12778TIP3   OH238290   4.941   3.007   1.085 -0.1626 -0.0338 -0.3079
12778TIP3    H138291   4.986   3.049   1.012  1.9171 -0.5883  0.5651
12778TIP3    H238292   4.894   2.934   1.046 -2.0059  1.7028 -1.5280
12779TIP3   OH238293   4.395   1.495   1.277 -0.4176  0.5288  0.0639
12779TIP3    H138294   4.466   1.550   1.309  0.7741 -1.2395  0.5849
12779TIP3    H238295   4.437   1.432   1.219 -1.3127 -1.3012  1.2951
12780TIP3   OH238296   6.744   4.301   1.003  0.2780  0.4963  0.0127
12780TIP3    H138297   6.738   4.396   0.998 -0.9089  0.3842 -1.2410
12780TIP3    H238298   6.679   4.276   1.070  1.4222  0.6141  1.2110
12781TIP3   OH238299   3.903   0.453   6.522 -0.1070 -0.6606 -0.0481
12781TIP3    H138300   3.972   0.514   6.550 -0.3777 -0.7955  0.9411
12781TIP3    H238301   3.911   0.378   6.581 -0.8188 -0.8727 -0.2080
12782TIP3   OH238302   1.373   1.187   1.901 -0.3698  0.7897 -0.1334
12782TIP3    H138303   1.353   1.118   1.964  0.3138  0.4067 -0.3318
12782TIP3    H238304   1.336   1.156   1.819 -0.5701  0.9314 -0.0993
12783TIP3   OH238305   1.493   5.565   5.324  0.1754  0.9361  0.2672
12783TIP3    H138306   1.565   5.626   5.340 -0.5609  1.8507  0.2032
12783TIP3    H238307   1.453   5.552   5.409 -1.0326  2.3299 -0.0414
12784TIP3   OH238308   5.537   2.040   3.678  0.4674 -0.1832 -0.7464
12784TIP3    H138309   5.562   2.005   3.763 -1.5651 -0.9023 -0.3916
12784TIP3    H238310   5.498   1.965   3.632  1.7046  0.1433 -2.4104
12785TIP3   OH238311   4.036  -0.006   3.059  0.3649 -0.3988 -0.4681
12785TIP3    H138312   4.109  -0.058   3.092  0.7211  1.0378  1.1822
12785TIP3    H238313   4.069   0.084   3.059 -0.3828 -0.0458 -2.7640
12786TIP3   OH238314   2.343   5.579   5.122 -0.1278  0.3746  0.9553
12786TIP3    H138315   2.307   5.504   5.170 -0.4534 -0.3106 -0.2986
12786TIP3    H238316   2.434   5.555   5.105 -0.7876 -0.8375 -1.3902
12787TIP3   OH238317   1.840   6.170   5.671 -0.4405 -0.2652 -0.4578
12787TIP3    H138318   1.849   6.109   5.598  0.2803  0.9241 -1.4061
12787TIP3    H238319   1.797   6.247   5.634 -1.2218 -0.1247  0.6823
12788TIP3   OH238320   5.310   6.516   5.304  0.4430  0.1414  0.2559
12788TIP3    H138321   5.405   6.508   5.292  0.5274 -0.6639  1.2760
12788TIP3    H238322   5.285   6.436   5.351 -0.7675  0.2788 -0.1290
12789TIP3   OH238323   5.425   4.624   6.158  0.4189  0.1957 -0.4223
12789TIP3    H138324   5.459   4.702   6.203  2.4681 -0.5562 -0.5793
12789TIP3    H238325   5.357   4.590   6.216  1.4268  0.5487  0.9984
12790TIP3   OH238326   3.929   5.849   0.961  0.2396 -0.1314 -0.5090
12790TIP3    H138327   3.950   5.842   1.054 -0.9778  0.5909 -0.1560
12790TIP3    H238328   3.969   5.932   0.933  0.6478 -0.3727 -0.6464
12791TIP3   OH238329   6.916   7.514   3.344  0.0954  0.1009  0.1119
12791TIP3    H138330   6.919   7.419   3.342  1.2031  0.1278 -0.0104
12791TIP3    H238331   6.941   7.537   3.434 -0.5403  0.2705  0.2495
12792TIP3   OH238332   4.995   4.705   4.989 -0.5956 -0.2950 -0.1769
12792TIP3    H138333   4.957   4.671   5.070 -0.2430 -0.5899 -0.1309
12792TIP3    H238334   4.952   4.790   4.976 -0.5556 -0.1776  0.3959
12793TIP3   OH238335   7.229   0.831   6.292  0.0973 -0.1119  0.1567
12793TIP3    H138336   7.281   0.903   6.257  0.2434 -0.1554  0.2820
12793TIP3    H238337   7.236   0.840   6.387  1.4252 -1.2163  0.1947
12794TIP3   OH238338   7.291   4.972   6.141 -0.1922 -0.2856 -0.2167
12794TIP3    H138339   7.203   5.003   6.118  0.1462  0.0952 -1.0273
12794TIP3    H238340   7.278   4.881   6.166 -0.7328 -0.4208 -0.9540
12795TIP3   OH238341   7.439   3.797   4.033 -0.5465  0.8845 -0.4533
12795TIP3    H138342   7.374   3.744   4.079  0.4481  1.8171  2.2280
12795TIP3    H238343   7.515   3.739   4.022 -0.9626  0.5085 -1.4373
12796TIP3   OH238344   0.957   4.302   0.081  0.1070 -0.0228 -0.4347
12796TIP3    H138345   0.957   4.364   0.008 -1.9382  2.8203  1.7386
12796TIP3    H238346   0.865   4.297   0.107  0.5799 -2.0967  1.0719
12797TIP3   OH238347   1.867   3.780   5.496 -0.2636  0.3550  0.3309
12797TIP3    H138348   1.930   3.848   5.469  1.7956 -1.4931  0.1483
12797TIP3    H238349   1.894   3.703   5.447 -0.9675 -1.2307  2.3199
12798TIP3   OH238350   7.384   2.041   5.902 -0.1339 -0.3375 -0.0986
12798TIP3    H138351   7.323   1.974   5.869  1.3526 -1.3062 -0.9842
12798TIP3    H238352   7.377   2.035   5.997 -2.3684  0.4989 -0.1517
12799TIP3   OH238353   2.346   7.719   2.186  0.6366  0.4167  0.3107
12799TIP3    H138354   2.396   7.800   2.190  0.1576  0.6752  1.6105
12799TIP3    H238355   2.315   7.706   2.276 -0.2924 -0.5717 -0.1362
12800TIP3   OH238356   2.269   6.471   6.184 -0.0629 -0.3695  0.1127
12800TIP3    H138357   2.280   6.429   6.099  0.9856  0.0601  0.0206
12800TIP3    H238358   2.331   6.545   6.182 -1.2172  0.6430  0.6057
12801TIP3   OH238359   8.251   6.961   4.989  0.3567  0.5862  0.4954
12801TIP3    H138360   8.281   6.887   5.042  1.5609  0.0780 -0.8342
12801TIP3    H238361   8.283   6.942   4.901  0.7436  2.7198  0.1230
12802TIP3   OH238362   5.772   6.444   5.389  0.7265  0.0593 -0.5786
12802TIP3    H138363   5.827   6.426   5.465 -0.6115 -1.8533  0.0187
12802TIP3    H238364   5.826   6.499   5.332  2.0388  0.9219  1.3916
12803TIP3   OH238365   7.635   3.821   2.943  0.1332 -0.2607 -0.2243
12803TIP3    H138366   7.561   3.882   2.946  0.1764 -0.2366  0.5861
12803TIP3    H238367   7.681   3.844   2.863  0.7340  1.4802  0.5692
12804TIP3   OH238368   5.439   1.337   5.670 -0.3645 -0.3935 -0.3113
12804TIP3    H138369   5.524   1.302   5.643  0.4105  1.2643 -0.1020
12804TIP3    H238370   5.386   1.259   5.686  1.2298 -1.4792 -0.0502
12805TIP3   OH238371   4.264   0.032   6.199 -0.2944 -0.0670 -0.0962
12805TIP3    H138372   4.262   0.039   6.294 -0.5685  0.8739 -0.1665
12805TIP3    H238373   4.253  -0.062   6.182 -0.6806 -0.1883  0.7768
12806TIP3   OH238374   0.229   4.429   4.500  0.5420  0.1399  0.0591
12806TIP3    H138375   0.319   4.441   4.531  0.7256  1.1431 -0.7681
12806TIP3    H238376   0.199   4.518   4.481  0.5197 -0.3654 -2.7485
12807TIP3   OH238377   3.959   4.129   0.300 -0.0481 -0.7703  1.0067
12807TIP3    H138378   3.871   4.094   0.289 -0.3378  0.1284  0.2905
12807TIP3    H238379   3.951   4.187   0.376 -0.7327  1.2152 -0.4922
12808TIP3   OH238380   7.121   6.373   6.728 -0.3688  0.2311  0.2252
12808TIP3    H138381   7.169   6.443   6.772  0.6434  0.9554 -1.8981
12808TIP3    H238382   7.039   6.414   6.699  0.1289  0.5231 -0.8280
12809TIP3   OH238383   1.433   1.268   6.220 -0.4025 -0.3236 -0.1314
12809TIP3    H138384   1.498   1.335   6.199 -0.9393  0.1272 -0.4056
12809TIP3    H238385   1.480   1.185   6.214  0.6770  0.0932  1.7176
12810TIP3   OH238386   5.379   0.333   6.276  0.1023  0.0839  0.0001
12810TIP3    H138387   5.360   0.399   6.210 -0.4228  0.3205  0.3863
12810TIP3    H238388   5.387   0.251   6.227 -1.2760  0.0827 -0.2493
12811TIP3   OH238389   7.176   2.274   0.394  0.1100 -0.2833  0.4471
12811TIP3    H138390   7.098   2.248   0.345 -0.3736 -0.6622  1.3940
12811TIP3    H238391   7.151   2.354   0.440  1.5064  1.8710 -2.2253
12812TIP3   OH238392   4.076   2.884   0.334  0.4218 -0.0288 -0.6325
12812TIP3    H138393   4.145   2.857   0.272 -0.5898 -1.3128 -1.2519
12812TIP3    H238394   3.998   2.893   0.280 -0.8956 -2.8124  0.6318
12813TIP3   OH238395   4.672   4.578   3.815  0.2696  0.1789  0.3997
12813TIP3    H138396   4.742   4.563   3.752  0.8955 -1.0796  1.3484
12813TIP3    H238397   4.592   4.554   3.769  0.8544 -2.1765  0.4980
12814TIP3   OH238398   2.466   0.316   4.925 -0.2492 -0.2148 -0.2518
12814TIP3    H138399   2.448   0.308   4.831  0.1740  0.4177 -0.3930
12814TIP3    H238400   2.379   0.329   4.965 -0.3089  0.9184 -0.7155
12815TIP3   OH238401   4.326   6.722   1.132  0.0170 -0.0001  0.1790
12815TIP3    H138402   4.363   6.633   1.130  0.2383  0.0862  0.3841
12815TIP3    H238403   4.339   6.755   1.043 -3.2834 -1.4552 -1.0140
12816TIP3   OH238404   7.613   3.603   4.535  1.1538 -0.6247  0.7703
12816TIP3    H138405   7.526   3.626   4.566  1.0944 -0.6577  0.6266
12816TIP3    H238406   7.670   3.673   4.568  0.8641  0.1266 -0.2612
12817TIP3   OH238407   3.108   5.870   2.028 -0.2030  0.2681  0.1750
12817TIP3    H138408   3.083   5.911   1.945  1.4151 -0.1724 -0.5607
12817TIP3    H238409   3.101   5.776   2.012  3.6564 -0.0268 -0.7811
12818TIP3   OH238410   4.567   0.595   1.438  0.5604  0.0784 -0.1824
12818TIP3    H138411   4.479   0.627   1.456  0.2374 -0.6279 -0.4433
12818TIP3    H238412   4.578   0.520   1.497 -0.3141 -1.9496 -2.4172
12819TIP3   OH238413   1.021   1.224   4.563 -0.3582 -0.6820  0.7448
12819TIP3    H138414   0.995   1.147   4.513  1.3225 -0.9953  0.2741
12819TIP3    H238415   0.956   1.291   4.540 -0.1425 -1.0795 -1.2113
12820TIP3   OH238416   0.397   1.378   4.301 -0.3322  0.1681 -0.1124
12820TIP3    H138417   0.392   1.284   4.317  2.1326  0.1850  1.3541
12820TIP3    H238418   0.315   1.400   4.258 -0.4429 -2.8570 -1.6740
12821TIP3   OH238419   0.131   2.886   0.399  0.0176  0.5661 -0.3171
12821TIP3    H138420   0.141   2.975   0.366 -0.2596 -0.3126 -2.9308
12821TIP3    H238421   0.089   2.898   0.485 -0.0616  2.9204 -0.6008
12822TIP3   OH238422   7.769   3.087   0.915 -0.2517  0.0737 -0.7503
12822TIP3    H138423   7.702   3.019   0.929 -0.8152  0.9410  1.1246
12822TIP3    H238424   7.720   3.169   0.916  0.8117  0.7430  0.7838
12823TIP3   OH238425   3.320   2.803   0.290 -0.3071  0.6268  0.2478
12823TIP3    H138426   3.308   2.768   0.378  1.8317  1.1314  0.8045
12823TIP3    H238427   3.275   2.741   0.233  1.0099 -1.5505  1.4369
12824TIP3   OH238428   4.476   5.892   1.490  0.5229 -0.2117  0.5865
12824TIP3    H138429   4.496   5.841   1.568  0.6356 -1.3891 -0.1810
12824TIP3    H238430   4.511   5.840   1.418 -2.6726 -0.9698 -0.5783
12825TIP3   OH238431   5.294   3.481   4.455 -0.5275  0.0985 -0.0381
12825TIP3    H138432   5.318   3.424   4.528 -0.7061 -0.9721 -0.8016
12825TIP3    H238433   5.220   3.437   4.413 -0.1805  0.5072 -1.0985
12826TIP3   OH238434   0.406   4.667   0.684  0.2049  0.3626  0.9727
12826TIP3    H138435   0.328   4.719   0.662  0.5833  0.8915  0.8669
12826TIP3    H238436   0.447   4.649   0.600 -0.5805 -1.1783  0.8875
12827TIP3   OH238437   4.485   6.217   6.526  0.9256  0.2751  0.0131
12827TIP3    H138438   4.557   6.196   6.467  0.1855  0.6318 -1.0349
12827TIP3    H238439   4.451   6.132   6.554  0.6749  0.0889 -0.8383
12828TIP3   OH238440   8.014   1.297   0.817  0.6346 -0.4538 -0.4381
12828TIP3    H138441   8.076   1.254   0.875  0.8120  0.3518 -0.0189
12828TIP3    H238442   8.063   1.369   0.778  0.0923 -0.0750 -0.4392
12829TIP3   OH238443   5.389   4.666   5.835  0.5361 -0.2930  0.0243
12829TIP3    H138444   5.379   4.754   5.800 -0.4803 -0.7134 -0.7892
12829TIP3    H238445   5.399   4.678   5.929 -0.5189  0.6386  0.0332
12830TIP3   OH238446   8.305   3.551   0.671 -0.0674 -0.8125  0.1637
12830TIP3    H138447   8.251   3.516   0.599 -1.9048 -0.3740  1.2517
12830TIP3    H238448   8.255   3.626   0.704  0.4704 -1.2928  2.2197
12831TIP3   OH238449   7.261   7.076   5.169 -0.3705  0.3710  0.3052
12831TIP3    H138450   7.230   7.167   5.170 -0.6236  0.2974 -0.3440
12831TIP3    H238451   7.356   7.083   5.180 -0.5804  0.5927  2.4017
12832TIP3   OH238452   8.202   5.393   0.831 -0.3128 -0.4746 -0.1577
12832TIP3    H138453   8.125   5.370   0.778 -0.1575 -0.4829 -0.3785
12832TIP3    H238454   8.277   5.367   0.777 -0.1586 -1.8494  0.6691
12833TIP3   OH238455   1.015   4.269   3.591 -0.7003  0.7954 -0.1866
12833TIP3    H138456   1.003   4.241   3.682 -0.8469 -0.5496 -0.5865
12833TIP3    H238457   0.995   4.362   3.591 -1.7953  0.5844  0.9577
12834TIP3   OH238458   8.048   0.050   1.677 -0.0877  0.6003  0.2247
12834TIP3    H138459   7.958   0.067   1.705 -0.4388 -0.3062 -0.3143
12834TIP3    H238460   8.043   0.046   1.581  0.4980  0.3598  0.1999
12835TIP3   OH238461   5.366   7.093   4.776  0.6517  0.8017  0.0168
12835TIP3    H138462   5.435   7.101   4.710  1.3344  0.6950  0.6913
12835TIP3    H238463   5.293   7.051   4.730  1.7828 -1.0220 -0.2303
12836TIP3   OH238464   5.226   7.092   5.825  0.0505  0.2121 -0.2853
12836TIP3    H138465   5.134   7.119   5.831  0.1071  0.1071  1.8853
12836TIP3    H238466   5.223   7.004   5.787 -0.7434  0.1780 -0.1494
12837TIP3   OH238467   2.046   5.351   1.006  0.1359  0.5811 -0.5570
12837TIP3    H138468   2.140   5.332   1.007  0.3802  1.6047 -1.6300
12837TIP3    H238469   2.007   5.272   0.967  0.2591 -0.7451  1.7998
12838TIP3   OH238470   7.469   7.384   5.027 -0.4328 -0.1270 -0.1375
12838TIP3    H138471   7.515   7.437   5.091 -1.1878 -0.1821  0.4576
12838TIP3    H238472   7.533   7.317   5.000  0.2283  0.5414 -0.2441
12839TIP3   OH238473   4.174   0.027   1.471  0.2344  0.3976  0.2592
12839TIP3    H138474   4.092  -0.020   1.462  0.1358  0.2678  1.5435
12839TIP3    H238475   4.174   0.058   1.562  0.8884  1.7651 -0.1783
12840TIP3   OH238476   4.530   7.666   3.751 -0.1686  0.4163 -0.0822
12840TIP3    H138477   4.579   7.721   3.812 -2.0906  0.6146  1.4014
12840TIP3    H238478   4.539   7.577   3.786 -1.6365  0.5877  0.8206
12841TIP3   OH238479   7.121   1.596   2.557 -0.0460 -0.1294 -0.2205
12841TIP3    H138480   7.090   1.686   2.563 -0.3134 -0.2326 -0.0524
12841TIP3    H238481   7.153   1.575   2.645 -1.8626 -0.8745  0.3076
12842TIP3   OH238482   2.029   6.723   4.167 -0.4059  0.2610 -0.4877
12842TIP3    H138483   2.003   6.775   4.243  0.2615  1.8988 -1.3200
12842TIP3    H238484   1.946   6.689   4.133 -0.7898  0.1373  0.5160
12843TIP3   OH238485   4.877   4.265   3.190  0.4459 -0.3619 -0.0775
12843TIP3    H138486   4.816   4.269   3.116  0.7166 -2.2912 -0.4570
12843TIP3    H238487   4.920   4.351   3.191 -1.0757  0.4432 -0.8216
12844TIP3   OH238488   3.709   6.971   3.356 -0.5033 -0.0360 -0.3962
12844TIP3    H138489   3.689   6.937   3.269  0.2638  0.2892 -0.7128
12844TIP3    H238490   3.804   6.984   3.355 -0.6256  1.0143  0.1113
12845TIP3   OH238491   6.421   4.623   4.523 -0.1563 -0.3408 -0.3436
12845TIP3    H138492   6.370   4.648   4.446 -1.7491 -0.7066  0.5345
12845TIP3    H238493   6.404   4.693   4.586  1.0404 -0.1012 -0.2750
12846TIP3   OH238494   3.625   0.245   6.386  0.4638  0.0403 -0.1393
12846TIP3    H138495   3.709   0.290   6.378  0.6990 -0.2998  0.4046
12846TIP3    H238496   3.560   0.315   6.386  0.7945  0.3472  0.1805
12847TIP3   OH238497   1.548   1.489   4.700  0.2711 -0.2892  0.3148
12847TIP3    H138498   1.484   1.548   4.739  0.1678  1.0343 -1.7272
12847TIP3    H238499   1.530   1.492   4.606  2.2094 -1.2241 -0.1405
12848TIP3   OH238500   3.463   2.878   0.629 -0.2712  0.1963 -0.3110
12848TIP3    H138501   3.493   2.809   0.571 -0.4226 -0.1058 -0.0340
12848TIP3    H238502   3.469   2.958   0.577 -0.2878 -0.0536 -0.6962
12849TIP3   OH238503   7.613   3.932   1.655 -0.2498  0.0949 -0.3611
12849TIP3    H138504   7.609   4.005   1.717  2.9879  0.6729 -0.7025
12849TIP3    H238505   7.583   3.970   1.572  2.9448  1.6971 -0.9521
12850TIP3   OH238506   3.193   2.808   1.466 -0.0970  0.3399  0.0114
12850TIP3    H138507   3.206   2.870   1.395 -0.4550  0.4452  0.0372
12850TIP3    H238508   3.273   2.815   1.519  0.3126  0.0295 -0.5462
12851TIP3   OH238509   1.963   3.052   4.337  0.2101 -0.1243  0.5645
12851TIP3    H138510   1.983   2.965   4.370  0.1975 -0.2069  0.3549
12851TIP3    H238511   1.881   3.076   4.381  0.1813 -0.2430  0.5763
12852TIP3   OH238512   6.845   6.035   5.165 -0.2171  0.0549  0.6218
12852TIP3    H138513   6.835   6.027   5.070 -3.5220  1.1505  0.7459
12852TIP3    H238514   6.890   6.118   5.178 -1.1681  0.6814  0.0086
12853TIP3   OH238515   3.130   5.334   6.362 -0.0427  0.4834  0.0724
12853TIP3    H138516   3.168   5.317   6.276 -1.9334 -2.4918 -0.3190
12853TIP3    H238517   3.076   5.412   6.349  0.7746  0.8934 -1.0315
12854TIP3   OH238518   6.259   4.654   3.790  0.3158  0.2039 -0.0797
12854TIP3    H138519   6.335   4.713   3.788  0.4173  0.0724 -0.1001
12854TIP3    H238520   6.295   4.570   3.818  0.0569  0.3154  0.6028
12855TIP3   OH238521   3.354   6.593   1.584  0.2333  0.3140 -0.3610
12855TIP3    H138522   3.352   6.500   1.566 -1.6704  0.5560 -1.7542
12855TIP3    H238523   3.446   6.614   1.599  0.6912 -1.7474 -0.1231
12856TIP3   OH238524   3.301   7.779   4.890 -0.6281  0.7442 -0.4176
12856TIP3    H138525   3.354   7.738   4.823 -0.9619  1.1313 -0.9274
12856TIP3    H238526   3.308   7.873   4.872 -1.0268  0.8281 -0.1470
12857TIP3   OH238527   6.836   1.141   0.777 -0.0978 -0.3716 -0.1396
12857TIP3    H138528   6.795   1.185   0.702 -1.4001  0.2798  0.9066
12857TIP3    H238529   6.900   1.205   0.810 -1.9377  0.8344  1.3369
12858TIP3   OH238530   0.348   0.768   2.711  0.2492 -0.5039 -0.1532
12858TIP3    H138531   0.278   0.791   2.650 -0.4640 -3.2101 -0.4848
12858TIP3    H238532   0.422   0.745   2.654  0.4900 -0.3878  0.1126
12859TIP3   OH238533   5.879   5.040   3.974  0.7749  0.3203 -0.2874
12859TIP3    H138534   5.867   4.955   3.932  1.0465 -0.2757  0.8026
12859TIP3    H238535   5.817   5.098   3.930 -2.0061 -1.2692  1.2822
12860TIP3   OH238536   6.837   0.627   2.465  0.5352 -0.1114 -0.5076
12860TIP3    H138537   6.742   0.627   2.478  0.7119  1.6698  1.2616
12860TIP3    H238538   6.849   0.672   2.381 -0.1594  0.1722 -0.4623
12861TIP3   OH238539   0.585   0.579   3.724 -0.5058  0.3968 -0.3447
12861TIP3    H138540   0.584   0.626   3.641 -2.9211  0.3863 -0.3898
12861TIP3    H238541   0.604   0.488   3.699 -0.8428  0.4622 -0.8582
12862TIP3   OH238542   4.404   2.439   4.792 -0.4075 -0.2727 -0.2361
12862TIP3    H138543   4.444   2.521   4.761  0.8179 -0.3551  1.0334
12862TIP3    H238544   4.389   2.388   4.712  0.6676  0.3900 -0.8859
12863TIP3   OH238545   5.849   0.799   0.672 -0.9821  0.2690  0.0900
12863TIP3    H138546   5.821   0.842   0.591  3.0796 -0.5924 -1.9790
12863TIP3    H238547   5.884   0.870   0.726  1.7391  0.2964 -1.5289
12864TIP3   OH238548   5.124   2.376   0.897  0.5008  0.5027  0.2075
12864TIP3    H138549   5.083   2.361   0.983 -1.1046 -0.6436 -0.7105
12864TIP3    H238550   5.113   2.292   0.851  1.2666  1.1223 -1.1509
12865TIP3   OH238551   6.764   4.223   3.372 -0.6190 -0.2141 -0.3768
12865TIP3    H138552   6.774   4.138   3.415 -0.2711 -0.2789 -0.5829
12865TIP3    H238553   6.720   4.203   3.289 -0.5079 -0.1959 -0.4399
12866TIP3   OH238554   4.874   4.195   4.292 -0.4311 -0.5482  0.3760
12866TIP3    H138555   4.839   4.106   4.283  1.3729 -1.3627  0.9433
12866TIP3    H238556   4.858   4.217   4.384 -1.4744  0.0133  0.0782
12867TIP3   OH238557   1.200   5.784   0.478 -0.3257 -0.3177 -0.1390
12867TIP3    H138558   1.149   5.763   0.400 -0.1548  1.1421 -0.6893
12867TIP3    H238559   1.259   5.854   0.449  1.7385 -1.6663  0.5629
12868TIP3   OH238560   6.936   5.098   3.145 -0.6642 -0.2232  0.2430
12868TIP3    H138561   6.997   5.163   3.180  0.8169 -1.6922  0.5236
12868TIP3    H238562   6.867   5.090   3.211 -0.1856  0.1560  0.7963
12869TIP3   OH238563   0.813   1.445   4.564  0.1434  0.1236  1.1069
12869TIP3    H138564   0.826   1.520   4.622  0.6376 -0.4341  1.7239
12869TIP3    H238565   0.847   1.474   4.480  0.5447  0.5108  1.3974
12870TIP3   OH238566   0.919   0.862   2.543 -0.7099  0.2133  0.2843
12870TIP3    H138567   0.894   0.937   2.597 -0.8206  0.4751 -0.1252
12870TIP3    H238568   0.922   0.897   2.454 -1.1532 -0.3579  0.0356
12871TIP3   OH238569   6.754   6.902   0.959  0.5634 -0.0458  0.0601
12871TIP3    H138570   6.727   6.846   1.032 -2.4752  1.3492  0.1507
12871TIP3    H238571   6.815   6.965   0.999  0.2060 -0.3019  1.0257
12872TIP3   OH238572   4.192   1.799   0.258  0.1076 -0.0003 -0.6846
12872TIP3    H138573   4.243   1.738   0.205  1.4782  0.2875  0.2480
12872TIP3    H238574   4.231   1.793   0.345 -0.1965  1.6626 -0.4070
12873TIP3   OH238575   0.206   0.910   0.439  0.3708 -0.7612 -0.3019
12873TIP3    H138576   0.206   0.830   0.492  2.3942  0.5603  1.8659
12873TIP3    H238577   0.210   0.981   0.502 -0.9995  1.1248 -2.1705
12874TIP3   OH238578   3.374   5.318   5.077 -0.4858 -0.1732 -0.5891
12874TIP3    H138579   3.423   5.344   4.998 -1.9195 -0.1426 -1.5051
12874TIP3    H238580   3.360   5.400   5.124  0.6111 -0.2266 -0.1326
12875TIP3   OH238581   1.004   5.422   4.618  0.6644 -0.4742 -0.1491
12875TIP3    H138582   1.044   5.462   4.540 -0.5732 -2.3800 -1.8739
12875TIP3    H238583   0.918   5.464   4.625 -0.0388 -1.6736 -1.0851
12876TIP3   OH238584   4.325   4.025   3.887 -0.1044  0.3726  0.7963
12876TIP3    H138585   4.358   4.113   3.867  0.0244  0.1657  0.0466
12876TIP3    H238586   4.389   3.966   3.847 -1.5065 -0.0435 -0.9919
12877TIP3   OH238587   1.828   2.321   0.930 -0.0976  0.3576 -0.2489
12877TIP3    H138588   1.828   2.278   0.845  0.2139 -0.6815  0.2496
12877TIP3    H238589   1.755   2.383   0.926 -0.7988 -0.4728 -0.8886
12878TIP3   OH238590   1.762   5.667   0.879  0.5763  0.1782 -0.1116
12878TIP3    H138591   1.837   5.643   0.934  0.3361 -0.6902 -0.1584
12878TIP3    H238592   1.689   5.614   0.912  0.6413 -1.0958 -1.8725
12879TIP3   OH238593   6.537   3.204   2.319 -0.0843 -0.3285 -0.0237
12879TIP3    H138594   6.598   3.200   2.392 -0.8064 -3.5479  0.5732
12879TIP3    H238595   6.540   3.116   2.281 -1.4750  0.5564 -2.4303
12880TIP3   OH238596   8.034   6.060   1.245  0.1402 -0.5936 -0.5449
12880TIP3    H138597   8.002   6.051   1.335  2.0875 -0.2734  0.2116
12880TIP3    H238598   7.960   6.099   1.198 -0.2210  1.3074  1.4195
12881TIP3   OH238599   3.749   3.136   1.949 -0.3800  0.0846  0.2063
12881TIP3    H138600   3.697   3.084   2.011  0.8811  0.1267  1.3319
12881TIP3    H238601   3.777   3.212   1.999 -1.0107  1.1742 -1.0264
12882TIP3   OH238602   0.277   3.735   4.340 -0.8638 -0.3892  0.1406
12882TIP3    H138603   0.330   3.758   4.416 -0.9366 -0.2674  0.1554
12882TIP3    H238604   0.313   3.652   4.309 -1.0382 -0.5962  0.4948
12883TIP3   OH238605   7.505   5.791   6.449  0.1730  0.3302 -0.2237
12883TIP3    H138606   7.470   5.702   6.459  1.0925 -0.2869 -2.0195
12883TIP3    H238607   7.555   5.806   6.529  0.6375 -1.1025 -0.2174
12884TIP3   OH238608   1.609   1.589   3.137 -0.0876 -0.1391 -0.2437
12884TIP3    H138609   1.694   1.628   3.115 -0.5288  0.4650 -0.9002
12884TIP3    H238610   1.545   1.642   3.090 -0.6706 -1.9821 -1.6795
12885TIP3   OH238611   5.960   7.260   3.954 -0.0843 -0.0357 -0.8594
12885TIP3    H138612   5.949   7.309   3.872  1.4437 -0.3057 -1.2598
12885TIP3    H238613   6.005   7.320   4.012  0.3838 -0.4276 -0.8125
12886TIP3   OH238614   7.040   0.088   4.367 -0.0010 -0.0822  0.7760
12886TIP3    H138615   6.995   0.091   4.451 -2.6080  0.4434 -0.5508
12886TIP3    H238616   6.982   0.037   4.310  0.4475  1.6364 -1.3543
12887TIP3   OH238617   1.769   1.065   2.324  0.0343 -0.9121  0.1462
12887TIP3    H138618   1.753   1.109   2.240 -0.5297 -1.5964 -0.1122
12887TIP3    H238619   1.850   1.015   2.310  0.1907 -0.6664  0.1605
12888TIP3   OH238620   3.896   2.278   2.891 -0.4578  0.1398 -0.6871
12888TIP3    H138621   3.923   2.187   2.903 -1.3928  0.1051  1.7633
12888TIP3    H238622   3.898   2.292   2.797  2.1749 -1.6295 -0.9797
12889TIP3   OH238623   6.031   4.405   0.254  0.7896  0.0677 -0.0991
12889TIP3    H138624   6.031   4.491   0.211  0.2305  0.2757  0.2996
12889TIP3    H238625   5.943   4.371   0.238  0.1265  0.6866  1.8974
12890TIP3   OH238626   4.763   3.914   3.722 -0.5418 -0.0687  0.1015
12890TIP3    H138627   4.829   3.882   3.660  0.7722  0.5767  1.1314
12890TIP3    H238628   4.811   3.930   3.803 -1.9232  0.6558  0.8177
12891TIP3   OH238629   2.368   6.480   2.940 -0.1751  0.6173 -0.1163
12891TIP3    H138630   2.431   6.423   2.983  0.4888  1.0473 -0.4900
12891TIP3    H238631   2.283   6.441   2.959  0.3066 -1.2948 -1.4775
12892TIP3   OH238632   0.979   1.664   1.101 -0.1718 -0.3680 -0.3185
12892TIP3    H138633   0.929   1.671   1.182 -0.7833  0.7635 -0.7671
12892TIP3    H238634   0.916   1.630   1.037 -0.2194  0.4926 -0.7447
12893TIP3   OH238635   7.817   1.059   6.047 -0.4983 -0.0787 -0.5612
12893TIP3    H138636   7.805   1.090   5.958  0.1541  0.4259 -0.4841
12893TIP3    H238637   7.760   1.114   6.100 -1.3995 -0.8263 -0.7386
12894TIP3   OH238638   2.560   1.883   3.368 -0.0496 -0.2154 -0.2486
12894TIP3    H138639   2.584   1.957   3.423  1.5859  0.1196 -1.3255
12894TIP3    H238640   2.641   1.862   3.321 -0.5559 -2.4924 -0.1970
12895TIP3   OH238641   4.703   7.167   2.044 -0.4895  0.0548  0.0993
12895TIP3    H138642   4.639   7.177   2.114 -0.6891 -1.8099  0.2234
12895TIP3    H238643   4.728   7.257   2.021 -0.6262  0.7161  2.3575
12896TIP3   OH238644   1.387   2.230   6.227 -0.0173  0.3360 -0.1914
12896TIP3    H138645   1.444   2.190   6.294  1.9726 -0.0256 -1.9784
12896TIP3    H238646   1.391   2.324   6.245 -1.3852  0.1216  1.5310
12897TIP3   OH238647   5.816   7.250   1.186  0.0111  0.5269  0.5148
12897TIP3    H138648   5.844   7.334   1.149  0.4173  0.7773  1.3743
12897TIP3    H238649   5.858   7.184   1.130  1.0669  0.9008  0.8450
12898TIP3   OH238650   8.218   5.042   2.960 -0.7301 -0.3867 -0.2557
12898TIP3    H138651   8.131   5.070   2.932 -1.3260 -1.5166  0.3618
12898TIP3    H238652   8.236   4.964   2.908 -0.2853 -0.4196 -0.0604
12899TIP3   OH238653   1.353   6.522   6.745  0.3750 -0.1040  0.0688
12899TIP3    H138654   1.329   6.445   6.693  0.3360  1.6820 -2.7748
12899TIP3    H238655   1.271   6.553   6.782 -0.0128 -0.0753 -0.7893
12900TIP3   OH238656   0.515   6.621   4.774 -0.1620  0.0857  0.2469
12900TIP3    H138657   0.500   6.586   4.686 -0.3776  1.4336 -0.2817
12900TIP3    H238658   0.586   6.567   4.810 -1.2537 -1.6155 -0.0603
12901TIP3   OH238659   4.183   4.337   4.715 -0.1494 -0.0108  0.1987
12901TIP3    H138660   4.163   4.398   4.643 -0.5991  0.6138  0.8367
12901TIP3    H238661   4.199   4.254   4.671  2.2405  0.9086 -0.8538
12902TIP3   OH238662   0.856   0.644   6.667  0.2488  0.3838  0.3960
12902TIP3    H138663   0.939   0.655   6.711 -0.2368 -0.0060  1.4379
12902TIP3    H238664   0.815   0.568   6.710  0.2053 -0.6834 -1.4123
12903TIP3   OH238665   7.205   5.863   5.935  0.3313  0.1062  0.3719
12903TIP3    H138666   7.207   5.811   5.854 -2.8479 -1.6490  1.2419
12903TIP3    H238667   7.185   5.800   6.004  3.5418  1.4511  2.7862
12904TIP3   OH238668   6.093   1.813   5.486 -0.4958  0.4239  0.1533
12904TIP3    H138669   6.071   1.721   5.502  1.0099  0.2115  1.2395
12904TIP3    H238670   6.096   1.821   5.391 -1.1297 -0.5202  0.0381
12905TIP3   OH238671   4.681   2.221   4.901 -0.1963  0.2592 -0.1241
12905TIP3    H138672   4.692   2.143   4.847 -1.1787  0.3714 -0.5046
12905TIP3    H238673   4.682   2.188   4.991  1.9124  0.1211 -0.1363
12906TIP3   OH238674   6.336   3.736   6.474  0.6757 -0.1462  0.1638
12906TIP3    H138675   6.379   3.696   6.550 -0.4504  0.3194  1.0777
12906TIP3    H238676   6.245   3.708   6.480  0.5178  0.0803 -0.9002
12907TIP3   OH238677   4.487   4.779   0.530  0.6865 -0.4061  0.1962
12907TIP3    H138678   4.452   4.783   0.619 -0.3304  0.2543 -0.2217
12907TIP3    H238679   4.558   4.714   0.535  0.4589 -0.5794  1.4171
12908TIP3   OH238680   2.406   0.975   3.576  0.4280 -0.4912  0.0439
12908TIP3    H138681   2.355   1.049   3.608 -0.7784 -1.3326  0.1492
12908TIP3    H238682   2.359   0.945   3.498 -0.9942 -3.0885  1.7605
12909TIP3   OH238683   4.681   7.010   4.764  0.3750  0.0867  0.3668
12909TIP3    H138684   4.757   6.960   4.790  0.2573  0.3310  1.2081
12909TIP3    H238685   4.683   7.010   4.668  0.8777 -0.7321  0.3755
12910TIP3   OH238686   2.428   1.601   6.272  0.1545  0.2161 -0.0949
12910TIP3    H138687   2.370   1.671   6.241  0.9305  0.0414 -2.1094
12910TIP3    H238688   2.505   1.647   6.306 -0.2539  0.3755  0.6474
12911TIP3   OH238689   5.729   6.113   4.745 -0.4265  0.2431 -0.0102
12911TIP3    H138690   5.703   6.023   4.769  1.7946 -0.4049  0.1472
12911TIP3    H238691   5.646   6.157   4.725 -1.4645 -2.4533 -2.3032
12912TIP3   OH238692   4.206   0.669   3.015 -0.2423  0.5247 -0.1817
12912TIP3    H138693   4.111   0.666   3.008 -0.4331  2.1713  1.2254
12912TIP3    H238694   4.228   0.762   3.019  1.2992  0.1601  0.8776
12913TIP3   OH238695   5.940   5.612   1.376  0.5799  0.4355 -0.2695
12913TIP3    H138696   6.030   5.643   1.387  0.4640  0.5224  0.4966
12913TIP3    H238697   5.947   5.517   1.382  0.6063  0.4482 -0.0935
12914TIP3   OH238698   8.231   4.482   4.447  0.0336  0.3970 -0.8604
12914TIP3    H138699   8.267   4.418   4.386  0.6700 -1.7699  1.6208
12914TIP3    H238700   8.300   4.548   4.456  1.5530 -1.2709  0.3280
12915TIP3   OH238701   5.478   0.090   3.072 -0.0058 -0.0174 -0.0731
12915TIP3    H138702   5.412   0.100   3.141  1.2847 -0.3127  1.2485
12915TIP3    H238703   5.467   0.000   3.041 -0.0423 -0.1619  0.3519
12916TIP3   OH238704   5.432   5.838   5.585  0.2713  0.1005 -0.1353
12916TIP3    H138705   5.393   5.809   5.503 -1.8300 -0.2826  0.9408
12916TIP3    H238706   5.526   5.840   5.567 -0.1162 -0.0716 -2.4944
12917TIP3   OH238707   7.708   5.053   0.682 -0.4125  0.2679 -0.4539
12917TIP3    H138708   7.708   5.146   0.704 -0.2639  0.2345 -0.3056
12917TIP3    H238709   7.691   5.050   0.588  1.3160  0.5322 -0.8043
12918TIP3   OH238710   7.083   1.197   2.254 -0.5830  0.1773 -0.1407
12918TIP3    H138711   7.033   1.156   2.185 -0.2677 -0.0063 -0.2602
12918TIP3    H238712   7.061   1.148   2.333  1.0878 -1.3452 -0.5638
12919TIP3   OH238713   0.307   6.767   4.873 -0.1967  0.7328  0.1891
12919TIP3    H138714   0.393   6.741   4.839 -0.1347  0.1631  0.7682
12919TIP3    H238715   0.245   6.706   4.833 -0.4455  1.6339 -0.8443
12920TIP3   OH238716   4.565   0.045   0.590  0.1970  0.5049 -1.1191
12920TIP3    H138717   4.497   0.065   0.655  2.2245 -1.3099  1.8263
12920TIP3    H238718   4.631   0.112   0.604  0.9407 -0.2762 -0.7674
12921TIP3   OH238719   6.553   7.545   3.479  0.1648 -0.4742 -0.1301
12921TIP3    H138720   6.534   7.634   3.511 -0.9491 -0.5037 -0.6711
12921TIP3    H238721   6.599   7.503   3.552  1.4505  0.7889 -0.1600
12922TIP3   OH238722   2.755   7.104   3.552 -0.3805 -0.0035  0.0136
12922TIP3    H138723   2.718   7.032   3.501 -1.2135  1.6653 -1.8868
12922TIP3    H238724   2.793   7.163   3.487  0.6195  1.1174  1.5250
12923TIP3   OH238725   5.756   0.883   2.474 -0.1410  0.1322  0.0068
12923TIP3    H138726   5.844   0.917   2.488  0.0645 -0.5587  0.4305
12923TIP3    H238727   5.752   0.803   2.527 -1.2470  0.5134  0.5512
12924TIP3   OH238728   2.213   4.612   2.887  0.2272  0.4332 -0.1642
12924TIP3    H138729   2.214   4.707   2.898 -1.2301  0.5494 -0.8838
12924TIP3    H238730   2.140   4.582   2.941  0.2323 -0.2001 -0.4994
12925TIP3   OH238731   5.003   4.909   0.095  0.3200  0.8997  0.0214
12925TIP3    H138732   4.937   4.840   0.082  0.0428  1.6150 -3.1289
12925TIP3    H238733   5.087   4.864   0.089  0.2763  0.1624  2.9905
12926TIP3   OH238734   4.590   4.984   2.667 -0.1439  0.7031 -0.4325
12926TIP3    H138735   4.684   5.002   2.674 -0.3464  1.2652  1.0946
12926TIP3    H238736   4.584   4.888   2.663  0.3474  0.3696  3.4330
12927TIP3   OH238737   0.579   0.828   5.098  0.1364 -0.8395  0.0842
12927TIP3    H138738   0.498   0.857   5.140  2.1660  0.9217  3.2294
12927TIP3    H238739   0.625   0.778   5.167  1.8684 -1.4916 -1.4516
12928TIP3   OH238740   4.861   4.581   4.301 -0.2536 -0.0805  0.8666
12928TIP3    H138741   4.801   4.651   4.324 -1.3748 -0.6921 -0.0852
12928TIP3    H238742   4.819   4.536   4.227  0.8201 -1.2442  0.9210
12929TIP3   OH238743   7.606   3.426   2.286 -0.1280  0.2759 -0.1167
12929TIP3    H138744   7.606   3.459   2.376  0.9737  0.6949 -0.2546
12929TIP3    H238745   7.576   3.500   2.233 -1.2766 -0.1241 -0.0703
12930TIP3   OH238746   4.494   7.724   2.093  0.0760  0.3731 -0.0729
12930TIP3    H138747   4.588   7.709   2.079  0.3272  0.0903  1.7155
12930TIP3    H238748   4.451   7.655   2.041  0.8901 -0.1319 -0.0968
12931TIP3   OH238749   1.568   5.310   2.122  0.4664 -0.4568 -0.3736
12931TIP3    H138750   1.660   5.327   2.101  1.2718 -2.2706  1.3237
12931TIP3    H238751   1.522   5.388   2.094  2.8307  1.4147  0.5842
12932TIP3   OH238752   3.187   1.848   5.367  0.5667 -0.6590  0.3267
12932TIP3    H138753   3.114   1.877   5.312  0.7085 -2.9563 -1.2427
12932TIP3    H238754   3.146   1.800   5.439  0.4347  1.3631  1.6764
12933TIP3   OH238755   6.648   2.239   2.326  0.6796  0.3935 -0.1409
12933TIP3    H138756   6.630   2.249   2.420 -3.1912 -2.7080 -0.2786
12933TIP3    H238757   6.659   2.145   2.314 -1.0329  0.4540 -3.0584
12934TIP3   OH238758   1.129   1.198   3.925 -0.7096 -0.5829  0.1474
12934TIP3    H138759   1.142   1.262   3.996 -0.0572 -1.8815  1.2291
12934TIP3    H238760   1.187   1.229   3.855  2.0304 -1.6129  1.7916
12935TIP3   OH238761   2.984   6.657   5.027 -0.3910 -0.1625 -0.7267
12935TIP3    H138762   3.078   6.665   5.011 -0.5046  0.8985 -0.9305
12935TIP3    H238763   2.962   6.735   5.079 -1.2161 -0.2080 -0.9925
12936TIP3   OH238764   4.542   7.052   0.092  0.2875 -0.1009 -0.2963
12936TIP3    H138765   4.549   6.964   0.055 -2.4452 -0.2131 -0.7371
12936TIP3    H238766   4.518   7.038   0.184 -1.0061  0.1568 -0.5816
12937TIP3   OH238767   4.357   1.256   6.377 -0.4666  0.2473 -0.3470
12937TIP3    H138768   4.408   1.183   6.343 -1.6390 -0.9254  0.3452
12937TIP3    H238769   4.268   1.222   6.387 -0.5164  0.9343  2.4791
12938TIP3   OH238770   1.767   2.226   1.430  0.1569 -0.1944  0.1324
12938TIP3    H138771   1.772   2.147   1.484 -0.3955 -0.0933  0.3443
12938TIP3    H238772   1.827   2.288   1.472 -0.0691 -0.2067  0.4838
12939TIP3   OH238773   5.142   0.734   0.486 -0.1780 -0.5650 -0.5895
12939TIP3    H138774   5.103   0.797   0.426  0.0968 -1.9117 -2.2482
12939TIP3    H238775   5.205   0.785   0.538 -0.4974  0.6444 -1.3736
12940TIP3   OH238776   2.711   0.627   3.533  0.0494 -0.5109  0.5174
12940TIP3    H138777   2.791   0.658   3.491 -0.3363  0.1208  0.2205
12940TIP3    H238778   2.709   0.533   3.514 -0.8288 -0.0526 -2.2127
12941TIP3   OH238779   3.798   1.907   5.141 -0.5570  0.8215  0.6354
12941TIP3    H138780   3.771   1.831   5.090 -1.0058  2.2132 -1.2855
12941TIP3    H238781   3.739   1.908   5.216 -1.0515 -0.2528  0.2816
12942TIP3   OH238782   2.688   4.468   6.477 -0.1965  0.4785  0.0519
12942TIP3    H138783   2.724   4.386   6.510 -0.7804  0.6578  1.1841
12942TIP3    H238784   2.618   4.490   6.537 -2.2092  0.1694 -2.0478
12943TIP3   OH238785   1.311   1.907   5.015  0.3528 -0.6068  0.7123
12943TIP3    H138786   1.393   1.928   5.060  0.2593 -3.1486  2.2877
12943TIP3    H238787   1.243   1.920   5.081 -0.1739 -1.2213  0.3038
12944TIP3   OH238788   1.212   6.074   6.240  0.3701  0.5091 -0.1951
12944TIP3    H138789   1.194   5.981   6.253 -2.8375  1.0204 -0.2128
12944TIP3    H238790   1.252   6.079   6.154  1.0062 -0.8513 -0.0185
12945TIP3   OH238791   3.255   5.250   1.532 -0.4783 -0.1405 -0.3061
12945TIP3    H138792   3.180   5.289   1.578  0.1761 -1.3677  1.9470
12945TIP3    H238793   3.228   5.159   1.516  0.7686 -0.8043  1.1987
12946TIP3   OH238794   0.156   6.315   2.584  0.1311 -0.5326  0.1198
12946TIP3    H138795   0.132   6.407   2.598 -0.4526 -0.9407  2.2152
12946TIP3    H238796   0.251   6.316   2.572 -0.2038  0.6665 -3.8189
12947TIP3   OH238797   8.146   1.258   2.953 -0.1691  0.3555 -0.0492
12947TIP3    H138798   8.168   1.169   2.925  0.1402  0.4404 -0.0835
12947TIP3    H238799   8.164   1.312   2.875  0.3156  0.5408  0.1848
12948TIP3   OH238800   3.805   2.724   1.250 -0.1496 -0.1339  0.7471
12948TIP3    H138801   3.715   2.755   1.241 -0.3336 -0.7077  0.5511
12948TIP3    H238802   3.805   2.638   1.208  1.2050  1.0698 -2.0473
12949TIP3   OH238803   6.770   7.433   1.290 -0.0458 -0.2246  0.5656
12949TIP3    H138804   6.742   7.519   1.320 -1.0641 -0.3779  0.0919
12949TIP3    H238805   6.844   7.450   1.232 -1.2169  0.4998 -0.7993
12950TIP3   OH238806   1.410   4.440   1.866 -0.0894  0.0555 -0.2227
12950TIP3    H138807   1.455   4.443   1.782  1.5413 -1.7632  0.4974
12950TIP3    H238808   1.481   4.447   1.931 -1.0780 -0.6357  0.9771
12951TIP3   OH238809   8.094   2.249   0.795  0.0987 -0.3418  0.6247
12951TIP3    H138810   8.138   2.306   0.858 -2.2494  1.5754  0.7251
12951TIP3    H238811   8.018   2.216   0.842 -1.1006  0.2436 -0.8097
12952TIP3   OH238812   2.971   6.892   4.106  0.3759  0.0869  0.6941
12952TIP3    H138813   3.030   6.904   4.180 -0.0081  0.3236  0.9714
12952TIP3    H238814   2.970   6.798   4.091  0.1728 -0.0051  1.2382
12953TIP3   OH238815   7.951   7.519   5.730  0.9307 -0.4549 -0.4811
12953TIP3    H138816   7.898   7.500   5.653  0.1748 -2.7036  0.4833
12953TIP3    H238817   8.040   7.531   5.697  0.2336  1.0624 -1.9036
12954TIP3   OH238818   4.335   4.762   3.464  0.8380  0.5475 -0.2028
12954TIP3    H138819   4.384   4.809   3.396  2.7473 -1.8586 -0.6629
12954TIP3    H238820   4.306   4.830   3.524 -0.0842  2.6879 -2.8473
12955TIP3   OH238821   2.658   0.161   4.983  0.6584 -0.2417  0.1866
12955TIP3    H138822   2.730   0.224   4.980  2.1684 -1.9231 -0.3678
12955TIP3    H238823   2.580   0.214   4.965  1.9324  1.3646 -0.9529
12956TIP3   OH238824   4.700   0.533   0.860 -0.0326  0.4714 -0.1976
12956TIP3    H138825   4.694   0.525   0.956 -0.5255 -0.6760 -0.3043
12956TIP3    H238826   4.612   0.560   0.833  0.3801  1.8202 -0.2577
12957TIP3   OH238827   4.177   6.488   4.827  0.0694  0.6843  0.1915
12957TIP3    H138828   4.249   6.470   4.887  0.0590 -0.5184 -0.1295
12957TIP3    H238829   4.185   6.582   4.807  1.1950  0.6900  0.6033
12958TIP3   OH238830   4.843   7.816   0.873  0.3494  0.9815 -0.3035
12958TIP3    H138831   4.756   7.855   0.866  0.9815  2.5477  0.0513
12958TIP3    H238832   4.827   7.722   0.874 -1.3347  1.2323 -0.2045
12959TIP3   OH238833   1.435   7.102   1.730 -0.6043 -0.2101 -0.5393
12959TIP3    H138834   1.413   7.023   1.780 -0.3022 -0.2076 -0.3989
12959TIP3    H238835   1.421   7.174   1.791 -0.3556 -0.1968 -0.4988
12960TIP3   OH238836   7.932   7.380   0.695 -0.4870  0.4630  0.2547
12960TIP3    H138837   7.866   7.446   0.717 -0.6185 -0.2044  1.9978
12960TIP3    H238838   7.903   7.300   0.739  1.3238  0.0709  0.8254
12961TIP3   OH238839   8.271   0.473   1.661 -0.3309  0.8246 -0.1636
12961TIP3    H138840   8.196   0.429   1.700 -0.8735  1.4225 -0.5075
12961TIP3    H238841   8.340   0.406   1.657 -1.3934 -0.2353 -1.4406
12962TIP3   OH238842   6.131   5.806   1.151  0.1978  0.0235  0.0337
12962TIP3    H138843   6.064   5.872   1.136  0.7788  0.1549 -2.5538
12962TIP3    H238844   6.095   5.726   1.113  0.0618 -0.8401  1.8983
12963TIP3   OH238845   6.316   6.176   3.692 -0.2270  0.0326  0.2955
12963TIP3    H138846   6.347   6.256   3.734 -0.2778 -0.3645  1.0914
12963TIP3    H238847   6.316   6.110   3.761  0.0633 -0.7293 -0.4073
12964TIP3   OH238848   5.457   4.384   2.422  0.2198 -0.5528  0.1763
12964TIP3    H138849   5.382   4.379   2.480  0.4030 -1.5103  0.3440
12964TIP3    H238850   5.446   4.311   2.361  0.0017  0.4509 -1.0465
12965TIP3   OH238851   4.334   1.086   4.696  0.5071 -0.4790  0.1186
12965TIP3    H138852   4.421   1.125   4.690 -0.3307  1.4974  0.0322
12965TIP3    H238853   4.274   1.160   4.687 -1.2262 -1.9895 -1.7746
12966TIP3   OH238854   1.010   0.145   3.002  0.0330 -0.0099  0.0751
12966TIP3    H138855   1.062   0.184   3.073  2.5149  1.7630 -2.4919
12966TIP3    H238856   0.928   0.194   3.003 -0.7844 -1.2221  2.7097
12967TIP3   OH238857   1.146   3.618   4.469 -0.3176 -0.6546 -0.1325
12967TIP3    H138858   1.055   3.624   4.439  0.4407 -0.3491 -2.6249
12967TIP3    H238859   1.180   3.707   4.459  0.6638 -1.0849 -0.7972
12968TIP3   OH238860   0.111   4.830   1.961  0.2547 -0.0826  0.0981
12968TIP3    H138861   0.122   4.830   2.056  0.7491  1.2436  0.0615
12968TIP3    H238862   0.143   4.743   1.934 -1.2696 -1.0553  1.2560
12969TIP3   OH238863   3.958   6.749   2.362 -0.4219 -0.4269  0.1206
12969TIP3    H138864   3.935   6.681   2.300  2.3172 -1.3597 -0.0129
12969TIP3    H238865   3.981   6.825   2.307 -0.4168 -0.4250  0.1253
12970TIP3   OH238866   5.323   0.114   4.102 -0.5870 -0.1736  0.1159
12970TIP3    H138867   5.339   0.180   4.169 -0.6996 -0.5007  0.4678
12970TIP3    H238868   5.349   0.032   4.142 -1.6101 -0.5077  0.1328
12971TIP3   OH238869   7.000   2.060   5.597  0.4698 -0.1517  0.1949
12971TIP3    H138870   6.953   2.094   5.521 -1.6055 -0.2995  1.3226
12971TIP3    H238871   7.064   2.128   5.618 -1.8712  2.0013  0.8690
12972TIP3   OH238872   6.799   1.626   2.035 -0.1236  0.3364  0.3588
12972TIP3    H138873   6.793   1.612   1.940 -0.7555 -0.0197  0.4471
12972TIP3    H238874   6.843   1.711   2.043 -0.7735  0.7530 -0.2744
12973TIP3   OH238875   0.682   4.033   4.136  0.5499 -0.2209 -0.0322
12973TIP3    H138876   0.755   4.013   4.194 -1.2138 -2.0208  1.7273
12973TIP3    H238877   0.604   4.002   4.183 -1.0466 -1.5741 -3.2292
12974TIP3   OH238878   2.975   2.900   3.699 -0.1619  0.3951  0.1279
12974TIP3    H138879   3.019   2.977   3.662  0.2561  0.3887  0.6056
12974TIP3    H238880   2.883   2.911   3.674  0.4570 -0.8836 -3.1212
12975TIP3   OH238881   2.460   6.164   1.172 -0.0177  0.4469 -0.2107
12975TIP3    H138882   2.492   6.238   1.224  0.2816 -0.0250  0.2888
12975TIP3    H238883   2.387   6.129   1.222 -0.5242  0.7453 -0.7280
12976TIP3   OH238884   3.647   3.688   0.035 -0.1617  0.0208 -0.0449
12976TIP3    H138885   3.656   3.706   0.129 -1.1964 -2.3097  0.5677
12976TIP3    H238886   3.552   3.684   0.020 -0.0036 -0.3909 -1.0172
12977TIP3   OH238887   5.021   1.087   5.085  0.2313  0.2677 -0.1890
12977TIP3    H138888   4.982   1.115   5.168  0.6211 -0.2504  0.1693
12977TIP3    H238889   5.102   1.043   5.110 -0.4963 -1.4327 -0.7246
12978TIP3   OH238890   1.935   4.967   3.235  0.0191  0.1880  0.3788
12978TIP3    H138891   2.030   4.957   3.233 -0.0243 -0.3913  0.8425
12978TIP3    H238892   1.921   5.053   3.274  0.3623  0.6863 -0.5772
12979TIP3   OH238893   4.091   6.352   0.279 -0.3486 -0.2670  0.1378
12979TIP3    H138894   4.088   6.327   0.372 -0.8679 -3.9833 -0.6957
12979TIP3    H238895   4.184   6.348   0.256 -0.3572 -0.9952  0.1853
12980TIP3   OH238896   3.833   0.879   6.412 -0.2450 -0.4843 -0.2884
12980TIP3    H138897   3.779   0.873   6.491  0.0349  0.0501 -0.0497
12980TIP3    H238898   3.877   0.963   6.420  1.1669 -1.2111 -0.1261
12981TIP3   OH238899   5.278   5.999   2.287  0.0306  0.2223  0.1853
12981TIP3    H138900   5.264   6.008   2.193  4.2132 -0.0278 -0.6579
12981TIP3    H238901   5.215   5.932   2.314 -1.0982  0.0852 -2.4757
12982TIP3   OH238902   8.086   5.300   0.597  0.5009  0.6821  0.0796
12982TIP3    H138903   8.133   5.240   0.655 -1.0816 -1.5429 -0.8056
12982TIP3    H238904   8.119   5.280   0.509 -2.7152 -1.8080 -0.7367
12983TIP3   OH238905   4.874   0.801   0.903 -0.3789 -0.4268 -0.0877
12983TIP3    H138906   4.923   0.848   0.971 -0.8504 -0.8351  0.5396
12983TIP3    H238907   4.831   0.729   0.950  0.0546 -1.2781 -0.9785
12984TIP3   OH238908   5.397   2.127   4.681 -0.0967 -0.2293 -0.2030
12984TIP3    H138909   5.356   2.212   4.665 -0.8368 -0.4642  0.4052
12984TIP3    H238910   5.475   2.148   4.732  0.3927  0.1897 -1.0980
12985TIP3   OH238911   3.103   5.780   5.508 -0.1325 -0.3692 -0.3995
12985TIP3    H138912   3.085   5.872   5.492 -0.8579 -0.0900  1.7041
12985TIP3    H238913   3.021   5.735   5.489  0.0667 -0.5255 -0.9120
12986TIP3   OH238914   2.219   3.084   5.829  0.1146 -0.0119 -0.8608
12986TIP3    H138915   2.176   3.005   5.862 -2.3481  1.5717 -0.0062
12986TIP3    H238916   2.274   3.114   5.901  1.1341 -0.9663 -1.2233
12987TIP3   OH238917   5.461   4.883   5.437  0.7055 -0.6363 -0.4542
12987TIP3    H138918   5.531   4.831   5.476  0.0893 -0.7755  0.4862
12987TIP3    H238919   5.460   4.964   5.487 -0.2931 -0.9396  0.0424
12988TIP3   OH238920   2.014   6.167   3.256 -0.0461 -0.1376  0.0397
12988TIP3    H138921   1.962   6.222   3.198 -0.6091  1.2339  1.7696
12988TIP3    H238922   1.959   6.090   3.271 -0.3282 -0.0284 -0.4204
12989TIP3   OH238923   2.782   0.539   5.267 -0.6892  0.2298 -0.2124
12989TIP3    H138924   2.814   0.574   5.351  0.9138 -0.0098 -0.6908
12989TIP3    H238925   2.719   0.473   5.292  0.1355 -0.1915  0.8551
12990TIP3   OH238926   5.015   4.311   1.008  0.0730  0.2184  0.8094
12990TIP3    H138927   5.013   4.406   0.997 -0.8225  0.0513 -0.8666
12990TIP3    H238928   4.996   4.277   0.920  2.1554 -1.5347  0.9530
12991TIP3   OH238929   6.851   0.537   2.056  0.0415 -0.0774 -0.1430
12991TIP3    H138930   6.808   0.497   2.132  0.0205  2.1104  1.0931
12991TIP3    H238931   6.804   0.619   2.042  1.1610  0.3921 -1.4236
12992TIP3   OH238932   7.553   0.692   5.473  0.4575  0.3880  0.4109
12992TIP3    H138933   7.580   0.753   5.404  1.3548  0.7968  1.1089
12992TIP3    H238934   7.501   0.626   5.427 -0.0008  1.3295 -0.4577
12993TIP3   OH238935   2.224   2.393   0.791 -0.6522  0.0540 -0.0366
12993TIP3    H138936   2.214   2.321   0.854  0.1379 -0.2947 -0.2916
12993TIP3    H238937   2.156   2.456   0.815 -0.9625 -0.5007  0.5759
12994TIP3   OH238938   7.877   3.523  -0.009  0.5283  0.0676 -0.2821
12994TIP3    H138939   7.828   3.512   0.072  1.2080 -0.9012  0.0110
12994TIP3    H238940   7.943   3.589   0.012 -0.2267  0.8999 -0.4886
12995TIP3   OH238941   4.416   7.108   5.209 -1.2418 -0.0235  0.9495
12995TIP3    H138942   4.407   7.153   5.126  1.5854  0.4389  0.8314
12995TIP3    H238943   4.364   7.160   5.270 -1.9074  0.6272 -0.1400
12996TIP3   OH238944   1.656   0.401   4.479 -0.1675 -0.0813  0.8235
12996TIP3    H138945   1.575   0.358   4.507 -1.6821  2.6451  1.0775
12996TIP3    H238946   1.635   0.436   4.392  2.2025 -2.7044 -0.9856
12997TIP3   OH238947   1.987   7.175   5.243  0.2065 -0.1001  0.1556
12997TIP3    H138948   1.966   7.094   5.197  1.9980  0.1066 -1.1486
12997TIP3    H238949   2.056   7.150   5.305  0.0100  0.2317  0.5170
12998TIP3   OH238950   2.682   2.883   2.507  0.8075 -0.0780  0.3221
12998TIP3    H138951   2.650   2.933   2.582  0.6165  0.8780 -0.3778
12998TIP3    H238952   2.776   2.872   2.524  0.5417 -0.9810  1.3038
12999TIP3   OH238953   2.242   2.893   6.616 -0.3547 -0.3027 -0.0502
12999TIP3    H138954   2.260   2.975   6.663 -0.3867 -0.2878 -0.0639
12999TIP3    H238955   2.209   2.833   6.683 -2.1871  0.2837 -0.3736
13000TIP3   OH238956   8.091   5.040   5.672 -0.1421  0.4772  0.5091
13000TIP3    H138957   8.183   5.040   5.649  0.4178 -0.8909  2.4946
13000TIP3    H238958   8.087   5.093   5.752 -0.4709 -2.0882  2.2977
13001TIP3   OH238959   2.546   5.277   1.124 -0.0469 -0.0945  0.2829
13001TIP3    H138960   2.607   5.339   1.085 -0.9515  0.2125 -0.7257
13001TIP3    H238961   2.600   5.203   1.150  0.8722  0.5647  0.3049
13002TIP3   OH238962   5.323   6.833   3.934 -0.3110  0.1912 -0.2237
13002TIP3    H138963   5.248   6.789   3.895 -0.3328  0.1690 -0.1580
13002TIP3    H238964   5.399   6.801   3.885 -0.0269 -1.8749  1.4051
13003TIP3   OH238965   0.337   4.227   4.891  0.2130 -0.1724  0.4171
13003TIP3    H138966   0.430   4.224   4.914 -0.2970 -0.9703  2.5903
13003TIP3    H238967   0.327   4.163   4.820  1.4813  0.7237 -0.6058
13004TIP3   OH238968   0.827   1.021   0.997 -0.3453  0.2664 -0.0151
13004TIP3    H138969   0.891   1.007   0.928 -1.4831  0.2866 -1.1071
13004TIP3    H238970   0.775   1.095   0.966 -1.7625 -0.6157  0.1861
13005TIP3   OH238971   3.782   1.478   0.390  0.0183  0.3397  0.8156
13005TIP3    H138972   3.842   1.529   0.336 -0.1435 -2.0692 -1.8759
13005TIP3    H238973   3.713   1.540   0.415  0.8216  1.8765 -0.6299
13006TIP3   OH238974   3.964   4.339   1.327  0.7839 -0.4720 -0.2499
13006TIP3    H138975   3.987   4.297   1.410 -0.4280 -1.8493 -0.5534
13006TIP3    H238976   3.924   4.422   1.352 -1.0764 -1.5805  0.6949
13007TIP3   OH238977   7.549   4.954   5.075  0.0514  0.0271  0.1297
13007TIP3    H138978   7.596   4.898   5.137  0.9348  0.9128  0.2892
13007TIP3    H238979   7.490   4.894   5.029 -0.9617 -0.5954  2.1126
13008TIP3   OH238980   4.037   5.825   5.581  0.1829 -0.0472  0.6597
13008TIP3    H138981   4.109   5.866   5.533  0.2911  0.3505  1.1510
13008TIP3    H238982   4.002   5.760   5.521  0.3160  0.4378  0.0481
13009TIP3   OH238983   4.999   2.645   1.427  0.4133  0.5518  0.0371
13009TIP3    H138984   5.033   2.730   1.398 -1.4939  1.8164  1.2774
13009TIP3    H238985   4.937   2.620   1.358  0.0914  0.7806  0.2368
13010TIP3   OH238986   7.122   1.303   5.169 -0.1207 -0.1593 -0.1466
13010TIP3    H138987   7.121   1.386   5.215  1.4409 -0.0861 -0.1844
13010TIP3    H238988   7.209   1.266   5.187 -0.1185 -0.9417 -1.5780
13011TIP3   OH238989   6.717   0.362   6.711  0.2281 -0.2462  0.4284
13011TIP3    H138990   6.624   0.361   6.734 -0.0037 -1.2731 -0.4494
13011TIP3    H238991   6.718   0.391   6.620  0.7879 -0.0975  0.4828
13012TIP3   OH238992   5.764   2.810   6.300 -0.1091  0.3597 -0.1325
13012TIP3    H138993   5.794   2.845   6.384 -2.8950  2.2845  0.2077
13012TIP3    H238994   5.787   2.717   6.303  1.3268  0.7102  2.0347
13013TIP3   OH238995   6.725   2.638   1.187 -0.1603  0.2857  0.4368
13013TIP3    H138996   6.706   2.549   1.219 -2.0892  1.0975  1.7335
13013TIP3    H238997   6.668   2.695   1.238 -0.4929  2.1031 -1.7800
13014TIP3   OH238998   1.769   6.799   0.926 -0.0710 -0.2220  0.5813
13014TIP3    H138999   1.862   6.780   0.938  0.7148  2.0851 -1.1848
13014TIP3    H239000   1.766   6.887   0.889 -2.8776 -0.9187 -1.1881
13015TIP3   OH239001   6.395   5.362   2.566 -0.8600 -0.5566 -0.6479
13015TIP3    H139002   6.482   5.323   2.559 -0.3503  0.3360  0.3013
13015TIP3    H239003   6.412   5.456   2.569 -1.8968 -0.3541 -0.8455
13016TIP3   OH239004   4.336   1.642   0.966 -0.0633 -0.3587 -0.5195
13016TIP3    H139005   4.361   1.718   1.020  0.2181  0.7487 -2.1519
13016TIP3    H239006   4.374   1.567   1.012 -0.1788  0.4768  1.0391
13017TIP3   OH239007   0.272   1.579   6.425 -0.3551  0.2039  0.0618
13017TIP3    H139008   0.191   1.619   6.391 -0.8802 -0.8253  0.0546
13017TIP3    H239009   0.242   1.500   6.470  0.4970  0.7109  1.5612
13018TIP3   OH239010   1.176   3.921   4.455 -0.3918  0.1791 -0.1925
13018TIP3    H139011   1.213   3.958   4.375  1.3466 -0.5424  0.2213
13018TIP3    H239012   1.140   3.996   4.503 -0.2104  0.8024 -1.0189
13019TIP3   OH239013   1.482   0.247   0.115 -1.0376  0.3292  0.3170
13019TIP3    H139014   1.440   0.329   0.140  0.4247  1.4314 -0.6923
13019TIP3    H239015   1.409   0.186   0.101 -2.2091  1.7441  0.0794
13020TIP3   OH239016   5.345   2.628   5.153 -0.1006  0.0383 -0.2048
13020TIP3    H139017   5.414   2.579   5.198  2.0767  2.9982 -0.0120
13020TIP3    H239018   5.376   2.637   5.063 -1.3534 -0.4348 -0.7116
13021TIP3   OH239019   2.409   6.592   3.639 -0.3378 -0.3857  0.2159
13021TIP3    H139020   2.500   6.568   3.658  0.3457  1.3532 -0.6543
13021TIP3    H239021   2.398   6.679   3.677 -2.2267 -1.2396  1.8380
13022TIP3   OH239022   1.337   2.196   1.367 -0.1363  0.2631 -0.8473
13022TIP3    H139023   1.288   2.277   1.354 -1.0086 -0.1227 -0.0885
13022TIP3    H239024   1.355   2.194   1.461 -1.6332 -1.2196 -0.5260
13023TIP3   OH239025   6.935   2.553   5.203 -0.1986  0.0063 -0.7677
13023TIP3    H139026   6.843   2.572   5.224  0.0055  0.2878 -0.1088
13023TIP3    H239027   6.936   2.542   5.108 -0.8042  0.6334 -0.8546
13024TIP3   OH239028   1.475   4.999   6.429  0.1106  0.7422  0.1904
13024TIP3    H139029   1.541   4.987   6.497  0.6505  1.1651 -0.2506
13024TIP3    H239030   1.402   4.943   6.456  0.1099  1.2773  1.3759
13025TIP3   OH239031   6.165   6.814   5.829  0.3376  0.0278  0.1933
13025TIP3    H139032   6.199   6.781   5.912 -0.4160 -2.0935 -0.2933
13025TIP3    H239033   6.172   6.910   5.837  0.0443 -0.0893  2.7938
13026TIP3   OH239034   0.166   6.520   0.517 -1.2012 -0.2884 -0.5321
13026TIP3    H139035   0.122   6.460   0.577 -1.6237  0.4212 -0.1162
13026TIP3    H239036   0.097   6.552   0.459 -1.3163  0.9888  0.2538
13027TIP3   OH239037   2.594   4.809   5.650  0.5597  0.1152  0.4219
13027TIP3    H139038   2.513   4.835   5.692 -0.4419 -1.5273 -0.3677
13027TIP3    H239039   2.605   4.870   5.577 -1.5787 -1.3032 -1.2345
13028TIP3   OH239040   7.501   4.711   3.508  0.3777  0.1489  0.3985
13028TIP3    H139041   7.499   4.711   3.604 -1.7904  0.0663  0.4047
13028TIP3    H239042   7.416   4.747   3.483  1.0339  0.4570 -1.5103
13029TIP3   OH239043   4.804   3.474   0.183  0.0071  0.2135  0.5136
13029TIP3    H139044   4.871   3.427   0.133  0.7152  2.5800 -0.8820
13029TIP3    H239045   4.727   3.474   0.126  0.2433  1.3415  0.1803
13030TIP3   OH239046   8.091   0.223   2.523 -0.2464  0.0680  0.2299
13030TIP3    H139047   8.159   0.171   2.481 -1.2866 -1.1966  0.0329
13030TIP3    H239048   8.041   0.160   2.575 -1.6410  0.8202 -0.1251
13031TIP3   OH239049   0.133   1.850   6.150 -0.6713 -0.5267  0.0929
13031TIP3    H139050   0.051   1.888   6.182  0.0273 -0.8358  2.3997
13031TIP3    H239051   0.185   1.926   6.123 -2.0689 -0.3784 -2.5646
13032TIP3   OH239052   1.517   3.095   0.263 -0.4174  0.0639  0.1149
13032TIP3    H139053   1.530   3.059   0.175 -2.0295  0.1284 -0.1777
13032TIP3    H239054   1.531   3.189   0.253 -0.3164  0.0375 -0.0035
13033TIP3   OH239055   7.349   3.591   6.772  0.1574  0.1039 -0.2087
13033TIP3    H139056   7.302   3.674   6.769 -0.7759 -0.4249 -0.7276
13033TIP3    H239057   7.392   3.586   6.686  0.2271  0.0522 -0.1707
13034TIP3   OH239058   7.569   0.999   3.328 -0.2571  0.3040  0.0189
13034TIP3    H139059   7.514   1.058   3.277 -0.9143  0.1276  0.5062
13034TIP3    H239060   7.507   0.950   3.383  0.5184  1.8719  2.4723
13035TIP3   OH239061   7.962   4.624   3.930  0.7076  0.4487  0.6526
13035TIP3    H139062   7.880   4.599   3.973  0.4203  2.3926  1.3574
13035TIP3    H239063   8.015   4.660   4.001  1.7280  0.2937 -0.0132
13036TIP3   OH239064   2.662   0.477   4.796 -0.6391  0.1467  0.1066
13036TIP3    H139065   2.717   0.424   4.853 -0.1975  0.9856  0.4805
13036TIP3    H239066   2.587   0.501   4.850 -0.6722  0.1755  0.0482
13037TIP3   OH239067   7.115   2.345   6.751 -0.0132 -0.1148  0.2341
13037TIP3    H139068   7.104   2.431   6.712  0.1985 -0.1684  0.0554
13037TIP3    H239069   7.143   2.363   6.841 -1.8627  0.0251  0.8128
13038TIP3   OH239070   7.474   1.249   2.551  0.1448 -0.1255 -0.0861
13038TIP3    H139071   7.446   1.158   2.539 -1.2905 -0.1377  2.6112
13038TIP3    H239072   7.461   1.290   2.465 -1.7336 -1.8189 -0.6815
13039TIP3   OH239073   5.376   2.550   2.687 -0.6431  0.0761 -0.1369
13039TIP3    H139074   5.352   2.586   2.772  0.0509  0.7901 -0.2356
13039TIP3    H239075   5.313   2.588   2.626  1.4471  3.1268 -0.6420
13040TIP3   OH239076   5.924   7.647   6.404 -0.0069  0.5631 -0.4092
13040TIP3    H139077   5.933   7.579   6.337  0.3083  1.8157 -1.6659
13040TIP3    H239078   6.012   7.684   6.413  0.0909  0.0257  1.1479
13041TIP3   OH239079   0.968   0.955   0.416  0.5045 -0.0026  0.1222
13041TIP3    H139080   0.981   0.866   0.381  1.1069 -0.0071  0.3557
13041TIP3    H239081   0.991   0.948   0.508  0.0937  0.2957  0.2508
13042TIP3   OH239082   8.163   2.787   4.602  0.2632  0.3253 -0.0616
13042TIP3    H139083   8.132   2.718   4.662  1.0070 -0.8175 -0.9575
13042TIP3    H239084   8.238   2.825   4.647 -0.1955  0.6281  0.4722
13043TIP3   OH239085   1.919   3.601   2.402  0.3431 -0.0143  0.2194
13043TIP3    H139086   1.989   3.536   2.413  2.1735  1.7934 -0.0943
13043TIP3    H239087   1.933   3.636   2.314 -0.6712  0.7323  0.3383
13044TIP3   OH239088   7.086   6.632   1.246  0.3554  0.2276 -0.7248
13044TIP3    H139089   7.161   6.572   1.250 -0.7987 -1.2065  2.6705
13044TIP3    H239090   7.069   6.656   1.337 -2.0345  2.2092 -1.5817
13045TIP3   OH239091   5.918   2.762   0.258 -0.5699  0.4775 -0.2214
13045TIP3    H139092   5.957   2.686   0.301 -2.2964 -0.6255 -0.5159
13045TIP3    H239093   5.892   2.819   0.330 -0.5486  0.1358  0.0603
13046TIP3   OH239094   3.905   1.933   6.759  0.2152  0.8798  0.3058
13046TIP3    H139095   3.908   2.024   6.788  0.8610  1.1862 -0.6730
13046TIP3    H239096   3.834   1.931   6.694  0.2397  0.6999  0.2854
13047TIP3   OH239097   3.175   3.783   3.985  0.1330  0.0205  0.3668
13047TIP3    H139098   3.140   3.719   3.922  1.8117 -2.7772  2.0670
13047TIP3    H239099   3.270   3.772   3.980  0.4181  1.6201  1.5616
13048TIP3   OH239100   2.302   0.436   1.945 -0.6231  0.2650  0.3422
13048TIP3    H139101   2.253   0.434   2.027 -2.1038 -1.0452 -0.5217
13048TIP3    H239102   2.235   0.438   1.877  0.5779  1.2294 -0.8557
13049TIP3   OH239103   5.821   5.278   0.459 -0.1892 -0.0486 -0.0233
13049TIP3    H139104   5.815   5.254   0.366  1.7533 -1.0305  0.0565
13049TIP3    H239105   5.787   5.367   0.463  0.8559  0.4906 -1.9118
13050TIP3   OH239106   0.658   1.038   6.497  0.6773  0.0303 -0.3957
13050TIP3    H139107   0.642   1.129   6.523  1.5205 -0.4108  1.8875
13050TIP3    H239108   0.745   1.018   6.534  1.9090 -0.8019 -3.4662
13051TIP3   OH239109   6.085   0.575   5.404  0.0041  0.1515  0.6681
13051TIP3    H139110   6.083   0.482   5.382  0.5423  0.3674 -0.3714
13051TIP3    H239111   6.067   0.620   5.321 -1.2261  0.9642  1.3450
13052TIP3   OH239112   7.343   5.540   4.207  0.9009 -0.5166 -0.5020
13052TIP3    H139113   7.408   5.603   4.177 -0.3279 -0.2820 -2.8583
13052TIP3    H239114   7.266   5.557   4.153 -0.5270 -1.9877  0.9537
13053TIP3   OH239115   2.975   1.095   1.510  0.4824 -0.4564 -0.1316
13053TIP3    H139116   2.926   1.091   1.428  0.9582  1.0603 -0.5218
13053TIP3    H239117   2.908   1.084   1.578 -0.2987  0.7338 -0.6707
13054TIP3   OH239118   5.605   3.487   1.009  0.3245  0.4022 -0.3056
13054TIP3    H139119   5.696   3.462   0.992  0.4141  1.0073 -0.7732
13054TIP3    H239120   5.610   3.549   1.081  0.1027 -0.8887  0.8528
13055TIP3   OH239121   4.841   2.203   1.720 -0.4542  0.3183 -0.5163
13055TIP3    H139122   4.769   2.178   1.662 -3.5568 -0.5698  3.2865
13055TIP3    H239123   4.799   2.224   1.804  3.6247  1.5248  1.5222
13056TIP3   OH239124   5.150   1.943   6.631 -0.8428 -0.8371 -0.1310
13056TIP3    H139125   5.187   1.993   6.558 -0.2800  0.9216  1.2806
13056TIP3    H239126   5.210   1.870   6.643  0.1677 -0.0419 -0.2105
13057TIP3   OH239127   1.225   2.548   3.948  0.0402 -0.2417 -0.1906
13057TIP3    H139128   1.286   2.615   3.917  1.3639 -1.9815 -1.5378
13057TIP3    H239129   1.273   2.500   4.015  0.0619 -1.4014 -1.0013
13058TIP3   OH239130   4.216   7.431   3.960  0.2410  0.2857 -0.6212
13058TIP3    H139131   4.162   7.509   3.961 -1.8116 -1.0363  1.2874
13058TIP3    H239132   4.190   7.384   3.881 -1.8175 -0.5217  0.4666
13059TIP3   OH239133   6.006   7.418   1.939 -0.3222 -0.1472  0.0793
13059TIP3    H139134   6.019   7.419   1.845  0.7893 -1.0912  0.2082
13059TIP3    H239135   6.005   7.511   1.964 -0.2167  0.0971 -0.7958
13060TIP3   OH239136   2.547   6.660   6.588 -0.3442  0.0620 -0.0969
13060TIP3    H139137   2.524   6.570   6.561  0.6659  0.1745 -1.4623
13060TIP3    H239138   2.637   6.671   6.558 -0.2709  1.3614  0.5560
13061TIP3   OH239139   4.005   4.229   5.286 -0.0177 -0.2959  0.2267
13061TIP3    H139140   3.988   4.167   5.216 -0.5685  1.6747 -1.5093
13061TIP3    H239141   4.056   4.299   5.244 -1.6518  1.6806  1.3390
13062TIP3   OH239142   1.660   4.532   2.922  0.2156  0.4719 -0.4124
13062TIP3    H139143   1.606   4.542   2.843  0.1262 -0.8328 -0.5539
13062TIP3    H239144   1.723   4.464   2.898 -0.0370 -0.1881  0.7483
13063TIP3   OH239145   2.433   3.198   0.338 -0.3565 -0.1794 -0.4061
13063TIP3    H139146   2.464   3.137   0.271  2.3890 -0.4806  1.0127
13063TIP3    H239147   2.433   3.148   0.419 -2.3980  0.5393  0.1031
13064TIP3   OH239148   7.023   3.542   1.968  0.3305 -0.1194  0.6856
13064TIP3    H139149   6.960   3.580   2.030  0.6062 -0.3274  1.0949
13064TIP3    H239150   6.999   3.581   1.884 -0.0187  0.2035  0.9272
13065TIP3   OH239151   2.367   1.753   2.998  0.7239 -0.4237  0.0617
13065TIP3    H139152   2.357   1.815   2.925  0.2917  1.0535  1.3378
13065TIP3    H239153   2.360   1.667   2.956 -2.0567  0.3520 -1.3870
13066TIP3   OH239154   0.892   7.507   0.998  0.3241  0.2024  0.4504
13066TIP3    H139155   0.828   7.519   0.928 -0.9760 -2.1295  1.1262
13066TIP3    H239156   0.972   7.547   0.965 -1.5266  3.6549 -0.2335
13067TIP3   OH239157   3.457   2.525   5.693 -0.3742 -0.0556  0.6252
13067TIP3    H139158   3.427   2.439   5.665  0.8908 -0.6541  1.0125
13067TIP3    H239159   3.539   2.508   5.740  0.4009  1.4337 -0.0921
13068TIP3   OH239160   5.066   6.093   1.581 -0.0661 -0.5811 -0.5147
13068TIP3    H139161   5.073   6.147   1.660 -0.1698 -1.3944  0.0728
13068TIP3    H239162   5.119   6.138   1.516 -0.6996  0.5865 -0.2532
13069TIP3   OH239163   7.175   7.591   4.639 -0.3346  0.0654  0.4932
13069TIP3    H139164   7.263   7.596   4.601 -0.7361 -0.6852 -0.5981
13069TIP3    H239165   7.143   7.681   4.639 -0.0237  0.1882 -0.2794
13070TIP3   OH239166   0.161   0.417   5.957  0.0547  0.1025  1.3503
13070TIP3    H139167   0.127   0.344   6.009  1.6750  0.0710  2.4324
13070TIP3    H239168   0.164   0.490   6.018  0.5427  0.4823  0.8777
13071TIP3   OH239169   6.551   6.143   3.948 -0.2941  0.6322 -0.4491
13071TIP3    H139170   6.556   6.147   3.852  0.5479 -0.3378 -0.4593
13071TIP3    H239171   6.575   6.054   3.970  0.9515  1.2259  0.7512
13072TIP3   OH239172   3.865   0.477   3.615  0.2639 -0.6448 -0.7615
13072TIP3    H139173   3.943   0.424   3.598  0.7663 -0.0030 -0.5087
13072TIP3    H239174   3.891   0.536   3.686 -0.3379 -0.1903 -0.9057
13073TIP3   OH239175   0.641   6.028   5.269  0.3409 -0.5029  0.1246
13073TIP3    H139176   0.720   6.052   5.317  0.4061  1.1381 -0.7486
13073TIP3    H239177   0.661   5.941   5.232  1.7015 -0.1656  0.0093
13074TIP3   OH239178   2.871   5.252   2.366 -0.3853  0.6078  0.6611
13074TIP3    H139179   2.928   5.295   2.302 -1.4844  0.6073 -0.3545
13074TIP3    H239180   2.839   5.323   2.421 -1.7643  1.0577 -0.6698
13075TIP3   OH239181   1.348   5.233   0.195 -0.0625  0.3346 -0.0662
13075TIP3    H139182   1.344   5.272   0.107 -1.8042  0.0301 -0.1533
13075TIP3    H239183   1.324   5.142   0.182 -0.0301  0.2135  0.6985
13076TIP3   OH239184   2.936   1.634   6.262 -0.1399 -0.3561  0.7284
13076TIP3    H139185   2.883   1.706   6.295 -2.0905 -0.2966 -2.1610
13076TIP3    H239186   2.886   1.555   6.283 -0.4793 -0.4423 -0.3225
13077TIP3   OH239187   6.742   5.070   1.278  0.3610 -0.2489  0.1192
13077TIP3    H139188   6.656   5.080   1.321  0.0088  0.6662 -0.7588
13077TIP3    H239189   6.795   5.140   1.317  0.1054  0.4432 -0.7436
13078TIP3   OH239190   3.978   1.400   2.235 -0.4311 -0.3794  0.0785
13078TIP3    H139191   4.073   1.398   2.237 -0.3805 -0.2586 -1.2138
13078TIP3    H239192   3.952   1.434   2.320  0.6420 -1.1915  0.7513
13079TIP3   OH239193   3.736   3.793   1.576 -0.0094  0.2272  0.0880
13079TIP3    H139194   3.650   3.836   1.581  0.9941  2.2647  0.9278
13079TIP3    H239195   3.755   3.788   1.482 -0.8270  0.2069 -0.0836
13080TIP3   OH239196   3.985   2.549   0.664 -0.0064 -0.3089 -0.0536
13080TIP3    H139197   3.968   2.457   0.685 -1.0347 -0.4906 -1.5560
13080TIP3    H239198   4.011   2.548   0.572  1.2318  0.7905  0.2599
13081TIP3   OH239199   5.306   2.599   3.177  0.4161 -0.5123  0.6064
13081TIP3    H139200   5.355   2.594   3.258  1.9332 -0.3135 -0.2561
13081TIP3    H239201   5.262   2.684   3.181  0.2122 -0.6468  1.3485
13082TIP3   OH239202   5.561   5.705   0.720  0.2415  0.8705 -0.2682
13082TIP3    H139203   5.630   5.729   0.659  0.6590 -0.0527 -0.1766
13082TIP3    H239204   5.606   5.655   0.788 -0.5926 -0.1884 -0.4792
13083TIP3   OH239205   1.000   5.165   1.841  0.2889 -0.0755 -0.6229
13083TIP3    H139206   0.949   5.169   1.922  1.0243  1.8547 -0.1895
13083TIP3    H239207   0.936   5.180   1.772  0.0012  0.6697 -0.2066
13084TIP3   OH239208   7.280   4.808   4.850  0.3258  0.1746 -0.5588
13084TIP3    H139209   7.255   4.899   4.867  0.2468 -0.1795  1.3465
13084TIP3    H239210   7.295   4.805   4.755 -1.3137  1.7686 -0.9222
13085TIP3   OH239211   1.088   2.604   5.238 -0.4233  0.2477  0.1936
13085TIP3    H139212   1.177   2.589   5.269  0.2465  1.5836 -0.9339
13085TIP3    H239213   1.035   2.608   5.318  0.6934  0.3660  0.9535
13086TIP3   OH239214   3.582   2.549   0.717  0.5599  0.7544 -0.4180
13086TIP3    H139215   3.529   2.541   0.637 -2.0281 -0.1115  1.2355
13086TIP3    H239216   3.653   2.487   0.704  1.2928  1.9422 -2.7534
13087TIP3   OH239217   7.547   5.651   3.829  0.1446  0.2300 -0.5319
13087TIP3    H139218   7.573   5.564   3.798 -1.3330 -1.1902  1.8906
13087TIP3    H239219   7.565   5.709   3.755  0.1675 -2.3042 -2.6638
13088TIP3   OH239220   7.908   3.574   2.538  0.1768 -0.5499 -0.2994
13088TIP3    H139221   7.957   3.649   2.570 -0.0204 -0.7811  0.5887
13088TIP3    H239222   7.890   3.522   2.617 -4.6757  1.2937  0.1336
13089TIP3   OH239223   1.050   2.058   0.861 -0.0570 -0.0598  0.3020
13089TIP3    H139224   1.061   2.144   0.901 -1.7618  0.1001  0.4851
13089TIP3    H239225   1.108   2.001   0.911 -1.1253  0.4080  2.1519
13090TIP3   OH239226   5.675   1.562   2.294 -0.2540 -0.4238  0.1278
13090TIP3    H139227   5.629   1.621   2.234  2.4801  2.1778  0.3737
13090TIP3    H239228   5.698   1.487   2.239  1.0036  1.2757 -1.8278
13091TIP3   OH239229   0.862   0.958   2.294 -0.2629  0.0833  0.0343
13091TIP3    H139230   0.797   0.889   2.283 -0.2319  0.2588 -1.4829
13091TIP3    H239231   0.865   1.002   2.209  0.0908  1.6239  0.8028
13092TIP3   OH239232   7.697   3.216   3.130 -0.1843 -0.4464 -0.6153
13092TIP3    H139233   7.693   3.121   3.131 -0.0410 -0.5362  2.5776
13092TIP3    H239234   7.671   3.241   3.041 -1.2323 -3.4010 -1.2321
13093TIP3   OH239235   2.857   7.429   1.671  0.4386  0.4373 -0.5664
13093TIP3    H139236   2.910   7.349   1.668  0.9647  0.8012 -1.7881
13093TIP3    H239237   2.915   7.497   1.635 -0.1882  1.2609 -0.0573
13094TIP3   OH239238   0.549   2.032   3.804 -0.2339  0.0779 -0.0075
13094TIP3    H139239   0.476   2.026   3.866 -1.6064  1.0832 -1.4215
13094TIP3    H239240   0.532   2.114   3.756  0.6523 -0.7444 -1.8145
13095TIP3   OH239241   3.850   1.360   5.162  0.2286 -0.1849  0.0480
13095TIP3    H139242   3.831   1.360   5.069 -0.8768  0.4567  0.2522
13095TIP3    H239243   3.838   1.451   5.189 -0.0793 -0.4720  0.9291
13096TIP3   OH239244   2.124   1.843   3.986  0.2940  0.2934  0.1132
13096TIP3    H139245   2.138   1.886   3.901 -1.5330  0.5863 -0.0727
13096TIP3    H239246   2.183   1.767   3.983  1.9604  1.5348 -0.4408
13097TIP3   OH239247   1.336   0.949   1.115  0.4021  0.2513  0.7006
13097TIP3    H139248   1.312   0.977   1.027  1.0326 -0.3108  0.3345
13097TIP3    H239249   1.416   0.998   1.136  1.1591 -0.7755  0.3027
13098TIP3   OH239250   3.121   3.811   2.379 -0.2785 -0.9780 -0.1247
13098TIP3    H139251   3.105   3.828   2.472 -1.3524  0.4476 -0.5318
13098TIP3    H239252   3.083   3.886   2.334 -0.1996 -1.8664 -1.7584
13099TIP3   OH239253   6.980   5.206   4.496  0.0174 -0.1093  0.0331
13099TIP3    H139254   7.000   5.297   4.521 -1.2064  0.2151 -0.1288
13099TIP3    H239255   7.047   5.184   4.432 -0.3002  1.0588 -0.7341
13100TIP3   OH239256   5.390   1.517   0.072  0.1870 -0.2001  0.1919
13100TIP3    H139257   5.387   1.457  -0.002 -0.2067  1.2291 -1.0015
13100TIP3    H239258   5.423   1.599   0.035  0.2473  0.4724  1.6627
13101TIP3   OH239259   1.982   1.569   3.592  0.1868 -0.1168 -0.1862
13101TIP3    H139260   1.968   1.643   3.652  2.9258 -0.5466  1.1229
13101TIP3    H239261   1.996   1.609   3.507  0.4845  0.7958  0.2778
13102TIP3   OH239262   7.268   7.733   4.028 -0.2819 -0.2600  0.1383
13102TIP3    H139263   7.353   7.775   4.020 -0.8336  0.9105  0.1612
13102TIP3    H239264   7.267   7.696   4.116 -0.1629  0.5899  0.5048
13103TIP3   OH239265   0.821   0.521   5.615 -0.1080 -0.1810 -0.3013
13103TIP3    H139266   0.805   0.457   5.685 -1.4343  0.2766 -0.1626
13103TIP3    H239267   0.757   0.591   5.631 -0.7937 -0.2931 -2.2497
13104TIP3   OH239268   4.902   5.611   4.395  0.4090  0.4950  0.2674
13104TIP3    H139269   4.985   5.618   4.443  0.1181 -1.3472  1.1355
13104TIP3    H239270   4.837   5.592   4.463 -0.4926  0.5331 -0.5659
13105TIP3   OH239271   4.356   7.057   1.635 -0.3916 -0.2891 -0.4608
13105TIP3    H139272   4.354   7.150   1.656 -0.5919 -0.2561 -0.6307
13105TIP3    H239273   4.406   7.052   1.553 -0.3696 -0.3321 -0.4449
13106TIP3   OH239274   6.654   4.635   2.509 -0.4188  0.2531 -0.4112
13106TIP3    H139275   6.565   4.622   2.542 -0.0830 -0.5109  0.2224
13106TIP3    H239276   6.681   4.719   2.546 -1.0988  0.7928 -1.1190
13107TIP3   OH239277   5.775   2.947   4.419  0.0237 -0.6864 -0.1807
13107TIP3    H139278   5.694   2.996   4.408 -0.7393 -2.2868 -2.3558
13107TIP3    H239279   5.844   3.012   4.410 -0.9766  0.3908 -0.2714
13108TIP3   OH239280   1.802   6.542   2.167 -0.6635 -0.2894 -0.3933
13108TIP3    H139281   1.732   6.518   2.228 -0.5590 -1.7812 -0.8263
13108TIP3    H239282   1.788   6.486   2.091  0.9318 -0.5488 -0.5334
13109TIP3   OH239283   4.414   2.108   4.274  0.1098  0.0816  0.4665
13109TIP3    H139284   4.366   2.190   4.267 -0.1529  0.0249  1.4279
13109TIP3    H239285   4.501   2.127   4.237 -0.3669  0.4206 -0.4984
13110TIP3   OH239286   6.820   0.892   6.406 -0.0911  0.3387 -0.0016
13110TIP3    H139287   6.819   0.827   6.476  0.9095 -0.1073 -0.3843
13110TIP3    H239288   6.870   0.850   6.336  0.6814  1.5639 -0.2079
13111TIP3   OH239289   3.344   2.375   1.444 -0.0241 -0.2230 -0.6462
13111TIP3    H139290   3.293   2.352   1.522 -0.7940 -1.6199 -1.5194
13111TIP3    H239291   3.384   2.459   1.465 -2.4994  0.8244  0.1730
13112TIP3   OH239292   7.417   6.752   2.876  0.4977 -0.3168 -0.1736
13112TIP3    H139293   7.501   6.792   2.899  0.1235  0.1099  0.4902
13112TIP3    H239294   7.357   6.825   2.869  0.2415 -0.5961 -0.9501
13113TIP3   OH239295   0.065   7.765   3.374  0.3308 -0.1495  0.0855
13113TIP3    H139296   0.076   7.773   3.279 -0.7945 -0.2910 -0.0653
13113TIP3    H239297  -0.006   7.702   3.385 -0.1062  0.4888  1.0167
13114TIP3   OH239298   3.047   3.420   5.748 -0.0712 -0.1938  0.5267
13114TIP3    H139299   2.960   3.397   5.715 -0.0440 -0.5060  0.6658
13114TIP3    H239300   3.034   3.504   5.793 -0.7670 -1.2368  2.4146
13115TIP3   OH239301   4.631   4.881   1.458  0.0972  0.2222 -0.2176
13115TIP3    H139302   4.676   4.857   1.377 -0.1550  1.4531 -0.7478
13115TIP3    H239303   4.694   4.935   1.505 -0.9456  2.4649 -1.2377
13116TIP3   OH239304   6.439   5.079   4.072  0.0176 -0.5251  0.0482
13116TIP3    H139305   6.524   5.109   4.103 -0.1764  0.2288 -0.1464
13116TIP3    H239306   6.384   5.157   4.070  0.2364 -0.3365 -2.9131
13117TIP3   OH239307   7.171   6.284   5.446  0.0388  0.2585 -0.1879
13117TIP3    H139308   7.189   6.198   5.408 -0.9528  0.1867 -0.5524
13117TIP3    H239309   7.111   6.266   5.519 -0.7571  0.6795 -0.7145
13118TIP3   OH239310   7.809   1.849   1.515  0.0298 -0.7981  0.5124
13118TIP3    H139311   7.878   1.910   1.542 -0.8042  0.4969 -0.1963
13118TIP3    H239312   7.846   1.763   1.532  0.5269 -0.1173  3.2962
13119TIP3   OH239313   6.954   3.077   2.449  1.0920 -0.1326  0.2415
13119TIP3    H139314   6.922   2.987   2.444  0.5051  0.1395 -1.6922
13119TIP3    H239315   7.044   3.073   2.416  1.5276 -0.1792  1.3754
13120TIP3   OH239316   4.825   6.389   1.127  0.2289 -0.1374 -0.0500
13120TIP3    H139317   4.846   6.465   1.071  2.2180 -0.1704  0.5839
13120TIP3    H239318   4.876   6.317   1.090 -0.6152 -0.8483  0.1516
13121TIP3   OH239319   7.926   2.562   6.720 -0.1098 -0.5362  0.0683
13121TIP3    H139320   7.851   2.523   6.764  0.0528  0.4725  1.3050
13121TIP3    H239321   7.909   2.656   6.723  1.2385 -0.2863  0.4603
13122TIP3   OH239322   3.658   1.081   6.068 -0.4559 -0.0819 -0.0417
13122TIP3    H139323   3.635   0.994   6.099 -0.0386 -0.4920 -0.8489
13122TIP3    H239324   3.615   1.141   6.128 -0.6430 -0.8494  0.5929
13123TIP3   OH239325   2.637   0.567   1.884 -0.3500  0.0462  0.4245
13123TIP3    H139326   2.689   0.645   1.865  1.9223 -1.6571 -0.7302
13123TIP3    H239327   2.564   0.571   1.822 -0.6223  1.5195  0.7935
13124TIP3   OH239328   6.766   6.112   5.787  0.4441  0.0757  1.1110
13124TIP3    H139329   6.840   6.155   5.745 -1.4172 -0.6285 -3.4163
13124TIP3    H239330   6.797   6.024   5.806  0.3496 -1.0202 -2.9469
13125TIP3   OH239331   0.318   7.260   2.248 -0.0759 -0.1247 -0.2038
13125TIP3    H139332   0.252   7.230   2.185 -1.5127  1.4422  0.5044
13125TIP3    H239333   0.281   7.240   2.333  0.3137  0.8682  0.2092
13126TIP3   OH239334   5.885   1.819   2.235 -0.0719  0.0434 -0.1394
13126TIP3    H139335   5.974   1.782   2.237  0.3936  0.9523 -1.7383
13126TIP3    H239336   5.828   1.744   2.219  0.3320 -0.6147  1.3224
13127TIP3   OH239337   3.920   4.354   2.063 -0.8055 -0.2465 -0.2704
13127TIP3    H139338   3.850   4.369   1.999 -0.9407 -1.2331 -0.3786
13127TIP3    H239339   3.884   4.287   2.121 -0.1577 -0.3592  0.0065
13128TIP3   OH239340   8.258   5.267   3.841  0.1082 -0.2537 -0.0914
13128TIP3    H139341   8.165   5.288   3.848  0.1100 -0.6333  1.2163
13128TIP3    H239342   8.302   5.352   3.845 -0.2209  0.1815 -2.9687
13129TIP3   OH239343   6.975   7.790   4.077 -0.2742 -0.0020  0.5773
13129TIP3    H139344   7.054   7.760   4.033  0.0896 -0.0069  1.2148
13129TIP3    H239345   7.000   7.875   4.116 -0.6375  0.0887  0.6166
13130TIP3   OH239346   3.263   7.169   4.347  0.2230  0.1959  0.6984
13130TIP3    H139347   3.334   7.185   4.409  2.3985 -0.3599 -1.4640
13130TIP3    H239348   3.232   7.256   4.322  1.5149  0.5580  0.2692
13131TIP3   OH239349   7.180   0.875   3.013  0.3744  0.1714  0.5440
13131TIP3    H139350   7.125   0.952   3.029  0.0904 -0.1162  0.9597
13131TIP3    H239351   7.267   0.900   3.044 -0.1316 -0.3277  2.4490
13132TIP3   OH239352   3.598   7.682   5.944 -0.4450  0.0334 -0.0377
13132TIP3    H139353   3.505   7.661   5.933  0.1910 -2.3009 -1.8023
13132TIP3    H239354   3.643   7.598   5.939  1.7360  0.9930  1.7880
13133TIP3   OH239355   0.773   7.320   4.287  0.5219 -0.2078 -0.5547
13133TIP3    H139356   0.765   7.229   4.317  3.8917 -0.8620 -1.1903
13133TIP3    H239357   0.802   7.368   4.364  1.2849 -0.2445 -0.8073
13134TIP3   OH239358   1.119   0.215   6.434 -0.1887  0.1176 -0.0771
13134TIP3    H139359   1.083   0.172   6.356  1.0721  1.1481 -1.2668
13134TIP3    H239360   1.075   0.172   6.507  0.7183 -2.9572 -1.1860
13135TIP3   OH239361   3.594   7.084   6.370  0.3802  0.3386  0.2311
13135TIP3    H139362   3.571   7.098   6.462 -2.3790  0.3350 -0.3708
13135TIP3    H239363   3.668   7.142   6.355 -0.5639  2.0985  1.9041
13136TIP3   OH239364   0.293   3.152   5.933  0.4599  0.1047 -0.6443
13136TIP3    H139365   0.305   3.059   5.949  4.2300  0.3917 -0.9316
13136TIP3    H239366   0.289   3.160   5.838 -1.4829  0.1868 -0.6035
13137TIP3   OH239367   2.316   0.591   6.127  0.0360  0.4332  0.0621
13137TIP3    H139368   2.408   0.586   6.156 -0.2132  2.9084  1.6280
13137TIP3    H239369   2.310   0.676   6.083 -1.1551 -0.4771 -1.6412
13138TIP3   OH239370   3.276   1.842   5.752  0.4105  0.7717  0.5118
13138TIP3    H139371   3.295   1.767   5.697  0.3028  1.6839 -0.8065
13138TIP3    H239372   3.182   1.857   5.741  0.4567  1.1881  0.6547
13139TIP3   OH239373   2.839   2.012   4.844  0.6569 -0.0971  0.5608
13139TIP3    H139374   2.856   1.926   4.806  0.9876 -1.4700  3.5244
13139TIP3    H239375   2.805   2.065   4.771  1.5572 -2.3487 -1.6200
13140TIP3   OH239376   5.984   3.654   6.024 -0.0599 -0.2297  0.0099
13140TIP3    H139377   6.026   3.663   5.938 -0.8486 -2.4835 -0.6867
13140TIP3    H239378   5.891   3.653   6.005 -0.5010  3.0764  1.3774
13141TIP3   OH239379   0.677   5.189   1.956  0.2813 -0.0542  0.2150
13141TIP3    H139380   0.682   5.239   1.875  0.9858 -2.3964 -1.2772
13141TIP3    H239381   0.602   5.131   1.945  0.4389 -0.4782  1.1956
13142TIP3   OH239382   7.789   0.250   4.238  0.2834 -0.2367 -0.4993
13142TIP3    H139383   7.778   0.252   4.333 -0.2138 -0.3173 -0.5503
13142TIP3    H239384   7.874   0.208   4.224 -0.2582 -1.5339 -0.1131
13143TIP3   OH239385   4.644   4.285   4.998  0.4681 -0.4190 -0.5736
13143TIP3    H139386   4.602   4.199   4.999 -0.2405 -0.0823 -0.3685
13143TIP3    H239387   4.644   4.311   4.906  2.3295 -1.4002 -0.8945
13144TIP3   OH239388   1.168   5.820   4.146 -0.1572  0.2914 -0.2827
13144TIP3    H139389   1.224   5.826   4.069 -0.7432  0.7310 -0.6775
13144TIP3    H239390   1.220   5.769   4.209  1.8930  3.0260  0.4396
13145TIP3   OH239391   1.011   3.982   3.193 -0.3661 -0.2226 -0.2508
13145TIP3    H139392   1.093   3.937   3.212 -0.5460 -0.6608 -0.5178
13145TIP3    H239393   1.029   4.034   3.115 -0.2771 -0.1450 -0.1783
13146TIP3   OH239394   7.150   0.324   6.166  0.0656 -0.0639 -0.1524
13146TIP3    H139395   7.165   0.400   6.221 -0.5373 -1.2386  1.7407
13146TIP3    H239396   7.206   0.256   6.203  1.5714 -0.2806 -2.5721
13147TIP3   OH239397   4.728   3.408   4.352 -0.0619  0.7802  0.3331
13147TIP3    H139398   4.740   3.470   4.423  0.0414  0.3662  0.6782
13147TIP3    H239399   4.698   3.328   4.395 -2.8864  1.3582 -0.3144
13148TIP3   OH239400   2.941   3.465   2.440  0.1587 -0.4896 -0.1468
13148TIP3    H139401   2.964   3.529   2.373 -3.1480  0.8803 -0.1948
13148TIP3    H239402   2.973   3.503   2.522 -0.3357  0.4523 -0.3754
13149TIP3   OH239403   2.080   1.370   0.337  0.0727 -0.2757  0.1942
13149TIP3    H139404   2.167   1.400   0.310 -0.3926  0.3396 -0.6792
13149TIP3    H239405   2.041   1.446   0.380 -0.3775 -0.2501 -0.2532
13150TIP3   OH239406   5.583   0.856   4.015  0.4317  0.7182  0.4339
13150TIP3    H139407   5.501   0.807   4.004  0.6763  0.3384  0.2728
13150TIP3    H239408   5.598   0.896   3.930  0.2211  1.0961  0.5718
13151TIP3   OH239409   6.298   1.684   6.131 -0.4564  0.2439  0.3163
13151TIP3    H139410   6.223   1.733   6.166 -1.5262 -1.0764 -0.0385
13151TIP3    H239411   6.317   1.619   6.198  0.9471  1.0797  0.7783
13152TIP3   OH239412   2.453   1.722   5.482  0.1042  0.1824 -0.4121
13152TIP3    H139413   2.472   1.776   5.405  1.4887  1.5122  0.8117
13152TIP3    H239414   2.360   1.735   5.498  0.0314  0.7250 -1.2343
13153TIP3   OH239415   4.858   7.386   0.469  0.1310 -0.1410 -0.0906
13153TIP3    H139416   4.935   7.411   0.417  0.0368 -0.4427 -0.3765
13153TIP3    H239417   4.793   7.453   0.448  0.0378 -0.3504 -0.4954
13154TIP3   OH239418   7.414   5.028   0.565  0.2663  0.4419 -0.0704
13154TIP3    H139419   7.444   5.077   0.488  0.4135  1.5947  0.6885
13154TIP3    H239420   7.418   4.937   0.538 -0.9403  0.8621 -1.8664
13155TIP3   OH239421   5.351   2.372   5.901 -0.7444  0.3422  0.3022
13155TIP3    H139422   5.394   2.349   5.819 -2.2818  0.0194 -0.4460
13155TIP3    H239423   5.422   2.379   5.964  0.4963  0.8167 -1.0893
13156TIP3   OH239424   3.134   3.466   0.086  0.3651 -0.2452  0.2961
13156TIP3    H139425   3.207   3.414   0.053  0.6612  0.0063  0.5555
13156TIP3    H239426   3.094   3.504   0.007 -0.4237 -1.5881  0.0100
13157TIP3   OH239427   5.782   4.511   3.717  0.3537  0.0980  0.5026
13157TIP3    H139428   5.854   4.511   3.654  0.4266  3.3714  0.4200
13157TIP3    H239429   5.821   4.540   3.799 -0.6070  0.5023  0.8276
13158TIP3   OH239430   2.012   2.433   6.336 -0.0585  0.5251  0.2236
13158TIP3    H139431   1.978   2.520   6.318  0.1029  0.7259  0.8658
13158TIP3    H239432   2.107   2.442   6.324 -0.1125  0.2487 -0.4483
13159TIP3   OH239433   0.560   5.740   0.729  0.2713  0.1106 -0.4683
13159TIP3    H139434   0.617   5.688   0.785  1.5341 -2.1241 -3.5534
13159TIP3    H239435   0.558   5.693   0.646 -1.9584  2.8666 -2.1706
13160TIP3   OH239436   4.073   5.087   0.314 -0.1403 -0.5330 -0.6269
13160TIP3    H139437   4.135   5.159   0.326 -0.8547 -0.0974  0.5526
13160TIP3    H239438   4.094   5.025   0.385  0.4932 -1.5274 -1.6459
13161TIP3   OH239439   2.802   5.963   0.421 -0.0642  0.1673  0.0145
13161TIP3    H139440   2.768   6.051   0.442 -0.2195  0.0906  0.0929
13161TIP3    H239441   2.889   5.978   0.386 -0.6294  0.4669 -1.3363
13162TIP3   OH239442   2.363   6.091   4.014  0.3327 -0.1306  0.8991
13162TIP3    H139443   2.357   6.110   3.920 -0.9235 -1.6618  0.6335
13162TIP3    H239444   2.397   6.002   4.018 -1.6947 -0.9066  1.7995
13163TIP3   OH239445   0.408   3.817   5.104 -0.5989 -0.2295 -0.0561
13163TIP3    H139446   0.491   3.865   5.107 -1.4796  1.3032  2.2363
13163TIP3    H239447   0.433   3.725   5.097  1.3129  0.1600  1.0672
13164TIP3   OH239448   6.010   4.330   1.344 -0.1977 -0.3590  0.4148
13164TIP3    H139449   6.083   4.306   1.400 -0.8726 -0.4638  1.2767
13164TIP3    H239450   6.029   4.420   1.316  0.4058 -0.4967  0.3814
13165TIP3   OH239451   4.389   7.771   2.344 -0.3010  0.2458 -0.2091
13165TIP3    H139452   4.417   7.760   2.253  0.6207 -0.3633  0.1446
13165TIP3    H239453   4.337   7.852   2.343 -0.1111  0.3686 -1.2267
13166TIP3   OH239454   7.936   3.551   1.217 -0.4294  0.0426  0.0344
13166TIP3    H139455   7.952   3.461   1.247 -1.0248  0.2534  1.0342
13166TIP3    H239456   8.022   3.591   1.215 -0.3443 -0.0227  1.3928
13167TIP3   OH239457   2.681   0.856   5.778 -0.2578 -0.0589 -0.2426
13167TIP3    H139458   2.607   0.886   5.832  0.0541  1.5029 -0.6356
13167TIP3    H239459   2.661   0.888   5.690  0.3559 -0.5910 -0.5805
13168TIP3   OH239460   4.251   1.201   2.754 -0.3069 -0.4381  0.0920
13168TIP3    H139461   4.292   1.115   2.751 -0.2086 -0.3774 -0.4289
13168TIP3    H239462   4.187   1.195   2.824  1.0547 -0.3337  1.3996
13169TIP3   OH239463   5.051   7.323   6.447  0.5870  0.0378  0.4523
13169TIP3    H139464   5.088   7.393   6.393  1.1336 -1.8911 -1.8329
13169TIP3    H239465   4.965   7.307   6.409  0.5850 -0.7146  0.7616
13170TIP3   OH239466   6.964   2.817   4.919 -0.1307  0.1913 -0.2733
13170TIP3    H139467   6.955   2.722   4.911  1.4722 -0.0278  0.2050
13170TIP3    H239468   6.874   2.849   4.926 -0.6745 -1.3521  0.2092
13171TIP3   OH239469   8.220   7.226   3.321  0.3777  0.2784 -0.0007
13171TIP3    H139470   8.214   7.266   3.235  1.2047  0.9204  0.2185
13171TIP3    H239471   8.270   7.145   3.307 -1.3586 -0.7645 -0.4564
13172TIP3   OH239472   6.184   0.804   4.510 -0.5648 -0.2915 -0.1283
13172TIP3    H139473   6.273   0.828   4.536 -0.7321 -2.2544  2.7133
13172TIP3    H239474   6.184   0.813   4.415  2.8460 -0.7810 -0.3078
13173TIP3   OH239475   4.710   2.427   2.198  0.4888 -0.0524 -0.4445
13173TIP3    H139476   4.691   2.519   2.181  1.4243  0.6565  1.8971
13173TIP3    H239477   4.708   2.385   2.112 -0.8438  1.9620 -1.4635
13174TIP3   OH239478   2.191   2.516   6.647 -0.9370  0.2367 -0.3082
13174TIP3    H139479   2.102   2.480   6.659 -1.0472  0.3043 -0.9222
13174TIP3    H239480   2.191   2.596   6.700 -1.0640 -0.0512  0.1356
13175TIP3   OH239481   0.879   6.799   1.443 -0.2452 -0.0452  0.6762
13175TIP3    H139482   0.937   6.794   1.520 -0.7407 -0.4998  1.0334
13175TIP3    H239483   0.791   6.802   1.480 -0.6213 -2.2719  0.1376
13176TIP3   OH239484   7.258   6.842   1.017  0.4391  0.1441  0.8492
13176TIP3    H139485   7.253   6.936   1.001  1.7480  0.2206  0.7483
13176TIP3    H239486   7.347   6.818   0.989 -0.4383 -1.4448 -0.7600
13177TIP3   OH239487   0.434   5.444   0.957  0.2611 -0.3032  0.5591
13177TIP3    H139488   0.481   5.420   1.037 -1.1319  0.0251  1.5004
13177TIP3    H239489   0.487   5.513   0.917  0.8700 -0.3374  1.2987
13178TIP3   OH239490   7.309   5.690   6.176  0.0333 -0.5254 -0.0953
13178TIP3    H139491   7.345   5.647   6.098  0.6963  0.1883 -0.1919
13178TIP3    H239492   7.311   5.622   6.244 -1.7420 -1.5466 -0.9929
13179TIP3   OH239493   0.772   3.392   4.025 -0.5376 -0.4950  0.6682
13179TIP3    H139494   0.720   3.471   4.036 -0.6401 -0.0827 -2.1014
13179TIP3    H239495   0.710   3.327   3.991 -0.0455 -1.2070  1.1045
13180TIP3   OH239496   2.879   6.719   1.537 -0.7511  0.5227 -0.5198
13180TIP3    H139497   2.904   6.720   1.445  2.2861  0.9914  0.2097
13180TIP3    H239498   2.850   6.630   1.553  0.3702 -0.0525 -1.5508
13181TIP3   OH239499   5.665   4.672   3.504 -0.0880 -0.0971  0.3260
13181TIP3    H139500   5.721   4.667   3.426 -1.8902  0.8474 -1.1321
13181TIP3    H239501   5.687   4.595   3.555 -0.1090 -1.8153 -2.0673
13182TIP3   OH239502   6.163   2.963   3.425  0.4442 -0.2283 -0.5660
13182TIP3    H139503   6.132   2.974   3.515 -0.8926 -0.4733 -0.9663
13182TIP3    H239504   6.203   3.048   3.403  1.0426 -0.2643  0.3347
13183TIP3   OH239505   5.595   5.169   5.308  0.4110 -0.2473 -0.0609
13183TIP3    H139506   5.587   5.244   5.367  0.3767 -0.0060 -0.3648
13183TIP3    H239507   5.688   5.164   5.288  0.1876  1.0677 -1.7315
13184TIP3   OH239508   1.793   7.324   5.708  0.1085  0.0170 -0.2410
13184TIP3    H139509   1.871   7.278   5.678  0.4398  0.0834  0.4954
13184TIP3    H239510   1.779   7.292   5.797 -2.6870 -2.5871 -1.4189
13185TIP3   OH239511   4.667   6.175   1.776  0.3404 -0.5262  0.0170
13185TIP3    H139512   4.735   6.243   1.771 -0.1630 -0.0377 -0.2672
13185TIP3    H239513   4.630   6.172   1.688 -1.8038  1.0880  0.7796
13186TIP3   OH239514   0.708   0.313   1.561 -0.0244  0.2698 -0.4952
13186TIP3    H139515   0.787   0.268   1.531 -0.0659 -0.7205  0.7794
13186TIP3    H239516   0.729   0.406   1.554  1.1579  0.0219 -0.4474
13187TIP3   OH239517   6.738   3.862   4.478 -0.3370 -0.2784 -0.3584
13187TIP3    H139518   6.677   3.794   4.506  0.3130 -0.5278  0.4969
13187TIP3    H239519   6.703   3.943   4.516  0.2796 -0.5424  0.8120
13188TIP3   OH239520   3.937   1.555   3.155  0.4133 -0.1371  0.2896
13188TIP3    H139521   3.873   1.618   3.121  0.6059  0.1781  0.5046
13188TIP3    H239522   3.973   1.514   3.077  2.7641  2.4400 -0.1318
13189TIP3   OH239523   4.722   4.081   4.782  0.4007  0.0740  0.4443
13189TIP3    H139524   4.779   4.033   4.842  0.2369  1.0989  1.4832
13189TIP3    H239525   4.633   4.059   4.810  0.2751 -0.9956 -0.7343
13190TIP3   OH239526   4.108   5.183   4.215  0.8970  0.5880  0.1299
13190TIP3    H139527   4.034   5.144   4.261  1.2893  0.7358  0.8913
13190TIP3    H239528   4.101   5.277   4.233  0.9305  0.6752 -0.2945
13191TIP3   OH239529   7.097   1.619   0.667 -0.0785 -0.2425 -0.2064
13191TIP3    H139530   7.010   1.656   0.685  0.0614 -1.2219  3.2959
13191TIP3    H239531   7.158   1.691   0.685 -0.0515 -0.5926  1.2254
13192TIP3   OH239532   3.183   4.747   0.647  0.0674 -0.2406  0.3025
13192TIP3    H139533   3.265   4.711   0.611  0.9192  1.0775  0.8473
13192TIP3    H239534   3.211   4.819   0.702 -1.4385 -0.2897  1.1763
13193TIP3   OH239535   0.761   4.885   2.246  0.6119  0.4829  0.4914
13193TIP3    H139536   0.765   4.795   2.213  1.2006  0.0042  1.7871
13193TIP3    H239537   0.848   4.921   2.229  0.8886  0.2636  1.4084
13194TIP3   OH239538   6.405   1.965   2.357 -0.1016  0.2524 -0.2021
13194TIP3    H139539   6.363   1.879   2.355 -0.8462  0.5927  0.4635
13194TIP3    H239540   6.414   1.990   2.265 -0.8197 -0.0898 -0.3668
13195TIP3   OH239541   1.446   0.190   3.474  0.3042  0.0790 -0.4692
13195TIP3    H139542   1.507   0.136   3.423  0.1326  0.8359 -1.5234
13195TIP3    H239543   1.423   0.262   3.414 -1.7577 -0.2782 -0.1568
13196TIP3   OH239544   8.271   1.846   3.484 -0.3078  0.2531 -0.8166
13196TIP3    H139545   8.228   1.764   3.459 -0.1404 -0.2604  0.4945
13196TIP3    H239546   8.330   1.866   3.411 -0.7500 -0.5007 -1.3895
13197TIP3   OH239547   3.247   5.015   4.343 -0.6727  0.4258 -0.8572
13197TIP3    H139548   3.179   5.047   4.402 -0.2399  0.4117 -0.3386
13197TIP3    H239549   3.262   4.925   4.371  0.2784  0.7495 -0.2872
13198TIP3   OH239550   2.201   1.913   5.515 -1.0029 -0.7009 -0.2832
13198TIP3    H139551   2.132   1.976   5.536  0.8119  0.4399  2.8648
13198TIP3    H239552   2.193   1.845   5.582  1.9583  0.4263  1.3740
13199TIP3   OH239553   2.640   2.609   2.527  0.0346  0.1404 -0.1210
13199TIP3    H139554   2.712   2.572   2.476 -0.7980 -1.8626  0.0702
13199TIP3    H239555   2.657   2.703   2.527  2.5913 -0.2555 -0.1301
13200TIP3   OH239556   7.800   1.242   3.801  0.0546  0.0071 -0.2517
13200TIP3    H139557   7.764   1.233   3.713 -0.9072  1.8351 -0.1020
13200TIP3    H239558   7.732   1.205   3.858  1.0085 -1.8845 -0.2833
13201TIP3   OH239559   4.375   5.165   0.099 -0.0574 -0.5061  0.2072
13201TIP3    H139560   4.396   5.071   0.094  2.4782 -0.0943  1.3156
13201TIP3    H239561   4.375   5.184   0.193  1.4592  0.9223 -0.0332
13202TIP3   OH239562   5.580   3.874   0.415  0.2850 -0.2598 -0.7240
13202TIP3    H139563   5.658   3.822   0.394  1.3648  0.9657  0.1082
13202TIP3    H239564   5.519   3.812   0.454  1.8768 -0.7974  1.0764
13203TIP3   OH239565   1.663   3.406   3.021  0.1656  0.4826  0.4808
13203TIP3    H139566   1.670   3.440   2.932 -1.7730  0.1216  0.1420
13203TIP3    H239567   1.589   3.345   3.018 -1.1589  1.8221  2.7072
13204TIP3   OH239568   3.669   6.344   6.666 -0.1051  0.0619  0.5400
13204TIP3    H139569   3.667   6.293   6.585  0.4006  1.4460 -0.4013
13204TIP3    H239570   3.721   6.292   6.727  1.8367  0.1567 -0.9361
13205TIP3   OH239571   1.961   5.580   3.130  0.2300 -0.4481  0.1653
13205TIP3    H139572   2.040   5.587   3.184  0.5458 -0.3453 -0.3056
13205TIP3    H239573   1.900   5.643   3.168  0.1810 -0.9085  0.8590
13206TIP3   OH239574   2.053   0.428   3.672 -0.4610  0.5004 -0.4284
13206TIP3    H139575   1.975   0.392   3.630 -0.3773  0.5779 -0.6558
13206TIP3    H239576   2.064   0.515   3.632  0.0728  0.2567 -0.8355
13207TIP3   OH239577   3.578   2.295   2.831  0.5594  0.0748  0.0792
13207TIP3    H139578   3.663   2.260   2.859 -0.0616 -0.0649  1.9033
13207TIP3    H239579   3.514   2.232   2.865 -0.3423  0.7639 -0.3213
13208TIP3   OH239580   0.186   3.448   5.091  0.0894  0.6745  0.0547
13208TIP3    H139581   0.143   3.406   5.166 -0.5033 -0.4395 -0.8790
13208TIP3    H239582   0.115   3.480   5.036  0.3521 -1.2176 -1.5200
13209TIP3   OH239583   5.438   4.679   0.752 -0.3813 -0.1711  0.1178
13209TIP3    H139584   5.351   4.693   0.716 -0.0077 -0.2224 -0.8463
13209TIP3    H239585   5.490   4.752   0.718 -0.1056  0.0349  0.9380
13210TIP3   OH239586   3.065   0.215   0.833 -0.7269 -0.6047  0.1648
13210TIP3    H139587   3.137   0.279   0.838 -0.8186 -0.4035 -0.9385
13210TIP3    H239588   3.059   0.193   0.741 -0.9770 -1.9156  0.4838
13211TIP3   OH239589   1.157   7.671   1.685 -0.5883  0.4098  0.5044
13211TIP3    H139590   1.170   7.690   1.591 -0.5778 -0.8455  0.2388
13211TIP3    H239591   1.069   7.702   1.703  0.1019  2.4847  0.5844
13212TIP3   OH239592   3.354   7.030   1.613  0.7466  0.0525 -0.0489
13212TIP3    H139593   3.324   6.955   1.665  2.3203  0.5639  1.7186
13212TIP3    H239594   3.417   6.993   1.551 -0.6663 -0.4648 -1.2427
13213TIP3   OH239595   6.305   0.341   1.137  0.2428 -0.0597  0.3951
13213TIP3    H139596   6.290   0.257   1.094 -0.5016  0.8149 -1.1698
13213TIP3    H239597   6.220   0.386   1.131 -0.7389 -0.7931  5.1094
13214TIP3   OH239598   0.547   2.381   5.698  0.3099 -0.2093 -0.3833
13214TIP3    H139599   0.563   2.443   5.627  0.8171  1.0601  0.7979
13214TIP3    H239600   0.489   2.427   5.758  0.0643 -1.1789  0.1449
13215TIP3   OH239601   0.262   3.797   2.681 -0.4807 -0.8324 -0.2807
13215TIP3    H139602   0.225   3.803   2.770 -0.7563  2.2816 -0.5052
13215TIP3    H239603   0.203   3.850   2.627  1.1653 -0.4422 -1.7856
13216TIP3   OH239604   4.432   0.695   2.838  0.0042  0.7064 -0.2882
13216TIP3    H139605   4.494   0.638   2.884 -0.1750 -0.0030 -0.8918
13216TIP3    H239606   4.350   0.685   2.888 -0.0133  0.4644 -0.3616
13217TIP3   OH239607   5.505   1.111   0.169 -0.9882  0.5125  0.6078
13217TIP3    H139608   5.512   1.017   0.183 -3.7962 -0.1293 -1.3460
13217TIP3    H239609   5.414   1.125   0.141 -0.8170  3.8838  1.2064
13218TIP3   OH239610   3.789   2.538   3.506 -0.2594  0.1581 -0.4048
13218TIP3    H139611   3.828   2.584   3.581  0.5428  1.2623 -1.4528
13218TIP3    H239612   3.706   2.583   3.492 -1.5654 -1.5657  1.2194
13219TIP3   OH239613   5.979   1.560   2.657 -0.1527 -0.5968 -0.0357
13219TIP3    H139614   5.912   1.506   2.699  1.4720 -0.8151  2.4617
13219TIP3    H239615   5.998   1.629   2.721  1.5868 -0.2108 -0.9127
13220TIP3   OH239616   2.451   0.578   0.211  0.5558 -0.4067 -0.2080
13220TIP3    H139617   2.531   0.580   0.158  0.4739  0.1251 -0.3100
13220TIP3    H239618   2.400   0.506   0.173 -1.1797  2.2507 -3.3344
13221TIP3   OH239619   7.173   5.350   0.981 -0.7140 -0.0351  0.1176
13221TIP3    H139620   7.153   5.272   1.032  0.1431 -0.8889 -0.8021
13221TIP3    H239621   7.236   5.399   1.034  1.4526 -1.7283 -0.7427
13222TIP3   OH239622   2.146   7.715   6.505 -0.0115 -0.0305 -0.0387
13222TIP3    H139623   2.107   7.683   6.587 -0.6104  2.7014  0.8309
13222TIP3    H239624   2.177   7.803   6.526  1.4192  0.0834 -2.3194
13223TIP3   OH239625   7.454   2.928   1.910 -0.5961 -0.5318  0.2528
13223TIP3    H139626   7.501   2.973   1.840 -1.0309 -1.2588 -0.5244
13223TIP3    H239627   7.440   2.995   1.977 -0.0505  0.1368 -0.2913
13224TIP3   OH239628   1.263   5.383   3.978 -0.1267  0.2222 -0.0115
13224TIP3    H139629   1.174   5.418   3.969  0.4031  1.6085 -0.1818
13224TIP3    H239630   1.265   5.306   3.921 -1.3213 -0.0579  0.2974
13225TIP3   OH239631   2.494   5.295   1.735 -0.4980 -0.5513  0.0984
13225TIP3    H139632   2.542   5.331   1.809 -1.4272  1.3110 -0.1399
13225TIP3    H239633   2.465   5.209   1.764  4.4940 -2.7595 -0.4072
13226TIP3   OH239634   1.552   1.468   6.027 -0.4586  0.5461 -0.7026
13226TIP3    H139635   1.635   1.485   5.983 -0.0089 -1.8987 -0.9565
13226TIP3    H239636   1.495   1.539   5.999  0.4776  0.3169 -3.4780
13227TIP3   OH239637   6.762   4.158   2.963 -0.5747  0.0436 -0.0072
13227TIP3    H139638   6.782   4.223   2.896  3.5267 -0.1996  0.7064
13227TIP3    H239639   6.782   4.074   2.922 -0.0429 -0.2642  0.8496
13228TIP3   OH239640   7.654   3.371   4.055 -0.4642  0.6647 -0.1048
13228TIP3    H139641   7.689   3.452   4.018 -1.0690  0.5298 -1.0033
13228TIP3    H239642   7.667   3.380   4.149  0.6447  1.2377 -0.2985
13229TIP3   OH239643   4.681   6.189   4.742 -0.2461 -1.0465  0.1317
13229TIP3    H139644   4.757   6.139   4.770  0.6699 -1.1384 -2.2779
13229TIP3    H239645   4.620   6.124   4.706  0.0434 -0.6677 -1.0824
13230TIP3   OH239646   0.393   6.200   2.147 -0.2137  0.0607  0.1474
13230TIP3    H139647   0.426   6.270   2.204 -0.9023  0.0095  0.6198
13230TIP3    H239648   0.359   6.134   2.207 -0.8743 -0.0297 -0.3134
13231TIP3   OH239649   2.368   1.192   1.218 -0.7618 -0.4792 -0.1567
13231TIP3    H139650   2.364   1.215   1.311 -1.9402  1.3457 -0.6086
13231TIP3    H239651   2.284   1.221   1.182  0.1287 -0.0368 -2.0284
13232TIP3   OH239652   6.160   4.086   5.050  0.2467 -0.0468  0.4986
13232TIP3    H139653   6.192   4.036   4.975  0.4966  1.1121 -0.1987
13232TIP3    H239654   6.117   4.162   5.010  0.0565  0.3986  1.5322
13233TIP3   OH239655   2.997   1.745   0.081  0.5906 -0.4607 -0.5099
13233TIP3    H139656   2.931   1.696   0.031 -0.1493  0.6689 -0.6984
13233TIP3    H239657   3.011   1.825   0.030 -0.1272  0.7001  1.0092
13234TIP3   OH239658   2.624   3.547   6.499 -0.2046  0.6363 -0.6402
13234TIP3    H139659   2.566   3.596   6.439 -2.6836 -0.6306  0.5580
13234TIP3    H239660   2.608   3.587   6.585 -3.3045 -2.8041  0.6320
13235TIP3   OH239661   6.587   2.001   0.386 -0.8098 -0.0571  0.5025
13235TIP3    H139662   6.527   2.071   0.413 -0.6418  0.3360 -0.1057
13235TIP3    H239663   6.674   2.036   0.402 -0.7199 -1.0046  2.3077
13236TIP3   OH239664   4.897   6.315   5.351 -0.1126  0.4719 -0.0750
13236TIP3    H139665   4.961   6.307   5.422 -0.3996  0.5728  0.2022
13236TIP3    H239666   4.906   6.234   5.301 -0.0605  0.2987  0.2099
13237TIP3   OH239667   2.260   0.915   6.219  0.0241  0.1326  0.7517
13237TIP3    H139668   2.229   0.975   6.287 -0.4623  1.5368 -0.6482
13237TIP3    H239669   2.183   0.895   6.166  0.7487  0.7518 -0.6100
13238TIP3   OH239670   3.039   2.128   4.142 -0.6598  0.3587 -0.4581
13238TIP3    H139671   3.088   2.181   4.205 -0.1589  1.2660 -1.5519
13238TIP3    H239672   3.098   2.120   4.067 -1.0176 -1.1752 -0.6037
13239TIP3   OH239673   2.280   3.738   0.286 -0.9261  0.2146  0.2973
13239TIP3    H139674   2.323   3.668   0.237  0.3770 -0.3585  2.1679
13239TIP3    H239675   2.259   3.700   0.371  0.4188  2.2229  1.6174
13240TIP3   OH239676   0.179   6.738   5.845  0.7701  0.0705  0.6669
13240TIP3    H139677   0.264   6.718   5.806  0.9683  0.3812  0.9308
13240TIP3    H239678   0.198   6.752   5.938  0.2790 -0.8259  0.9085
13241TIP3   OH239679   2.523   4.528   5.445 -0.0787  0.3819 -0.4485
13241TIP3    H139680   2.541   4.547   5.352  0.6357  2.0179 -0.0095
13241TIP3    H239681   2.602   4.555   5.491 -0.4672 -0.3082  0.6691
13242TIP3   OH239682   1.978   2.613   5.606  0.5038  0.5630  0.1328
13242TIP3    H139683   1.924   2.555   5.660  1.1054 -0.7028 -0.6014
13242TIP3    H239684   2.061   2.620   5.653  0.1553  1.5264  0.6388
13243TIP3   OH239685   4.125   1.507   0.417 -0.1405 -0.2351 -0.0197
13243TIP3    H139686   4.169   1.592   0.417 -1.4440  0.5053 -1.0611
13243TIP3    H239687   4.109   1.488   0.509  0.0958  0.7000  0.2316
13244TIP3   OH239688   7.229   4.426   4.325 -0.5876  0.0031  0.3012
13244TIP3    H139689   7.164   4.386   4.382 -1.6163  0.4305 -0.5481
13244TIP3    H239690   7.289   4.471   4.385 -2.5350  1.7776  1.0156
13245TIP3   OH239691   3.828   0.543   3.315  0.1911  0.1324  0.2434
13245TIP3    H139692   3.761   0.609   3.296  0.2857  0.7215  1.8089
13245TIP3    H239693   3.806   0.511   3.402  2.0915  0.5514  0.9248
13246TIP3   OH239694   1.280   5.540   0.561  0.2242 -0.0367  0.6728
13246TIP3    H139695   1.257   5.630   0.541 -0.1222 -0.1461  0.5825
13246TIP3    H239696   1.247   5.489   0.487  0.3691 -0.2454  0.7497
13247TIP3   OH239697   0.114   2.437   6.098 -0.4451 -0.0444 -0.4545
13247TIP3    H139698   0.099   2.345   6.077  2.8908 -1.3350  1.9463
13247TIP3    H239699   0.095   2.443   6.192 -0.2309  1.6269 -0.4967
13248TIP3   OH239700   6.708   5.196   3.436 -0.4883  0.1719 -0.7326
13248TIP3    H139701   6.728   5.256   3.508 -1.4428  2.2864 -2.1294
13248TIP3    H239702   6.621   5.163   3.456 -0.4851  0.2462 -0.5934
13249TIP3   OH239703   7.354   2.856   2.308 -0.1994 -0.1597 -0.2829
13249TIP3    H139704   7.300   2.934   2.297 -0.2003 -0.0070  0.7108
13249TIP3    H239705   7.441   2.882   2.279 -0.4189 -0.0850 -0.8792
13250TIP3   OH239706   4.158   6.737   3.314 -0.4743  0.0676 -0.6519
13250TIP3    H139707   4.201   6.693   3.241 -1.4737  1.2396 -2.0190
13250TIP3    H239708   4.077   6.771   3.277 -1.4960 -0.1230  1.2752
13251TIP3   OH239709   7.730   3.140   3.901  0.2798 -0.0361 -0.1233
13251TIP3    H139710   7.729   3.236   3.904  1.1218 -0.0068 -0.3980
13251TIP3    H239711   7.726   3.113   3.992  1.5235  0.3036  0.0562
13252TIP3   OH239712   0.394   5.694   6.574 -0.4076  0.0403  0.0422
13252TIP3    H139713   0.326   5.712   6.639 -1.6134  0.8636 -1.3578
13252TIP3    H239714   0.476   5.712   6.619 -1.1152 -0.6021  1.6770
13253TIP3   OH239715   5.965   1.121   5.209  0.6363  0.0112  0.6386
13253TIP3    H139716   5.937   1.201   5.165  0.0877 -0.7163 -0.3727
13253TIP3    H239717   5.996   1.064   5.139  0.2611 -0.9649  1.2353
13254TIP3   OH239718   6.507   0.145   1.546  0.3217 -0.0459 -0.3842
13254TIP3    H139719   6.550   0.230   1.534  0.4216  0.3665  2.2921
13254TIP3    H239720   6.464   0.128   1.462  3.4945  0.7569 -2.3320
13255TIP3   OH239721   0.083   5.438   6.004 -0.1326  0.0978  0.1206
13255TIP3    H139722   0.141   5.506   6.038 -0.2878 -0.2488  1.1017
13255TIP3    H239723   0.025   5.417   6.077  0.9956 -2.2915  0.4168
13256TIP3   OH239724   4.143   2.324   0.091  0.0480  0.7402 -0.1690
13256TIP3    H139725   4.153   2.419   0.077  0.5080  0.5065 -1.5628
13256TIP3    H239726   4.218   2.285   0.046 -0.6721 -0.3476 -0.4569
13257TIP3   OH239727   1.889   7.078   0.328  0.2244 -0.0292 -0.1432
13257TIP3    H139728   1.810   7.088   0.380 -0.3489 -1.5354 -0.6898
13257TIP3    H239729   1.955   7.129   0.376 -1.0671  1.3652  0.2437
13258TIP3   OH239730   7.065   0.203   2.487 -0.1442 -0.2070 -0.0685
13258TIP3    H139731   6.991   0.185   2.428  0.5890 -0.8746 -0.8022
13258TIP3    H239732   7.104   0.284   2.453  0.6479 -0.9168 -0.8981
13259TIP3   OH239733   2.749   6.107   4.783 -0.0948 -0.2748  0.1755
13259TIP3    H139734   2.776   6.146   4.866  1.1215 -1.9254  0.6033
13259TIP3    H239735   2.743   6.181   4.722  0.7511  0.7327  1.2783
13260TIP3   OH239736   5.100   2.315   5.004 -0.3930  0.0889  0.0691
13260TIP3    H139737   5.050   2.333   4.924 -0.6956  2.7295  0.7489
13260TIP3    H239738   5.192   2.319   4.976 -0.5011  0.7106 -0.2150
13261TIP3   OH239739   4.869   4.558   4.799 -0.3902 -0.5802  0.6710
13261TIP3    H139740   4.929   4.484   4.805  0.2968 -0.2609 -1.3353
13261TIP3    H239741   4.904   4.623   4.860  0.3077 -1.0676  0.7973
13262TIP3   OH239742   8.074   6.598   3.362  0.2438 -0.1502 -0.1351
13262TIP3    H139743   8.045   6.688   3.380 -0.4199 -0.3450 -0.1858
13262TIP3    H239744   8.113   6.569   3.444  1.9641  0.7329 -0.6030
13263TIP3   OH239745   7.097   6.275   6.433 -0.5995  0.2106 -0.0499
13263TIP3    H139746   7.126   6.295   6.522  1.1735  1.1339 -0.7870
13263TIP3    H239747   7.150   6.200   6.407 -0.8498  0.1757 -0.4698
13264TIP3   OH239748   3.650   4.226   1.228 -0.2452  0.5523  0.0552
13264TIP3    H139749   3.665   4.235   1.322 -2.6868  0.9164  0.4793
13264TIP3    H239750   3.611   4.309   1.202 -2.0487 -0.4799 -0.7047
13265TIP3   OH239751   0.818   0.007   0.032  0.1120  0.4680 -0.3383
13265TIP3    H139752   0.874   0.009  -0.046  1.3143 -0.4358  0.4770
13265TIP3    H239753   0.877   0.021   0.105 -0.8479  0.2416  0.5093
13266TIP3   OH239754   6.681   2.239   5.654 -0.0096 -0.0093 -0.0687
13266TIP3    H139755   6.772   2.269   5.654 -0.1465  0.4329 -1.5259
13266TIP3    H239756   6.686   2.153   5.696  0.8838  0.5058  0.9734
13267TIP3   OH239757   4.825   2.641   6.212  0.1243  0.2760  0.6994
13267TIP3    H139758   4.800   2.549   6.221 -0.1657  0.3675  0.8503
13267TIP3    H239759   4.892   2.654   6.279  1.6852 -0.3474 -0.6595
13268TIP3   OH239760   5.443   0.269   5.807  0.0910  0.1564  0.4410
13268TIP3    H139761   5.389   0.211   5.752 -0.9075  0.8698  0.6395
13268TIP3    H239762   5.532   0.257   5.774 -0.2674 -0.6234 -0.2818
13269TIP3   OH239763   0.844   2.995   4.963 -0.0157  0.3779  0.1656
13269TIP3    H139764   0.857   2.908   5.002 -1.9826  0.9033  2.2035
13269TIP3    H239765   0.915   3.003   4.900  1.6858 -1.7265  1.6302
13270TIP3   OH239766   7.937   3.386   4.623 -0.9969 -0.5307 -0.0835
13270TIP3    H139767   7.871   3.360   4.687 -1.9438  0.6669 -0.5338
13270TIP3    H239768   7.973   3.468   4.658  0.8618 -1.5440  0.5580
13271TIP3   OH239769   5.382   5.914   0.465 -1.0455  0.2441 -0.5415
13271TIP3    H139770   5.312   5.932   0.529 -2.1006  0.8794 -1.8214
13271TIP3    H239771   5.383   5.819   0.456 -1.4072  0.1984 -0.1384
13272TIP3   OH239772   1.354   3.820   1.937  0.0693  0.5811 -0.1004
13272TIP3    H139773   1.394   3.734   1.934 -1.0999  0.0187 -0.0674
13272TIP3    H239774   1.278   3.810   1.994 -0.6367  1.3796 -0.8582
13273TIP3   OH239775   0.310   0.796   4.184 -0.1795  0.1254 -0.4588
13273TIP3    H139776   0.279   0.738   4.115  0.1366  2.5669 -2.8189
13273TIP3    H239777   0.406   0.790   4.179 -0.1279 -1.4237  1.4250
13274TIP3   OH239778   0.198   2.838   0.072 -0.1649  0.3006  0.2678
13274TIP3    H139779   0.192   2.861   0.165  0.3152  2.2801 -0.1422
13274TIP3    H239780   0.256   2.761   0.070 -0.9728 -0.3836  1.6622
13275TIP3   OH239781   3.173   4.278   3.149  0.1054  0.4262 -0.2020
13275TIP3    H139782   3.150   4.200   3.199 -0.6562 -1.0338 -2.6941
13275TIP3    H239783   3.269   4.278   3.147  0.1178 -0.1313  0.2523
13276TIP3   OH239784   4.989   7.057   6.231 -0.2412 -0.2580  0.4530
13276TIP3    H139785   4.939   7.135   6.252  1.5747  1.3086 -0.7174
13276TIP3    H239786   5.023   7.027   6.316 -2.3379 -0.8652  1.1448
13277TIP3   OH239787   0.927   2.976   1.484  0.0938 -0.0085  0.2612
13277TIP3    H139788   0.953   3.008   1.397 -2.5863 -0.1572 -0.6698
13277TIP3    H239789   0.930   3.055   1.539 -0.9632  0.7301 -0.6810
13278TIP3   OH239790   6.131   2.646   3.101  0.4153  0.2423  0.4292
13278TIP3    H139791   6.136   2.664   3.195  0.8937 -0.0974  0.4723
13278TIP3    H239792   6.222   2.645   3.072  0.2807  0.1366  0.0002
13279TIP3   OH239793   7.517   7.156   2.918 -0.6268  0.4781 -0.0566
13279TIP3    H139794   7.437   7.166   2.969  0.0294 -0.0531  1.1377
13279TIP3    H239795   7.587   7.155   2.984  0.4697  1.9295 -1.1242
13280TIP3   OH239796   4.586   5.496   2.044 -0.3372 -0.2865 -0.2358
13280TIP3    H139797   4.565   5.586   2.067  0.7861 -0.4980  1.9003
13280TIP3    H239798   4.600   5.452   2.128  2.3841 -1.6206 -1.2456
13281TIP3   OH239799   1.431   0.190   2.370  0.1359 -0.1492  0.1777
13281TIP3    H139800   1.393   0.163   2.454  0.6378 -0.2723  0.3669
13281TIP3    H239801   1.366   0.162   2.305  1.1040 -2.8738  0.2467
13282TIP3   OH239802   1.974   0.728   0.703 -0.2652 -0.2704  0.1742
13282TIP3    H139803   1.908   0.798   0.703  0.2955  0.2722 -0.6455
13282TIP3    H239804   2.058   0.774   0.699  0.1020 -0.9962 -0.8627
13283TIP3   OH239805   4.536   6.938   4.140 -0.6072  0.4456  0.0182
13283TIP3    H139806   4.502   6.969   4.056 -1.0346  0.1180  0.0669
13283TIP3    H239807   4.459   6.903   4.186 -0.2469 -0.0796  0.2316
13284TIP3   OH239808   0.169   5.063   6.461  0.3146  0.1541  0.0658
13284TIP3    H139809   0.253   5.070   6.415  0.9155 -0.3170  1.0672
13284TIP3    H239810   0.144   4.972   6.452 -1.5087  0.7935 -2.5879
13285TIP3   OH239811   6.663   3.296   5.265  0.2615 -0.2483  0.2280
13285TIP3    H139812   6.732   3.239   5.232  2.6794  2.9661 -0.6831
13285TIP3    H239813   6.583   3.264   5.223  1.4283 -2.9761 -0.0977
13286TIP3   OH239814   6.195   6.886   3.016 -0.1740 -0.2377 -0.0092
13286TIP3    H139815   6.273   6.918   2.970  1.2738 -1.3495  1.5504
13286TIP3    H239816   6.154   6.966   3.051  0.1603  0.3821 -0.9973
13287TIP3   OH239817   7.597   2.536   2.121  0.1491 -0.4124  0.3108
13287TIP3    H139818   7.617   2.579   2.037  0.2679 -0.2190  0.4356
13287TIP3    H239819   7.591   2.608   2.183  1.0994 -0.6253  0.6709
13288TIP3   OH239820   4.973   6.301   2.554  0.0759 -0.3056 -0.1424
13288TIP3    H139821   4.963   6.379   2.500 -1.2719 -0.9767 -0.9232
13288TIP3    H239822   5.063   6.271   2.537  0.4080  0.7444 -0.2742
13289TIP3   OH239823   6.537   3.769   4.933  0.3930 -0.3290 -0.3915
13289TIP3    H139824   6.480   3.798   4.862  3.4851 -0.0802 -2.9749
13289TIP3    H239825   6.560   3.679   4.911  3.2137  0.4910 -1.0605
13290TIP3   OH239826   0.138   4.546   1.513  0.0380 -0.0140  0.4854
13290TIP3    H139827   0.051   4.580   1.491 -0.4009 -0.2970  1.6791
13290TIP3    H239828   0.128   4.451   1.511  1.5337 -0.3020 -3.9360
13291TIP3   OH239829   1.551   0.099   1.930 -0.4596 -0.8843  0.1846
13291TIP3    H139830   1.550   0.065   1.840 -0.7260 -1.8751  0.5544
13291TIP3    H239831   1.644   0.108   1.950 -0.4021 -0.0915 -0.3959
13292TIP3   OH239832  -0.033   0.405   1.966 -0.3296  0.1278 -0.1930
13292TIP3    H139833  -0.008   0.484   1.919 -0.0200 -0.5254 -1.1655
13292TIP3    H239834   0.050   0.366   1.995 -0.5398  0.9040  1.5999
13293TIP3   OH239835   3.342   3.917   6.016  0.1815  0.2907 -0.6471
13293TIP3    H139836   3.392   3.998   6.022 -0.2088  0.4668  0.5881
13293TIP3    H239837   3.408   3.848   6.016  0.4644  0.5392  0.4319
13294TIP3   OH239838   7.859   0.756   5.915 -0.0335  0.2051  0.5212
13294TIP3    H139839   7.829   0.778   5.826  1.8245 -0.7893 -0.4063
13294TIP3    H239840   7.882   0.841   5.954  1.2120  0.4972 -0.7678
13295TIP3   OH239841   7.050   1.346   3.718 -0.2488  0.0630  0.2619
13295TIP3    H139842   7.140   1.374   3.703 -0.3890  0.9343  0.9229
13295TIP3    H239843   6.999   1.398   3.656 -0.4777  1.0797  1.2638
13296TIP3   OH239844   6.987   3.582   2.525  0.3598 -0.4680  0.2442
13296TIP3    H139845   6.948   3.661   2.488  1.1632  0.0237  0.4265
13296TIP3    H239846   6.935   3.511   2.487 -1.6665  0.1938  1.6175
13297TIP3   OH239847  -0.013   7.360   1.808  0.2533 -0.0915  0.2434
13297TIP3    H139848   0.009   7.411   1.730  0.0053 -0.2476  0.0677
13297TIP3    H239849   0.059   7.297   1.816  0.5146  0.2298  0.4112
13298TIP3   OH239850   5.204   0.950   4.710  0.2645 -0.3868  0.2994
13298TIP3    H139851   5.140   1.017   4.738  1.2205  0.7386 -0.1230
13298TIP3    H239852   5.179   0.872   4.759 -1.2037  0.1248  0.4343
13299TIP3   OH239853   3.145   5.713   4.361  0.1442 -0.4653  0.5808
13299TIP3    H139854   3.150   5.628   4.318  1.4829  0.8970 -2.1913
13299TIP3    H239855   3.235   5.746   4.361 -0.2989  0.8718  1.7997
13300TIP3   OH239856   8.028   1.508   0.260  0.1656 -0.2228 -0.2838
13300TIP3    H139857   8.086   1.494   0.335  0.7391 -2.2516 -1.0363
13300TIP3    H239858   8.085   1.544   0.192  0.2692 -0.9782 -0.6049
13301TIP3   OH239859   6.638   7.151   3.022 -0.0589 -0.1829 -0.0132
13301TIP3    H139860   6.687   7.093   3.080 -2.0449 -0.5773  1.3577
13301TIP3    H239861   6.622   7.230   3.074 -2.1340 -0.6672  0.1884
13302TIP3   OH239862   0.741   6.843   4.963  0.0234 -0.5445 -0.2340
13302TIP3    H139863   0.724   6.804   5.048 -1.8024 -0.1913 -0.3907
13302TIP3    H239864   0.803   6.784   4.921  1.7895 -0.1841  1.6947
13303TIP3   OH239865   0.577   1.578   0.576  0.3075  0.1779 -0.1954
13303TIP3    H139866   0.526   1.608   0.651 -0.1538 -0.4652 -0.2499
13303TIP3    H239867   0.513   1.543   0.515  0.8625 -1.6867  0.2160
13304TIP3   OH239868   3.754   1.182   0.125 -0.4812  0.1318 -0.2171
13304TIP3    H139869   3.690   1.142   0.184 -0.7658  0.4194 -0.3234
13304TIP3    H239870   3.703   1.245   0.074 -0.3903 -0.6859 -1.3459
13305TIP3   OH239871   7.372   5.791   1.272 -0.0883 -0.2052 -0.6216
13305TIP3    H139872   7.332   5.860   1.324 -0.7665 -1.5425  0.7258
13305TIP3    H239873   7.449   5.765   1.322 -0.1205 -0.7616 -0.8477
13306TIP3   OH239874   4.898   5.726   6.562  0.4755 -0.1539 -0.1289
13306TIP3    H139875   4.935   5.769   6.639 -0.0250  0.9268 -0.4734
13306TIP3    H239876   4.975   5.701   6.510  0.7756  1.3891 -0.4786
13307TIP3   OH239877   3.816   0.736   5.472 -0.3070  0.3710  0.0586
13307TIP3    H139878   3.845   0.720   5.562  0.5050 -0.0752 -0.2671
13307TIP3    H239879   3.858   0.819   5.449  0.4265 -0.0862 -0.2865
13308TIP3   OH239880   0.760   3.812   1.476 -0.7742 -0.6792 -0.1931
13308TIP3    H139881   0.729   3.760   1.402  1.5143 -1.4629 -0.6971
13308TIP3    H239882   0.853   3.789   1.484 -0.1112  1.9673  0.7455
13309TIP3   OH239883   7.228   6.129   2.846  0.1493 -0.2438  0.2055
13309TIP3    H139884   7.260   6.208   2.891 -1.3063  0.4439  0.1049
13309TIP3    H239885   7.306   6.093   2.804  0.8394  1.2346  0.1244
13310TIP3   OH239886   3.555   1.069   5.651 -0.3933 -0.2552 -0.1034
13310TIP3    H139887   3.485   1.102   5.708 -2.3472 -2.8630 -0.7656
13310TIP3    H239888   3.522   1.083   5.563 -0.2561 -1.7938 -0.4263
13311TIP3   OH239889   8.024   0.100   4.903 -0.0561 -0.0548 -0.3502
13311TIP3    H139890   8.021   0.054   4.819  0.9536  0.1166 -0.5017
13311TIP3    H239891   7.981   0.042   4.965  1.5451 -1.4182 -0.4431
13312TIP3   OH239892   2.983   0.738   0.479  0.5933 -0.5338  0.3145
13312TIP3    H139893   2.924   0.793   0.427  0.9496 -1.4488 -1.1035
13312TIP3    H239894   3.071   0.771   0.459  0.7754 -1.2924 -0.1633
13313TIP3   OH239895   4.532   5.987   0.106 -0.3316  0.2391 -0.4326
13313TIP3    H139896   4.462   5.963   0.045 -1.8153 -0.5379  1.4687
13313TIP3    H239897   4.547   6.080   0.089  0.7785 -0.3437 -3.3149
13314TIP3   OH239898   0.567   3.874   3.944 -0.0892  0.1439 -0.4542
13314TIP3    H139899   0.555   3.893   3.851  0.8919  0.9247 -0.4380
13314TIP3    H239900   0.619   3.948   3.977  0.5974 -0.7190  0.4459
13315TIP3   OH239901   2.521   6.606   0.717 -0.1006  0.1777  0.6865
13315TIP3    H139902   2.559   6.539   0.661 -0.9142 -0.9360  1.4149
13315TIP3    H239903   2.571   6.599   0.799  1.5904  2.3036 -0.0793
13316TIP3   OH239904   2.841   6.832   1.915 -0.3747  0.2742  0.6121
13316TIP3    H139905   2.770   6.895   1.929 -0.7270  0.2340 -0.9084
13316TIP3    H239906   2.899   6.875   1.852 -0.6560 -0.9369 -0.5086
13317TIP3   OH239907   4.571   4.759   6.313  0.1238  0.5953 -0.1720
13317TIP3    H139908   4.606   4.711   6.389 -1.7273  0.8566  0.9143
13317TIP3    H239909   4.488   4.715   6.294  0.4362  0.7003 -1.9187
13318TIP3   OH239910   7.889   1.860   5.781  0.3620 -0.5555  0.6551
13318TIP3    H139911   7.902   1.874   5.687  1.0589  0.1305  0.8456
13318TIP3    H239912   7.951   1.919   5.823  1.2198 -2.0255  1.5376
13319TIP3   OH239913   5.627   4.867   1.517 -0.1841  0.0564 -0.2360
13319TIP3    H139914   5.666   4.942   1.562  1.6848 -0.1830 -1.3455
13319TIP3    H239915   5.540   4.897   1.490  0.8614  2.1949 -1.4977
13320TIP3   OH239916   8.202   5.032   3.993 -0.3863 -0.4048  0.2128
13320TIP3    H139917   8.221   5.114   3.947  0.0381 -0.3509  0.4769
13320TIP3    H239918   8.171   4.972   3.924  0.9557 -0.5633 -0.2925
13321TIP3   OH239919   2.252   6.190   5.673 -0.0800  0.1447  0.6843
13321TIP3    H139920   2.303   6.271   5.677  0.7316 -0.2179 -1.3021
13321TIP3    H239921   2.190   6.203   5.601  0.9508 -1.4375 -0.5587
13322TIP3   OH239922   6.234   1.857   1.741  0.1157  0.2302 -0.7574
13322TIP3    H139923   6.287   1.935   1.758 -0.9077  0.7453  0.2251
13322TIP3    H239924   6.172   1.854   1.813 -0.0867 -1.3306 -0.9515
13323TIP3   OH239925   0.047   2.453   4.070 -0.5346 -0.3171  0.1652
13323TIP3    H139926   0.026   2.431   4.161  0.6542  0.9390  0.7787
13323TIP3    H239927   0.063   2.547   4.071  0.3114 -0.4121 -1.1941
13324TIP3   OH239928   5.039   2.546   5.469  0.3770  0.0008 -0.5708
13324TIP3    H139929   5.061   2.455   5.488  0.3906  0.2916  0.9341
13324TIP3    H239930   4.978   2.570   5.538  0.6542  1.2415 -0.7421
13325TIP3   OH239931   3.185   2.346   1.706  0.0467  0.3875 -0.5344
13325TIP3    H139932   3.096   2.312   1.698  0.0551  0.3662 -0.5369
13325TIP3    H239933   3.231   2.281   1.760  0.3158 -0.0802 -1.3097
13326TIP3   OH239934   8.186   0.106   1.970  0.2839 -0.4508 -0.2019
13326TIP3    H139935   8.120   0.075   1.907 -0.8323 -0.7174  1.0678
13326TIP3    H239936   8.198   0.199   1.947 -1.2675 -0.1389  0.1452
13327TIP3   OH239937   4.807   2.442   3.919 -0.2186  0.2873  0.2859
13327TIP3    H139938   4.725   2.465   3.875  0.4176  1.7236 -0.2345
13327TIP3    H239939   4.860   2.401   3.850 -0.7492 -1.3426  0.8104
13328TIP3   OH239940   2.376   7.608   1.088 -0.3855 -0.3605 -0.8725
13328TIP3    H139941   2.456   7.622   1.138 -0.9107  1.2041 -0.3915
13328TIP3    H239942   2.404   7.563   1.009  0.4419 -3.2013  0.8815
13329TIP3   OH239943   5.842   1.631   6.447 -0.1868 -0.0380 -0.7250
13329TIP3    H139944   5.836   1.558   6.509 -0.8875 -0.3603 -1.1632
13329TIP3    H239945   5.779   1.609   6.378  0.4214  0.4300 -1.4342
13330TIP3   OH239946   1.687   4.930   0.285  0.8961 -0.0389 -0.5760
13330TIP3    H139947   1.729   5.003   0.239 -1.6453  0.5714 -2.1207
13330TIP3    H239948   1.748   4.857   0.275  1.1453  0.4720 -3.7101
13331TIP3   OH239949   3.870   0.279   3.257  0.5372  0.0696  0.6998
13331TIP3    H139950   3.955   0.309   3.290  0.3440 -0.9987  2.2452
13331TIP3    H239951   3.816   0.358   3.257  0.7425  0.2459  2.3884
13332TIP3   OH239952   6.563   4.524   6.240  0.6804  0.5048 -0.0137
13332TIP3    H139953   6.584   4.548   6.331 -0.3943 -1.1414  0.7266
13332TIP3    H239954   6.626   4.454   6.219  0.8701  0.8222 -0.5232
13333TIP3   OH239955   6.270   3.347   5.373 -0.3860 -0.2843 -0.3028
13333TIP3    H139956   6.274   3.354   5.468  0.0013 -0.7412 -0.2805
13333TIP3    H239957   6.319   3.267   5.353  0.8697  0.6275 -0.9969
13334TIP3   OH239958   5.260   5.083   0.035 -0.0562  0.4638 -0.0678
13334TIP3    H139959   5.350   5.110   0.052  0.5426 -1.8755  0.8306
13334TIP3    H239960   5.227   5.147  -0.029  2.9317  0.1744 -2.0740
13335TIP3   OH239961   7.555   3.459   6.577  0.0438 -0.0583 -0.6136
13335TIP3    H139962   7.615   3.432   6.508  1.1825 -0.2087  0.3935
13335TIP3    H239963   7.507   3.533   6.540 -0.8498 -1.3986 -2.2791
13336TIP3   OH239964   2.540   2.100   1.917 -0.2513  0.2520  0.0745
13336TIP3    H139965   2.555   2.008   1.939 -0.2045  0.7360  2.3788
13336TIP3    H239966   2.458   2.122   1.963 -0.3479  1.3176 -0.5800
13337TIP3   OH239967   7.554   5.659   0.311  0.3238 -0.6597  0.1750
13337TIP3    H139968   7.530   5.735   0.364 -0.2942 -1.1153  0.5634
13337TIP3    H239969   7.648   5.648   0.327  0.5672  0.4130 -0.4092
13338TIP3   OH239970   6.017   5.921   3.767  0.1227 -0.1440 -0.5284
13338TIP3    H139971   5.957   5.867   3.715  0.5944 -0.6112 -0.6002
13338TIP3    H239972   5.990   5.907   3.858  0.2942 -0.5816 -0.5395
13339TIP3   OH239973   1.897   4.592   5.078 -0.2080 -0.6017  0.3059
13339TIP3    H139974   1.825   4.540   5.115 -0.7546  1.2492  2.0220
13339TIP3    H239975   1.888   4.580   4.983 -2.0155 -1.3882  0.5297
13340TIP3   OH239976   7.586   7.351   0.853  0.1871  0.1346  0.3524
13340TIP3    H139977   7.595   7.336   0.947  2.3675 -1.6303 -0.0671
13340TIP3    H239978   7.547   7.270   0.820  1.3649 -0.0850 -0.5232
13341TIP3   OH239979   5.959   5.141   1.865  0.1184  0.0321  0.3639
13341TIP3    H139980   6.047   5.178   1.859 -0.5235  1.4148 -0.9338
13341TIP3    H239981   5.973   5.054   1.903  2.4010 -0.9531 -2.3518
13342TIP3   OH239982   1.647   0.413   4.818  0.2991  0.6500 -0.0289
13342TIP3    H139983   1.703   0.489   4.834  1.1910 -0.1020  0.4387
13342TIP3    H239984   1.634   0.373   4.904 -0.0619  0.1902 -0.2917
13343TIP3   OH239985   1.511   6.664   6.539 -0.3238 -0.4812  0.0180
13343TIP3    H139986   1.592   6.614   6.528  0.4941  0.4744  1.3328
13343TIP3    H239987   1.468   6.624   6.614  0.6387  1.0605  1.4779
13344TIP3   OH239988   6.917   5.685   2.215  0.0793 -0.1717  0.5174
13344TIP3    H139989   6.930   5.639   2.298 -0.5696  0.2605  0.8701
13344TIP3    H239990   6.891   5.774   2.241  2.1594  0.6867 -0.1328
13345TIP3   OH239991   5.613   1.897   5.161 -0.2759  0.5866  0.2627
13345TIP3    H139992   5.619   1.831   5.092 -0.7120  1.7023 -0.8667
13345TIP3    H239993   5.613   1.846   5.242  2.4705 -0.6468 -0.4011
13346TIP3   OH239994   0.184   6.478   2.165 -0.0797 -0.1255  0.0821
13346TIP3    H139995   0.250   6.410   2.151 -0.2233 -0.6027  1.5243
13346TIP3    H239996   0.103   6.441   2.130 -0.0585 -0.5113  0.4343
13347TIP3   OH239997   2.254   6.009   1.051 -0.0528 -0.5317  0.0482
13347TIP3    H139998   2.169   6.046   1.027  0.1160  0.8113  1.3324
13347TIP3    H239999   2.310   6.086   1.063  0.8925 -1.3212  0.8090
13348TIP3   OH240000   7.042   2.222   6.135  0.2231 -1.1160 -0.0220
13348TIP3    H140001   7.093   2.303   6.140 -0.7655 -0.5147  0.5386
13348TIP3    H240002   7.052   2.183   6.222  1.5002 -2.1222 -0.5841
13349TIP3   OH240003   7.323   2.943   6.505 -0.1718 -0.1238  0.1747
13349TIP3    H140004   7.335   3.035   6.527  0.2178  0.4244 -2.0843
13349TIP3    H240005   7.244   2.941   6.452 -0.2725 -1.1390  0.3329
13350TIP3   OH240006   6.309   0.978   2.431  0.1137 -0.5182 -0.4916
13350TIP3    H140007   6.312   1.060   2.480  1.6232 -0.6143 -0.3627
13350TIP3    H240008   6.315   1.005   2.339 -1.1371 -0.4187 -0.5609
13351TIP3   OH240009   4.851   1.385   4.267  0.1258  0.4092 -0.0436
13351TIP3    H140010   4.762   1.411   4.289  0.0177 -0.6953  0.8901
13351TIP3    H240011   4.851   1.378   4.171 -1.3682 -1.4885  0.0489
13352TIP3   OH240012   6.800   0.752   2.876  0.3137 -0.4155 -0.8338
13352TIP3    H140013   6.827   0.692   2.945  0.5419 -1.4966 -1.8205
13352TIP3    H240014   6.873   0.750   2.813  0.5109  1.2369 -0.6856
13353TIP3   OH240015   0.686   0.791   5.606  0.1550 -0.3741 -0.0791
13353TIP3    H140016   0.608   0.807   5.552 -0.6932 -1.0521  0.8974
13353TIP3    H240017   0.760   0.815   5.550 -0.7593  0.4464 -0.9775
13354TIP3   OH240018   5.799   6.372   3.884 -0.0188 -0.9369  0.1627
13354TIP3    H140019   5.806   6.386   3.790 -1.1413  1.1298  0.3356
13354TIP3    H240020   5.884   6.396   3.919 -0.7262  2.0805  0.0193
13355TIP3   OH240021   0.047   2.914   0.688  0.5019  0.0149 -0.0665
13355TIP3    H140022   0.050   2.896   0.782  0.9133  0.8348  0.0846
13355TIP3    H240023  -0.045   2.933   0.669  0.2314 -1.1588 -0.0406
13356TIP3   OH240024   3.540   5.773   1.056  0.7414 -0.2968  0.1570
13356TIP3    H140025   3.548   5.868   1.052  0.6371 -0.2306  1.1474
13356TIP3    H240026   3.621   5.740   1.017 -0.0779  0.1382 -2.0754
13357TIP3   OH240027   3.297   3.177   4.439 -0.6396 -0.7400 -0.0802
13357TIP3    H140028   3.350   3.098   4.429 -0.5660 -0.5491 -1.3296
13357TIP3    H240029   3.229   3.152   4.502 -0.9016 -1.9589 -0.8027
13358TIP3   OH240030   8.070   6.203   2.078 -0.5085 -0.3026  0.5704
13358TIP3    H140031   8.097   6.268   2.143 -0.7541  0.4808 -0.0971
13358TIP3    H240032   8.069   6.120   2.126  0.2454  0.1075  1.3285
13359TIP3   OH240033   3.904   3.706   2.821 -0.0900 -0.1554 -0.2448
13359TIP3    H140034   3.921   3.730   2.912 -0.4913  1.2175 -0.5095
13359TIP3    H240035   3.957   3.628   2.807 -0.6594 -0.8964  1.4110
13360TIP3   OH240036   6.185   6.091   0.034 -1.2479  0.4608  0.2059
13360TIP3    H140037   6.107   6.140   0.059 -2.1517 -0.9430  0.2635
13360TIP3    H240038   6.151   6.006   0.004 -0.0952  1.1272 -3.5091
13361TIP3   OH240039   5.014   1.453   4.787  0.7955  0.3651 -0.3417
13361TIP3    H140040   4.977   1.519   4.846 -0.2000 -1.0160  0.6650
13361TIP3    H240041   4.971   1.468   4.703 -0.5932  0.0496  0.2909
13362TIP3   OH240042   1.468   1.360   4.985  0.1373 -0.5439 -0.2078
13362TIP3    H140043   1.402   1.291   4.988 -1.5678  0.9510 -0.9190
13362TIP3    H240044   1.486   1.372   4.891  1.6455 -1.0764 -0.0228
13363TIP3   OH240045   3.281   1.755   0.556 -0.1967  0.1635  0.4560
13363TIP3    H140046   3.263   1.827   0.495 -0.5976  0.1728  0.5870
13363TIP3    H240047   3.304   1.681   0.499  1.5626  0.7472  0.3485
13364TIP3   OH240048   3.358   1.120   4.765  0.4314  0.5553 -0.8814
13364TIP3    H140049   3.299   1.194   4.779 -0.2388  0.1735 -1.6009
13364TIP3    H240050   3.437   1.143   4.814 -0.6555  0.6512  0.9042
13365TIP3   OH240051   0.386   2.395   3.929 -0.0910  0.1138  0.0401
13365TIP3    H140052   0.447   2.373   3.858  0.1785  0.9711 -0.0043
13365TIP3    H240053   0.413   2.483   3.957 -2.3417  1.2793 -1.1425
13366TIP3   OH240054   7.284   3.362   5.402 -0.0541 -0.0702  0.3261
13366TIP3    H140055   7.274   3.457   5.416  0.1419  0.6148 -3.1905
13366TIP3    H240056   7.371   3.353   5.364  0.4353 -1.9194  1.7279
13367TIP3   OH240057   7.846   4.011   0.961  0.3652  0.1546  0.3683
13367TIP3    H140058   7.919   4.008   1.023 -0.8252  1.3778  1.8760
13367TIP3    H240059   7.878   3.961   0.885  1.8333 -1.4695  1.9496
13368TIP3   OH240060   1.433   2.032   2.906  0.1580  0.1236 -0.2246
13368TIP3    H140061   1.445   2.122   2.938  1.1514 -0.3138  0.6965
13368TIP3    H240062   1.403   2.042   2.816  1.8561  1.3861 -0.7079
13369TIP3   OH240063   3.479   7.650   5.237 -0.1966 -0.4788 -0.0174
13369TIP3    H140064   3.423   7.573   5.252 -0.8967 -0.8024 -3.5518
13369TIP3    H240065   3.512   7.639   5.148  1.4995  2.2508  0.1696
13370TIP3   OH240066   6.851   3.118   1.085  0.2205 -0.1114  0.3454
13370TIP3    H140067   6.823   3.191   1.141 -0.6142  0.0567 -0.2664
13370TIP3    H240068   6.940   3.099   1.113 -0.0307  0.2551  1.4359
13371TIP3   OH240069   7.889   5.327   5.942 -0.1866 -0.1654 -0.3235
13371TIP3    H140070   7.823   5.259   5.954  0.5017 -0.4812  2.2966
13371TIP3    H240071   7.851   5.386   5.877 -2.0755 -1.4868 -0.5002
13372TIP3   OH240072   3.511   7.186   5.685  0.0090  0.0116  0.2909
13372TIP3    H140073   3.419   7.180   5.658 -0.0515 -2.4700  0.8214
13372TIP3    H240074   3.550   7.249   5.624 -2.2903  2.1998  0.9086
13373TIP3   OH240075   4.498   2.835   2.058  0.5176 -1.1127 -0.1312
13373TIP3    H140076   4.464   2.856   1.971 -1.5427 -0.7741  0.6952
13373TIP3    H240077   4.428   2.786   2.100  1.0014 -0.2821  1.7369
13374TIP3   OH240078   2.080   2.622   0.748  0.4029  0.0218  0.7005
13374TIP3    H140079   2.022   2.696   0.764 -1.5418 -1.1506 -0.4370
13374TIP3    H240080   2.048   2.584   0.666  2.5989 -0.9075  0.2070
13375TIP3   OH240081   0.770   0.251   3.706 -0.8598 -0.1308 -0.0947
13375TIP3    H140082   0.806   0.298   3.632 -0.8679  3.5815  2.0211
13375TIP3    H240083   0.680   0.232   3.681 -0.4835 -0.1965 -1.4964
13376TIP3   OH240084   3.217   1.563   4.097 -0.3324 -0.0593 -0.4262
13376TIP3    H140085   3.222   1.468   4.085 -1.3087 -0.1365 -0.3738
13376TIP3    H240086   3.298   1.597   4.058  1.1439 -1.0700  1.6199
13377TIP3   OH240087   6.991   7.629   6.094 -1.0289  0.0535 -0.6403
13377TIP3    H140088   7.049   7.554   6.101 -0.8782 -0.1191 -2.9743
13377TIP3    H240089   6.993   7.653   6.001 -1.5746  2.5410 -0.1015
13378TIP3   OH240090   1.261   4.077   4.801  0.2168 -0.7300  0.6111
13378TIP3    H140091   1.275   3.984   4.821  1.6038 -0.4333  1.1450
13378TIP3    H240092   1.349   4.112   4.790 -0.3142  0.4246 -0.0967
13379TIP3   OH240093   3.698   3.943   4.747  0.0333  0.4473 -0.0365
13379TIP3    H140094   3.751   3.971   4.673 -1.9218  2.7482 -0.7096
13379TIP3    H240095   3.608   3.940   4.713 -1.1158  2.6218  2.3550
13380TIP3   OH240096   6.861   1.429   4.123 -0.2149 -0.1001  0.2206
13380TIP3    H140097   6.899   1.515   4.105 -0.2368 -0.3243 -1.0045
13380TIP3    H240098   6.811   1.441   4.203  0.4146  0.8275  0.4924
13381TIP3   OH240099   7.043   5.451   6.708  0.3165  0.0283  0.5225
13381TIP3    H140100   7.022   5.508   6.783 -1.6037  0.7459 -0.5052
13381TIP3    H240101   7.066   5.512   6.638 -0.7716 -0.4769 -0.2972
13382TIP3   OH240102   7.720   2.156   6.314 -0.1340  0.3309  0.5207
13382TIP3    H140103   7.701   2.173   6.407  0.7718 -1.4421  1.0604
13382TIP3    H240104   7.784   2.224   6.290  0.8562 -0.1628  1.6626
13383TIP3   OH240105   5.408   0.927   1.562  0.1201 -0.0889 -0.1534
13383TIP3    H140106   5.438   0.841   1.591  0.4242 -0.2744 -0.9736
13383TIP3    H240107   5.487   0.982   1.564  0.2112 -0.1845 -0.8918
13384TIP3   OH240108   6.994   3.508   6.746  0.1057  0.3358  0.2564
13384TIP3    H140109   7.015   3.571   6.676 -0.7444  0.1279 -0.1872
13384TIP3    H240110   6.972   3.563   6.821  3.5284  0.6235  1.2236
13385TIP3   OH240111   7.154   4.447   6.243 -0.0669 -0.1348  0.2833
13385TIP3    H140112   7.190   4.373   6.291  1.3275 -1.0775 -2.0253
13385TIP3    H240113   7.069   4.416   6.211 -0.6029  0.1873  1.3574
13386TIP3   OH240114   4.989   1.207   5.322 -0.1173  0.0760  0.2972
13386TIP3    H140115   5.070   1.254   5.343  0.5700 -0.6612 -0.5752
13386TIP3    H240116   4.924   1.242   5.383  0.3463  2.1195 -0.3068
13387TIP3   OH240117   6.325   3.659   5.371  0.6985 -0.2260 -0.4259
13387TIP3    H140118   6.315   3.568   5.346 -0.8473  0.0041 -0.7296
13387TIP3    H240119   6.245   3.680   5.420  0.7140  1.1423 -0.9487
13388TIP3   OH240120   5.435   7.731   0.773 -0.3023  0.2767 -0.2275
13388TIP3    H140121   5.397   7.816   0.750  2.8086  1.3255 -2.1430
13388TIP3    H240122   5.499   7.751   0.841  0.9017 -0.3336 -1.1241
13389TIP3   OH240123   2.146   7.595   4.882 -0.2836 -0.0193 -0.0015
13389TIP3    H140124   2.099   7.676   4.861 -0.5564 -0.6419 -2.0373
13389TIP3    H240125   2.212   7.587   4.814 -1.7374 -2.6032 -1.2742
13390TIP3   OH240126   0.418   7.335   1.351  0.0299 -0.9036  0.0290
13390TIP3    H140127   0.362   7.406   1.320 -0.4476 -0.7466  1.2218
13390TIP3    H240128   0.497   7.379   1.384  0.8302 -1.1144 -1.5113
13391TIP3   OH240129   6.455   0.085   5.103  0.0707 -0.3312  0.6338
13391TIP3    H140130   6.438   0.047   5.017 -2.0231 -0.0413  0.8699
13391TIP3    H240131   6.525   0.148   5.088 -1.3017  0.8349 -1.2026
13392TIP3   OH240132   6.907   1.958   1.894  0.6463 -0.2967 -0.2033
13392TIP3    H140133   6.938   2.040   1.855  0.4210 -0.0076  0.2224
13392TIP3    H240134   6.830   1.983   1.945  0.9813 -0.6572  0.4982
13393TIP3   OH240135   2.812   4.996   2.293 -0.3885 -0.0088  0.0042
13393TIP3    H140136   2.838   5.087   2.307  1.1516 -0.3272 -0.6384
13393TIP3    H240137   2.833   4.978   2.201 -0.4161 -1.0886  0.1909
13394TIP3   OH240138   8.312   2.608   2.170  0.2353  0.1840 -0.5751
13394TIP3    H140139   8.226   2.573   2.193 -0.0455  0.8302 -0.6158
13394TIP3    H240140   8.300   2.703   2.168  1.5183  0.4579  1.7343
13395TIP3   OH240141   0.730   2.466   0.496 -0.5822 -0.1807 -0.1857
13395TIP3    H140142   0.662   2.457   0.429  0.3696 -0.6692 -1.1127
13395TIP3    H240143   0.794   2.399   0.474  0.1241  0.1573  0.7842
13396TIP3   OH240144   3.994   0.611   2.020 -0.6453 -0.2461 -0.2394
13396TIP3    H140145   3.996   0.548   2.093  2.5150  0.9194  0.8764
13396TIP3    H240146   3.938   0.681   2.051 -0.2642 -0.3039  0.6190
13397TIP3   OH240147   7.760   0.278   5.503  0.4074  0.3846 -0.1515
13397TIP3    H140148   7.757   0.210   5.436 -0.4957  0.6929 -0.4282
13397TIP3    H240149   7.719   0.238   5.580  0.3566  0.4372 -0.1510
13398TIP3   OH240150   5.784   5.029   1.305  0.0900  0.0886 -0.3779
13398TIP3    H140151   5.708   5.060   1.255  0.6595  1.7058 -0.3203
13398TIP3    H240152   5.748   5.003   1.390 -0.4927  0.2271 -0.5774
13399TIP3   OH240153   6.047   0.099   6.573  0.0262 -0.6208 -0.3497
13399TIP3    H140154   6.062   0.020   6.624  0.4833  0.4597  1.2779
13399TIP3    H240155   6.064   0.073   6.482  0.4636 -2.2854  0.1751
13400TIP3   OH240156   5.405   6.673   4.905  0.0770  0.3905  0.2194
13400TIP3    H140157   5.466   6.605   4.876  0.1275  1.3943 -2.3817
13400TIP3    H240158   5.415   6.676   5.000  0.9820 -2.3199  0.2867
13401TIP3   OH240159   2.757   6.350   4.663 -0.2938 -0.0271 -0.2194
13401TIP3    H140160   2.677   6.361   4.715 -0.0825 -0.2148  0.1528
13401TIP3    H240161   2.798   6.436   4.664 -0.4256  0.0366 -0.2980
13402TIP3   OH240162   6.362   3.459   3.286 -0.1178  0.5114  0.1634
13402TIP3    H140163   6.414   3.435   3.363 -0.7446 -2.6652 -0.2650
13402TIP3    H240164   6.391   3.548   3.264  1.9612  0.5165  2.4664
13403TIP3   OH240165   0.438   6.531   4.114  0.0995 -0.5367 -1.0359
13403TIP3    H140166   0.520   6.524   4.163  0.1526 -0.3913 -1.1035
13403TIP3    H240167   0.444   6.615   4.067  0.2279 -0.8638 -1.6157
13404TIP3   OH240168   1.838   6.161   2.094 -0.0586  0.4288 -0.3823
13404TIP3    H140169   1.773   6.130   2.031 -0.6360  1.7673 -0.4810
13404TIP3    H240170   1.913   6.103   2.082 -1.5721 -1.8598  0.4764
13405TIP3   OH240171   6.227   1.099   2.872  0.0297  0.0733 -0.0064
13405TIP3    H140172   6.290   1.167   2.848 -0.0803  1.4472  3.0333
13405TIP3    H240173   6.142   1.143   2.868 -0.1262 -0.0689  1.1435
13406TIP3   OH240174   4.854   6.446   1.984 -0.1171  0.3607  0.1362
13406TIP3    H140175   4.787   6.384   2.014 -0.8329  1.2411  0.4050
13406TIP3    H240176   4.916   6.392   1.936 -0.3565 -0.6828  0.9431
13407TIP3   OH240177   0.134   3.768   5.189  0.5407 -0.1309 -0.3445
13407TIP3    H140178   0.230   3.773   5.194  0.5234  1.4705 -0.8865
13407TIP3    H240179   0.109   3.848   5.143 -1.0368 -0.7768 -0.6613
13408TIP3   OH240180   6.468   5.685   0.364  0.0469 -0.4731 -0.0027
13408TIP3    H140181   6.557   5.720   0.363  0.0125 -0.3191  1.1427
13408TIP3    H240182   6.423   5.734   0.296  0.7834 -0.4023 -0.4491
13409TIP3   OH240183   3.231   1.452   4.654  0.2119  0.2824  0.5257
13409TIP3    H140184   3.258   1.542   4.669 -0.0352  0.0644  2.4320
13409TIP3    H240185   3.288   1.422   4.582  0.5325  1.8142  0.0936
13410TIP3   OH240186   3.668   5.039   2.467 -0.4367 -0.5940  0.8908
13410TIP3    H140187   3.715   5.058   2.549 -0.3321  0.6062  0.5749
13410TIP3    H240188   3.587   4.996   2.496  0.4666 -1.9821  1.4845
13411TIP3   OH240189   2.140   0.634   2.875 -0.5434  0.1323  0.5680
13411TIP3    H140190   2.059   0.586   2.859  0.1649 -0.6209 -0.9426
13411TIP3    H240191   2.110   0.723   2.896 -1.7474  0.1141 -0.8747
13412TIP3   OH240192   4.814   5.807   4.808 -0.0081  0.2196  0.2736
13412TIP3    H140193   4.845   5.893   4.835  0.4285 -0.1696  1.0543
13412TIP3    H240194   4.892   5.752   4.807  0.1086  0.3046 -2.3111
13413TIP3   OH240195   4.667   5.054   6.382 -0.0012 -0.1652  0.1133
13413TIP3    H140196   4.634   5.034   6.294 -1.1114 -1.6888  0.8343
13413TIP3    H240197   4.618   5.132   6.409 -1.2903 -0.9787  0.2115
13414TIP3   OH240198   5.584   1.280   3.891 -0.2519 -0.0309 -0.4076
13414TIP3    H140199   5.624   1.288   3.977 -0.3764  0.9982 -0.4236
13414TIP3    H240200   5.625   1.350   3.840 -0.4490 -0.3978 -1.0768
13415TIP3   OH240201   4.869   1.932   3.514  0.4422  0.6159 -0.0781
13415TIP3    H140202   4.817   1.932   3.433  0.5032 -0.5047 -0.1336
13415TIP3    H240203   4.816   1.882   3.576  1.2355 -0.1379  0.0044
13416TIP3   OH240204   1.203   3.613   6.471  0.0880 -0.0308  0.0394
13416TIP3    H140205   1.258   3.536   6.488  0.0213 -0.0886 -0.0036
13416TIP3    H240206   1.135   3.581   6.412 -0.3441 -0.1021  0.5735
13417TIP3   OH240207   0.749   2.343   6.443  0.0468  0.0444 -0.2341
13417TIP3    H140208   0.715   2.317   6.528 -0.5207  2.1853  0.2617
13417TIP3    H240209   0.705   2.426   6.424  3.1688  1.7137 -0.7045
13418TIP3   OH240210   0.930   3.747   0.608 -1.0230  0.6770 -0.3263
13418TIP3    H140211   0.905   3.764   0.517 -0.0487  1.6477 -0.4236
13418TIP3    H240212   1.025   3.761   0.610 -0.7165 -1.2377  0.4193
13419TIP3   OH240213   1.029   7.145   3.545  0.7002 -0.1750 -0.2547
13419TIP3    H140214   1.063   7.233   3.559 -0.0377  0.1076 -0.1737
13419TIP3    H240215   1.064   7.093   3.617 -0.6070  0.5596  0.9736
13420TIP3   OH240216   0.695   2.155   2.304 -0.1980 -0.2477 -0.1016
13420TIP3    H140217   0.680   2.066   2.335  0.1827 -0.1509  0.3777
13420TIP3    H240218   0.607   2.191   2.290 -0.4051 -0.1712  1.2455
13421TIP3   OH240219   4.004   5.428   2.719 -0.0657 -0.0811  0.1239
13421TIP3    H140220   3.966   5.389   2.641 -0.9832  0.5490  0.2458
13421TIP3    H240221   4.032   5.353   2.772 -0.2714 -0.5294 -0.3904
13422TIP3   OH240222   6.358   5.627   6.312 -0.6385  0.1801  0.1161
13422TIP3    H140223   6.355   5.700   6.374 -1.3883  0.8761 -0.6896
13422TIP3    H240224   6.447   5.629   6.276 -1.3874  2.5514 -1.9372
13423TIP3   OH240225   0.667   7.557   0.833  0.5793 -0.2449  0.0568
13423TIP3    H140226   0.589   7.577   0.885  1.4492 -1.6987  2.0510
13423TIP3    H240227   0.633   7.513   0.756 -0.6826  0.8317 -0.0488
13424TIP3   OH240228   3.388   3.021   5.277  0.6136 -0.8116  0.2041
13424TIP3    H140229   3.300   2.983   5.285  1.1052 -2.0825 -0.1004
13424TIP3    H240230   3.411   3.049   5.365  0.2602 -1.3388  0.4678
13425TIP3   OH240231   5.465   0.052   1.972  0.2186 -0.0446 -0.4707
13425TIP3    H140232   5.511  -0.005   2.032 -0.7365 -0.0769  0.2618
13425TIP3    H240233   5.406  -0.006   1.924  1.6453 -0.1758 -2.1629
13426TIP3   OH240234   1.567   7.118   5.200 -0.0033 -0.2911 -0.1179
13426TIP3    H140235   1.544   7.162   5.118  0.9433  0.3053 -0.0759
13426TIP3    H240236   1.496   7.140   5.260  0.1514  0.6766 -0.2807
13427TIP3   OH240237   3.349   3.342   2.440  0.3100 -0.2209  0.3734
13427TIP3    H140238   3.310   3.334   2.354 -0.8788 -1.3726  0.9798
13427TIP3    H240239   3.413   3.271   2.444 -0.0712 -0.5587  0.6354
13428TIP3   OH240240   4.762   4.917   0.568 -0.2226  0.0426  0.1722
13428TIP3    H140241   4.702   4.975   0.522 -0.3920  0.3024  0.7098
13428TIP3    H240242   4.807   4.973   0.631 -1.8424 -0.7450  2.1277
13429TIP3   OH240243   7.841   2.912   4.393  0.3554 -0.3015 -0.2249
13429TIP3    H140244   7.848   2.822   4.424 -0.5803  0.4071  2.2379
13429TIP3    H240245   7.926   2.951   4.414 -0.4216  0.3049  2.1633
13430TIP3   OH240246   4.385   1.835   6.078 -0.4048  0.4733 -0.6330
13430TIP3    H140247   4.351   1.777   6.010 -0.8739 -1.4462  1.1371
13430TIP3    H240248   4.316   1.838   6.144  0.6915  0.8976  0.5445
13431TIP3   OH240249   6.715   0.205   5.853 -0.0925  0.5008  0.1484
13431TIP3    H140250   6.673   0.140   5.910  1.3118 -0.4284  0.1733
13431TIP3    H240251   6.805   0.174   5.845  0.5456  2.3247 -0.0478
13432TIP3   OH240252   5.211   2.714   4.606 -0.3079 -0.3691 -0.3971
13432TIP3    H140253   5.231   2.663   4.527  1.1888 -1.3529  0.5683
13432TIP3    H240254   5.246   2.801   4.588  1.3248 -0.9762 -0.3113
13433TIP3   OH240255   4.136   7.670   4.251  0.0508  0.4609 -0.0566
13433TIP3    H140256   4.084   7.659   4.172  0.4024  0.7073 -0.3232
13433TIP3    H240257   4.225   7.647   4.226  0.0302 -0.2384  0.4728
13434TIP3   OH240258   0.600   4.823   0.265 -0.1365  0.3962  0.1003
13434TIP3    H140259   0.540   4.779   0.204  1.0145  0.6814 -1.3000
13434TIP3    H240260   0.605   4.913   0.234  1.7830  0.1451 -0.5012
13435TIP3   OH240261   0.416   7.472   3.342 -0.6729  0.2868 -0.3253
13435TIP3    H140262   0.323   7.456   3.359 -0.6528 -0.3145 -0.7740
13435TIP3    H240263   0.435   7.552   3.391 -1.3395  0.2215  0.0581
13436TIP3   OH240264   0.407   0.927   3.834 -0.5502  0.3844 -0.4665
13436TIP3    H140265   0.401   0.923   3.738  2.4981  0.6801 -0.7716
13436TIP3    H240266   0.457   1.007   3.851 -0.6183  0.0673  1.3487
13437TIP3   OH240267   8.065   4.175   6.688  0.4162 -0.0120  0.0948
13437TIP3    H140268   8.013   4.108   6.644  0.8366 -0.0187 -0.3980
13437TIP3    H240269   8.155   4.156   6.663  0.6846 -0.1196  1.0991
13438TIP3   OH240270   1.108   4.211   2.053  0.2569  0.5551  0.0894
13438TIP3    H140271   1.092   4.305   2.062 -0.3517  0.4116  0.6541
13438TIP3    H240272   1.107   4.179   2.144 -2.7989 -0.4930 -0.1887
13439TIP3   OH240273   6.949   6.320   1.685  0.3288  0.2088  0.9440
13439TIP3    H140274   6.921   6.243   1.734  0.0015  0.2686  0.8596
13439TIP3    H240275   6.867   6.369   1.670  0.2720 -0.2765 -0.4761
13440TIP3   OH240276   2.192   5.101   6.084  0.1351  0.3114 -0.3099
13440TIP3    H140277   2.226   5.053   6.160  0.4208  2.1679  0.7959
13440TIP3    H240278   2.109   5.138   6.114  1.7420  3.7430  0.2839
13441TIP3   OH240279   4.078   4.826   0.893  0.0531 -0.3424 -0.0083
13441TIP3    H140280   4.010   4.761   0.876  0.4536 -0.4448 -1.3201
13441TIP3    H240281   4.102   4.812   0.985 -1.2242 -0.7371  0.2848
13442TIP3   OH240282   6.667   3.253   4.118 -0.1476 -0.6381  0.1570
13442TIP3    H140283   6.706   3.170   4.144 -0.0189 -0.6189  0.0229
13442TIP3    H240284   6.734   3.319   4.138 -0.1865 -0.5840  0.1093
13443TIP3   OH240285   0.053   6.958   6.344 -0.4852  0.3672  0.0249
13443TIP3    H140286   0.144   6.984   6.329 -0.7075  1.1629  0.0474
13443TIP3    H240287   0.004   7.003   6.276 -0.9264  0.3296  0.3181
13444TIP3   OH240288   3.616   7.104   5.076 -0.2440 -0.0733 -0.5671
13444TIP3    H140289   3.635   7.059   5.158  1.0208  0.0009 -0.8052
13444TIP3    H240290   3.523   7.086   5.060 -0.3858 -0.4816  0.6288
13445TIP3   OH240291   2.194   1.934   3.231 -0.2179  0.7757 -0.1258
13445TIP3    H140292   2.146   1.890   3.301  1.4777  0.4351  0.8728
13445TIP3    H240293   2.142   1.918   3.152 -1.3858 -0.1247  0.8017
13446TIP3   OH240294   1.581   3.749   0.929  0.4292  0.1057  0.4850
13446TIP3    H140295   1.650   3.798   0.885  0.5079  0.4171  0.9399
13446TIP3    H240296   1.619   3.663   0.945  0.7144  0.2732  0.7292
13447TIP3   OH240297   4.958   1.760   0.117  0.6412  0.1789 -0.7043
13447TIP3    H140298   4.954   1.670   0.085  0.6138  0.5745 -1.8781
13447TIP3    H240299   5.016   1.805   0.055  2.1495  0.5657  0.9309
13448TIP3   OH240300   6.687   3.555   4.573  0.9830  0.0324  0.1156
13448TIP3    H140301   6.749   3.495   4.533  0.2789 -0.6569  0.0508
13448TIP3    H240302   6.622   3.499   4.615  0.1754  0.7383 -0.1636
13449TIP3   OH240303   0.119   1.940   0.322 -0.0593  0.5068  0.0533
13449TIP3    H140304   0.087   1.989   0.246 -0.7755 -1.2458 -0.8415
13449TIP3    H240305   0.040   1.918   0.371  0.3504  1.1270  1.0097
13450TIP3   OH240306   0.972   5.008   0.998  0.3140  0.0429  0.1918
13450TIP3    H140307   0.973   5.005   1.094  1.6128  1.4325  0.2612
13450TIP3    H240308   0.883   5.037   0.977 -0.3960 -1.5166  0.8905
13451TIP3   OH240309   4.504   7.076   4.536  0.1083  0.4499  0.2321
13451TIP3    H140310   4.593   7.040   4.529  0.0732  0.4696 -0.3281
13451TIP3    H240311   4.447   7.002   4.517  0.0370  0.7962 -1.0074
13452TIP3   OH240312   4.923   5.270   6.435  0.4357 -0.3145  0.0931
13452TIP3    H140313   4.838   5.282   6.393  0.9595 -1.5210 -1.3756
13452TIP3    H240314   4.902   5.250   6.526 -0.8753 -1.0348 -0.3436
13453TIP3   OH240315   0.317   3.477   2.804 -0.1027  0.4668  0.2687
13453TIP3    H140316   0.366   3.560   2.797  0.7724  0.0637  1.3816
13453TIP3    H240317   0.360   3.430   2.875  1.0481 -2.0387 -1.9320
13454TIP3   OH240318   6.362   6.166   4.142  0.3733 -0.6241  0.5500
13454TIP3    H140319   6.279   6.150   4.097  0.4692 -0.6279  0.3720
13454TIP3    H240320   6.429   6.145   4.077  0.5172  1.1257  0.0729
13455TIP3   OH240321   3.332   4.107   6.529 -0.2278  0.6891 -0.1296
13455TIP3    H140322   3.291   4.191   6.548 -0.4369  0.2883  1.3235
13455TIP3    H240323   3.260   4.043   6.531  0.1827  0.2254  0.7204
13456TIP3   OH240324   4.844   0.647   1.872  0.4070 -0.0636  0.0234
13456TIP3    H140325   4.766   0.617   1.826 -0.5069 -0.4752  1.7706
13456TIP3    H240326   4.906   0.575   1.865  0.0503 -0.3635 -0.0263
13457TIP3   OH240327   5.469   6.680   6.573  0.2814 -0.2226  0.6282
13457TIP3    H140328   5.428   6.741   6.511  0.3224 -1.0044 -0.1865
13457TIP3    H240329   5.403   6.666   6.640 -0.2410 -0.3286  0.1033
13458TIP3   OH240330   0.353   0.284   4.000 -0.0325 -1.0184  0.0611
13458TIP3    H140331   0.265   0.317   3.985  1.0285  1.8795 -0.6386
13458TIP3    H240332   0.382   0.251   3.915  0.3646  0.3768 -0.3800
13459TIP3   OH240333   7.389   7.443   5.675 -0.1453  0.1714 -0.2645
13459TIP3    H140334   7.330   7.369   5.659 -0.6418  0.8068 -1.5860
13459TIP3    H240335   7.337   7.503   5.729  0.2166 -0.3737  0.7110
13460TIP3   OH240336   3.905   5.444   4.263 -0.6974 -0.2272  0.1501
13460TIP3    H140337   3.856   5.461   4.344 -2.6766 -2.4243 -0.4802
13460TIP3    H240338   3.840   5.452   4.194  0.4615 -0.6468 -1.0151
13461TIP3   OH240339   5.747   6.153   4.076 -0.0333  0.2638 -0.1649
13461TIP3    H140340   5.653   6.136   4.081  0.2070 -1.8004 -1.5337
13461TIP3    H240341   5.758   6.202   3.994  0.2714 -1.3751 -1.1376
13462TIP3   OH240342   1.057   7.570  -0.023  0.6162  0.1588  0.0117
13462TIP3    H140343   1.114   7.494  -0.010  1.1011  0.3631 -0.8334
13462TIP3    H240344   0.982   7.553   0.035  0.2643 -1.4267 -0.8308
13463TIP3   OH240345   4.404   4.550   4.456 -0.7316 -0.3463  0.1747
13463TIP3    H140346   4.421   4.533   4.363 -1.1797 -0.9842  0.2126
13463TIP3    H240347   4.478   4.606   4.483  0.2259 -1.4044 -0.1831
13464TIP3   OH240348   7.022   2.740   2.710  0.0978 -0.4369  0.3240
13464TIP3    H140349   6.980   2.823   2.734 -2.2164 -0.0605 -3.8847
13464TIP3    H240350   6.966   2.673   2.748 -0.2920  0.0158  0.5604
13465TIP3   OH240351   0.619   6.527   1.481 -0.2104  0.2511 -0.3125
13465TIP3    H140352   0.710   6.501   1.494 -1.0411 -2.4697  0.6665
13465TIP3    H240353   0.587   6.470   1.412 -1.8365 -0.6536  1.1173
13466TIP3   OH240354   5.929   4.331   6.769 -0.0464 -0.2361 -0.7709
13466TIP3    H140355   6.014   4.361   6.801 -0.0937 -1.5633  0.7403
13466TIP3    H240356   5.898   4.401   6.712  2.1981  0.1293 -1.6152
13467TIP3   OH240357   3.033   4.393   2.945  0.6855  0.0280 -0.6635
13467TIP3    H140358   2.942   4.407   2.970  1.0539  2.4364 -0.4065
13467TIP3    H240359   3.075   4.362   3.026  0.3769  0.3699 -0.3660
13468TIP3   OH240360   2.071   5.554   5.024  0.4757  0.2134 -0.0617
13468TIP3    H140361   2.167   5.554   5.016  0.6131 -1.1260  1.1479
13468TIP3    H240362   2.046   5.645   5.012  1.7850  0.4121 -1.6055
13469TIP3   OH240363   6.392   1.627   2.925  0.2690 -0.4743 -0.3199
13469TIP3    H140364   6.328   1.566   2.962  1.4383 -1.5012  0.0536
13469TIP3    H240365   6.339   1.696   2.884 -1.0684 -0.6776  1.0005
13470TIP3   OH240366   2.830   3.062   2.304  0.6645  0.9847  0.0808
13470TIP3    H140367   2.810   3.110   2.385 -1.0232  0.1738  0.1849
13470TIP3    H240368   2.790   3.116   2.235  0.3288  0.6486  0.0110
13471TIP3   OH240369   6.469   3.389   6.601 -0.2180 -0.6833 -0.1788
13471TIP3    H140370   6.561   3.397   6.627  0.2984 -1.5788 -1.6084
13471TIP3    H240371   6.420   3.401   6.682  1.1665 -0.3875  0.6464
13472TIP3   OH240372   5.938   0.016   2.821  0.5004 -0.2375  0.3038
13472TIP3    H140373   5.859   0.010   2.875  0.3791 -0.2139  0.1283
13472TIP3    H240374   6.005   0.049   2.881 -0.0066  1.3064  0.0855
13473TIP3   OH240375   7.968   7.534   6.770  0.0913 -0.0923  0.2320
13473TIP3    H140376   8.017   7.501   6.694  0.0428 -0.5732  0.4051
13473TIP3    H240377   7.983   7.468   6.837 -0.7188 -0.1917  0.3193
13474TIP3   OH240378   1.851   1.166   2.868 -0.0420  0.1560  0.5350
13474TIP3    H140379   1.764   1.127   2.877  1.0963 -2.2686  1.9493
13474TIP3    H240380   1.875   1.150   2.777 -0.8266  0.3853  0.2750
13475TIP3   OH240381   6.621   4.069   5.223 -0.3046 -0.1651 -0.3873
13475TIP3    H140382   6.556   4.046   5.290  0.2392 -0.8184 -0.0740
13475TIP3    H240383   6.630   4.164   5.231 -0.5306 -0.1861  0.2118
13476TIP3   OH240384   1.732   2.612   3.574 -0.1903 -0.1609  0.2752
13476TIP3    H140385   1.812   2.647   3.535 -0.0729 -2.0225 -1.2400
13476TIP3    H240386   1.755   2.596   3.666  1.0748 -0.3730 -0.0679
13477TIP3   OH240387   3.687   6.538   5.913  0.2394 -0.1372  0.2398
13477TIP3    H140388   3.680   6.535   5.818 -0.2212 -4.5568  0.2038
13477TIP3    H240389   3.774   6.575   5.930  0.2196  1.0188 -1.7994
13478TIP3   OH240390   6.993   7.097   4.697  0.0571 -0.4653  0.3272
13478TIP3    H140391   7.029   7.186   4.690 -1.9330  0.4409  0.7764
13478TIP3    H240392   7.029   7.050   4.622 -0.6518  1.4317 -1.2853
13479TIP3   OH240393   7.995   6.453   6.566  0.3483 -0.3165  0.6309
13479TIP3    H140394   8.089   6.467   6.572  0.3833 -0.9596  2.3164
13479TIP3    H240395   7.966   6.446   6.657 -1.6232  1.5630  0.2335
13480TIP3   OH240396   0.804   0.928   3.654  0.6460  0.6213 -0.4116
13480TIP3    H140397   0.839   1.008   3.695  0.9065  0.8872 -1.1301
13480TIP3    H240398   0.863   0.911   3.581  0.5869 -0.2376 -0.2665
13481TIP3   OH240399   0.015   6.380   3.499  0.0742 -0.3936 -0.6659
13481TIP3    H140400   0.082   6.433   3.542 -0.5949  0.8553 -1.0892
13481TIP3    H240401  -0.067   6.411   3.537 -0.3116 -1.5438 -0.5229
13482TIP3   OH240402   2.652   4.459   2.681 -0.0510 -0.1128  0.2240
13482TIP3    H140403   2.583   4.523   2.695 -0.6583 -0.6165 -0.3817
13482TIP3    H240404   2.667   4.459   2.586  1.2793  0.4822  0.3998
13483TIP3   OH240405   6.540   3.739   5.993 -0.1520  0.2805 -0.3012
13483TIP3    H140406   6.611   3.741   5.929  0.6928  0.7158  0.6116
13483TIP3    H240407   6.467   3.785   5.951  0.4433  0.7174 -0.8721
13484TIP3   OH240408   0.447   7.740   3.882  0.0933 -0.5675 -0.5538
13484TIP3    H140409   0.505   7.815   3.870 -0.7765  0.2294  0.0567
13484TIP3    H240410   0.462   7.712   3.972 -0.9330  0.0808 -0.1586
13485TIP3   OH240411   5.445   3.308   3.720 -0.0055  0.0346  0.5008
13485TIP3    H140412   5.460   3.403   3.711  2.2203 -0.3763 -1.0132
13485TIP3    H240413   5.364   3.292   3.672  0.1607  1.0264 -0.1532
13486TIP3   OH240414   7.841   1.657   3.842  0.4050 -0.2112  0.0094
13486TIP3    H140415   7.865   1.633   3.753 -1.8968  0.4854 -0.8705
13486TIP3    H240416   7.885   1.740   3.857  0.3396 -0.0394 -0.7127
13487TIP3   OH240417   2.903   0.102   0.326  0.1916 -0.7666  0.0120
13487TIP3    H140418   2.949   0.144   0.253 -1.0914  1.2773  0.2978
13487TIP3    H240419   2.852   0.032   0.286  0.2722 -0.3110 -0.9017
13488TIP3   OH240420   7.169   1.610   4.271  0.5174  0.7613 -0.1011
13488TIP3    H140421   7.105   1.539   4.260  1.0695  0.3148 -0.4423
13488TIP3    H240422   7.196   1.631   4.182  2.3564 -0.4463  0.1222
13489TIP3   OH240423   5.177   2.383   0.521  0.5380 -0.1685  0.0116
13489TIP3    H140424   5.103   2.324   0.505  0.0029  0.4034  0.3491
13489TIP3    H240425   5.254   2.326   0.515  0.0043 -1.0152  0.8543
13490TIP3   OH240426   2.002   1.801   2.984  0.1573  0.3417 -0.4661
13490TIP3    H140427   1.956   1.879   2.953 -1.9903 -1.1434 -1.2888
13490TIP3    H240428   1.939   1.758   3.042  0.8086 -1.3749 -0.9611
13491TIP3   OH240429   2.904   1.509   3.761 -0.1740  0.3369 -0.6463
13491TIP3    H140430   2.900   1.567   3.837 -0.2210  0.9094 -1.0779
13491TIP3    H240431   2.813   1.482   3.747 -0.2470  0.6488 -0.8053
13492TIP3   OH240432   2.830   3.896   0.787 -0.6969  0.4028 -0.5532
13492TIP3    H140433   2.759   3.921   0.846 -0.4406 -1.1189  0.4388
13492TIP3    H240434   2.907   3.941   0.822 -0.8377  0.7552 -0.6825
13493TIP3   OH240435   5.993   3.136   5.085  0.5238 -0.3122  0.5917
13493TIP3    H140436   5.987   3.102   4.996  1.2611 -0.0633  0.4417
13493TIP3    H240437   6.027   3.062   5.136  2.8370  0.3479  0.1326
13494TIP3   OH240438   4.153   3.928   0.247  0.2623  0.2136 -0.2175
13494TIP3    H140439   4.079   3.988   0.251 -0.5021 -0.6977 -0.3751
13494TIP3    H240440   4.200   3.943   0.329 -1.7888 -1.2978  1.3242
13495TIP3   OH240441   6.267   0.904   3.078  0.1072  0.2063  0.3769
13495TIP3    H140442   6.341   0.928   3.135 -0.0655  1.8668 -0.0341
13495TIP3    H240443   6.261   0.977   3.016 -0.3953 -1.0563 -1.0973
13496TIP3   OH240444   2.877   1.160   0.405 -0.0781  0.3051 -0.1035
13496TIP3    H140445   2.937   1.143   0.477  0.8170  0.5348 -0.7836
13496TIP3    H240446   2.827   1.079   0.396 -0.3141  0.3309  0.8708
13497TIP3   OH240447   7.705   5.387   3.913 -0.1221  0.0603 -0.3057
13497TIP3    H140448   7.628   5.329   3.907 -0.0208 -0.5285  2.5045
13497TIP3    H240449   7.695   5.431   3.998  2.1125  0.7720 -0.3496
13498TIP3   OH240450   5.433   0.527   4.964 -0.2251 -0.4219 -0.3000
13498TIP3    H140451   5.491   0.451   4.970 -1.1203 -1.0034  1.7368
13498TIP3    H240452   5.492   0.601   4.954  0.6807 -1.3109 -2.1562
13499TIP3   OH240453   6.124   4.103   1.726  0.3269  0.3019  0.9051
13499TIP3    H140454   6.151   4.141   1.810  0.1323  0.7997  0.7505
13499TIP3    H240455   6.124   4.178   1.666  0.1649  0.0049  0.5344
13500TIP3   OH240456   5.787   4.721   5.814 -0.4009  0.3362 -0.8167
13500TIP3    H140457   5.842   4.643   5.809 -0.5266  0.2971 -1.7360
13500TIP3    H240458   5.832   4.785   5.759  0.4846  1.4267  1.0589
13501TIP3   OH240459   0.008   7.775   0.851  0.4202 -0.2351 -0.4950
13501TIP3    H140460   0.021   7.845   0.915 -1.4231 -0.3101  0.0373
13501TIP3    H240461   0.095   7.755   0.818  0.9170  3.0649 -1.4819
13502TIP3   OH240462   4.679   2.900   4.267 -0.4289  0.0201 -0.7681
13502TIP3    H140463   4.596   2.914   4.311  0.3317  1.4818  0.2763
13502TIP3    H240464   4.725   2.835   4.320 -0.1887  0.5448 -0.3272
13503TIP3   OH240465   1.894   4.215   5.793  0.6929 -0.2530 -0.0464
13503TIP3    H140466   1.817   4.247   5.841  1.2467  0.6201  0.2858
13503TIP3    H240467   1.931   4.294   5.753  1.8174 -0.5508  0.3816
13504TIP3   OH240468   4.943   3.839   5.328  0.3919 -0.7132 -0.1815
13504TIP3    H140469   4.889   3.909   5.291  0.3479 -0.5157  0.2598
13504TIP3    H240470   4.895   3.759   5.309 -0.0337 -0.5404  0.1728
13505TIP3   OH240471   5.415   5.569   3.008  0.6294  0.3447  0.0844
13505TIP3    H140472   5.329   5.600   3.038  0.5044 -0.5552  0.7130
13505TIP3    H240473   5.433   5.492   3.063  0.9129 -0.6927 -1.4137
13506TIP3   OH240474   2.411   0.684   2.878 -1.0205 -0.6552  0.4231
13506TIP3    H140475   2.321   0.651   2.874 -0.6558 -1.9374  1.8543
13506TIP3    H240476   2.441   0.663   2.967  0.2550  0.9578  0.4278
13507TIP3   OH240477   0.369   0.352   6.471  0.0752 -0.2111 -0.1914
13507TIP3    H140478   0.282   0.323   6.443  0.6543 -0.7220 -1.5672
13507TIP3    H240479   0.362   0.447   6.480 -0.8358 -0.3381  0.5557
13508TIP3   OH240480   3.037   0.527   1.755 -0.7986 -0.1902 -0.1228
13508TIP3    H140481   3.007   0.556   1.841 -0.4014 -0.5038  0.1289
13508TIP3    H240482   3.089   0.448   1.773  1.6122  1.2333 -0.3119
13509TIP3   OH240483   6.535   7.447   2.854 -0.4298 -0.3368 -0.7166
13509TIP3    H140484   6.555   7.540   2.859 -0.7060 -0.3287  0.4453
13509TIP3    H240485   6.439   7.442   2.856 -0.4070 -0.7046  0.9894
13510TIP3   OH240486   6.841   6.224   0.822 -0.1928 -0.1170  0.8282
13510TIP3    H140487   6.936   6.217   0.815 -0.3858 -1.0869 -1.9010
13510TIP3    H240488   6.812   6.138   0.852 -0.1919  0.6704  3.3752
13511TIP3   OH240489   5.044   2.782   4.010 -0.5429  0.9123  0.1317
13511TIP3    H140490   4.961   2.816   4.044 -1.3534  0.7412 -1.6169
13511TIP3    H240491   5.037   2.791   3.915  2.4236  3.2074 -0.0413
13512TIP3   OH240492   4.252   6.718   4.206 -0.2904 -0.3749  0.1239
13512TIP3    H140493   4.217   6.805   4.184  0.8976  0.0250 -0.2373
13512TIP3    H240494   4.217   6.660   4.139 -0.5214 -0.0407 -0.0487
13513TIP3   OH240495   2.488   4.966   6.645 -0.1252 -0.1793  0.0419
13513TIP3    H140496   2.398   4.983   6.671  0.0459  1.0870 -0.1490
13513TIP3    H240497   2.530   5.052   6.643  0.5660 -0.5075 -1.8456
13514TIP3   OH240498   6.127   2.713   5.477  0.2428 -0.6339  0.1727
13514TIP3    H140499   6.076   2.680   5.551 -0.9062 -1.0183 -0.7535
13514TIP3    H240500   6.217   2.689   5.498  0.3924  1.6728  2.7291
13515TIP3   OH240501   7.166   0.480   1.244 -0.3578 -0.3517  0.3286
13515TIP3    H140502   7.151   0.497   1.337  0.7129 -0.3300  0.5066
13515TIP3    H240503   7.224   0.404   1.242 -0.3341 -0.3274 -0.3255
13516TIP3   OH240504   3.824   3.911   1.043 -0.1030  0.3531 -0.7255
13516TIP3    H140505   3.914   3.907   1.075  0.9907  0.5080 -3.4811
13516TIP3    H240506   3.776   3.849   1.098  1.7734 -0.0255  0.5620
13517TIP3   OH240507   5.708   7.711   2.444  0.2424 -0.2457 -0.1307
13517TIP3    H140508   5.723   7.662   2.363 -0.4755 -1.2121  0.3004
13517TIP3    H240509   5.620   7.687   2.471 -0.4979  1.9908 -0.3481
13518TIP3   OH240510   0.248   2.852   2.866 -0.8362  0.3901 -0.0343
13518TIP3    H140511   0.212   2.864   2.778  0.2224  0.0857 -0.5250
13518TIP3    H240512   0.257   2.758   2.875  0.9271  0.4901 -0.4012
13519TIP3   OH240513   7.826   5.012   2.649  0.5136 -0.4567 -0.1619
13519TIP3    H140514   7.865   5.099   2.656  1.7720 -1.0948  1.5506
13519TIP3    H240515   7.884   4.965   2.589  1.9963 -1.1366  1.6985
13520TIP3   OH240516   6.392   0.029   0.773 -0.1293 -0.0461 -0.2817
13520TIP3    H140517   6.382   0.124   0.777 -0.4724  0.0011 -1.7245
13520TIP3    H240518   6.473   0.015   0.724 -0.8533 -0.4760 -1.4108
13521TIP3   OH240519   2.930   2.118   6.007 -0.0636  0.1717 -0.1315
13521TIP3    H140520   2.882   2.042   5.975  2.3822 -2.4577  1.9033
13521TIP3    H240521   2.870   2.161   6.068 -1.3445 -0.3650 -0.9829
13522TIP3   OH240522   0.496   3.136   1.824 -0.0566 -0.1493 -0.2024
13522TIP3    H140523   0.540   3.216   1.853 -2.2630  1.9303 -2.1598
13522TIP3    H240524   0.533   3.119   1.737 -1.6238  0.5008 -1.0331
13523TIP3   OH240525   2.705   6.338   2.402 -0.4189 -0.1709 -0.5173
13523TIP3    H140526   2.668   6.322   2.488  1.3300  0.5318  0.4258
13523TIP3    H240527   2.667   6.421   2.375 -1.7964 -0.9164 -0.9268
13524TIP3   OH240528   4.334   7.330   4.368 -0.0672 -0.4127  0.0933
13524TIP3    H140529   4.241   7.311   4.359 -0.0893 -0.4007  0.3099
13524TIP3    H240530   4.363   7.349   4.278 -0.4063  0.1994  0.1070
13525TIP3   OH240531   3.162   4.080   2.857  0.3961 -0.2880 -0.2853
13525TIP3    H140532   3.244   4.051   2.817 -0.4624 -2.3737 -0.6644
13525TIP3    H240533   3.182   4.167   2.892  2.5620 -0.4555 -0.9447
13526TIP3   OH240534   5.077   2.303   6.448 -0.0399  0.3731 -0.1135
13526TIP3    H140535   5.140   2.349   6.505  1.6421 -1.7698 -0.1183
13526TIP3    H240536   5.001   2.289   6.503  0.4909  0.7307  0.7377
13527TIP3   OH240537   6.615   1.411   3.771  0.6207  0.3608 -0.0484
13527TIP3    H140538   6.546   1.470   3.803 -0.0979 -0.4009 -0.1592
13527TIP3    H240539   6.674   1.468   3.721  0.6784  1.2093  0.9635
13528TIP3   OH240540   1.291   2.051   3.173 -0.3053 -0.0630  0.1727
13528TIP3    H140541   1.282   1.958   3.151  0.7067  0.7025 -4.5195
13528TIP3    H240542   1.223   2.067   3.238 -0.2411 -4.0831  1.5122
13529TIP3   OH240543   5.368   5.946   3.686  0.0641 -0.4392  0.1377
13529TIP3    H140544   5.396   5.874   3.629  0.0482  0.5414 -1.1718
13529TIP3    H240545   5.281   5.970   3.653 -0.8532 -1.1578  1.9036
13530TIP3   OH240546   5.835   4.330   1.669  0.1186  0.9592  0.2729
13530TIP3    H140547   5.826   4.348   1.575  1.3918  0.0145 -0.0700
13530TIP3    H240548   5.809   4.238   1.678  0.7539  0.8168  0.6977
13531TIP3   OH240549   0.545   4.433   5.776  0.3506  0.0702 -0.2777
13531TIP3    H140550   0.450   4.450   5.775  0.2718 -0.3345  0.1262
13531TIP3    H240551   0.574   4.458   5.688  0.1071  1.5391  0.0364
13532TIP3   OH240552   7.749   5.410   6.600 -0.0386 -0.0000 -0.3618
13532TIP3    H140553   7.783   5.321   6.609 -0.4127 -0.0479  0.6593
13532TIP3    H240554   7.672   5.412   6.656  1.0848  1.5379  1.2133
13533TIP3   OH240555   0.590   2.252   3.148  0.4167  0.1566 -0.4349
13533TIP3    H140556   0.596   2.161   3.117 -3.8412 -0.2595 -0.5679
13533TIP3    H240557   0.605   2.246   3.242 -0.3626 -0.8134 -0.3562
13534TIP3   OH240558   6.804   2.246   2.744 -1.0617  0.0342  0.5133
13534TIP3    H140559   6.880   2.291   2.705  2.0703 -2.0545  3.6067
13534TIP3    H240560   6.806   2.159   2.705  0.6297 -1.2727  3.2344
13535TIP3   OH240561   0.211   7.153   5.304  0.1358  0.5522  0.0901
13535TIP3    H140562   0.288   7.138   5.249  1.0210  0.1360  1.3948
13535TIP3    H240563   0.171   7.232   5.268  1.0848  0.6841 -0.7158
13536TIP3   OH240564   2.181   3.471   4.377  0.2999 -0.0515 -0.0396
13536TIP3    H140565   2.160   3.555   4.338  0.0412 -0.4599 -0.8098
13536TIP3    H240566   2.183   3.487   4.471 -2.7625  0.2006  0.0925
13537TIP3   OH240567   1.751   3.313   3.661  0.8300  0.3483 -0.4826
13537TIP3    H140568   1.830   3.264   3.685  0.7948  1.3675  1.9646
13537TIP3    H240569   1.696   3.248   3.617  1.7160 -1.2399  0.6257
13538TIP3   OH240570   0.087   0.485   2.656 -0.3384  0.3235  0.8272
13538TIP3    H140571   0.144   0.555   2.626 -1.5410  0.4233 -1.5339
13538TIP3    H240572   0.140   0.434   2.717  1.9039  0.9808 -0.4770
13539TIP3   OH240573   7.333   1.609   4.511  0.6065 -0.4681 -0.1444
13539TIP3    H140574   7.288   1.587   4.430  1.2891  0.6331 -0.8411
13539TIP3    H240575   7.292   1.690   4.541  1.8662  0.3875 -0.6314
13540TIP3   OH240576   6.483   3.046   6.131  0.3396 -0.2595  0.1085
13540TIP3    H140577   6.511   2.955   6.143  1.7298 -0.1197 -1.6286
13540TIP3    H240578   6.514   3.070   6.044  0.7227  2.1422  0.8127
13541TIP3   OH240579   5.444   7.683   3.425 -0.5787 -0.2677  0.2170
13541TIP3    H140580   5.538   7.667   3.437 -0.6352  0.7352  2.4941
13541TIP3    H240581   5.421   7.630   3.349  2.0491  0.3424 -1.1433
13542TIP3   OH240582   6.599   6.899   4.353 -0.2100  0.0946  0.4370
13542TIP3    H140583   6.575   6.821   4.302 -1.7336 -0.0257  1.2615
13542TIP3    H240584   6.521   6.954   4.350  0.8104  1.5626 -0.0375
13543TIP3   OH240585   2.689   6.517   4.434  0.0728  0.0818  0.1923
13543TIP3    H140586   2.612   6.496   4.381  0.1919 -0.0551  0.0724
13543TIP3    H240587   2.660   6.589   4.491 -0.1686 -0.0287  0.2096
13544TIP3   OH240588   4.659   1.141   6.596  0.1729 -0.2933 -0.8632
13544TIP3    H140589   4.657   1.232   6.625  1.6805 -0.2917 -0.6644
13544TIP3    H240590   4.572   1.107   6.615  0.2836  0.4685  1.1753
13545TIP3   OH240591   2.167   3.501   1.201 -0.4432  0.0899 -0.7847
13545TIP3    H140592   2.126   3.564   1.260 -0.2940  1.2459 -1.8821
13545TIP3    H240593   2.180   3.549   1.120 -0.5589 -1.4355 -1.7466
13546TIP3   OH240594   0.445   2.511   6.628  0.6562 -0.2743 -0.1049
13546TIP3    H140595   0.474   2.422   6.647  0.2471 -0.5860 -0.8778
13546TIP3    H240596   0.350   2.507   6.639  0.5600 -0.1237 -0.8236
13547TIP3   OH240597   1.961   6.677   0.548  0.5450 -0.4058 -0.5771
13547TIP3    H140598   2.024   6.726   0.495 -1.1120  1.0442 -1.3143
13547TIP3    H240599   2.013   6.611   0.593  2.5238  0.5303 -1.3931
13548TIP3   OH240600   3.292   1.448   3.455 -0.1360  0.4482  0.5004
13548TIP3    H140601   3.266   1.523   3.508  0.7586  1.0529  0.1189
13548TIP3    H240602   3.282   1.372   3.512 -1.4377  0.8018  0.7679
13549TIP3   OH240603   3.355   6.872   0.915  0.4071 -0.4906 -0.3120
13549TIP3    H140604   3.433   6.845   0.963 -0.5926 -0.9514  1.1236
13549TIP3    H240605   3.347   6.966   0.934  0.3672 -0.5401 -0.0726
13550TIP3   OH240606   0.004   6.202   4.084  0.1815 -0.3096 -0.2826
13550TIP3    H140607   0.016   6.245   4.169  0.2691 -2.3369  0.7959
13550TIP3    H240608   0.046   6.117   4.095 -3.8154 -2.5512 -0.7303
13551TIP3   OH240609   8.114   2.270   5.899 -0.2621 -0.1889 -0.1602
13551TIP3    H140610   8.020   2.271   5.915 -0.0077 -1.0631  1.7057
13551TIP3    H240611   8.148   2.342   5.952  0.3126 -1.2660  1.0077
13552TIP3   OH240612   7.886   5.725   6.358  0.0327  0.1345 -0.2792
13552TIP3    H140613   7.939   5.646   6.363  2.3661  1.5840 -0.2322
13552TIP3    H240614   7.872   5.739   6.264 -0.3156 -0.2920 -0.2897
13553TIP3   OH240615   4.879   0.142   3.581  0.1580  0.0939 -0.2067
13553TIP3    H140616   4.866   0.080   3.653 -1.7590 -2.6029 -2.6668
13553TIP3    H240617   4.814   0.210   3.596  0.0165 -0.2468  0.7796
13554TIP3   OH240618   4.041   1.485   3.829 -0.1112  0.4271  0.1618
13554TIP3    H140619   4.035   1.481   3.924 -0.8120  0.8030  0.1394
13554TIP3    H240620   3.955   1.517   3.801 -0.7027 -1.7666 -0.7319
13555TIP3   OH240621   1.935   2.066   0.769 -0.7587 -0.8898  0.5427
13555TIP3    H140622   2.009   2.080   0.828 -0.9330 -3.0563  1.3513
13555TIP3    H240623   1.971   2.082   0.682  0.4085 -0.9710  0.9869
13556TIP3   OH240624   5.259   3.869   5.977  0.5811 -0.3678  0.0584
13556TIP3    H140625   5.207   3.862   5.896  0.2197  0.4695  0.2114
13556TIP3    H240626   5.348   3.886   5.946  0.4915 -0.3019 -0.1683
13557TIP3   OH240627   6.264   7.152   0.238 -0.1331  0.0244  0.3952
13557TIP3    H140628   6.358   7.139   0.254 -0.1516 -0.6229  0.0277
13557TIP3    H240629   6.234   7.068   0.203 -0.5865  0.6206 -0.7035
13558TIP3   OH240630   7.431   2.395   4.413 -0.1509  0.7816  0.3104
13558TIP3    H140631   7.413   2.439   4.330  0.8218  1.1538  0.2793
13558TIP3    H240632   7.506   2.339   4.395 -2.0294 -1.8464  0.0494
13559TIP3   OH240633   4.424   6.215   6.029  0.2250 -0.4043  0.1664
13559TIP3    H140634   4.336   6.209   5.992 -0.2259  0.9602  0.9435
13559TIP3    H240635   4.452   6.124   6.040 -0.4375 -0.8597 -1.5609
13560TIP3   OH240636   8.220   7.481   0.878  0.0829 -0.0020  1.1458
13560TIP3    H140637   8.132   7.470   0.916 -0.7017  1.4939 -0.1699
13560TIP3    H240638   8.238   7.574   0.885  0.7134  0.0204 -0.4189
13561TIP3   OH240639   3.081   2.636   5.300  0.1512 -0.3924 -0.2222
13561TIP3    H140640   3.089   2.604   5.209  1.3213 -1.5253  0.2473
13561TIP3    H240641   3.147   2.587   5.348  1.0731  1.7843  0.8573
13562TIP3   OH240642   7.835   0.462   5.702  0.0682  0.1008 -0.8086
13562TIP3    H140643   7.923   0.444   5.732  0.9022  2.7486 -1.3658
13562TIP3    H240644   7.822   0.403   5.627  0.3789 -1.9935  0.7034
13563TIP3   OH240645   0.934   5.770   2.936 -0.1434 -0.1077 -0.6589
13563TIP3    H140646   0.914   5.831   2.865 -0.4963  0.3612 -0.1651
13563TIP3    H240647   0.949   5.687   2.892  0.3646  0.3320 -1.3464
13564TIP3   OH240648   4.225   4.653   2.679 -0.4783 -0.1108  0.0233
13564TIP3    H140649   4.305   4.599   2.681  0.1190  0.7303 -0.5939
13564TIP3    H240650   4.244   4.722   2.615 -1.3185  0.6992  0.6266
13565TIP3   OH240651   4.780   0.749   1.538 -0.5537 -0.0182  0.2816
13565TIP3    H140652   4.730   0.777   1.615 -0.0952  1.1884  0.1560
13565TIP3    H240653   4.727   0.679   1.500 -1.3973  0.2030  0.9964
13566TIP3   OH240654   5.376   0.409   5.431  0.5128 -0.2492 -0.3219
13566TIP3    H140655   5.376   0.318   5.401  0.2081 -0.1912 -0.5013
13566TIP3    H240656   5.450   0.449   5.385  0.9604 -0.5256  0.1382
13567TIP3   OH240657   4.874   6.855   1.373  0.3274 -0.3648  0.1291
13567TIP3    H140658   4.955   6.856   1.322  0.2276 -0.9674 -0.0604
13567TIP3    H240659   4.890   6.789   1.441 -0.5232 -1.6062 -0.8203
13568TIP3   OH240660   4.462   4.076   0.253  0.0030  0.5849  0.1158
13568TIP3    H140661   4.532   4.122   0.208  0.7347 -1.6026 -1.1487
13568TIP3    H240662   4.399   4.144   0.277  0.9307  2.1884 -1.7710
13569TIP3   OH240663   3.759   6.612   4.073 -0.1209 -0.1065 -0.1325
13569TIP3    H140664   3.798   6.594   4.159 -0.0393  0.0606 -0.1324
13569TIP3    H240665   3.830   6.655   4.024 -0.7971  1.7707  0.4326
13570TIP3   OH240666   5.739   5.750   2.352  0.5374  0.1286  0.0969
13570TIP3    H140667   5.698   5.721   2.270  2.9550 -1.1485 -0.7507
13570TIP3    H240668   5.691   5.703   2.420  0.8857 -1.7883 -0.8952
13571TIP3   OH240669   0.102   3.972   2.001 -0.3972  0.1577  0.4938
13571TIP3    H140670   0.118   4.053   2.050 -3.3329  0.1054  1.7534
13571TIP3    H240671   0.013   3.981   1.968 -0.5981 -2.3158  0.1564
13572TIP3   OH240672   2.244   6.215   0.150  0.2303 -0.1734 -0.0944
13572TIP3    H140673   2.306   6.286   0.167 -0.2130  0.2239 -0.1281
13572TIP3    H240674   2.237   6.169   0.233  0.1868  0.0817  0.0417
13573TIP3   OH240675   6.123   1.574   3.473 -0.6485 -1.1024  0.2661
13573TIP3    H140676   6.092   1.644   3.530 -0.4384  0.0786 -0.9957
13573TIP3    H240677   6.219   1.582   3.475 -0.6576 -0.2895 -1.0844
13574TIP3   OH240678   7.910   2.972   1.468  0.5405 -0.1639  0.4083
13574TIP3    H140679   7.840   3.004   1.411  1.3482 -0.4625 -0.7725
13574TIP3    H240680   7.872   2.974   1.556 -0.7103  0.3409 -0.1262
13575TIP3   OH240681   2.560   1.560   3.964  0.0293 -0.0305  0.1191
13575TIP3    H140682   2.584   1.496   3.897  0.2196 -0.5492  0.6804
13575TIP3    H240683   2.572   1.514   4.047 -2.4736 -0.2098  0.4718
13576TIP3   OH240684   6.946   4.848   3.028 -0.0310 -1.0004  0.0887
13576TIP3    H140685   6.868   4.829   2.975  1.1507  0.0914 -2.1596
13576TIP3    H240686   6.928   4.934   3.067  0.6169 -0.0389 -1.6552
13577TIP3   OH240687   3.134   4.894   0.322 -0.9975  0.1662  0.4930
13577TIP3    H140688   3.129   4.827   0.254 -0.8425  0.7603 -0.1133
13577TIP3    H240689   3.050   4.887   0.368 -0.8477 -0.6720  0.6712
13578TIP3   OH240690   7.362   7.326   4.089 -0.2135 -0.5777  0.3693
13578TIP3    H140691   7.418   7.250   4.101  2.2857  0.9073 -0.9376
13578TIP3    H240692   7.350   7.332   3.994 -1.8055 -0.2904  0.5659
13579TIP3   OH240693   4.644   6.834   6.170 -0.4709  0.4548  0.4209
13579TIP3    H140694   4.662   6.880   6.252 -0.4930 -1.0610  1.3141
13579TIP3    H240695   4.643   6.741   6.194 -0.3459 -0.0352 -1.3271
13580TIP3   OH240696   3.739   1.798   1.386  0.0387  0.2331 -0.2112
13580TIP3    H140697   3.776   1.731   1.444  1.4385  1.2738  0.1521
13580TIP3    H240698   3.651   1.814   1.420 -0.2013 -1.1740 -0.1180
13581TIP3   OH240699   0.229   3.018   5.376 -0.1891  0.3083 -1.1337
13581TIP3    H140700   0.308   3.058   5.341  0.1658  1.0188  0.4057
13581TIP3    H240701   0.222   2.934   5.331  1.2286  0.3993 -1.5467
13582TIP3   OH240702   7.406   2.602   0.779 -0.8401  0.1548  0.1299
13582TIP3    H140703   7.318   2.633   0.756 -0.4815 -0.5347 -2.6378
13582TIP3    H240704   7.399   2.506   0.773  0.3360  0.1252 -1.4581
13583TIP3   OH240705   7.590   1.319   3.293 -0.0348  0.0693  0.1560
13583TIP3    H140706   7.658   1.257   3.267  2.0245  1.2844  2.2621
13583TIP3    H240707   7.638   1.400   3.313 -2.2156  1.2738  0.8667
13584TIP3   OH240708   7.120   6.716   5.044  0.1684 -0.4544 -0.2620
13584TIP3    H140709   7.126   6.804   5.005 -0.1156 -0.6278 -0.7040
13584TIP3    H240710   7.202   6.706   5.093 -0.7049  0.9013  1.6043
13585TIP3   OH240711   6.286   1.224   1.569  0.5967 -0.1603  0.0751
13585TIP3    H140712   6.198   1.249   1.597  0.5221 -0.0319 -0.2741
13585TIP3    H240713   6.326   1.186   1.648  0.5973  0.7439  0.5235
13586TIP3   OH240714   1.768   3.889   0.027 -0.0076  1.2195  0.6119
13586TIP3    H140715   1.684   3.847   0.007  0.7004 -0.2085  0.5293
13586TIP3    H240716   1.797   3.846   0.107  1.6379  0.1811 -0.4993
13587TIP3   OH240717   6.713   1.332   0.631 -0.7449  0.2372 -0.2393
13587TIP3    H140718   6.621   1.357   0.644 -0.4752  1.1799 -0.0409
13587TIP3    H240719   6.760   1.384   0.696  0.0880  0.9346 -1.3685
13588TIP3   OH240720   8.130   2.710   3.839 -0.6038  0.3607 -0.1916
13588TIP3    H140721   8.086   2.655   3.903  1.3862 -1.3876 -0.2034
13588TIP3    H240722   8.084   2.794   3.843 -2.7378 -0.7901  0.9801
13589TIP3   OH240723   3.899   2.428   1.878  0.3015 -0.3764 -0.1127
13589TIP3    H140724   3.818   2.456   1.835 -0.2037 -1.0840  0.3651
13589TIP3    H240725   3.941   2.369   1.814  0.6970  0.3726 -0.5613
13590TIP3   OH240726   4.659   6.979   2.306 -0.1293 -0.4808  0.3386
13590TIP3    H140727   4.669   6.946   2.395 -1.0957 -1.3021  0.1612
13590TIP3    H240728   4.680   7.072   2.313  2.3791 -1.0179  0.9032
13591TIP3   OH240729   6.469   3.290   4.290 -0.3446  0.1576  0.2325
13591TIP3    H140730   6.547   3.273   4.237 -0.8047  0.1456 -0.4505
13591TIP3    H240731   6.460   3.212   4.345 -1.1923 -0.9155 -1.3385
13592TIP3   OH240732   6.406   1.882   5.198  0.2755  0.3325 -0.3625
13592TIP3    H140733   6.444   1.860   5.283 -0.2433  1.0756  0.0772
13592TIP3    H240734   6.432   1.973   5.183 -1.5613  0.9683  0.0965
13593TIP3   OH240735   2.081   6.466   3.408 -0.2134  0.5280 -0.2567
13593TIP3    H140736   2.114   6.553   3.432 -1.5065  0.6479  1.2320
13593TIP3    H240737   1.988   6.469   3.428 -0.2391 -1.3067  0.0860
13594TIP3   OH240738   0.428   1.551   0.308 -0.9505 -0.0036 -0.2205
13594TIP3    H140739   0.477   1.626   0.275  0.9890 -0.8626  0.5322
13594TIP3    H240740   0.454   1.479   0.250  0.5701 -0.9746  1.5366
13595TIP3   OH240741   2.600   6.107   0.819 -0.0737 -0.3936  0.1773
13595TIP3    H140742   2.651   6.133   0.896 -1.2442  1.5310  0.3733
13595TIP3    H240743   2.635   6.160   0.748  0.2481 -1.3373 -0.3811
13596TIP3   OH240744   3.811   3.773   1.889 -0.0634  0.2711  0.0547
13596TIP3    H140745   3.774   3.707   1.830 -0.0396  0.9426 -0.7361
13596TIP3    H240746   3.904   3.750   1.894 -0.0326  0.3037 -0.3154
13597TIP3   OH240747   6.364   2.332   3.460 -0.0973 -0.2781  1.2023
13597TIP3    H140748   6.283   2.286   3.485 -1.5002  1.2147 -0.2913
13597TIP3    H240749   6.382   2.302   3.371  0.1714  0.4249  1.0124
13598TIP3   OH240750   6.127   7.749   6.120  0.2733  0.2971  0.9004
13598TIP3    H140751   6.043   7.787   6.096  0.8825  0.4970 -1.1605
13598TIP3    H240752   6.163   7.718   6.037  2.4192  0.5998  1.6553
13599TIP3   OH240753   8.028   3.516   5.036  0.0702  0.5716  0.5368
13599TIP3    H140754   8.024   3.606   5.003 -1.2038  0.3146 -0.0803
13599TIP3    H240755   8.085   3.521   5.113  2.0459  1.4544 -0.8896
13600TIP3   OH240756   1.442   6.121   3.518 -0.4196 -0.6425  0.5247
13600TIP3    H140757   1.445   6.125   3.422  0.6161 -1.7744  0.4891
13600TIP3    H240758   1.350   6.104   3.539 -0.3052 -2.6747 -0.4002
13601TIP3   OH240759   5.012   0.493   3.203 -0.4178 -0.3304 -0.4274
13601TIP3    H140760   4.961   0.437   3.262  0.5367 -0.4349  0.3294
13601TIP3    H240761   5.081   0.530   3.258  0.4269 -0.3270 -1.4367
13602TIP3   OH240762   1.316   2.916   0.048  0.2120  0.2642 -0.0251
13602TIP3    H140763   1.388   2.863   0.014  0.7910  1.3684 -0.5534
13602TIP3    H240764   1.247   2.852   0.068  0.6749 -0.6252 -1.1701
13603TIP3   OH240765   0.644   6.514   6.267 -0.2934  0.2504 -0.6880
13603TIP3    H140766   0.633   6.609   6.260 -0.7020  0.2844  0.2126
13603TIP3    H240767   0.554   6.479   6.264 -0.0727 -0.2590 -2.6775
13604TIP3   OH240768   1.034   0.950   4.835 -0.1204  0.7985 -0.0007
13604TIP3    H140769   0.968   0.904   4.887  0.8697 -1.5644 -0.6828
13604TIP3    H240770   1.118   0.919   4.870  0.5863  0.9949 -1.4285
13605TIP3   OH240771   7.870   4.043   3.053 -0.0028  0.0932 -0.0369
13605TIP3    H140772   7.952   3.998   3.034 -0.1290 -0.2438  0.2146
13605TIP3    H240773   7.802   3.977   3.041 -0.4138  0.7899 -1.9424
13606TIP3   OH240774   0.477   6.062   2.761 -0.0494 -0.3016  0.0799
13606TIP3    H140775   0.421   6.019   2.697  1.0211 -1.1458 -0.3237
13606TIP3    H240776   0.419   6.080   2.835 -1.3210  0.7850 -1.1405
13607TIP3   OH240777   4.638   3.473   1.604  0.1684 -0.0503  0.2743
13607TIP3    H140778   4.545   3.461   1.624  0.2637 -0.5037  0.4649
13607TIP3    H240779   4.678   3.389   1.626  0.4168 -0.3175 -1.0784
13608TIP3   OH240780   1.547   5.696   1.810 -0.5407 -0.5587 -0.9164
13608TIP3    H140781   1.585   5.646   1.738 -3.1339 -1.8501 -1.5155
13608TIP3    H240782   1.460   5.721   1.779 -0.6233  1.4286  0.6925
13609TIP3   OH240783   5.961   4.544   4.847 -0.5635  0.2728 -0.1817
13609TIP3    H140784   6.040   4.535   4.794 -0.1596 -1.3637  0.6402
13609TIP3    H240785   5.892   4.507   4.792 -0.1583 -1.3606  0.3596
13610TIP3   OH240786   0.154   2.947   0.979  0.3442  0.4856 -0.1942
13610TIP3    H140787   0.218   2.943   1.050 -0.7457 -2.2751  0.8042
13610TIP3    H240788   0.073   2.912   1.018 -1.4064  2.4603 -1.7912
13611TIP3   OH240789   4.310   6.385   2.038  0.0314  0.3056 -0.0239
13611TIP3    H140790   4.233   6.334   2.012 -0.0130  0.3796 -0.0386
13611TIP3    H240791   4.379   6.358   1.977 -0.1323  0.6408 -0.3624
13612TIP3   OH240792   1.019   1.944   5.879  0.9275  0.2671  0.3323
13612TIP3    H140793   0.959   1.956   5.952  2.2646  1.9082  1.2374
13612TIP3    H240794   1.019   1.849   5.862 -1.1778  0.1405  0.8746
13613TIP3   OH240795   3.738   7.296   6.758  0.2970 -0.9314 -0.5625
13613TIP3    H140796   3.796   7.326   6.829 -0.2409 -2.1929  0.4626
13613TIP3    H240797   3.771   7.340   6.680  1.7654 -0.5235  0.2382
13614TIP3   OH240798   5.553   4.887   0.209  0.2301 -0.6197  0.1173
13614TIP3    H140799   5.487   4.949   0.178  1.4440  0.3680 -0.5743
13614TIP3    H240800   5.576   4.918   0.296  0.2689 -0.5682  0.0887
13615TIP3   OH240801   5.783   2.687   4.366 -0.1294 -0.1242 -0.1144
13615TIP3    H140802   5.805   2.693   4.273  0.6342 -2.1614 -0.1194
13615TIP3    H240803   5.776   2.778   4.395 -0.9677  0.5599 -2.2750
13616TIP3   OH240804   0.428   3.222   6.201 -0.5544  1.1162 -0.1532
13616TIP3    H140805   0.469   3.135   6.208 -0.9287  0.9321 -0.2183
13616TIP3    H240806   0.413   3.233   6.107 -0.9319  1.0541 -0.0986
13617TIP3   OH240807   6.791   1.176   4.268  0.0441  0.4582 -0.6585
13617TIP3    H140808   6.808   1.258   4.313  1.8491  0.2694 -0.9153
13617TIP3    H240809   6.814   1.193   4.176  0.2479 -0.2568 -0.7523
13618TIP3   OH240810   1.834   2.785   2.840  0.0463  0.0145  0.3520
13618TIP3    H140811   1.814   2.751   2.928  0.8069 -0.5751  0.3116
13618TIP3    H240812   1.900   2.724   2.806 -0.4664  0.0616 -0.7552
13619TIP3   OH240813   0.478   6.598   3.742  0.4399 -1.0570  0.1117
13619TIP3    H140814   0.539   6.539   3.787 -0.4310 -1.5262  0.7246
13619TIP3    H240815   0.494   6.583   3.649  2.0353 -0.3317  0.2477
13620TIP3   OH240816   6.011   7.400   0.228 -0.3981  0.0483  0.6211
13620TIP3    H140817   5.919   7.411   0.252 -0.5919  0.1398 -0.1507
13620TIP3    H240818   6.012   7.327   0.166  0.0005  0.3004  0.3237
13621TIP3   OH240819   6.810   3.309   4.471  0.3491  0.1597 -0.1884
13621TIP3    H140820   6.880   3.309   4.536  1.4052  0.5725 -1.2780
13621TIP3    H240821   6.738   3.263   4.513  0.6345  1.3067  1.6444
13622TIP3   OH240822   6.150   4.779   1.786  0.0188  0.1492 -0.0606
13622TIP3    H140823   6.190   4.812   1.705 -1.2881  0.6555 -0.5176
13622TIP3    H240824   6.144   4.855   1.843  0.3659 -0.0777  0.2828
13623TIP3   OH240825   3.084   0.858   4.399 -0.3529  0.3381 -0.7307
13623TIP3    H140826   2.992   0.882   4.398 -0.4075  0.1309 -0.7534
13623TIP3    H240827   3.085   0.764   4.383 -0.0227  0.6455 -2.7321
13624TIP3   OH240828   1.470   0.476   1.016  0.2086  0.7455  0.0979
13624TIP3    H140829   1.509   0.460   0.930  0.8368 -2.6904  0.8579
13624TIP3    H240830   1.468   0.390   1.058 -1.5720  2.0051  2.9378
13625TIP3   OH240831   4.711   4.050   2.694 -0.4355  0.6060  0.6138
13625TIP3    H140832   4.674   4.078   2.610 -1.5634 -2.7172 -0.1468
13625TIP3    H240833   4.797   4.092   2.697 -0.4072  0.9225 -2.1700
13626TIP3   OH240834   0.974   6.140   4.991  0.1878 -0.1797  0.5332
13626TIP3    H140835   0.938   6.214   5.039 -0.4226  1.3980 -2.1730
13626TIP3    H240836   0.910   6.070   5.002 -0.6756  0.6325  0.7322
13627TIP3   OH240837   2.747   6.648   3.596 -0.4599  0.0684  0.1097
13627TIP3    H140838   2.806   6.583   3.558 -1.1035 -1.0667  1.0066
13627TIP3    H240839   2.716   6.609   3.678 -0.9555  1.4566  0.6174
13628TIP3   OH240840   6.914   0.765   5.369 -0.6374 -0.1047  0.3209
13628TIP3    H140841   6.843   0.828   5.375  0.6688  1.5709 -0.8938
13628TIP3    H240842   6.959   0.772   5.453 -0.4493  0.6546  0.1596
13629TIP3   OH240843   6.362   0.037   1.746  0.4478  0.2968  0.2975
13629TIP3    H140844   6.417   0.090   1.689 -0.0346  1.0424  0.5049
13629TIP3    H240845   6.277   0.034   1.701  0.8606 -1.5545 -0.4480
13630TIP3   OH240846   1.214   4.549   5.075 -0.2163  0.0309 -0.2038
13630TIP3    H140847   1.193   4.574   5.165  0.2562 -0.6760  0.1060
13630TIP3    H240848   1.241   4.631   5.033  1.0495  0.1071  0.7196
13631TIP3   OH240849   3.698   7.065   2.435 -0.5105 -0.0099 -0.2929
13631TIP3    H140850   3.727   7.000   2.500 -1.1827 -0.3463 -0.3158
13631TIP3    H240851   3.757   7.138   2.446  0.5122 -0.7834 -0.5234
13632TIP3   OH240852   4.014   0.442   5.836  0.4573 -0.1378  0.1498
13632TIP3    H140853   3.990   0.454   5.928  0.7145 -0.6712  0.2898
13632TIP3    H240854   4.109   0.456   5.834  0.2336  1.5132 -0.3240
13633TIP3   OH240855   2.087   3.913   4.789 -0.4304  0.5702 -0.2371
13633TIP3    H140856   2.034   3.866   4.724  1.1238 -0.6601 -0.6923
13633TIP3    H240857   2.076   4.005   4.766  0.1571  0.1748 -2.3569
13634TIP3   OH240858   8.121   1.243   5.664 -0.1786  0.2452  0.5670
13634TIP3    H140859   8.078   1.271   5.584  0.2624  0.5807  0.4460
13634TIP3    H240860   8.092   1.306   5.730 -0.0382  0.3449  0.5327
13635TIP3   OH240861   0.771   6.270   0.713 -0.3374 -0.1135  0.2402
13635TIP3    H140862   0.725   6.330   0.772  1.2597 -0.0780  1.5188
13635TIP3    H240863   0.717   6.191   0.713 -0.5110 -0.0274  1.5755
13636TIP3   OH240864   1.121   4.578   1.677 -0.1349  0.3431  0.7885
13636TIP3    H140865   1.039   4.560   1.631  0.6681 -3.0336  0.4509
13636TIP3    H240866   1.172   4.630   1.615 -0.9350 -0.0055 -0.1922
13637TIP3   OH240867   4.924   2.076   1.251  0.4970 -0.2977 -0.2307
13637TIP3    H140868   4.874   2.157   1.258  0.1749 -0.5803  0.9232
13637TIP3    H240869   5.008   2.103   1.213  0.0091  0.4058 -0.8297
13638TIP3   OH240870   5.761   7.383   1.634 -0.4558 -0.3910 -0.3692
13638TIP3    H140871   5.745   7.297   1.594  1.8383 -0.6316 -0.8807
13638TIP3    H240872   5.738   7.446   1.566 -2.1081 -0.5553 -0.0056
13639TIP3   OH240873   7.115   2.461   3.587 -0.0104  0.2406 -0.5393
13639TIP3    H140874   7.136   2.488   3.498 -0.3803 -0.3975 -0.8286
13639TIP3    H240875   7.129   2.539   3.640 -0.3538  0.7946 -1.2476
13640TIP3   OH240876   1.846   7.087   4.603 -0.5735 -0.1196  0.0543
13640TIP3    H140877   1.783   7.021   4.573  0.2766 -1.0882  0.3311
13640TIP3    H240878   1.824   7.101   4.695 -1.2650  0.5988 -0.2114
13641TIP3   OH240879   0.624   5.646   0.998  0.0304  0.6256 -0.1583
13641TIP3    H140880   0.702   5.702   1.004  0.4761 -0.1121  1.5697
13641TIP3    H240881   0.575   5.665   1.079  0.2415 -1.4958  0.5184
13642TIP3   OH240882   4.043   6.583   0.158 -0.1189 -0.1503 -0.1195
13642TIP3    H140883   4.060   6.493   0.185  3.4091  0.3769  0.0052
13642TIP3    H240884   4.113   6.602   0.094 -1.1638  2.2771 -0.6621
13643TIP3   OH240885   1.209   3.838   4.948 -0.0423 -0.3383  0.5067
13643TIP3    H140886   1.247   3.783   4.879  0.6928  0.7284  0.0189
13643TIP3    H240887   1.256   3.812   5.027  0.6864 -0.0607  0.1802
13644TIP3   OH240888   5.512   3.948   0.152  0.2800  0.6821  0.2482
13644TIP3    H140889   5.559   4.025   0.119 -1.2103  2.1594  1.4434
13644TIP3    H240890   5.543   3.937   0.242 -0.4514  0.6737  0.5030
13645TIP3   OH240891   2.242   1.489   3.609 -0.2460  0.4519 -0.1911
13645TIP3    H140892   2.148   1.506   3.604 -0.5103 -0.4643  1.2849
13645TIP3    H240893   2.277   1.531   3.530 -1.8711  0.8328 -0.7632
13646TIP3   OH240894   3.359   1.908   4.954 -0.5637 -0.0302 -0.3141
13646TIP3    H140895   3.265   1.917   4.935 -0.9554 -0.5299  1.2970
13646TIP3    H240896   3.400   1.908   4.867 -2.0679 -0.0456 -1.0660
13647TIP3   OH240897   3.041   4.071   0.235  0.2909 -0.1533  0.5326
13647TIP3    H140898   2.964   4.119   0.263  0.5908 -0.1523  1.3719
13647TIP3    H240899   3.113   4.134   0.243  0.4500 -0.2862  0.1773
13648TIP3   OH240900   3.680   1.921   1.113 -0.1049  0.2713 -0.5927
13648TIP3    H140901   3.602   1.867   1.098 -0.1776  0.0295  0.5638
13648TIP3    H240902   3.714   1.891   1.198  1.8028 -0.3027 -1.5088
13649TIP3   OH240903   6.251   5.726   4.550 -0.2142 -0.0507 -0.4117
13649TIP3    H140904   6.341   5.705   4.526  0.1739  0.7594  0.2848
13649TIP3    H240905   6.198   5.668   4.495  0.7412 -1.1290 -0.2379
13650TIP3   OH240906   3.126   7.653   1.351 -0.2552 -0.0553 -0.1868
13650TIP3    H140907   3.048   7.643   1.297  0.1123  1.7282 -1.1141
13650TIP3    H240908   3.093   7.674   1.438 -0.8160 -1.3036 -0.0781
13651TIP3   OH240909   0.633   1.719   4.093 -0.4597  0.0114  0.4842
13651TIP3    H140910   0.543   1.754   4.088 -0.0766  0.9749  0.0353
13651TIP3    H240911   0.687   1.797   4.107  0.2888 -0.5927  0.9777
13652TIP3   OH240912   3.868   1.424   3.394 -0.3396 -0.0761  0.2687
13652TIP3    H140913   3.919   1.470   3.327 -1.4334 -1.3106 -1.5063
13652TIP3    H240914   3.786   1.472   3.399 -0.0348  0.3696  1.2138
13653TIP3   OH240915   4.196   5.599   0.534  0.0517 -0.3591 -0.8370
13653TIP3    H140916   4.144   5.643   0.601  0.9122 -0.3057 -0.1887
13653TIP3    H240917   4.252   5.538   0.582  0.8470 -0.1537 -1.4746
13654TIP3   OH240918   6.094   0.750   0.573 -0.0333 -0.0859  0.2992
13654TIP3    H140919   6.004   0.747   0.604 -0.2400  0.0529 -0.2695
13654TIP3    H240920   6.146   0.717   0.646 -0.7116 -1.8742  0.0136
13655TIP3   OH240921   6.904   1.602   3.043  0.1763 -0.1002  0.3954
13655TIP3    H140922   6.940   1.635   2.960  0.3393  0.8919  0.8399
13655TIP3    H240923   6.810   1.622   3.038 -0.0720 -1.3530 -0.1474
13656TIP3   OH240924   5.091   1.172   4.837  0.0726  0.1588  0.3657
13656TIP3    H140925   5.076   1.156   4.930 -0.0483 -0.0292  0.3132
13656TIP3    H240926   5.059   1.261   4.823 -0.8027 -0.1555  0.2987
13657TIP3   OH240927   4.915   4.622   5.256  0.0060 -0.5113  0.7189
13657TIP3    H140928   4.823   4.650   5.258  0.7242  2.0327  2.0764
13657TIP3    H240929   4.932   4.592   5.346  0.6447 -0.4148  0.6289
13658TIP3   OH240930   0.624   1.213   1.020 -0.0637 -0.4599  0.3148
13658TIP3    H140931   0.654   1.273   0.953 -0.5096 -1.2475 -0.6144
13658TIP3    H240932   0.554   1.259   1.065 -0.5887 -0.3779 -0.5693
13659TIP3   OH240933   7.385   1.201   4.207 -0.2257 -0.5423  0.8437
13659TIP3    H140934   7.290   1.207   4.202 -0.2067 -0.7350  0.0775
13659TIP3    H240935   7.403   1.107   4.199  0.1051 -0.3673 -1.0262
13660TIP3   OH240936   7.071  -0.007   3.722 -0.3129  0.3270  0.1408
13660TIP3    H140937   7.145  -0.065   3.706 -0.0156  0.7113  0.0954
13660TIP3    H240938   7.111   0.074   3.754 -0.8021  0.0845  1.4056
13661TIP3   OH240939   0.598   1.888   1.210 -0.0999  0.3446  0.0475
13661TIP3    H140940   0.630   1.810   1.256 -0.0862  0.5689  0.4207
13661TIP3    H240941   0.672   1.948   1.209 -0.9866  1.6017  2.5289
13662TIP3   OH240942   4.905   2.456   5.165  0.0284  0.7327  0.2723
13662TIP3    H140943   4.948   2.371   5.175  0.1172  0.5251 -1.5572
13662TIP3    H240944   4.970   2.511   5.120 -1.3252  0.5857 -2.0152
13663TIP3   OH240945   7.377   3.901   0.012  0.0749 -0.0093  0.3304
13663TIP3    H140946   7.454   3.868   0.058 -1.0394 -1.4786  1.2245
13663TIP3    H240947   7.324   3.823  -0.006 -0.1327  0.6494 -2.3965
13664TIP3   OH240948   7.101   4.649   6.489 -0.1298  0.0497 -0.0817
13664TIP3    H140949   7.025   4.642   6.546 -1.3531  1.9610 -1.3699
13664TIP3    H240950   7.071   4.619   6.403 -0.3570  3.3269 -1.2819
13665TIP3   OH240951   4.196   1.464   6.369  0.0252 -0.2172  0.1642
13665TIP3    H140952   4.198   1.469   6.273  0.5114  2.4288  0.2174
13665TIP3    H240953   4.271   1.410   6.393  1.3392  1.0348 -0.9422
13666TIP3   OH240954   0.500   4.748   6.108  0.0191  0.0064 -0.1584
13666TIP3    H140955   0.412   4.747   6.147 -0.3873  0.0382 -1.0339
13666TIP3    H240956   0.516   4.840   6.088  1.0256  0.2609  1.6302
13667TIP3   OH240957   8.138   1.497   3.971  0.3634  0.6287 -0.0610
13667TIP3    H140958   8.127   1.436   3.898 -2.1338 -0.1842  0.8660
13667TIP3    H240959   8.069   1.562   3.959 -0.3666  0.2354  1.7597
13668TIP3   OH240960   3.514   7.445   4.174  0.9126 -0.2674 -0.0124
13668TIP3    H140961   3.575   7.373   4.161  0.3886 -0.9861  1.2152
13668TIP3    H240962   3.446   7.431   4.108  2.4914  1.1050 -2.0472
13669TIP3   OH240963   0.844   6.309   5.187 -0.3014  0.4159 -0.0255
13669TIP3    H140964   0.838   6.242   5.255 -0.4319 -0.4443 -0.8538
13669TIP3    H240965   0.833   6.392   5.233 -1.1433 -0.1855  0.9009
13670TIP3   OH240966   5.125   0.746   4.134  0.3995  1.0683  0.2028
13670TIP3    H140967   5.135   0.651   4.148  2.1025  0.7734 -2.2373
13670TIP3    H240968   5.174   0.786   4.206  1.4213  0.0055  0.1397
13671TIP3   OH240969   0.030   7.377   2.246 -0.4992  0.1704 -0.4631
13671TIP3    H140970   0.085   7.420   2.181  0.5281 -2.1526 -1.2441
13671TIP3    H240971  -0.027   7.446   2.279  3.1521  2.9523  0.7675
13672TIP3   OH240972   7.357   3.170   3.495 -0.2225 -0.4036  0.2894
13672TIP3    H140973   7.275   3.122   3.500  0.0386 -0.6957  2.4436
13672TIP3    H240974   7.334   3.261   3.516  0.2408 -0.8568  3.1601
13673TIP3   OH240975   1.565   3.357   2.145 -0.2641  0.2353 -0.0677
13673TIP3    H140976   1.508   3.281   2.135  0.6713 -0.2588 -2.0680
13673TIP3    H240977   1.638   3.325   2.197  0.4140 -0.4581 -1.3827
13674TIP3   OH240978   6.290   2.575   4.955  0.2805  0.4238  0.2307
13674TIP3    H140979   6.291   2.640   5.025  0.2819  0.3769  0.2750
13674TIP3    H240980   6.247   2.498   4.995 -1.0109  0.8724 -0.2476
13675TIP3   OH240981   4.993   6.180   6.509 -0.2083  0.4486  0.0008
13675TIP3    H140982   4.964   6.135   6.430  0.5814 -1.7746  0.8941
13675TIP3    H240983   4.913   6.198   6.558 -0.4562 -2.3722  0.7785
13676TIP3   OH240984   5.540   1.241   6.059 -0.0808 -0.4740  0.2392
13676TIP3    H140985   5.510   1.153   6.080  0.1808 -0.5247  0.3978
13676TIP3    H240986   5.484   1.268   5.986  0.1441 -0.9500 -0.1211
13677TIP3   OH240987   0.595   0.646   0.840  0.0495  0.2491 -0.0570
13677TIP3    H140988   0.605   0.673   0.931 -2.1961 -0.3596  0.4529
13677TIP3    H240989   0.644   0.711   0.789 -0.3149  1.7920  1.4633
13678TIP3   OH240990   1.191   0.103   2.077  0.4602  1.2387  0.6783
13678TIP3    H140991   1.260   0.037   2.066  0.8570  1.9463 -1.5097
13678TIP3    H240992   1.116   0.066   2.030  0.5988  2.1998 -0.3203
13679TIP3   OH240993   5.545   5.564   6.691 -0.2634  0.1313 -0.1289
13679TIP3    H140994   5.477   5.544   6.755 -0.8658  1.0121 -0.4671
13679TIP3    H240995   5.514   5.643   6.647  0.8103  0.3392 -0.5500
13680TIP3   OH240996   6.830   5.314   1.393 -0.4641 -0.0154  0.0306
13680TIP3    H140997   6.828   5.388   1.454  1.2545 -1.0648  1.4750
13680TIP3    H240998   6.919   5.279   1.401 -1.3418 -2.4966 -0.2812
13681TIP3   OH240999   8.153   6.603   6.089 -0.0907 -0.1576  0.0537
13681TIP3    H141000   8.101   6.665   6.038 -0.6965  0.1474  1.0257
13681TIP3    H241001   8.189   6.543   6.024 -0.9641  0.1431 -0.7230
13682TIP3   OH241002   1.625   5.915   3.341  0.1742 -0.5794 -0.1971
13682TIP3    H141003   1.600   5.853   3.409  0.5236 -1.5001 -0.8767
13682TIP3    H241004   1.545   5.930   3.291  0.1158 -0.5885 -0.1054
13683TIP3   OH241005   6.771   6.247   3.312  0.0548 -0.0665 -0.3026
13683TIP3    H141006   6.840   6.279   3.369  2.0969 -0.7735 -2.2128
13683TIP3    H241007   6.750   6.160   3.346 -0.0643  0.2530  0.4389
13684TIP3   OH241008   5.621   6.110   3.207 -0.5774 -0.2120 -0.5740
13684TIP3    H141009   5.680   6.093   3.133  0.0387  0.9102 -0.3609
13684TIP3    H241010   5.636   6.202   3.229 -0.7850 -0.5113  0.9247
13685TIP3   OH241011   7.326   7.465   1.518 -0.3883 -0.2053  0.3051
13685TIP3    H141012   7.271   7.497   1.446  0.2776  1.3413  0.4318
13685TIP3    H241013   7.298   7.375   1.531 -0.8509 -0.3848 -1.5744
13686TIP3   OH241014   2.717   1.402   6.037  0.5597 -0.0708 -0.1561
13686TIP3    H141015   2.700   1.340   5.966 -1.3771  0.6437 -0.3673
13686TIP3    H241016   2.699   1.352   6.117  1.2199 -0.4133 -0.2096
13687TIP3   OH241017   7.268   4.677   4.222 -0.2363  0.0842  0.9617
13687TIP3    H141018   7.282   4.586   4.246 -1.9274 -1.1920 -2.3600
13687TIP3    H241019   7.189   4.702   4.271 -0.9157 -0.9140  0.4095
13688TIP3   OH241020   6.613   4.289   6.535 -0.1805  0.1902 -0.6929
13688TIP3    H141021   6.684   4.276   6.598  0.9403  0.0809 -1.9438
13688TIP3    H241022   6.555   4.214   6.547  0.8980 -0.6919 -0.9181
13689TIP3   OH241023   8.278   6.289   0.351  0.8027  0.2559 -0.1863
13689TIP3    H141024   8.224   6.312   0.427  0.1747 -0.9923 -0.2198
13689TIP3    H241025   8.232   6.326   0.277  0.4712 -0.0168 -0.1205
13690TIP3   OH241026   7.735   3.551   2.833 -0.0569  0.0621  0.4523
13690TIP3    H141027   7.673   3.481   2.853  0.6009 -0.5397  0.4263
13690TIP3    H241028   7.690   3.631   2.858 -1.1793 -0.2922 -0.3674
13691TIP3   OH241029   3.017   2.233   4.675 -0.0081  0.6121 -0.0475
13691TIP3    H141030   3.096   2.197   4.635  0.8914  2.3857  0.0133
13691TIP3    H241031   2.964   2.157   4.697  0.7243 -0.5398 -2.0342
13692TIP3   OH241032   0.823   3.186   6.699  0.9359 -0.5440 -0.1838
13692TIP3    H141033   0.816   3.216   6.608  0.4340  0.6711  0.2374
13692TIP3    H241034   0.759   3.240   6.747  2.2755 -0.0766  1.1443
13693TIP3   OH241035   2.319   6.812   4.859 -0.3324  0.0559 -0.2363
13693TIP3    H141036   2.292   6.746   4.794 -1.1727 -0.2710  0.4276
13693TIP3    H241037   2.290   6.895   4.822 -0.4076 -0.0797 -0.4846
13694TIP3   OH241038   6.117   2.092   3.797 -0.8051 -0.0679 -0.1315
13694TIP3    H141039   6.201   2.048   3.783 -0.1456  0.4930  1.7529
13694TIP3    H241040   6.116   2.163   3.733  0.7297  0.6375  0.5525
13695TIP3   OH241041   6.975   3.109   6.145  0.0717 -0.0539  0.2377
13695TIP3    H141042   6.922   3.179   6.108  1.0168 -0.1327 -1.3842
13695TIP3    H241043   7.011   3.145   6.225 -0.6372  0.7770  0.1944
13696TIP3   OH241044   3.954   4.469   1.072 -0.3604  0.2414 -0.0720
13696TIP3    H141045   3.951   4.424   1.156 -0.9331  0.4738  0.0309
13696TIP3    H241046   3.884   4.534   1.076 -0.7294 -0.0959 -0.9315
13697TIP3   OH241047   4.246   1.633   4.191  0.0798 -0.4039 -0.2535
13697TIP3    H141048   4.338   1.654   4.176  0.2600  0.6452  1.9538
13697TIP3    H241049   4.202   1.718   4.190 -0.5469 -0.7100  0.5745
13698TIP3   OH241050   1.626   0.791   3.427 -0.0107 -0.3324  0.2257
13698TIP3    H141051   1.657   0.779   3.517 -0.4635 -2.7040  0.1095
13698TIP3    H241052   1.531   0.786   3.434 -0.1747  1.4880 -0.1600
13699TIP3   OH241053   2.251   3.291   0.921  0.0698 -0.0961  0.3752
13699TIP3    H141054   2.214   3.293   1.009 -0.6242  0.4665  0.0789
13699TIP3    H241055   2.346   3.301   0.934  0.2262 -2.1992  1.1889
13700TIP3   OH241056   7.435   5.380   3.798 -0.0232  0.2041 -0.3785
13700TIP3    H141057   7.373   5.428   3.744 -0.6929  0.4347  0.5599
13700TIP3    H241058   7.501   5.346   3.737 -0.2388  1.2438 -1.2054
13701TIP3   OH241059   7.227   1.215   4.577  0.0080 -0.2916  0.2685
13701TIP3    H141060   7.218   1.120   4.569 -0.1933 -0.3765  1.3075
13701TIP3    H241061   7.315   1.234   4.545 -0.6211 -0.5713 -1.7668
13702TIP3   OH241062   0.769   5.329   2.692 -0.0052 -0.3281 -0.1376
13702TIP3    H141063   0.730   5.416   2.706 -0.0919 -0.0155 -2.1073
13702TIP3    H241064   0.862   5.347   2.675  0.4899 -0.8531  1.7339
13703TIP3   OH241065   5.493   5.390   2.001 -0.8063 -0.1379  0.8489
13703TIP3    H141066   5.514   5.467   1.949 -0.9274 -1.0279 -0.5808
13703TIP3    H241067   5.575   5.340   2.005 -0.9524 -0.3702  1.0166
13704TIP3   OH241068   4.415   0.208   3.878 -0.1885  0.0870  0.4527
13704TIP3    H141069   4.340   0.186   3.934 -0.0400 -0.6995  0.3617
13704TIP3    H241070   4.444   0.294   3.908 -1.2828  0.5251  0.3304
13705TIP3   OH241071   0.949   4.488   2.603  0.4274  0.4429  0.4021
13705TIP3    H141072   0.972   4.573   2.565 -0.7416  0.4628 -0.3007
13705TIP3    H241073   0.931   4.431   2.528 -0.7436  0.1482  0.8849
13706TIP3   OH241074   4.201   4.355   4.405  0.2791 -0.0610  0.1664
13706TIP3    H141075   4.224   4.315   4.321  0.1521 -0.8540  0.5006
13706TIP3    H241076   4.276   4.409   4.427 -0.2547  1.2758 -1.1280
13707TIP3   OH241077   0.703   1.887   6.544 -0.3092  0.2907 -0.1716
13707TIP3    H141078   0.653   1.809   6.522  1.2172 -0.8470  0.3004
13707TIP3    H241079   0.672   1.911   6.631  0.1605 -0.5931  0.2511
13708TIP3   OH241080   5.532   3.738   1.962 -0.1641 -0.4310 -0.3986
13708TIP3    H141081   5.489   3.655   1.985 -0.9584 -0.3537 -1.4758
13708TIP3    H241082   5.464   3.804   1.976  0.3869  0.0114  0.2095
13709TIP3   OH241083   5.932   0.324   6.044 -0.5561 -0.3579 -0.2842
13709TIP3    H141084   5.972   0.285   5.966  0.1567 -1.0382  0.3899
13709TIP3    H241085   5.885   0.400   6.012  0.8958  0.1933 -1.2002
13710TIP3   OH241086   3.935   6.579   2.630  0.0908  0.4177  0.7834
13710TIP3    H141087   3.860   6.544   2.582  0.7127 -0.4903  0.4378
13710TIP3    H241088   3.943   6.524   2.707  1.1472 -0.3148  0.1779
13711TIP3   OH241089   6.609   7.659   0.396 -0.2884  0.2637  0.1126
13711TIP3    H141090   6.684   7.600   0.404  1.0721  1.7642 -0.7862
13711TIP3    H241091   6.570   7.637   0.311 -0.7592 -0.4047  0.5026
13712TIP3   OH241092   2.973   2.455   2.069  0.7415 -0.0157  0.0525
13712TIP3    H141093   2.918   2.419   1.999 -1.1897  0.7079  1.1335
13712TIP3    H241094   3.048   2.395   2.073  1.2972  0.2794 -3.0482
13713TIP3   OH241095   3.968   4.239   0.546 -0.3593 -0.1849 -0.2737
13713TIP3    H141096   3.965   4.226   0.641 -0.4729 -1.4830 -0.4278
13713TIP3    H241097   3.995   4.330   0.535 -1.4399  0.3325  1.0017
13714TIP3   OH241098   2.508   0.570   5.746  0.2075  0.0780 -0.2295
13714TIP3    H141099   2.515   0.614   5.830  1.5858  0.2669 -0.4135
13714TIP3    H241100   2.510   0.476   5.768 -1.6152  0.0845  0.0798
13715TIP3   OH241101   3.939   7.113   3.364  0.1154  0.1948  0.2634
13715TIP3    H141102   3.993   7.135   3.440 -0.4789  1.5499  0.3183
13715TIP3    H241103   3.991   7.140   3.289 -0.3898  1.3750  0.3117
13716TIP3   OH241104   2.401   5.709   2.599  0.5793 -0.2298  0.1223
13716TIP3    H141105   2.320   5.727   2.550  0.6033  1.1261  0.5265
13716TIP3    H241106   2.471   5.743   2.544  0.7195  0.1131  0.5052
13717TIP3   OH241107   8.057   3.361   6.463  0.5930 -0.1575 -0.0699
13717TIP3    H141108   8.074   3.386   6.554  0.6069 -0.1932 -0.0628
13717TIP3    H241109   7.961   3.360   6.456  0.5907  0.5581 -0.2497
13718TIP3   OH241110   5.739   4.297   0.669 -0.5877  0.4385 -0.0406
13718TIP3    H141111   5.753   4.204   0.688 -2.5553 -0.4120 -2.2366
13718TIP3    H241112   5.654   4.316   0.709 -0.0658  1.4284  0.6489
13719TIP3   OH241113   3.223   6.087   4.163 -0.2780  0.1801 -0.2984
13719TIP3    H141114   3.227   6.178   4.134  0.1894 -0.3812 -2.1451
13719TIP3    H241115   3.271   6.086   4.246  0.4463  1.4712 -0.6672
13720TIP3   OH241116   4.538   2.586   0.681  0.0968 -0.0006 -0.6095
13720TIP3    H141117   4.504   2.506   0.640  2.8264 -1.0321 -1.1099
13720TIP3    H241118   4.581   2.633   0.609  1.0462  0.4198  0.2006
13721TIP3   OH241119   7.173   4.314   5.924 -0.1633 -0.6048  0.5003
13721TIP3    H141120   7.158   4.403   5.893  1.4891 -0.7441 -0.8350
13721TIP3    H241121   7.231   4.324   6.000 -0.6178 -0.5210  0.8440
13722TIP3   OH241122   5.185   1.391   2.198 -0.3020  0.4928  0.7003
13722TIP3    H141123   5.252   1.458   2.204  0.3496 -0.1061  0.2952
13722TIP3    H241124   5.233   1.308   2.198 -0.7645  0.0797 -2.4220
13723TIP3   OH241125   2.818   7.398   4.459  0.2766  0.6297 -0.3321
13723TIP3    H141126   2.905   7.409   4.497  1.1541 -2.0813 -1.3049
13723TIP3    H241127   2.829   7.423   4.367 -0.1788  0.9669 -0.2997
13724TIP3   OH241128   6.267   5.055   1.492 -0.4010 -0.2995 -0.4394
13724TIP3    H141129   6.242   5.148   1.491  1.1507  0.1516 -0.8512
13724TIP3    H241130   6.285   5.035   1.400  1.3861 -0.3717 -0.1018
13725TIP3   OH241131   3.586   3.246   6.063  0.1247  0.2522  0.1948
13725TIP3    H141132   3.507   3.197   6.085 -0.9165  1.6642 -0.2470
13725TIP3    H241133   3.564   3.293   5.982  1.6507  0.1645 -0.3117
13726TIP3   OH241134   3.966   6.623   5.976 -0.1376 -0.4264  0.1585
13726TIP3    H141135   4.024   6.548   5.962  1.2172  0.8266 -1.3203
13726TIP3    H241136   4.007   6.672   6.048 -0.3480 -0.4378  0.2892
13727TIP3   OH241137   1.876   7.423   1.819 -0.5874 -0.2221  0.0282
13727TIP3    H141138   1.851   7.342   1.862 -0.1061  0.0119  0.7712
13727TIP3    H241139   1.924   7.395   1.741 -1.0794 -0.6461 -0.1260
13728TIP3   OH241140   0.231   2.641   0.893  0.2436  0.4810 -0.1364
13728TIP3    H141141   0.258   2.549   0.894  0.2282  0.4301  2.1048
13728TIP3    H241142   0.284   2.681   0.963 -1.7788  1.5083  0.8910
13729TIP3   OH241143   5.856   4.142   5.806  0.2081  0.1466 -0.6779
13729TIP3    H141144   5.845   4.124   5.712  1.0371 -0.7008 -0.6335
13729TIP3    H241145   5.950   4.153   5.817  0.2962 -1.2946  0.2931
13730TIP3   OH241146   0.582   6.111   5.693 -0.2148  0.2681 -0.3102
13730TIP3    H141147   0.512   6.093   5.630 -1.2941  0.1937  0.8600
13730TIP3    H241148   0.581   6.206   5.703  0.9556  0.4336 -1.4702
13731TIP3   OH241149   7.123   0.550   5.518 -0.2789 -0.1438 -0.1991
13731TIP3    H141150   7.100   0.489   5.448 -0.9440 -0.1871  0.0573
13731TIP3    H241151   7.218   0.542   5.526 -0.1698  0.0215 -1.2429
13732TIP3   OH241152   8.156   3.565   3.598  0.1869  0.3177  0.5965
13732TIP3    H141153   8.204   3.549   3.517  1.3391  1.2884  1.0719
13732TIP3    H241154   8.065   3.544   3.575  0.1106  2.5303 -1.5875
13733TIP3   OH241155   8.113   1.153   5.196  0.5410 -0.2169  0.2621
13733TIP3    H141156   8.130   1.180   5.105  0.1905  1.3120  0.6260
13733TIP3    H241157   8.082   1.063   5.188 -0.5443  0.2509 -1.2416
13734TIP3   OH241158   0.236   1.200   6.774 -0.1054 -0.4084 -0.4700
13734TIP3    H141159   0.157   1.149   6.755  0.9921 -2.1832 -0.4931
13734TIP3    H241160   0.308   1.146   6.743  1.2319  0.4837  0.8977
13735TIP3   OH241161   4.767   0.819   6.019  0.5485 -0.4630 -0.2181
13735TIP3    H141162   4.806   0.747   6.068  0.1946 -1.2603 -1.0811
13735TIP3    H241163   4.833   0.888   6.021  1.1938 -1.0781  0.0075
13736TIP3   OH241164   8.037   4.533   4.643 -0.1691 -0.3472 -0.5719
13736TIP3    H141165   8.110   4.512   4.585  0.1786 -0.8093  0.0188
13736TIP3    H241166   7.985   4.453   4.645  0.7549 -0.9525  1.1022
13737TIP3   OH241167   0.939   7.117   5.434  0.1093  0.0174 -0.2847
13737TIP3    H141168   0.931   7.164   5.517 -3.0410 -0.3800 -0.2439
13737TIP3    H241169   0.926   7.184   5.367  0.9071  0.0423 -0.4251
13738TIP3   OH241170   5.910   5.563   2.012  0.1889 -0.7672 -0.2252
13738TIP3    H141171   5.961   5.623   1.957  2.6853 -2.4552  0.0928
13738TIP3    H241172   5.937   5.584   2.101 -0.2719 -1.1837  0.0183
13739TIP3   OH241173   0.231   2.701   6.204 -0.5405  0.4152  0.1342
13739TIP3    H141174   0.180   2.633   6.248 -0.2347  0.1138  0.0266
13739TIP3    H241175   0.320   2.666   6.200 -0.0166  1.4538  1.4900
13740TIP3   OH241176   5.273   1.943   0.564  0.0666 -0.0282 -0.1364
13740TIP3    H141177   5.190   1.896   0.563 -0.7794  1.4191  0.2935
13740TIP3    H241178   5.253   2.028   0.602  1.9287  0.0301  0.8422
13741TIP3   OH241179   1.237   7.540   6.199  0.0435  0.2804 -0.1324
13741TIP3    H141180   1.230   7.445   6.212 -0.5686  0.4057  0.5392
13741TIP3    H241181   1.331   7.558   6.207  0.1297 -0.2288  0.0631
13742TIP3   OH241182   8.015   4.714   5.855  0.1373 -0.3424 -0.9431
13742TIP3    H141183   8.022   4.638   5.798  1.6991 -1.4683  0.6614
13742TIP3    H241184   7.962   4.684   5.929  1.1807 -0.0377 -0.0548
13743TIP3   OH241185   4.172   7.095   6.579 -0.0797 -0.2693 -0.2448
13743TIP3    H141186   4.267   7.107   6.575 -0.0383 -0.2073  0.7068
13743TIP3    H241187   4.146   7.134   6.662 -0.9459 -0.2806 -0.4958
13744TIP3   OH241188   1.429   5.282   6.124  0.7947  0.1515  0.5311
13744TIP3    H141189   1.388   5.358   6.082  2.5818  1.4503  1.0013
13744TIP3    H241190   1.427   5.213   6.057  0.4001  1.0610 -0.4260
13745TIP3   OH241191   5.767   5.181   3.546  0.5500 -0.2871 -0.3016
13745TIP3    H141192   5.855   5.194   3.510 -0.0801  1.0444 -1.4963
13745TIP3    H241193   5.739   5.096   3.512  1.0798 -0.3573 -0.5674
13746TIP3   OH241194   4.567   2.795   0.367 -0.5813  0.0925 -0.1931
13746TIP3    H141195   4.562   2.883   0.329 -0.9659  0.3213  0.3763
13746TIP3    H241196   4.617   2.807   0.447  1.7385 -0.6761 -1.4331
13747TIP3   OH241197   4.645   1.873   6.297  0.2921  0.4430 -0.2818
13747TIP3    H141198   4.593   1.797   6.270  2.4877 -0.3948 -2.5952
13747TIP3    H241199   4.685   1.846   6.380  1.6343 -1.3347 -1.4289
13748TIP3   OH241200   1.881   5.348   4.280  0.3042 -0.0399  0.1902
13748TIP3    H141201   1.871   5.263   4.238 -1.2913  0.5737 -0.7210
13748TIP3    H241202   1.876   5.329   4.374 -0.1215 -0.9450 -0.0079
13749TIP3   OH241203   4.560   4.559   5.053 -0.4078 -0.8630  0.4965
13749TIP3    H141204   4.574   4.620   4.981  1.0378  0.9879  2.2228
13749TIP3    H241205   4.560   4.473   5.012 -0.3008  0.1549 -1.7687
13750TIP3   OH241206   2.581   4.903   2.676 -0.5220 -0.3045 -0.2469
13750TIP3    H141207   2.615   4.862   2.597 -0.5807  0.4527 -0.6686
13750TIP3    H241208   2.640   4.873   2.745 -0.6165 -1.1663 -0.5265
13751TIP3   OH241209   3.024   1.171   4.064 -0.6165  0.4675 -0.2854
13751TIP3    H141210   2.982   1.116   4.131 -1.3876  1.0335 -0.2984
13751TIP3    H241211   2.953   1.193   4.004 -0.2172  1.1273 -0.5129
13752TIP3   OH241212   2.545   5.405   0.632  0.2356 -0.4957  0.4377
13752TIP3    H141213   2.560   5.445   0.546  0.7829  0.5346  0.9975
13752TIP3    H241214   2.451   5.386   0.633 -0.0298  0.7017  0.0993
13753TIP3   OH241215   5.598   0.053   5.075 -0.2904 -0.1562 -0.3628
13753TIP3    H141216   5.648   0.016   5.146 -0.3772  2.6311  1.3126
13753TIP3    H241217   5.509   0.018   5.086  0.1801 -1.4462 -0.5053
13754TIP3   OH241218   8.085   7.620   1.700  0.1781 -0.2887 -0.3613
13754TIP3    H141219   8.168   7.581   1.673  0.6942  0.3681  0.2321
13754TIP3    H241220   8.107   7.709   1.726 -0.1271 -1.0122  2.7993
13755TIP3   OH241221   6.917   2.488   0.403  0.7153  0.1567 -0.8105
13755TIP3    H141222   6.992   2.509   0.459 -1.1147  2.5117  0.9465
13755TIP3    H241223   6.866   2.425   0.453 -0.2792  1.3122 -0.3166
13756TIP3   OH241224   2.493   0.966   6.625 -0.1624  0.0557 -0.5244
13756TIP3    H141225   2.485   1.024   6.701  1.8100 -1.8998  1.3477
13756TIP3    H241226   2.551   0.895   6.655 -4.1679 -4.2860 -1.7267
13757TIP3   OH241227   2.383   4.128   6.302  0.2615 -0.5329  0.3276
13757TIP3    H141228   2.318   4.190   6.334 -1.0863 -0.2174 -2.7386
13757TIP3    H241229   2.465   4.155   6.345 -0.6518  2.1491  0.5657
13758TIP3   OH241230   6.136   1.406   0.989  0.5120  0.6783  0.2114
13758TIP3    H141231   6.173   1.430   1.074  0.2302 -0.6435  0.7339
13758TIP3    H241232   6.049   1.373   1.009  0.7855 -0.5170 -0.4820
13759TIP3   OH241233   4.214   1.433   4.387 -0.3512 -0.0456 -0.5613
13759TIP3    H141234   4.234   1.493   4.315 -0.7426  1.1668  0.2928
13759TIP3    H241235   4.123   1.454   4.410  0.0635  0.2926  0.8912
13760TIP3   OH241236   4.925   2.617   3.266  0.5651 -0.0340  0.3501
13760TIP3    H141237   4.936   2.527   3.295 -0.2301  0.3112  1.8415
13760TIP3    H241238   4.860   2.612   3.195  1.2245 -0.7117 -0.2220
13761TIP3   OH241239   0.673   6.138   2.491  0.3729 -0.6498 -0.1200
13761TIP3    H141240   0.744   6.162   2.431  1.0504 -0.0253  0.8900
13761TIP3    H241241   0.667   6.042   2.483  0.8854 -0.6408 -0.7096
13762TIP3   OH241242   1.938   1.682   2.554  0.2235  0.4644 -0.7080
13762TIP3    H141243   1.958   1.590   2.536  0.7513 -0.1681  2.5656
13762TIP3    H241244   2.020   1.719   2.586 -0.5455  1.4577  0.1691
13763TIP3   OH241245   6.590   6.294   0.731  0.6735  0.1257  0.7373
13763TIP3    H141246   6.680   6.262   0.736  0.4861 -0.2977  1.6665
13763TIP3    H241247   6.542   6.225   0.684  1.0375  0.8612 -0.7703
13764TIP3   OH241248   1.712   2.596   3.861 -0.3551 -0.5946 -0.2197
13764TIP3    H141249   1.670   2.540   3.926  0.7802 -1.8929 -0.5575
13764TIP3    H241250   1.758   2.663   3.912 -1.3099 -0.2562  0.2075
13765TIP3   OH241251   3.856   3.145   1.691 -0.0813  0.5227 -0.0675
13765TIP3    H141252   3.890   3.056   1.678 -0.1361  0.3266  1.0493
13765TIP3    H241253   3.816   3.143   1.778 -0.6363  1.4768 -0.2887
13766TIP3   OH241254   2.350   5.615   5.833 -0.2937  0.1690  0.2767
13766TIP3    H141255   2.443   5.636   5.825 -0.7701  2.4222  0.0171
13766TIP3    H241256   2.341   5.528   5.794  1.6564 -0.0066  0.1414
13767TIP3   OH241257   3.804   6.512   4.315 -0.5575 -0.4183 -0.1334
13767TIP3    H141258   3.881   6.522   4.371 -0.9148  0.3613  0.2398
13767TIP3    H241259   3.789   6.418   4.311  0.6916 -0.6048 -0.5942
13768TIP3   OH241260   7.876   3.027   2.021  0.3814 -0.2704  0.7145
13768TIP3    H141261   7.969   3.008   2.028 -0.0006 -2.1007  1.3188
13768TIP3    H241262   7.858   3.091   2.090  1.6922  2.4584 -1.2884
13769TIP3   OH241263   7.507   5.027   3.800  0.1773 -0.0729 -0.2370
13769TIP3    H141264   7.412   5.018   3.810 -0.1708  1.4150 -1.6062
13769TIP3    H241265   7.517   5.090   3.728  2.1788  1.2496  1.0942
13770TIP3   OH241266   2.206   6.546   2.658  0.2669 -0.2464 -0.1116
13770TIP3    H141267   2.164   6.496   2.728  1.8000  1.3622  2.0702
13770TIP3    H241268   2.296   6.557   2.687  0.6986  1.3259 -1.8836
13771TIP3   OH241269   6.723   7.567   0.703  0.2634  0.0128 -0.4184
13771TIP3    H141270   6.774   7.644   0.729 -0.5278  0.8530 -1.2826
13771TIP3    H241271   6.757   7.543   0.617  0.7451 -0.8313 -0.0023
13772TIP3   OH241272   3.328   3.075   6.000 -0.0103  0.1015  0.2446
13772TIP3    H141273   3.301   3.164   5.975 -0.6212 -0.2274 -0.3013
13772TIP3    H241274   3.247   3.030   6.022 -0.0066 -0.9709 -1.6496
13773TIP3   OH241275   4.531   3.595   4.308 -0.3572 -0.5712  0.3334
13773TIP3    H141276   4.598   3.528   4.296  0.2036  0.2526 -1.5854
13773TIP3    H241277   4.538   3.619   4.400  2.0209 -0.5408  0.2314
13774TIP3   OH241278   2.797   6.464   4.185 -0.1568  0.0761 -0.5869
13774TIP3    H141279   2.774   6.523   4.257 -1.6950  1.9555 -2.4507
13774TIP3    H241280   2.865   6.511   4.136  0.7904 -1.1124 -0.4520
13775TIP3   OH241281   6.658   2.603   3.671  0.2461  0.2116  0.2571
13775TIP3    H141282   6.616   2.576   3.590 -2.0124  0.9052  1.1210
13775TIP3    H241283   6.697   2.689   3.651  2.4744 -0.9675 -0.8876
13776TIP3   OH241284   2.166   6.988   4.651  0.2192 -0.5414  0.5879
13776TIP3    H141285   2.122   7.055   4.704 -1.9908 -1.0037 -0.5071
13776TIP3    H241286   2.162   7.022   4.561 -1.4247 -2.2646 -0.0741
13777TIP3   OH241287   0.839   0.396   0.029 -0.0918  0.5162 -0.5927
13777TIP3    H141288   0.759   0.361   0.068 -0.1719  2.4595  1.1472
13777TIP3    H241289   0.830   0.491   0.035  2.3674  0.7969 -0.2499
13778TIP3   OH241290   6.992   5.173   5.847  0.1368 -0.3528 -0.5029
13778TIP3    H141291   6.993   5.223   5.929  1.2308 -1.7575  0.4013
13778TIP3    H241292   7.051   5.221   5.789 -1.0006  0.9108 -0.6725
13779TIP3   OH241293   6.692   1.341   5.173  0.0565 -0.8320 -0.1348
13779TIP3    H141294   6.756   1.353   5.243 -1.7905  0.0530  1.4922
13779TIP3    H241295   6.726   1.392   5.100  2.0094 -1.7312  0.0975
13780TIP3   OH241296   6.931   3.262   2.662  0.0127 -0.1521 -0.0181
13780TIP3    H141297   7.019   3.296   2.680  0.0648 -0.6125  0.5995
13780TIP3    H241298   6.947   3.181   2.613 -0.0802 -0.0801 -0.1695
13781TIP3   OH241299   8.284   3.013   3.662  0.0654 -0.2029  0.2182
13781TIP3    H141300   8.227   3.068   3.715  1.3481  0.7925  0.6170
13781TIP3    H241301   8.355   3.071   3.634  0.8321 -1.3635 -0.3356
13782TIP3   OH241302   2.433   7.611   4.803  0.0986 -0.1108 -0.3551
13782TIP3    H141303   2.492   7.569   4.740  1.2448  1.7399 -0.5885
13782TIP3    H241304   2.478   7.691   4.828 -2.1865  1.2425 -0.3071
13783TIP3   OH241305   4.151   5.388   5.195 -0.0032  0.2727 -0.0719
13783TIP3    H141306   4.202   5.469   5.201  2.0385 -0.7315 -2.2621
13783TIP3    H241307   4.065   5.417   5.163  1.4711  1.4477 -3.3726
13784TIP3   OH241308   0.461   1.329   0.155 -0.2946  0.0113 -0.0464
13784TIP3    H141309   0.494   1.400   0.100  0.3151 -1.0221 -1.0408
13784TIP3    H241310   0.477   1.250   0.105  0.0459 -0.9527  1.5145
13785TIP3   OH241311   3.682   7.235   4.156  0.0728  0.0715 -0.0788
13785TIP3    H141312   3.663   7.169   4.223  1.0795 -0.7349 -0.5763
13785TIP3    H241313   3.753   7.198   4.105 -0.0319  1.1107 -1.0053
13786TIP3   OH241314   4.252   6.979   1.238 -0.0484  0.4019  0.4396
13786TIP3    H141315   4.272   6.897   1.193 -0.1775  0.7231 -0.2056
13786TIP3    H241316   4.215   6.951   1.322 -0.8009 -0.2110 -0.0800
13787TIP3   OH241317   6.320   3.564   2.858  0.6899 -0.4667 -0.3292
13787TIP3    H141318   6.402   3.579   2.905 -0.6523  1.7546  1.5602
13787TIP3    H241319   6.284   3.485   2.897  1.0913 -0.4346  0.1202
13788TIP3   OH241320   2.525   2.810   1.783  0.4638 -0.3734 -0.1383
13788TIP3    H141321   2.595   2.775   1.838  0.1465  0.1942  0.6494
13788TIP3    H241322   2.445   2.772   1.820  0.0415  1.6559  1.1820
13789TIP3   OH241323   7.107   0.348   2.113  0.4197  0.4820  0.3164
13789TIP3    H141324   7.048   0.410   2.071  1.4268  1.6671  0.5906
13789TIP3    H241325   7.071   0.335   2.201 -1.1555 -1.2665 -0.5142
13790TIP3   OH241326   5.732   4.694   6.294  0.1261 -0.3178  0.4731
13790TIP3    H141327   5.761   4.739   6.215  0.8935 -3.4019 -1.1556
13790TIP3    H241328   5.810   4.650   6.327 -0.2314  0.6606  2.9123
13791TIP3   OH241329   3.954   3.544   3.458  0.4298  0.6470  0.8545
13791TIP3    H141330   4.046   3.518   3.452  0.5019  0.8674  0.9866
13791TIP3    H241331   3.906   3.462   3.450  0.6505  0.4823  1.1679
13792TIP3   OH241332   3.412   3.252   1.220  0.0694 -0.4099  0.1897
13792TIP3    H141333   3.365   3.255   1.137 -0.7859 -0.5155  0.6679
13792TIP3    H241334   3.362   3.309   1.278  0.0235 -1.2290  0.9606
13793TIP3   OH241335   6.765   7.702   4.203  0.5907 -0.5521  0.1444
13793TIP3    H141336   6.848   7.717   4.159  1.3442 -0.4680  1.5209
13793TIP3    H241337   6.789   7.656   4.284 -0.6869 -0.3866  0.6472
13794TIP3   OH241338   0.974   2.915   5.278  0.0607 -0.5059 -1.3257
13794TIP3    H141339   0.880   2.907   5.259  0.0315 -1.3870 -0.8671
13794TIP3    H241340   0.986   2.864   5.358  0.9017 -0.2350 -1.2739
13795TIP3   OH241341   2.394   5.863   6.299  0.0173  0.0040 -0.0068
13795TIP3    H141342   2.300   5.844   6.309 -0.3297  0.8273 -1.4395
13795TIP3    H241343   2.430   5.783   6.261  0.0617 -0.5969  1.2496
13796TIP3   OH241344   0.974   4.978   0.308  0.3456 -0.3833  0.1570
13796TIP3    H141345   0.897   5.025   0.338 -0.3850 -1.1210 -0.5273
13796TIP3    H241346   0.942   4.891   0.285  1.5947 -1.0946  0.9811
13797TIP3   OH241347   8.239   6.729   1.372 -0.1880  0.5138 -0.1232
13797TIP3    H141348   8.165   6.774   1.414  0.4290  1.7815 -0.3470
13797TIP3    H241349   8.207   6.705   1.286 -0.3338  1.1284 -0.2475
13798TIP3   OH241350   6.237   4.787   0.464  0.1628  0.2025 -0.1712
13798TIP3    H141351   6.190   4.829   0.537  0.1496 -0.7613  0.3862
13798TIP3    H241352   6.212   4.695   0.469  1.3068 -0.1423 -0.4885
13799TIP3   OH241353   1.255   5.620   6.661 -0.0813  0.2227  0.1934
13799TIP3    H141354   1.346   5.630   6.633 -0.4435  0.0652 -1.1023
13799TIP3    H241355   1.252   5.662   6.747  1.7674 -1.9640  1.4134
13800TIP3   OH241356   3.009   4.314   6.314 -0.2627  0.0692  0.1955
13800TIP3    H141357   2.970   4.383   6.261 -1.1115 -1.4269 -1.2350
13800TIP3    H241358   3.083   4.282   6.262  1.1940  0.9776  1.6044
13801TIP3   OH241359   6.599   3.177   4.956  0.1525  0.0588  0.6015
13801TIP3    H141360   6.607   3.271   4.944  0.2767 -0.0457 -0.2074
13801TIP3    H241361   6.508   3.162   4.980  0.2073  0.4129  1.0274
13802TIP3   OH241362   6.963   4.909   2.654  0.0577 -0.1937 -0.0310
13802TIP3    H141363   6.986   4.820   2.681  0.8190 -0.3161 -1.0144
13802TIP3    H241364   7.021   4.927   2.580 -0.3376  0.9905 -0.0735
13803TIP3   OH241365   1.333   7.262   6.218 -0.0948  0.0585 -0.4479
13803TIP3    H141366   1.409   7.214   6.184  0.4884  0.2588  0.5418
13803TIP3    H241367   1.279   7.196   6.260  0.0867  0.0812 -0.1784
13804TIP3   OH241368   4.751   2.350   0.315 -0.1287 -0.5500 -0.4532
13804TIP3    H141369   4.822   2.384   0.369 -0.9460  2.1733 -0.9201
13804TIP3    H241370   4.794   2.292   0.252  1.2025 -1.4962  1.2482
13805TIP3   OH241371   7.828   1.938   6.171 -0.6557  0.6901  0.1576
13805TIP3    H141372   7.905   1.973   6.127 -0.6690  1.7146  0.9045
13805TIP3    H241373   7.794   2.012   6.222 -1.4028 -0.0906  0.8289
13806TIP3   OH241374   5.254   1.869   2.790 -0.0571 -0.7260 -0.1350
13806TIP3    H141375   5.244   1.922   2.711 -2.8623 -0.1340  0.5200
13806TIP3    H241376   5.341   1.892   2.824  0.2602  0.7131 -1.7999
13807TIP3   OH241377   7.784   0.250   4.523 -0.1183 -0.0624  0.1260
13807TIP3    H141378   7.692   0.232   4.541  0.3246 -1.0149  1.6474
13807TIP3    H241379   7.797   0.341   4.549 -0.6120  0.0811 -0.1143
13808TIP3   OH241380   6.214   0.544   0.408 -0.0269  0.8524 -0.3651
13808TIP3    H141381   6.138   0.600   0.390  0.0355  1.2953  0.7259
13808TIP3    H241382   6.233   0.557   0.500 -0.4822 -1.5542  0.1364
13809TIP3   OH241383   3.462   1.490   3.235 -0.0038 -0.0286  0.1590
13809TIP3    H141384   3.401   1.480   3.309 -0.7071  2.4245  0.0044
13809TIP3    H241385   3.520   1.561   3.261  0.6906 -0.1193 -1.0694
13810TIP3   OH241386   2.919   6.840   0.155  0.1035  0.6516  0.2096
13810TIP3    H141387   2.911   6.812   0.247  1.3162  0.6948  0.3392
13810TIP3    H241388   2.834   6.880   0.136 -0.1884  0.6078  1.3057
13811TIP3   OH241389   1.121   2.570   2.767 -0.0631 -0.2077  0.3875
13811TIP3    H141390   1.159   2.581   2.854  0.7689  0.3822 -0.0405
13811TIP3    H241391   1.194   2.586   2.707 -0.6221 -0.6335 -0.4184
13812TIP3   OH241392   7.365   3.981   3.817 -0.5241  0.6481 -0.2351
13812TIP3    H141393   7.395   3.960   3.728  0.1556 -1.9072  0.5261
13812TIP3    H241394   7.313   3.905   3.843 -1.1494  1.5867  1.3849
13813TIP3   OH241395   4.887   1.090   4.658 -0.2104 -0.2210  0.1235
13813TIP3    H141396   4.834   1.069   4.735 -0.1316 -2.3586 -0.3440
13813TIP3    H241397   4.970   1.119   4.694 -0.2205 -1.0651  0.8859
13814TIP3   OH241398   0.644   7.135   1.660 -0.3206 -0.6418  0.2469
13814TIP3    H141399   0.628   7.131   1.754  0.3458 -0.3228  0.3801
13814TIP3    H241400   0.563   7.170   1.623 -0.8896 -1.5474  0.6082
13815TIP3   OH241401   7.154   0.456   5.904  0.0858 -0.1131 -0.1505
13815TIP3    H141402   7.240   0.491   5.879  1.4553 -1.0721  2.7560
13815TIP3    H241403   7.164   0.432   5.996 -2.6985 -2.2114 -0.2638
13816TIP3   OH241404   2.815   0.297   3.796 -0.2302 -0.1815 -0.4276
13816TIP3    H141405   2.888   0.256   3.843 -0.0352  0.1616 -0.4278
13816TIP3    H241406   2.845   0.301   3.705 -1.3958 -2.7037 -1.0243
13817TIP3   OH241407   0.038   1.595   5.093  0.0977  0.1303  0.5117
13817TIP3    H141408   0.112   1.650   5.066  0.3350 -0.3491  0.1700
13817TIP3    H241409   0.072   1.547   5.170 -0.2154  0.6925  1.0073
13818TIP3   OH241410   6.302   5.497   0.788 -0.0603  0.2997  0.2267
13818TIP3    H141411   6.366   5.514   0.858  1.1129  1.4607 -1.0575
13818TIP3    H241412   6.338   5.543   0.712 -1.1343 -1.1931 -1.2355
13819TIP3   OH241413   5.306   3.624   1.177 -0.1015 -0.2224 -0.6943
13819TIP3    H141414   5.313   3.534   1.144  3.4071 -0.4379  0.2305
13819TIP3    H241415   5.312   3.614   1.272 -0.0277  0.9591 -0.5666
13820TIP3   OH241416   1.136   4.955   0.657 -0.3985  0.9212  0.1007
13820TIP3    H141417   1.101   4.867   0.642 -1.0272  0.9755  1.1714
13820TIP3    H241418   1.230   4.947   0.638 -0.7294  0.4566 -1.5123
13821TIP3   OH241419   2.287   3.970   1.470 -0.0373  0.2692 -0.4968
13821TIP3    H141420   2.344   3.961   1.547  0.4512 -0.5976 -0.9441
13821TIP3    H241421   2.280   4.064   1.457  1.0490  0.4067 -0.2401
13822TIP3   OH241422   1.829   5.348   3.096  0.9282 -0.0941  0.0667
13822TIP3    H141423   1.812   5.309   3.182 -0.9104  2.3777  0.9726
13822TIP3    H241424   1.890   5.419   3.115  0.0559  0.8393 -0.5229
13823TIP3   OH241425   6.669   1.159   3.411  0.2154  0.3545 -0.3116
13823TIP3    H141426   6.596   1.208   3.449  1.5849  1.9698  0.3893
13823TIP3    H241427   6.712   1.222   3.353  0.5355 -0.8491 -1.4080
13824TIP3   OH241428   2.422   7.186   0.923 -0.5532 -0.2253  0.1885
13824TIP3    H141429   2.456   7.114   0.870  0.5193  0.1353  0.3639
13824TIP3    H241430   2.355   7.146   0.978  0.0225 -1.0943  0.2809
13825TIP3   OH241431   2.770   1.890   0.409 -0.4033 -0.9757 -0.2328
13825TIP3    H141432   2.801   1.805   0.379  0.0286 -0.8581 -0.1320
13825TIP3    H241433   2.826   1.953   0.362 -0.6024 -0.7538 -0.1736
13826TIP3   OH241434   2.350   3.969   4.802 -0.0559  0.1368 -0.0426
13826TIP3    H141435   2.351   3.996   4.710 -1.6962 -1.7561 -0.6923
13826TIP3    H241436   2.263   3.930   4.815 -0.0011  0.6564  2.4272
13827TIP3   OH241437   7.110   5.649   6.551  0.7152 -0.3859  0.3334
13827TIP3    H141438   7.034   5.686   6.505  0.2739 -0.2293  1.1746
13827TIP3    H241439   7.171   5.722   6.560  0.5890 -0.2922  0.4332
13828TIP3   OH241440   6.277   5.740   5.148  0.0770 -0.6694  0.2065
13828TIP3    H141441   6.256   5.761   5.057  0.8858 -1.2876 -0.1417
13828TIP3    H241442   6.333   5.812   5.176 -0.6278 -0.1962  0.3919
13829TIP3   OH241443   3.904   7.142   0.013 -0.2007  0.6675  0.1992
13829TIP3    H141444   3.812   7.118  -0.001  0.2100 -2.2453  1.7904
13829TIP3    H241445   3.907   7.173   0.104  0.3012  1.3401 -0.0400
13830TIP3   OH241446   5.823   4.828   2.023  0.0111 -0.0171  0.1548
13830TIP3    H141447   5.803   4.832   1.930 -0.7808  2.8340  0.3423
13830TIP3    H241448   5.782   4.747   2.053 -1.9412  0.2501 -1.5429
13831TIP3   OH241449   6.950   1.665   3.340 -0.0672 -0.0317  0.5270
13831TIP3    H141450   6.867   1.674   3.293  1.3040  0.6307 -1.9047
13831TIP3    H241451   6.984   1.580   3.314  0.3712  0.0178  0.9199
13832TIP3   OH241452   7.968   7.681   1.977  0.2309 -0.4581  0.2369
13832TIP3    H141453   7.958   7.747   2.046 -0.6397 -1.0647  0.7152
13832TIP3    H241454   8.059   7.654   1.983  0.3063 -0.1054  0.7920
13833TIP3   OH241455   6.861   5.663   2.760 -0.3184  0.3181  0.4452
13833TIP3    H141456   6.789   5.690   2.816  0.7076  0.1278  1.9029
13833TIP3    H241457   6.867   5.568   2.773 -0.3964  0.1901 -0.3995
13834TIP3   OH241458   2.817   1.133   5.942 -0.4491 -0.0011 -0.2560
13834TIP3    H141459   2.738   1.143   5.889 -0.5861 -1.0813 -0.2778
13834TIP3    H241460   2.785   1.102   6.027 -0.1156  0.4434  0.0381
13835TIP3   OH241461   6.595   1.529   2.176  0.4684  0.7479 -0.2534
13835TIP3    H141462   6.674   1.528   2.123  0.2286  1.3947 -0.6332
13835TIP3    H241463   6.524   1.517   2.113  0.2025  1.1682 -0.0402
13836TIP3   OH241464   3.032   5.226   1.213  0.6693 -0.6538 -0.0747
13836TIP3    H141465   3.056   5.318   1.222 -0.4492 -0.3239 -0.2952
13836TIP3    H241466   2.963   5.226   1.146  2.1382 -1.9013 -1.6940
13837TIP3   OH241467   8.115   1.186   4.904  0.2727 -0.4425  0.1396
13837TIP3    H141468   8.033   1.222   4.870  1.1368  0.6627 -0.8848
13837TIP3    H241469   8.169   1.171   4.826  2.5622  2.7341  0.8748
13838TIP3   OH241470   5.693   6.842   2.654 -0.2247  0.3018 -0.0655
13838TIP3    H141471   5.663   6.868   2.567 -0.1991 -0.1811 -0.2201
13838TIP3    H241472   5.702   6.747   2.650  1.1190  0.4020  0.0411
13839TIP3   OH241473   2.783   4.141   0.310 -0.7715 -0.2318 -0.4689
13839TIP3    H141474   2.734   4.222   0.315  1.5821  1.2975 -0.8091
13839TIP3    H241475   2.760   4.093   0.389 -0.6373  1.7305  0.7941
13840TIP3   OH241476   0.503   7.812   1.740  0.4139  0.6454 -0.4682
13840TIP3    H141477   0.435   7.807   1.807 -1.6847  1.5699 -2.3738
13840TIP3    H241478   0.481   7.743   1.678  0.9403  1.2468 -1.3525
13841TIP3   OH241479   4.052   4.515   5.171 -0.4797  0.6116 -0.1951
13841TIP3    H141480   4.148   4.510   5.176 -0.4792  0.4266 -0.3860
13841TIP3    H241481   4.026   4.434   5.127 -0.8086  0.0656  0.9616
13842TIP3   OH241482   4.416   4.295   3.517  0.9323  0.2305 -0.1522
13842TIP3    H141483   4.486   4.234   3.541 -0.4177 -1.7431 -1.0138
13842TIP3    H241484   4.343   4.239   3.492 -0.3332  2.2253 -1.1318
13843TIP3   OH241485   7.334   0.169   2.578 -0.4358  0.4066  0.1092
13843TIP3    H141486   7.366   0.258   2.559  0.6696  0.3609  1.5324
13843TIP3    H241487   7.243   0.169   2.548 -0.2961  1.8597 -0.3986
13844TIP3   OH241488   8.098   5.424   0.125  0.6015  0.2422  0.7051
13844TIP3    H141489   8.119   5.517   0.122  1.9796 -0.0080  1.6643
13844TIP3    H241490   8.130   5.390   0.041 -0.3252  0.7034  0.1585
13845TIP3   OH241491   3.241   0.325   6.504 -0.1398 -0.2907 -0.6295
13845TIP3    H141492   3.262   0.403   6.555 -1.2854 -0.4815  0.1776
13845TIP3    H241493   3.254   0.352   6.413  1.7820  0.1019 -0.2780
13846TIP3   OH241494   4.838   5.945   6.148 -0.1356 -0.4178 -0.2793
13846TIP3    H141495   4.812   5.872   6.204 -3.2045  1.6713  1.2561
13846TIP3    H241496   4.842   5.907   6.060  0.6692 -2.8590  0.7250
13847TIP3   OH241497   1.198   7.007   5.740 -0.0759 -0.3828 -0.2573
13847TIP3    H141498   1.222   6.975   5.653  0.6259  0.3459 -0.3494
13847TIP3    H241499   1.268   6.973   5.797  1.0333  1.4400 -0.4596
13848TIP3   OH241500   4.152   6.069   2.505  0.5113 -0.6940  0.2330
13848TIP3    H141501   4.229   6.122   2.486  0.1994 -0.0125  0.8355
13848TIP3    H241502   4.153   6.060   2.601 -0.5855 -0.0310  0.3135
13849TIP3   OH241503   5.802   1.018   4.319 -0.3119 -0.0886  0.0510
13849TIP3    H141504   5.721   1.060   4.349 -0.4733  0.3737 -0.9668
13849TIP3    H241505   5.773   0.935   4.282 -0.4088  0.3058 -0.7911
13850TIP3   OH241506   0.153   1.187   1.581 -0.2274  0.2475  0.3627
13850TIP3    H141507   0.208   1.221   1.651 -3.0381  0.8615  2.4642
13850TIP3    H241508   0.161   1.092   1.587 -0.3631  0.2947  1.5039
13851TIP3   OH241509   5.898   0.335   2.484 -0.2782  0.2586  0.4884
13851TIP3    H141510   5.893   0.331   2.388 -1.8752  1.0369  0.5223
13851TIP3    H241511   5.808   0.322   2.513 -0.0016  1.2928  1.8506
13852TIP3   OH241512   1.906   3.022   6.182  0.3108  0.4996 -0.0493
13852TIP3    H141513   1.951   3.009   6.265 -0.9626  2.1702  0.9915
13852TIP3    H241514   1.860   2.940   6.166  2.2757 -0.6138 -0.2637
13853TIP3   OH241515   2.870   6.494   5.251  0.0338 -0.8251 -0.2074
13853TIP3    H141516   2.901   6.566   5.196 -0.0117  1.0171  2.0230
13853TIP3    H241517   2.775   6.498   5.246  0.0217 -0.4228  0.2446
13854TIP3   OH241518   4.499   1.368   1.047 -0.8538 -0.0297  0.3076
13854TIP3    H141519   4.454   1.291   1.013 -1.6761  1.7550 -3.0679
13854TIP3    H241520   4.587   1.364   1.009 -0.7571  0.4444  0.4669
13855TIP3   OH241521   1.108   4.732   2.577 -0.3663  0.1845  0.3217
13855TIP3    H141522   1.019   4.765   2.578 -0.5729 -0.3808  1.0851
13855TIP3    H241523   1.131   4.719   2.669 -0.5145 -2.3283  0.0713
13856TIP3   OH241524   1.112   3.812   0.900  0.6614 -0.1036  0.2333
13856TIP3    H141525   1.077   3.723   0.903 -0.0609  0.0922 -1.1102
13856TIP3    H241526   1.147   3.820   0.811  1.6197  0.6397  0.6655
13857TIP3   OH241527   4.311   5.025   4.340  0.5872  0.0216  0.4435
13857TIP3    H141528   4.278   5.095   4.283 -1.6175 -0.6509  0.7919
13857TIP3    H241529   4.349   5.070   4.415  1.6519  0.8686 -0.5710
13858TIP3   OH241530   6.059   0.839   1.530  0.1091 -0.6296 -0.5619
13858TIP3    H141531   6.004   0.883   1.465 -1.7917 -0.2516  1.1845
13858TIP3    H241532   6.052   0.746   1.509  0.5948 -0.4264 -1.6643
13859TIP3   OH241533   6.135   3.378   5.136  0.1878  0.0397  0.0015
13859TIP3    H141534   6.065   3.313   5.133 -0.8586  1.1272 -0.1650
13859TIP3    H241535   6.154   3.389   5.229 -0.6154  0.4893  0.1218
13860TIP3   OH241536   3.408   7.578   1.587  0.2917 -0.1659 -0.0231
13860TIP3    H141537   3.419   7.667   1.553 -0.3853  0.8091  2.0903
13860TIP3    H241538   3.498   7.547   1.602  0.5830  1.3839  1.9551
13861TIP3   OH241539   0.007   5.760   0.709  0.7890  0.0128 -0.2716
13861TIP3    H141540   0.069   5.702   0.666  2.7924  1.5104  0.4733
13861TIP3    H241541   0.019   5.744   0.803  0.3830  0.6480 -0.1037
13862TIP3   OH241542   3.744   2.889   0.515  0.5596  0.0292 -0.0847
13862TIP3    H141543   3.752   2.828   0.589  0.9602  1.0319  0.7305
13862TIP3    H241544   3.685   2.957   0.548 -3.5733 -2.0066 -2.4411
13863TIP3   OH241545   0.481   6.461   4.540  0.2714 -0.5514  0.1919
13863TIP3    H141546   0.503   6.492   4.453  3.2604  1.0413  1.3491
13863TIP3    H241547   0.517   6.372   4.544  0.8553 -0.3310  0.0104
13864TIP3   OH241548   1.678   6.902   0.129  0.1034  0.5906 -0.3933
13864TIP3    H141549   1.717   6.888   0.215  2.8570  0.6438 -1.5262
13864TIP3    H241550   1.690   6.995   0.112 -2.3605  1.0325 -0.0276
13865TIP3   OH241551   0.952   3.307   3.775 -0.2282 -0.2966 -0.4186
13865TIP3    H141552   0.899   3.229   3.788  1.8443 -1.8262 -0.5868
13865TIP3    H241553   0.957   3.347   3.862  0.5285 -1.6556  0.2115
13866TIP3   OH241554   8.097   2.475   6.104  0.1966 -0.1592  0.2439
13866TIP3    H141555   8.056   2.551   6.063 -2.4741 -0.1392  2.6043
13866TIP3    H241556   8.180   2.508   6.137  0.4899  0.8779 -1.3949
13867TIP3   OH241557   3.389   2.940   1.627  0.3331 -0.1763 -0.1953
13867TIP3    H141558   3.447   2.923   1.700  1.0590  1.5508 -0.3222
13867TIP3    H241559   3.340   3.018   1.652  0.0865  0.0298 -1.2442
13868TIP3   OH241560   3.312   0.248   2.875  0.3812  0.8271 -0.2029
13868TIP3    H141561   3.405   0.270   2.885  0.4450  0.6973 -0.5053
13868TIP3    H241562   3.305   0.158   2.906  0.1678  1.1626  0.7820
13869TIP3   OH241563   5.122   2.253   2.150 -0.0293  0.5809 -0.2172
13869TIP3    H141564   5.133   2.329   2.093 -1.9080  0.8592 -0.2630
13869TIP3    H241565   5.084   2.186   2.094  1.1470 -0.2478 -0.0548
13870TIP3   OH241566   8.227   2.197   3.753  0.0878 -0.4548  0.0243
13870TIP3    H141567   8.226   2.291   3.772 -0.4161 -0.5128  0.3016
13870TIP3    H241568   8.248   2.157   3.838 -0.7003 -0.6426  0.1351
13871TIP3   OH241569   7.332   1.460   5.448  0.2022 -0.4491  0.0800
13871TIP3    H141570   7.355   1.526   5.513  1.5263 -1.2757  0.4890
13871TIP3    H241571   7.381   1.382   5.475  0.0941 -1.0658 -1.4189
13872TIP3   OH241572   4.304   6.442   4.080 -0.5411 -0.1127 -0.0980
13872TIP3    H141573   4.357   6.420   4.157 -1.1726  0.4577  0.5143
13872TIP3    H241574   4.219   6.401   4.097 -1.0945  1.0673  0.1314
13873TIP3   OH241575   7.894   1.315   4.749 -0.6002 -0.7204 -0.1585
13873TIP3    H141576   7.873   1.379   4.817 -0.0585 -0.3475 -0.3262
13873TIP3    H241577   7.813   1.265   4.736 -0.5163 -1.2773  1.2531
13874TIP3   OH241578   7.163   3.673   1.551 -0.3688  0.1383 -0.1059
13874TIP3    H141579   7.196   3.756   1.517 -1.5499  1.6203  2.0954
13874TIP3    H241580   7.224   3.650   1.621 -1.2220  0.3036  0.7070
13875TIP3   OH241581   0.623   4.630   2.508 -0.1900  0.0514 -0.5068
13875TIP3    H141582   0.664   4.578   2.439  0.9983  1.9934 -1.3413
13875TIP3    H241583   0.566   4.691   2.463 -1.4736 -0.3900  0.4500
13876TIP3   OH241584   7.880   7.845   6.262 -0.1626  0.1996  0.0511
13876TIP3    H141585   7.935   7.775   6.227 -0.6640 -0.2660  0.1794
13876TIP3    H241586   7.831   7.804   6.333 -0.4600  0.6807  0.1272
13877TIP3   OH241587   5.561   2.764   2.891 -0.2645 -0.1971 -0.2315
13877TIP3    H141588   5.612   2.687   2.915 -1.3618 -1.2174 -1.0226
13877TIP3    H241589   5.590   2.786   2.803 -0.0349  0.2324 -0.0501
13878TIP3   OH241590   3.731   7.096   2.070 -0.1457  0.0402  0.2318
13878TIP3    H141591   3.641   7.091   2.102  0.3805 -1.2312  1.5998
13878TIP3    H241592   3.771   7.167   2.119 -0.2988  0.3854 -0.1368
13879TIP3   OH241593   0.390   6.232   0.254  0.4033  0.2864 -0.3187
13879TIP3    H141594   0.330   6.187   0.315 -0.1243 -0.0884 -1.1007
13879TIP3    H241595   0.410   6.315   0.298 -1.0203  0.6014 -0.2095
13880TIP3   OH241596   3.625   5.270   0.394 -0.2725  0.4559  0.4312
13880TIP3    H141597   3.672   5.313   0.465  0.2988 -0.3203  0.5348
13880TIP3    H241598   3.667   5.185   0.385 -1.3375 -0.0674  0.1914
13881TIP3   OH241599   1.261   1.724   4.585 -0.1287 -0.3720 -0.2417
13881TIP3    H141600   1.233   1.805   4.628 -1.9978 -1.0995 -0.0112
13881TIP3    H241601   1.296   1.670   4.656  0.3937 -0.0855 -0.2746
13882TIP3   OH241602   3.181   2.707   0.502  0.7924 -0.1943  0.3435
13882TIP3    H141603   3.165   2.647   0.576  0.3137 -0.3905  0.0825
13882TIP3    H241604   3.098   2.709   0.455  0.9984  0.1966 -0.0005
13883TIP3   OH241605   5.595   6.911   2.047 -0.5454 -0.5897  0.5354
13883TIP3    H141606   5.598   6.990   2.101  0.2555 -0.8686  0.9188
13883TIP3    H241607   5.502   6.890   2.039 -0.6739 -0.5945  1.8889
13884TIP3   OH241608   0.870   5.551   5.368  0.0273 -0.4163  0.8372
13884TIP3    H141609   0.904   5.475   5.414 -0.8091 -0.7323  0.9601
13884TIP3    H241610   0.775   5.540   5.370 -0.1776  1.1550  1.7457
13885TIP3   OH241611   5.998   5.247   3.409  0.1881 -0.0902  0.1079
13885TIP3    H141612   5.991   5.219   3.318  1.4022  0.0583 -0.0527
13885TIP3    H241613   5.985   5.341   3.407 -0.1806 -0.1385  0.1477
13886TIP3   OH241614   3.542   1.284   6.181 -0.2935 -0.5392  0.0516
13886TIP3    H141615   3.446   1.282   6.184 -0.3716  0.7401 -0.7500
13886TIP3    H241616   3.563   1.373   6.151  1.0904 -1.3161 -1.4345
13887TIP3   OH241617   7.587   0.437   1.053 -0.0031 -0.3602 -0.1329
13887TIP3    H141618   7.645   0.398   0.988  0.2887 -1.0905  0.5387
13887TIP3    H241619   7.550   0.362   1.100 -0.9415  0.1236 -0.0808
13888TIP3   OH241620   5.495   7.108   2.540 -0.1572 -0.3513  0.5513
13888TIP3    H141621   5.471   7.093   2.631 -0.1076 -0.7120  0.5049
13888TIP3    H241622   5.566   7.172   2.544 -0.3235 -0.1757  0.7494
13889TIP3   OH241623   7.828   4.169   1.306 -0.1117 -0.0566  0.0068
13889TIP3    H141624   7.784   4.235   1.254  0.2011 -0.6799 -1.0789
13889TIP3    H241625   7.830   4.205   1.395 -0.5216  1.0890 -0.4384
13890TIP3   OH241626   5.390   3.821   3.778 -0.4676  0.1791 -0.4850
13890TIP3    H141627   5.409   3.913   3.795 -3.0922  0.3339  2.6593
13890TIP3    H241628   5.299   3.820   3.747 -0.4001 -1.3318 -0.7203
13891TIP3   OH241629   3.339   3.724   0.395  0.1194  0.4473  0.6094
13891TIP3    H141630   3.321   3.796   0.456 -0.2519  1.7319 -0.9546
13891TIP3    H241631   3.256   3.710   0.350  0.4213 -0.4153  0.2968
13892TIP3   OH241632   6.167   2.853   5.886 -0.6670 -0.2570 -0.2736
13892TIP3    H141633   6.188   2.903   5.965 -0.9712 -1.8793  0.8754
13892TIP3    H241634   6.249   2.848   5.838 -0.8487  2.2325 -0.9996
13893TIP3   OH241635   3.695   4.910   2.222 -0.0072  0.8766 -0.2757
13893TIP3    H141636   3.728   4.970   2.155  1.1749  1.0637  0.4502
13893TIP3    H241637   3.695   4.962   2.303 -0.0626  0.2421  0.1387
13894TIP3   OH241638   6.720   3.890   6.730  0.0233  0.0173  0.0478
13894TIP3    H141639   6.669   3.968   6.709  0.3950 -0.0103 -1.0579
13894TIP3    H241640   6.658   3.818   6.723 -0.1099  0.1238  0.1288
13895TIP3   OH241641   0.394   6.131   5.166  0.1229 -0.2500  0.3763
13895TIP3    H141642   0.388   6.103   5.075 -0.5939  0.5896  0.1438
13895TIP3    H241643   0.479   6.100   5.196  0.8030  0.3511 -0.8810
13896TIP3   OH241644   5.670   1.520   3.709  0.0161 -0.2870  0.0609
13896TIP3    H141645   5.607   1.592   3.720  0.1436  0.0366 -1.1746
13896TIP3    H241646   5.746   1.546   3.760 -0.6333 -0.4332  1.1398
13897TIP3   OH241647   7.412   4.539   1.284  0.1607  0.4542  0.6088
13897TIP3    H141648   7.473   4.481   1.237 -1.5476 -0.0737 -1.0911
13897TIP3    H241649   7.401   4.613   1.225 -0.9138  0.4821  0.8375
13898TIP3   OH241650   3.268   1.007   2.692  0.6205  0.2875 -0.6112
13898TIP3    H141651   3.330   1.048   2.753 -0.1759 -1.0296  1.1935
13898TIP3    H241652   3.183   1.020   2.733  0.0291 -0.4493 -1.5667
13899TIP3   OH241653   2.174   3.779   1.295  0.4262  1.2055  0.6696
13899TIP3    H141654   2.083   3.807   1.289 -0.0292 -0.0230  1.4691
13899TIP3    H241655   2.201   3.804   1.383  0.1165 -0.4977  1.2719
13900TIP3   OH241656   4.604   2.818   3.149 -0.0904 -0.3179 -0.3479
13900TIP3    H141657   4.594   2.802   3.243  0.9273 -0.4132 -0.2420
13900TIP3    H241658   4.634   2.735   3.113 -1.6371 -0.6356 -0.9789
13901TIP3   OH241659   5.557   2.914   3.711  0.6873 -0.1295  0.0629
13901TIP3    H141660   5.500   2.934   3.637  0.9768 -0.1081 -0.1567
13901TIP3    H241661   5.499   2.879   3.778  0.2931  0.6288  0.1298
13902TIP3   OH241662   6.930   4.157   4.181  0.1595  0.6952 -0.0619
13902TIP3    H141663   6.858   4.126   4.127 -0.1627 -1.9360  1.6911
13902TIP3    H241664   7.005   4.160   4.122  0.1481 -3.4061 -0.5940
13903TIP3   OH241665   4.817   3.012   0.322  0.4745 -0.5493  0.0320
13903TIP3    H141666   4.766   3.025   0.242  1.4626 -0.2897 -0.5844
13903TIP3    H241667   4.902   3.052   0.302  0.4492  0.3127  1.5457
13904TIP3   OH241668   1.553   1.221   2.768 -0.2757 -0.2777  0.1327
13904TIP3    H141669   1.527   1.201   2.678 -1.9131 -0.7617  0.6791
13904TIP3    H241670   1.614   1.294   2.760 -0.2479 -0.4489 -1.3826
13905TIP3   OH241671   1.735   4.875   1.716 -0.2039  0.2612  0.1362
13905TIP3    H141672   1.641   4.858   1.722 -0.5199  2.2103  1.0755
13905TIP3    H241673   1.774   4.815   1.780 -0.6691 -1.1917 -0.8683
13906TIP3   OH241674   2.762   3.772   4.085 -0.2136 -0.1201 -0.1997
13906TIP3    H141675   2.673   3.759   4.054 -1.3566  0.6084  2.4237
13906TIP3    H241676   2.783   3.691   4.133  1.0500 -0.7750 -1.7722
13907TIP3   OH241677   8.181   3.064   4.297  0.1172 -0.0783 -0.3963
13907TIP3    H141678   8.111   3.080   4.233  1.5156  0.2824 -1.8909
13907TIP3    H241679   8.184   3.145   4.349  1.4804  1.2486 -2.3954
13908TIP3   OH241680   6.885   4.046   2.650  0.1339  0.5350  0.0613
13908TIP3    H141681   6.795   4.016   2.668  0.7270 -0.4428  1.6248
13908TIP3    H241682   6.885   4.067   2.557 -1.2642 -1.1896 -0.3892
13909TIP3   OH241683   2.523   7.128   5.543  0.4580 -0.1464  0.0030
13909TIP3    H141684   2.538   7.174   5.625  0.0619  2.6925 -1.4019
13909TIP3    H241685   2.454   7.064   5.563  0.3529  0.5003  1.8559
13910TIP3   OH241686   1.508   4.015   4.514 -0.3312 -0.4829 -0.0780
13910TIP3    H141687   1.529   3.981   4.427 -2.2835 -1.6153 -0.1521
13910TIP3    H241688   1.468   3.941   4.559 -4.3313  1.4602 -0.0735
13911TIP3   OH241689   5.279   3.492   2.655  0.1741 -0.0059 -0.2072
13911TIP3    H141690   5.209   3.435   2.687 -0.2479  1.2730  1.2637
13911TIP3    H241691   5.358   3.458   2.697  0.4372 -1.2781 -1.6493
13912TIP3   OH241692   4.832   5.249   4.754  0.3669  0.4787  0.0736
13912TIP3    H141693   4.835   5.345   4.760  2.2656  0.4857 -0.1272
13912TIP3    H241694   4.752   5.230   4.706 -0.0528  1.9744  0.1390
13913TIP3   OH241695   6.247   1.872   5.720 -0.5585  0.5901  0.2923
13913TIP3    H141696   6.182   1.854   5.652 -1.5669  2.0452  0.8286
13913TIP3    H241697   6.258   1.968   5.718  0.2528  0.5390  1.3952
13914TIP3   OH241698   1.574   7.673   2.245 -0.6022  0.3359  0.1139
13914TIP3    H141699   1.623   7.752   2.221  0.0798 -0.4304 -1.1161
13914TIP3    H241700   1.641   7.613   2.279 -0.6070 -0.7685 -1.6922
13915TIP3   OH241701   4.658   0.086   2.493  0.2975 -0.0167  0.4713
13915TIP3    H141702   4.700   0.028   2.429  0.4856  0.1806  0.4133
13915TIP3    H241703   4.671   0.043   2.577 -0.9412 -0.8434  0.2527
13916TIP3   OH241704   4.762   2.923   5.743 -0.4193  0.3505  0.5032
13916TIP3    H141705   4.786   3.012   5.716 -0.6123 -0.2212 -1.6851
13916TIP3    H241706   4.840   2.891   5.788  0.4065  0.9411 -0.4637
13917TIP3   OH241707   1.284   7.665   0.217  0.0541  0.1505 -0.0893
13917TIP3    H141708   1.252   7.575   0.228 -0.0873 -0.1128 -2.2401
13917TIP3    H241709   1.204   7.718   0.217  0.1716  0.3783  1.7181
13918TIP3   OH241710   8.215   2.541   4.320  0.4160 -0.4661 -0.0868
13918TIP3    H141711   8.124   2.536   4.292  1.0276  0.7840 -2.6255
13918TIP3    H241712   8.233   2.635   4.325  1.9936 -0.6778 -1.2636
13919TIP3   OH241713   0.866   5.502   3.395  0.3785  0.5040 -0.2000
13919TIP3    H141714   0.834   5.506   3.304  0.6848  0.7830 -0.2945
13919TIP3    H241715   0.860   5.409   3.417  1.5783  0.2223 -0.9698
13920TIP3   OH241716   7.638   0.513   6.446 -0.1999  0.0928  0.2015
13920TIP3    H141717   7.683   0.569   6.383  0.4854  0.5790  1.0989
13920TIP3    H241718   7.584   0.455   6.392  1.5011 -0.5248 -0.9327
13921TIP3   OH241719   5.819   6.687   0.863  0.0029 -0.1634 -0.0273
13921TIP3    H141720   5.776   6.727   0.939 -1.6336  0.4973 -1.2439
13921TIP3    H241721   5.870   6.615   0.900  1.7932  1.9727  2.0656
13922TIP3   OH241722   6.795   1.419   4.414 -0.0060 -0.2751  0.0690
13922TIP3    H141723   6.793   1.498   4.469  0.0420 -0.1582 -0.0957
13922TIP3    H241724   6.882   1.382   4.430 -0.3816 -0.8393  0.9034
13923TIP3   OH241725   8.097   3.519   1.993  0.4883 -0.5232 -0.5467
13923TIP3    H141726   8.084   3.496   2.085  1.2612  2.4560  0.4306
13923TIP3    H241727   8.192   3.516   1.981  0.4274 -0.3901 -1.0842
13924TIP3   OH241728   6.110   3.088   2.798 -0.4927  0.3194 -0.2697
13924TIP3    H141729   6.169   3.056   2.866 -0.7338  0.8609  0.1996
13924TIP3    H241730   6.160   3.079   2.716  0.1288  0.5132  0.0878
13925TIP3   OH241731   5.551   0.759   4.903 -0.6829  0.2233  0.3427
13925TIP3    H141732   5.635   0.805   4.904 -1.2341  1.3250  2.5920
13925TIP3    H241733   5.558   0.698   4.829  2.7305 -0.9144  1.3923
13926TIP3   OH241734   2.388   0.150   1.044 -0.5742  1.0695  0.5059
13926TIP3    H141735   2.320   0.200   1.000 -0.5693  1.3899  0.8548
13926TIP3    H241736   2.433   0.214   1.099 -0.3295  0.7540  0.6769
13927TIP3   OH241737   0.569   3.413   2.426  0.3779 -0.5624 -0.3148
13927TIP3    H141738   0.568   3.376   2.338  1.6511 -1.6121  0.0668
13927TIP3    H241739   0.482   3.451   2.438 -0.5160 -2.2155 -1.2756
13928TIP3   OH241740   0.899   7.293   6.480  0.4157  0.0304 -0.5959
13928TIP3    H141741   0.887   7.290   6.575  0.2635 -2.0541 -0.6352
13928TIP3    H241742   0.841   7.363   6.450  0.4043  0.6537  0.8377
13929TIP3   OH241743   0.203   7.507   0.340 -0.0978  0.4380 -0.2437
13929TIP3    H141744   0.159   7.425   0.362  0.9689 -0.2162 -0.4865
13929TIP3    H241745   0.296   7.491   0.358  0.2170  1.3685 -0.9261
13930TIP3   OH241746   0.319   1.045   2.421 -0.0555 -0.7491  0.4270
13930TIP3    H141747   0.339   1.085   2.505  0.4174 -0.6599  0.2763
13930TIP3    H241748   0.258   0.975   2.441 -0.9919  0.1095  0.6862
13931TIP3   OH241749   4.374   1.086   1.038 -0.6030 -0.0814  0.2146
13931TIP3    H141750   4.321   1.007   1.036  1.1290 -1.3548  1.6938
13931TIP3    H241751   4.323   1.148   1.090 -2.2653  0.0817 -1.4928
13932TIP3   OH241752   0.549   5.599   0.419  0.2181 -0.2675 -0.3714
13932TIP3    H141753   0.565   5.578   0.327  2.3407  0.7940 -0.2794
13932TIP3    H241754   0.477   5.662   0.416  1.4169  1.1152 -1.4654
13933TIP3   OH241755   1.024   2.994   2.289  0.2804  0.1845 -0.6875
13933TIP3    H141756   1.066   3.080   2.294 -1.2996  0.9254  0.9946
13933TIP3    H241757   1.038   2.956   2.376  0.9393 -1.3042 -1.3941
13934TIP3   OH241758   7.503   0.569   3.676  0.0189 -0.0296 -0.5531
13934TIP3    H141759   7.432   0.619   3.635 -0.9720 -0.5211  0.4772
13934TIP3    H241760   7.576   0.577   3.616  0.1146  3.1433 -0.2035
13935TIP3   OH241761   3.716   2.822   4.396 -0.3319 -0.0266  0.0735
13935TIP3    H141762   3.803   2.791   4.419 -0.4868 -1.3611 -0.9931
13935TIP3    H241763   3.730   2.910   4.361  0.7648 -0.6797 -1.2111
13936TIP3   OH241764   7.286   5.060   4.444 -0.2447  0.0560 -0.1627
13936TIP3    H141765   7.211   5.055   4.384 -0.4073  0.9131 -0.0436
13936TIP3    H241766   7.361   5.031   4.391 -0.5366 -0.1012 -0.4962
13937TIP3   OH241767   7.002   3.881   4.880  0.1242 -0.4437 -0.2610
13937TIP3    H141768   6.948   3.860   4.956  0.2832 -0.3328 -0.1167
13937TIP3    H241769   7.066   3.945   4.912 -0.4084  0.3350 -0.7233
13938TIP3   OH241770   0.105   1.473   3.924 -0.9010 -0.5034 -0.1042
13938TIP3    H141771   0.012   1.491   3.921 -1.0780 -0.3844  3.0817
13938TIP3    H241772   0.122   1.446   4.014  2.1056 -0.8128 -0.6436
13939TIP3   OH241773   7.669   0.200   6.241  0.0889 -0.7741  1.2054
13939TIP3    H141774   7.587   0.247   6.255  0.7182  0.7791  0.0596
13939TIP3    H241775   7.714   0.204   6.326 -0.2714 -0.0849  1.3717
13940TIP3   OH241776   1.710   5.628   2.173  0.4029 -0.5404 -0.0416
13940TIP3    H141777   1.619   5.634   2.203  0.5749  0.6418  0.3018
13940TIP3    H241778   1.762   5.658   2.248  0.9010  1.4636 -1.1027
13941TIP3   OH241779   1.554   3.727   2.705  0.1139  0.1982 -0.3586
13941TIP3    H141780   1.465   3.730   2.739  0.5080  0.9214  0.6529
13941TIP3    H241781   1.578   3.819   2.692  1.5822  0.1966  1.8073
13942TIP3   OH241782   6.837   0.483   5.554 -0.1537  0.2728 -0.3169
13942TIP3    H141783   6.865   0.470   5.645 -0.5924 -0.3125 -0.2638
13942TIP3    H241784   6.916   0.514   5.510 -0.1598  1.4481  0.4465
13943TIP3   OH241785   6.179   1.092   3.472  0.3180  0.1697 -0.2022
13943TIP3    H141786   6.216   1.136   3.548 -0.8464  0.0895  0.4257
13943TIP3    H241787   6.097   1.138   3.456 -0.6056 -1.3378  0.0538
13944TIP3   OH241788   3.541   0.497   6.398  0.7047 -0.5233  0.1574
13944TIP3    H141789   3.572   0.565   6.457  0.1401 -0.8389  0.8375
13944TIP3    H241790   3.557   0.532   6.310 -0.1393  0.7656  0.4817
13945TIP3   OH241791   1.193   6.920   1.987  0.0664 -0.6436 -0.0893
13945TIP3    H141792   1.288   6.937   1.988  0.4604 -2.5339  1.6172
13945TIP3    H241793   1.154   7.004   2.011  1.3562 -0.0249 -0.0534
13946TIP3   OH241794   7.914   6.009   3.378 -0.0747 -0.3473  0.4388
13946TIP3    H141795   7.928   6.008   3.472 -2.4049  0.5479  0.8597
13946TIP3    H241796   7.940   6.097   3.350 -0.7444 -0.1356  0.4853
13947TIP3   OH241797   3.995   1.953   4.346 -0.4935 -0.2843  0.1550
13947TIP3    H141798   3.932   1.937   4.275  0.1355  2.5195 -1.2006
13947TIP3    H241799   4.080   1.959   4.301 -0.1990  2.5695  0.8648
13948TIP3   OH241800   5.862   4.157   2.828  0.6302  0.1740  0.1832
13948TIP3    H141801   5.797   4.216   2.789 -0.2651  0.0717  1.4534
13948TIP3    H241802   5.944   4.179   2.784 -0.0773  0.9674 -0.7833
13949TIP3   OH241803   5.143   2.116   4.371  0.4995  0.2185 -0.2499
13949TIP3    H141804   5.217   2.060   4.393  1.3274  1.3781 -0.0177
13949TIP3    H241805   5.096   2.128   4.453  0.2533 -0.2218 -0.3240
13950TIP3   OH241806   2.522   4.197   4.835 -0.5304 -0.1233 -0.1219
13950TIP3    H141807   2.478   4.112   4.834  0.2697 -0.5501 -1.2482
13950TIP3    H241808   2.608   4.180   4.872 -0.7908  0.4420  0.7756
13951TIP3   OH241809   1.124   4.792   3.683  0.3122 -0.7479  0.1628
13951TIP3    H141810   1.128   4.861   3.750 -0.7384  0.2547 -0.7698
13951TIP3    H241811   1.034   4.794   3.651  0.0389 -3.0468  0.5760
13952TIP3   OH241812   3.351   3.925   2.710 -0.5796 -0.2239 -0.0954
13952TIP3    H141813   3.372   3.843   2.664  0.7925  0.6630 -1.1369
13952TIP3    H241814   3.414   3.988   2.676 -2.0124  1.4443  0.2187
13953TIP3   OH241815   5.181   1.877   1.645  0.2119 -0.2945 -0.1936
13953TIP3    H141816   5.193   1.929   1.566 -1.8820 -0.1688 -0.4750
13953TIP3    H241817   5.086   1.875   1.659  0.5217 -0.1130  2.4611
13954TIP3   OH241818  -0.029   6.309   3.836 -0.6972  0.2345 -0.0764
13954TIP3    H141819  -0.002   6.277   3.922 -0.6264 -1.8070 -0.8038
13954TIP3    H241820   0.049   6.353   3.802 -0.2274 -0.2858  0.3034
13955TIP3   OH241821   5.032   4.395   4.169 -0.4007  0.2852 -0.4583
13955TIP3    H141822   4.986   4.314   4.186 -0.5816  0.0975 -1.7393
13955TIP3    H241823   4.979   4.463   4.211  0.5546 -0.3713  1.9612
13956TIP3   OH241824   5.277   0.025   6.663  0.5561 -0.0250 -0.2335
13956TIP3    H141825   5.203   0.057   6.611 -0.1737 -2.4946 -0.8622
13956TIP3    H241826   5.240  -0.048   6.714  2.1873 -0.1986  0.7591
13957TIP3   OH241827   6.796   7.739   3.513 -0.4917  0.0877  0.3496
13957TIP3    H141828   6.747   7.676   3.461 -1.3136  1.8093 -1.0621
13957TIP3    H241829   6.761   7.824   3.487  2.8641  1.4170 -0.3918
13958TIP3   OH241830   5.478   0.351   0.971 -0.1634 -0.6036 -0.1758
13958TIP3    H141831   5.490   0.439   0.936 -0.6468 -0.0448  0.9989
13958TIP3    H241832   5.411   0.312   0.915  0.1775 -0.2840 -0.8082
13959TIP3   OH241833   1.728   6.482   6.559  0.7756  0.3206  0.6830
13959TIP3    H141834   1.796   6.480   6.626 -1.2116  0.9261  2.8326
13959TIP3    H241835   1.690   6.394   6.561  1.5777 -0.0956 -0.6887
13960TIP3   OH241836   7.269   0.640   4.904 -0.7300  0.0873  0.4320
13960TIP3    H141837   7.284   0.730   4.875 -1.7268  0.4276  0.9246
13960TIP3    H241838   7.353   0.596   4.889  0.0642  1.3304  1.0687
13961TIP3   OH241839   1.270   5.757   2.230 -0.8625 -0.2418  0.2497
13961TIP3    H141840   1.355   5.798   2.241 -0.4371 -0.8829 -0.5469
13961TIP3    H241841   1.276   5.674   2.278 -1.6349  0.4757  1.6491
13962TIP3   OH241842   5.231   3.029   5.299  0.1188  0.2108 -0.4670
13962TIP3    H141843   5.206   2.969   5.228  1.0311 -2.0682  0.9927
13962TIP3    H241844   5.156   3.026   5.359  0.1627  0.5500 -0.3982
13963TIP3   OH241845   5.149   2.219   1.220 -0.0322 -0.7492 -0.0490
13963TIP3    H141846   5.221   2.249   1.165 -3.1616 -1.3435 -5.0619
13963TIP3    H241847   5.104   2.299   1.248 -0.0335 -0.4626 -0.8636
13964TIP3   OH241848   1.867   1.303   1.069 -0.0525  0.2045  0.4213
13964TIP3    H141849   1.805   1.321   0.998 -0.0725 -2.6333 -0.4056
13964TIP3    H241850   1.851   1.372   1.133 -3.8072 -0.1173  0.0543
13965TIP3   OH241851   0.387   6.764   0.831  0.0901 -0.3763  0.3113
13965TIP3    H141852   0.456   6.711   0.791 -1.8080 -0.2126 -3.6749
13965TIP3    H241853   0.405   6.853   0.801 -0.6707  0.0531  1.0826
13966TIP3   OH241854   0.276   6.719   1.416 -0.5521  0.1065 -0.3549
13966TIP3    H141855   0.324   6.724   1.499  1.4002 -1.2774 -1.3219
13966TIP3    H241856   0.286   6.629   1.388 -0.7047  0.6698 -2.3707
13967TIP3   OH241857   6.615   2.093   4.403 -0.2481  0.3394 -0.4297
13967TIP3    H141858   6.528   2.067   4.372 -0.5436  0.5938  0.1707
13967TIP3    H241859   6.602   2.179   4.441  0.2455  0.3163 -0.1997
13968TIP3   OH241860   5.760   5.789   1.429 -0.2414 -0.0617 -0.3181
13968TIP3    H141861   5.808   5.847   1.488 -1.0910  0.5076 -0.1668
13968TIP3    H241862   5.816   5.712   1.420  0.8267  0.6977 -0.3742
13969TIP3   OH241863   7.580   4.016   1.403 -0.2299 -0.1949 -0.6151
13969TIP3    H141864   7.642   3.951   1.369  0.3848  0.5544 -0.9486
13969TIP3    H241865   7.550   4.062   1.325 -1.9855 -1.1976 -0.5749
13970TIP3   OH241866   4.996   0.846   0.102 -0.6557 -0.1683  0.1287
13970TIP3    H141867   4.959   0.883   0.182  2.4563  0.3979  1.4326
13970TIP3    H241868   5.040   0.766   0.131  0.1359 -0.1925 -1.0972
13971TIP3   OH241869   1.166   2.516   6.081 -0.2233  0.1719 -0.3123
13971TIP3    H141870   1.073   2.510   6.060 -0.4647 -1.6749  1.0614
13971TIP3    H241871   1.209   2.453   6.022  0.2826  1.4905 -1.4047
13972TIP3   OH241872   3.053   1.342   0.687  0.5119 -0.3458 -0.0153
13972TIP3    H141873   3.137   1.328   0.643  0.9573  1.3597  0.2229
13972TIP3    H241874   3.000   1.267   0.662  1.8385 -1.0422 -0.8338
13973TIP3   OH241875   6.031   0.645   5.130  0.4888  0.0266  0.3420
13973TIP3    H141876   6.045   0.587   5.055  2.8813  0.3672  0.4529
13973TIP3    H241877   6.000   0.727   5.090  0.1773 -0.3014 -0.1084
13974TIP3   OH241878   2.119   7.339   0.899  0.2496  0.3839  0.2496
13974TIP3    H141879   2.113   7.263   0.841  1.9716  0.3844  0.0100
13974TIP3    H241880   2.143   7.303   0.984 -2.8757  0.3229  1.2255
13975TIP3   OH241881   3.165   2.796   1.017  0.9146 -0.5994 -0.5184
13975TIP3    H141882   3.199   2.743   0.945  1.9549  1.5959 -1.7564
13975TIP3    H241883   3.104   2.857   0.975  0.4523 -0.2076  0.6815
13976TIP3   OH241884   1.451   1.051   3.894 -0.1835  0.3108 -0.7539
13976TIP3    H141885   1.529   1.040   3.840  0.5572  0.0314  0.3449
13976TIP3    H241886   1.380   1.064   3.831  0.2672 -2.1502 -1.8999
13977TIP3   OH241887   1.222   1.364   5.251 -0.0954 -0.0695 -0.3144
13977TIP3    H141888   1.226   1.287   5.194 -1.0034 -0.6256  0.3288
13977TIP3    H241889   1.142   1.350   5.302 -0.7576  1.7443 -0.8045
13978TIP3   OH241890   6.005   6.078   6.564 -0.6524 -0.0916 -0.6402
13978TIP3    H141891   6.025   6.062   6.472  1.3880  1.4041 -0.5158
13978TIP3    H241892   5.971   6.167   6.566  0.6259  0.4101  0.1806
13979TIP3   OH241893   7.717   0.536   3.187  0.2516  0.1934  0.4576
13979TIP3    H141894   7.736   0.610   3.130  0.5714  0.0282  0.3489
13979TIP3    H241895   7.741   0.459   3.135  1.5550  0.0707  1.1966
13980TIP3   OH241896   2.588   1.072   3.144 -0.0217  0.1777  0.2331
13980TIP3    H141897   2.510   1.017   3.138 -0.5109  0.7706  0.8330
13980TIP3    H241898   2.573   1.125   3.223  0.1715  1.5274 -0.5921
13981TIP3   OH241899   6.290   6.712   0.777 -0.4143  0.4010  0.5979
13981TIP3    H141900   6.384   6.727   0.791 -0.3833 -0.0741  0.9061
13981TIP3    H241901   6.271   6.630   0.822 -0.8091  0.0515 -0.1755
13982TIP3   OH241902   2.667   2.450   4.071  0.2048 -0.5747 -0.6374
13982TIP3    H141903   2.703   2.374   4.026  0.4609  0.8924 -3.1063
13982TIP3    H241904   2.742   2.508   4.083  0.0547 -0.7626  1.4279
13983TIP3   OH241905   4.097   2.327   3.954 -0.2592 -0.0608  0.4149
13983TIP3    H141906   4.063   2.255   3.901  1.3788  0.7114 -1.8322
13983TIP3    H241907   4.034   2.398   3.943 -0.1987 -0.0835 -0.1127
13984TIP3   OH241908   7.986   2.148   4.128 -0.1307 -0.5982 -0.8610
13984TIP3    H141909   7.944   2.193   4.055 -0.6813 -0.8812 -0.7267
13984TIP3    H241910   8.071   2.119   4.093  1.7014  3.2544 -0.0676
13985TIP3   OH241911   0.763   3.703   3.623 -0.5209  1.1419 -0.1031
13985TIP3    H141912   0.823   3.760   3.575 -0.0320  1.2572  0.6256
13985TIP3    H241913   0.807   3.687   3.707  0.8517 -2.7986 -1.3557
13986TIP3   OH241914   2.651   1.509   4.237 -0.5233  0.0989  0.4474
13986TIP3    H141915   2.703   1.521   4.317  1.3662 -1.6318 -0.4387
13986TIP3    H241916   2.623   1.418   4.240  1.5921 -0.7420 -1.9024
13987TIP3   OH241917   3.174   4.634   0.152  0.0086 -0.2188  0.0210
13987TIP3    H141918   3.269   4.633   0.160  0.0500 -0.0620 -0.4695
13987TIP3    H241919   3.148   4.542   0.163  0.2775 -0.3748 -0.6357
13988TIP3   OH241920   6.019   0.921   4.999 -0.5649 -0.6703 -0.3732
13988TIP3    H141921   5.990   0.890   4.913  0.1355 -1.0473 -0.4856
13988TIP3    H241922   6.101   0.968   4.981 -0.2946 -0.9455  0.1087
13989TIP3   OH241923   5.642   1.798   1.381 -0.1542  0.4359 -0.4505
13989TIP3    H141924   5.721   1.799   1.434 -0.4320 -0.6976  0.0160
13989TIP3    H241925   5.573   1.771   1.441 -0.6890  0.2714 -1.1191
13990TIP3   OH241926   2.560   0.329   5.903  0.4749 -0.1042 -0.3692
13990TIP3    H141927   2.511   0.292   5.976  1.1702  0.6817  0.5092
13990TIP3    H241928   2.649   0.341   5.936  1.1893 -1.1217 -1.8125
13991TIP3   OH241929   2.825   5.093   6.616  0.6255  0.7935  0.4933
13991TIP3    H141930   2.912   5.087   6.576  0.5084  0.5293  0.2669
13991TIP3    H241931   2.794   5.002   6.617 -0.2189  1.0450 -0.7377
13992TIP3   OH241932   0.405   5.590   2.753  0.3286 -0.4489 -0.0647
13992TIP3    H141933   0.324   5.540   2.758  1.2183 -1.9698 -0.0656
13992TIP3    H241934   0.403   5.647   2.829 -0.8376 -0.3131 -0.1875
13993TIP3   OH241935   1.263   0.426   6.305 -0.0720  1.0841 -0.4153
13993TIP3    H141936   1.241   0.355   6.366  0.0640  1.0292 -0.4310
13993TIP3    H241937   1.193   0.424   6.240  2.0118 -1.7617 -2.8465
13994TIP3   OH241938   4.555   0.357   5.385 -0.1843  0.0022 -0.5706
13994TIP3    H141939   4.507   0.417   5.327  0.5960 -0.0744 -1.3119
13994TIP3    H241940   4.503   0.277   5.384 -0.2205  0.0254 -1.1088
13995TIP3   OH241941   0.173   6.676   1.771 -0.4778 -0.0022 -0.1531
13995TIP3    H141942   0.264   6.677   1.741 -0.6912  0.4127 -0.7982
13995TIP3    H241943   0.179   6.683   1.866  0.2418 -1.9733  0.0028
13996TIP3   OH241944   0.904   2.578   3.689 -0.8783  0.1937  0.6031
13996TIP3    H141945   0.825   2.592   3.637 -1.3440  0.1211  1.2794
13996TIP3    H241946   0.942   2.665   3.699 -0.5218  0.1461 -0.2573
13997TIP3   OH241947   1.273   0.732   4.109 -0.4664  0.6918 -0.1452
13997TIP3    H141948   1.303   0.817   4.143  0.2285  0.1745  0.5640
13997TIP3    H241949   1.353   0.681   4.098 -0.9486 -0.1574  0.2236
13998TIP3   OH241950   2.735   7.227   4.704 -0.6115  0.1165  0.4377
13998TIP3    H141951   2.662   7.165   4.708 -0.6283  0.1363  0.4342
13998TIP3    H241952   2.751   7.240   4.610 -0.7277  0.2582  0.4370
13999TIP3   OH241953   1.224   0.749   3.701  0.4263 -0.6365 -0.2574
13999TIP3    H141954   1.149   0.689   3.693 -0.2405  0.3346 -1.6474
13999TIP3    H241955   1.205   0.799   3.780  0.7488 -1.8888  0.6476
14000TIP3   OH241956   6.110   4.294   6.016  0.6807 -0.3895 -0.0769
14000TIP3    H141957   6.108   4.263   5.925  0.4594 -0.7450  0.0467
14000TIP3    H241958   6.184   4.247   6.055 -0.6720 -2.1097  0.5719
14001TIP3   OH241959   7.091   5.502   3.048 -0.3546  0.2795 -0.1620
14001TIP3    H141960   7.173   5.549   3.062 -0.2226 -0.5771  2.5941
14001TIP3    H241961   7.024   5.560   3.084 -0.3594 -0.8995  1.8615
14002TIP3   OH241962   1.158   1.674   4.224 -0.1661 -0.1926  0.2768
14002TIP3    H141963   1.124   1.729   4.153  0.0255  0.2360  0.5108
14002TIP3    H241964   1.217   1.732   4.273 -0.1151 -0.5526  0.6480
14003TIP3   OH241965   7.655   2.073   5.859  0.0480 -0.3988 -0.4824
14003TIP3    H141966   7.666   2.025   5.777 -1.6272 -0.1151 -0.8958
14003TIP3    H241967   7.561   2.074   5.874  0.3071 -0.2761  1.3620
14004TIP3   OH241968   5.455   3.226   0.042  0.1185 -0.1482 -0.9730
14004TIP3    H141969   5.523   3.244  -0.024  0.6579 -0.9234 -0.6510
14004TIP3    H241970   5.500   3.172   0.107 -0.3896  0.6723  0.0740
14005TIP3   OH241971   1.916   2.826   0.815  0.8891 -0.1176  0.5640
14005TIP3    H141972   1.856   2.834   0.889 -2.5210 -1.0029 -1.8960
14005TIP3    H241973   1.909   2.910   0.769  0.3270 -0.7616 -0.5578
14006TIP3   OH241974   5.353   2.063   5.439 -0.5120  0.1535 -0.4587
14006TIP3    H141975   5.263   2.091   5.422 -0.5386 -0.2597 -1.0274
14006TIP3    H241976   5.350   1.968   5.435 -0.3149  0.0671  0.9297
14007TIP3   OH241977   7.709   4.855   1.453 -0.3895  0.0940 -0.7630
14007TIP3    H141978   7.756   4.874   1.534  0.2613  1.6796 -1.4574
14007TIP3    H241979   7.617   4.860   1.476 -0.2413 -0.9273  0.1633
14008TIP3   OH241980   6.604   7.682   2.301 -0.4216 -0.3394 -0.3109
14008TIP3    H141981   6.576   7.773   2.313 -1.5106 -0.6925 -0.0798
14008TIP3    H241982   6.678   7.672   2.362  0.8834  0.8768 -1.6287
14009TIP3   OH241983   6.810   0.881   0.355 -0.2054  0.2065 -0.2728
14009TIP3    H141984   6.889   0.875   0.302 -0.2678  0.2216 -0.3688
14009TIP3    H241985   6.798   0.975   0.369 -0.3398  0.2189 -0.4626
14010TIP3   OH241986   4.448   4.299   5.676 -0.7540 -0.1131  0.8763
14010TIP3    H141987   4.530   4.348   5.668  0.4963 -2.0129  1.3971
14010TIP3    H241988   4.474   4.207   5.669 -2.7584 -0.7979  1.6505
14011TIP3   OH241989   7.629   7.053   6.010 -0.5114  0.2999  0.4924
14011TIP3    H141990   7.622   6.971   6.058 -1.3626 -0.0485 -0.2112
14011TIP3    H241991   7.585   7.117   6.065  0.0313  0.2628  0.9761
14012TIP3   OH241992   2.424   6.851   3.688 -0.4561 -0.2501 -0.5510
14012TIP3    H141993   2.444   6.841   3.781 -0.1945 -2.2211 -0.7750
14012TIP3    H241994   2.376   6.933   3.682  1.8325  1.3294  0.9318
14013TIP3   OH241995   0.233   3.728   0.350 -0.4359  0.2569 -0.3264
14013TIP3    H141996   0.149   3.767   0.376 -0.3598 -0.0388  0.3910
14013TIP3    H241997   0.237   3.742   0.256 -1.3227  0.2275 -0.3841
14014TIP3   OH241998   3.707   5.125   4.892 -1.0865  0.3087 -0.4744
14014TIP3    H141999   3.630   5.082   4.929  0.3177 -0.6513  1.5057
14014TIP3    H242000   3.779   5.099   4.950  0.5269  2.1481 -1.5529
14015TIP3   OH242001   1.491   3.466   3.378 -0.7217  0.1447 -0.1684
14015TIP3    H142002   1.436   3.412   3.435  1.8918 -1.3011  1.1754
14015TIP3    H242003   1.482   3.555   3.414 -0.5835 -0.4338  1.3952
14016TIP3   OH242004   2.303   4.751   4.395  0.2678 -0.1011 -0.0760
14016TIP3    H142005   2.253   4.686   4.444  0.4232  0.0236  0.2452
14016TIP3    H242006   2.342   4.807   4.461  0.4721  0.0717 -0.3408
14017TIP3   OH242007   4.470   6.351   4.287 -0.4944 -0.2279 -0.4774
14017TIP3    H142008   4.565   6.343   4.280 -0.4250  0.5987 -0.6100
14017TIP3    H242009   4.438   6.261   4.284  0.4392 -0.7407  2.1837
14018TIP3   OH242010   7.624   5.447   4.163  0.0103  0.0389  0.1244
14018TIP3    H142011   7.566   5.521   4.146 -0.4930 -0.4300 -0.2435
14018TIP3    H242012   7.642   5.452   4.257 -0.0578  0.5937  0.1142
14019TIP3   OH242013   8.202   4.665   2.262  0.0931  0.1323 -0.3448
14019TIP3    H142014   8.289   4.689   2.230  0.7797  0.8447  1.8297
14019TIP3    H242015   8.141   4.712   2.205  1.2161  1.2739 -0.6541
14020TIP3   OH242016   2.560   0.688   0.458 -0.5267 -0.4569 -0.1024
14020TIP3    H142017   2.637   0.632   0.458 -0.9954 -1.1369 -1.9457
14020TIP3    H242018   2.513   0.666   0.379 -0.2754  3.1632 -1.4779
14021TIP3   OH242019   7.719   3.093   1.301 -0.1631  0.3122  0.0784
14021TIP3    H142020   7.705   3.149   1.378 -0.8324 -0.0321  0.2164
14021TIP3    H242021   7.651   3.120   1.240  0.3219  0.5319 -0.3682
14022TIP3   OH242022   7.236   5.047   1.788  0.2959  0.1132  0.4995
14022TIP3    H142023   7.264   5.096   1.710  0.4873 -0.1674  0.3914
14022TIP3    H242024   7.159   4.998   1.758  0.0225  0.4473  0.6444
14023TIP3   OH242025   5.585   3.619   6.368 -0.5219  0.0543  0.5995
14023TIP3    H142026   5.552   3.556   6.433 -0.7779 -1.1897 -0.6808
14023TIP3    H242027   5.620   3.564   6.297  0.1614  1.3692 -0.1127
14024TIP3   OH242028   2.506   6.388   0.195 -0.5577  0.1093  0.4972
14024TIP3    H142029   2.593   6.401   0.157 -1.3114 -0.7940 -1.6692
14024TIP3    H242030   2.453   6.459   0.160 -1.0372 -0.1784  0.6224
14025TIP3   OH242031   7.710   4.877   3.138 -0.5491 -0.2703 -1.0752
14025TIP3    H142032   7.770   4.867   3.064  0.1384 -0.6652 -0.4822
14025TIP3    H242033   7.764   4.860   3.215 -1.4748 -0.8392 -0.5308
14026TIP3   OH242034   8.266   0.557   5.242  0.2108 -0.0255 -0.1475
14026TIP3    H142035   8.321   0.635   5.238  0.2317 -0.0797 -1.0889
14026TIP3    H242036   8.288   0.507   5.164 -0.4936 -0.5117 -0.0522
14027TIP3   OH242037   6.631   3.431   2.125 -0.2691  0.3838 -0.2080
14027TIP3    H142038   6.541   3.461   2.136 -0.1794  0.4508  0.3619
14027TIP3    H242039   6.647   3.373   2.200  1.1244  2.6866  1.3912
14028TIP3   OH242040   2.114   4.203   4.084  0.0931 -1.0173  0.3683
14028TIP3    H142041   2.116   4.234   4.174 -0.0928 -0.5300  0.2081
14028TIP3    H242042   2.088   4.280   4.033 -1.3532 -1.6847  0.0704
14029TIP3   OH242043   2.951   7.307   0.307  0.0629  0.0741 -0.2004
14029TIP3    H142044   3.020   7.373   0.314  1.1263 -1.0025 -0.2892
14029TIP3    H242045   2.892   7.341   0.240  1.6553  0.0045 -1.6955
14030TIP3   OH242046   1.880   7.133   4.199 -0.9127 -0.4906  0.4746
14030TIP3    H142047   1.909   7.144   4.108 -1.0708 -2.5312  0.1422
14030TIP3    H242048   1.789   7.163   4.199 -1.2888 -1.5587 -0.3336
14031TIP3   OH242049   5.765   3.226   0.504  0.1080  0.0410  0.2516
14031TIP3    H142050   5.836   3.204   0.564  0.9164  1.1874 -0.2652
14031TIP3    H242051   5.716   3.144   0.495 -0.4310 -0.0274  2.9518
14032TIP3   OH242052   5.871   2.529   4.753 -0.6483  0.7173  0.4774
14032TIP3    H142053   5.820   2.605   4.725 -1.2194  0.6798  1.3987
14032TIP3    H242054   5.836   2.456   4.701  0.7810  1.2603 -1.3896
14033TIP3   OH242055   0.385   6.251   4.106 -0.1007 -0.7102  0.3954
14033TIP3    H142056   0.396   6.345   4.121  0.5779 -0.7030 -0.0603
14033TIP3    H242057   0.294   6.241   4.080 -0.1502 -0.1564  0.3400
14034TIP3   OH242058   7.122   2.224   3.708 -0.0528 -0.2764 -0.3853
14034TIP3    H142059   7.048   2.187   3.660  0.2063 -1.3304 -0.0121
14034TIP3    H242060   7.145   2.303   3.660 -1.7883  0.4100 -0.1742
14035TIP3   OH242061   2.855   3.139   5.689 -0.1189  0.3296  0.0703
14035TIP3    H142062   2.881   3.153   5.780 -0.7903  1.6750  0.0804
14035TIP3    H242063   2.792   3.209   5.671 -2.3666 -1.6997 -0.4905
14036TIP3   OH242064   1.397   1.356   3.815 -0.5792 -0.2448  0.1238
14036TIP3    H142065   1.441   1.299   3.878 -1.8060 -1.0613  0.2631
14036TIP3    H242066   1.393   1.441   3.857 -0.1030 -0.4311  0.5492
14037TIP3   OH242067   4.606   0.028   4.391 -0.5397 -0.1399 -0.2527
14037TIP3    H142068   4.693   0.067   4.384 -0.0107 -0.8461  1.6525
14037TIP3    H242069   4.546   0.095   4.358  0.6790  0.4578 -1.3440
14038TIP3   OH242070   0.220   6.831   6.104  0.2405  0.2326  0.3809
14038TIP3    H142071   0.244   6.805   6.193  2.2206 -1.8415 -0.6488
14038TIP3    H242072   0.251   6.921   6.095  1.8785 -0.2125  1.1924
14039TIP3   OH242073   1.858   3.939   2.196 -0.4306  0.1911 -0.1984
14039TIP3    H142074   1.902   3.937   2.281 -2.3779 -1.2244  0.8599
14039TIP3    H242075   1.827   4.029   2.188 -0.3128  0.3215  0.6439
14040TIP3   OH242076   7.854   5.993   2.422  0.2763 -0.0072  0.3542
14040TIP3    H142077   7.769   6.022   2.389  1.4426  1.8215 -1.1910
14040TIP3    H242078   7.905   5.971   2.344  0.8946 -2.2349  1.2980
14041TIP3   OH242079   4.855   0.626   3.003  0.0096  0.2724 -0.5701
14041TIP3    H142080   4.900   0.589   3.079  0.3098  1.4678 -0.1411
14041TIP3    H242081   4.913   0.607   2.929 -1.4430 -3.1372 -1.0085
14042TIP3   OH242082   5.314   7.255   2.376  0.3819 -0.5280 -0.1005
14042TIP3    H142083   5.232   7.206   2.378  0.4753 -0.8148 -1.8027
14042TIP3    H242084   5.366   7.218   2.447 -0.7400 -0.7147  0.6455
14043TIP3   OH242085   0.403   2.763   2.060 -0.6787  0.3918  0.2402
14043TIP3    H142086   0.479   2.751   2.116 -0.0059  1.5752 -0.3758
14043TIP3    H242087   0.352   2.832   2.103 -0.4238  0.9335 -0.3023
14044TIP3   OH242088   8.059   1.302   3.741 -0.1050  0.1757 -0.1853
14044TIP3    H142089   8.092   1.280   3.654 -0.8643  1.2501 -0.7602
14044TIP3    H242090   7.966   1.280   3.738  0.5069 -3.3092  1.5871
14045TIP3   OH242091   1.327   4.774   4.967 -0.1228  0.1891  0.3343
14045TIP3    H142092   1.405   4.722   4.950  0.0711 -0.1105  2.0131
14045TIP3    H242093   1.360   4.862   4.987 -0.4631  1.1858 -2.8834
14046TIP3   OH242094   3.965   6.856   3.551 -0.3318 -0.0306  0.3819
14046TIP3    H142095   3.983   6.907   3.472 -1.0405 -0.7284 -0.2415
14046TIP3    H242096   4.026   6.891   3.616  0.8246  0.0073 -0.6886
14047TIP3   OH242097   7.292   2.923   1.198 -0.7372 -0.1223  0.6694
14047TIP3    H142098   7.254   2.871   1.269 -1.2574  0.7933  1.0839
14047TIP3    H242099   7.277   2.870   1.120 -2.9306  0.1825  0.8080
14048TIP3   OH242100   0.503   0.694   3.943 -0.7246 -0.1496 -0.1229
14048TIP3    H142101   0.527   0.653   3.860  0.8630  0.7525 -0.1485
14048TIP3    H242102   0.478   0.783   3.918  0.4872  0.3592  0.4286
14049TIP3   OH242103   5.565   5.643   1.892  0.2167  0.5430 -0.1168
14049TIP3    H142104   5.649   5.690   1.898  1.0777 -0.6240 -1.9254
14049TIP3    H242105   5.529   5.671   1.808 -0.9160  0.5431  0.3603
14050TIP3   OH242106   6.481   6.011   2.436  0.1435  0.4754  0.5369
14050TIP3    H142107   6.407   6.003   2.376 -0.2200 -1.3661  1.1555
14050TIP3    H242108   6.544   6.066   2.389 -0.0494 -1.0085 -1.6343
14051TIP3   OH242109   0.372   6.486   3.457 -0.0937 -0.2504  0.2175
14051TIP3    H142110   0.306   6.552   3.434 -2.4221 -2.0629  1.3202
14051TIP3    H242111   0.437   6.492   3.387 -0.7564  2.4415 -0.2884
14052TIP3   OH242112   7.359   6.917   0.591 -0.5723 -0.3837  0.2839
14052TIP3    H142113   7.431   6.859   0.568 -0.0871 -0.2664  1.4221
14052TIP3    H242114   7.332   6.957   0.508 -0.1508 -1.3576 -0.3318
14053TIP3   OH242115   7.296   5.681   2.204 -0.2029 -0.1191 -0.5721
14053TIP3    H142116   7.244   5.760   2.192 -0.9166 -0.4290  0.3362
14053TIP3    H242117   7.299   5.668   2.299 -0.7590 -1.5888 -0.7241
14054TIP3   OH242118   0.637   5.735   6.730 -0.0009  0.3496  0.4666
14054TIP3    H142119   0.691   5.683   6.790  1.9297 -0.3873 -1.7557
14054TIP3    H242120   0.676   5.822   6.732 -0.0880  0.3887  0.4673
14055TIP3   OH242121   3.704   5.579   3.016 -0.0606 -0.1913  0.1477
14055TIP3    H142122   3.632   5.571   3.079  0.2492 -0.3973  0.4830
14055TIP3    H242123   3.724   5.489   2.991 -0.0828 -0.1189 -0.1335
14056TIP3   OH242124   4.399   3.551   5.380 -0.1264  0.1250  0.0688
14056TIP3    H142125   4.441   3.635   5.363  0.1810 -0.3331 -1.6229
14056TIP3    H242126   4.467   3.486   5.364 -1.1997 -0.5939 -2.0499
14057TIP3   OH242127   4.781   7.743   1.436 -0.2114 -0.0733  0.0381
14057TIP3    H142128   4.750   7.729   1.525  1.1387  1.4349  0.8045
14057TIP3    H242129   4.702   7.748   1.383 -1.0536 -0.5769  1.2160
14058TIP3   OH242130   7.441   1.417   2.324 -0.0665  0.0675 -0.6392
14058TIP3    H142131   7.514   1.453   2.273  0.5489  1.3277  1.0518
14058TIP3    H242132   7.364   1.463   2.290  0.0657 -0.3736 -1.5851
14059TIP3   OH242133   5.086   4.671   4.634  0.1909  0.2713  0.1461
14059TIP3    H142134   5.165   4.723   4.647 -0.2289  1.0604 -0.4262
14059TIP3    H242135   5.056   4.650   4.722  2.4608 -2.2894  0.4643
14060TIP3   OH242136   5.217   5.879   1.659  0.1347 -0.5326 -0.3105
14060TIP3    H142137   5.136   5.901   1.611  0.1521  1.1192  0.3414
14060TIP3    H242138   5.248   5.963   1.692  0.2795 -1.5592  2.3720
14061TIP3   OH242139   0.968   5.521   0.540 -0.0925 -0.0174 -0.2888
14061TIP3    H142140   1.000   5.431   0.544 -1.5108 -0.5277  0.3294
14061TIP3    H242141   0.991   5.551   0.452  1.6042 -0.4950 -0.0395
14062TIP3   OH242142   5.122   3.970   5.494  0.0862 -0.4882 -0.2938
14062TIP3    H142143   5.184   3.925   5.551 -0.8575 -0.0926  1.1273
14062TIP3    H242144   5.067   3.900   5.458  1.1286 -0.8072 -1.3157
14063TIP3   OH242145   0.257   0.405   0.656  0.0104 -0.3713  0.3396
14063TIP3    H142146   0.310   0.387   0.733 -0.1710 -0.2323  0.4972
14063TIP3    H242147   0.316   0.452   0.597 -0.2573  0.8140  0.9806
14064TIP3   OH242148   0.926   1.155   3.392  0.3835  0.2693  0.1174
14064TIP3    H142149   0.960   1.069   3.414  1.6434  0.7275  0.0569
14064TIP3    H242150   0.946   1.209   3.469 -1.1526  0.3444  0.5143
14065TIP3   OH242151   2.995   2.407   1.458  0.4402 -0.3941 -0.6265
14065TIP3    H142152   2.985   2.348   1.384  4.2354 -0.7861 -1.0533
14065TIP3    H242153   3.000   2.494   1.419  1.8529 -0.5485 -0.8671
14066TIP3   OH242154   5.260   0.092   5.670 -0.2063 -0.4671 -0.6439
14066TIP3    H142155   5.222   0.050   5.593 -0.7181 -1.3314  0.0427
14066TIP3    H242156   5.188   0.094   5.733  0.7450 -1.8263  0.5704
14067TIP3   OH242157   0.873   6.611   5.583 -0.3544 -0.4332 -0.4388
14067TIP3    H142158   0.805   6.558   5.539  0.9628 -0.1250 -3.0667
14067TIP3    H242159   0.888   6.684   5.523  0.9687  0.5543  1.0212
14068TIP3   OH242160   7.652   7.645   5.498 -0.5552  0.6420  0.0220
14068TIP3    H142161   7.691   7.557   5.492 -0.4972  0.6962 -0.4877
14068TIP3    H242162   7.716   7.697   5.546 -0.2698  0.5789 -0.2879
14069TIP3   OH242163   4.491   7.827   0.733  0.1377 -0.2830 -0.7689
14069TIP3    H142164   4.486   7.754   0.671  0.2208  0.3077 -1.4924
14069TIP3    H242165   4.406   7.871   0.726  0.0325 -0.3982 -0.2271
14070TIP3   OH242166   0.931   7.317   5.244 -0.1965 -0.2112 -0.0925
14070TIP3    H142167   0.910   7.328   5.151  0.1813 -0.1201 -0.1675
14070TIP3    H242168   0.995   7.385   5.263 -1.0857  0.4872  0.5105
14071TIP3   OH242169   1.119   0.871   3.931 -1.2845  0.3258 -0.3101
14071TIP3    H142170   1.126   0.959   3.967 -0.3140  0.8775 -1.7392
14071TIP3    H242171   1.147   0.814   4.003  1.0519  1.4101 -0.2629
14072TIP3   OH242172   7.072   6.564   1.864  0.4176  0.3167 -0.3023
14072TIP3    H142173   7.099   6.656   1.867  2.0641 -0.1156 -0.6639
14072TIP3    H242174   6.987   6.565   1.820 -0.2055  1.7608  0.8399
14073TIP3   OH242175   4.700   1.903   4.485  0.0830 -0.6858  0.2747
14073TIP3    H142176   4.757   1.963   4.439  0.4579 -0.1184  1.4641
14073TIP3    H242177   4.756   1.858   4.547 -0.8253  0.2599  1.8382
14074TIP3   OH242178   0.318   4.888   1.599  0.0838 -0.3030  0.1869
14074TIP3    H142179   0.268   4.839   1.534 -0.8007  0.1386  0.5315
14074TIP3    H242180   0.409   4.878   1.571 -0.1909 -1.0775 -0.4650
14075TIP3   OH242181   2.804   0.424   3.042  0.2421 -0.5048 -0.1460
14075TIP3    H142182   2.814   0.365   3.117  1.5300 -1.0410 -0.7122
14075TIP3    H242183   2.796   0.365   2.967 -0.0270  0.0396 -0.5496
14076TIP3   OH242184   4.872   1.386   6.035 -0.2256  0.0249  0.0860
14076TIP3    H142185   4.966   1.402   6.048 -0.1912  0.8684 -1.0041
14076TIP3    H242186   4.836   1.473   6.019 -0.8127 -0.4928 -1.6670
14077TIP3   OH242187   7.420   3.010   0.057 -0.6166  0.5675  0.1387
14077TIP3    H142188   7.342   3.015   0.002 -1.7922  1.6083  1.7881
14077TIP3    H242189   7.485   3.064   0.013 -1.0367  0.2149 -0.9332
14078TIP3   OH242190   0.436   7.207   5.126 -0.7892 -0.2403 -0.5167
14078TIP3    H142191   0.389   7.260   5.061  0.8504 -0.7924 -2.2307
14078TIP3    H242192   0.508   7.262   5.154 -1.3515 -0.1033  0.7072
14079TIP3   OH242193   4.711   4.994   5.549  0.2229  0.3283 -0.5129
14079TIP3    H142194   4.793   5.031   5.582  0.3710 -0.0125 -0.4896
14079TIP3    H242195   4.655   5.069   5.532  0.6324  0.5809 -0.7684
14080TIP3   OH242196   0.841   1.546   4.041  0.1012 -0.2648  0.0895
14080TIP3    H142197   0.765   1.597   4.070 -0.5640 -1.0321 -0.2522
14080TIP3    H242198   0.855   1.483   4.112  1.2870  0.7355  0.7858
14081TIP3   OH242199   3.299   5.873   0.960  0.5824  0.2158  0.0323
14081TIP3    H142200   3.337   5.818   0.892 -0.9582  1.5601 -2.0146
14081TIP3    H242201   3.311   5.822   1.041  1.6120 -1.8623 -1.3403
14082TIP3   OH242202   5.675   0.011   1.278 -0.9738  0.2666  0.1068
14082TIP3    H142203   5.657  -0.026   1.191 -0.6767 -1.7653  0.8580
14082TIP3    H242204   5.762   0.049   1.269 -0.2793 -1.2915 -0.1183
14083TIP3   OH242205   4.241   1.944   5.098 -0.0692  0.1269  0.1842
14083TIP3    H142206   4.199   2.009   5.041 -1.9888 -0.3655  0.9644
14083TIP3    H242207   4.262   1.871   5.039  0.1923  0.6034 -0.3232
14084TIP3   OH242208   5.954   2.200   0.335 -0.4102 -0.2588 -0.2942
14084TIP3    H142209   5.988   2.236   0.253  0.2403 -1.5185 -0.6083
14084TIP3    H242210   5.873   2.248   0.351 -0.3943  0.2083 -1.5111
14085TIP3   OH242211   3.028   2.741   2.965 -0.5254  0.0300 -0.2961
14085TIP3    H142212   3.092   2.670   2.964 -1.3363 -0.7234 -0.6305
14085TIP3    H242213   3.079   2.820   2.948  0.3144 -0.5422 -0.4989
14086TIP3   OH242214   1.446   6.212   3.252 -0.2715  0.1738 -0.1712
14086TIP3    H142215   1.436   6.172   3.166 -0.3904  0.4387 -0.2828
14086TIP3    H242216   1.395   6.293   3.247 -0.3402  0.1533  0.1731
14087TIP3   OH242217   4.619   6.544   0.187  0.1457  0.4024 -0.8856
14087TIP3    H142218   4.595   6.455   0.164 -0.7275  0.7785 -1.4734
14087TIP3    H242219   4.557   6.599   0.140  0.3874  1.3095 -0.1856
14088TIP3   OH242220   6.180   4.845   4.108 -0.6496 -0.1368 -0.5782
14088TIP3    H142221   6.201   4.900   4.032 -0.7603 -0.9898 -1.2505
14088TIP3    H242222   6.105   4.794   4.079  0.5829 -1.9802 -0.6688
14089TIP3   OH242223   0.261   6.715   5.507  0.0949 -0.2006  0.0520
14089TIP3    H142224   0.310   6.744   5.584 -1.0740 -1.0354  1.1572
14089TIP3    H242225   0.196   6.784   5.493 -0.9379 -0.9550  1.0198
14090TIP3   OH242226   0.645   2.272   1.154 -0.5332 -0.5224  0.0568
14090TIP3    H142227   0.567   2.255   1.206 -0.9770  1.2925  0.0306
14090TIP3    H242228   0.718   2.258   1.214 -1.0111  0.7729  0.9635
14091TIP3   OH242229   2.515   2.758   3.616 -0.0169  0.2369  0.9331
14091TIP3    H142230   2.522   2.846   3.581 -2.0576  0.6198  1.3793
14091TIP3    H242231   2.605   2.734   3.639  1.2296  0.6420 -2.7868
14092TIP3   OH242232   6.248   5.288   2.314 -0.1158 -0.2027  0.0154
14092TIP3    H142233   6.289   5.280   2.400  0.0464  0.7190  0.0260
14092TIP3    H242234   6.154   5.276   2.331 -0.2685  1.5819  0.5698
14093TIP3   OH242235   5.142   1.784   5.090 -0.0873 -0.0193  0.0120
14093TIP3    H142236   5.103   1.869   5.070  0.3703  0.1412 -0.1885
14093TIP3    H242237   5.067   1.724   5.094 -0.3221  0.2086 -0.7937
14094TIP3   OH242238   4.390   7.324   3.626 -0.6239 -0.5637 -0.4487
14094TIP3    H142239   4.302   7.363   3.623 -0.3979 -0.0306 -0.3021
14094TIP3    H242240   4.437   7.367   3.554 -0.1255  0.0605  0.2304
14095TIP3   OH242241   0.508   5.052   3.037  0.3417  0.5315  0.0309
14095TIP3    H142242   0.427   5.002   3.050  0.0889  1.0383  0.4048
14095TIP3    H242243   0.492   5.103   2.958  0.0499  1.1205  0.4671
14096TIP3   OH242244   3.752   4.458   0.315  0.6020  0.6222 -0.3923
14096TIP3    H142245   3.710   4.378   0.347  2.1377  0.0322  0.2926
14096TIP3    H242246   3.805   4.488   0.390  2.6501  0.3930 -1.6634
14097TIP3   OH242247   6.378   2.496   3.761  0.2325  0.0741 -0.0598
14097TIP3    H142248   6.427   2.487   3.680 -1.4466  0.1040 -1.1349
14097TIP3    H242249   6.286   2.484   3.735 -0.4975  1.6346  1.5674
14098TIP3   OH242250   0.061   3.437   0.125 -0.8545  0.3869  0.1904
14098TIP3    H142251   0.004   3.376   0.078 -0.1737  0.6308 -0.9995
14098TIP3    H242252   0.106   3.485   0.056 -0.4503  1.3697  1.1117
14099TIP3   OH242253   1.736   0.048   2.442  0.6730 -0.6487 -0.2814
14099TIP3    H142254   1.779   0.133   2.432 -1.5483  0.6633  0.5451
14099TIP3    H242255   1.709   0.023   2.354  0.0807  0.2538 -0.3686
14100TIP3   OH242256   1.010   7.393   1.781 -0.3142  0.3329  0.3434
14100TIP3    H142257   1.105   7.388   1.771 -0.4297  0.2728 -0.8634
14100TIP3    H242258   0.997   7.447   1.860  0.7111  0.1829  0.6294
14101TIP3   OH242259   1.699   7.521   5.502  0.0177  0.3679 -0.1875
14101TIP3    H142260   1.657   7.550   5.582 -0.1725  2.8487 -1.1060
14101TIP3    H242261   1.712   7.427   5.514  0.5834  0.7616  2.9843
14102TIP3   OH242262   5.798   0.618   4.383 -0.1543 -0.2170 -0.6585
14102TIP3    H142263   5.796   0.682   4.312  0.2225 -0.3451 -0.7830
14102TIP3    H242264   5.709   0.619   4.418 -0.6242 -0.9056 -1.7979
14103TIP3   OH242265   0.475   0.219   3.747 -0.0243 -0.3518  0.1230
14103TIP3    H142266   0.463   0.261   3.662 -0.1773  0.2889  0.4497
14103TIP3    H242267   0.490   0.127   3.727 -0.2336 -0.2372 -0.5859
14104TIP3   OH242268   0.086   5.956   2.244 -0.1112 -0.2860  0.0111
14104TIP3    H142269   0.044   6.000   2.318  0.9331  0.5144  0.1516
14104TIP3    H242270   0.056   5.865   2.250 -1.2276  0.0995  0.5205
14105TIP3   OH242271   7.643   2.857   6.619 -0.1160  0.2452  0.2518
14105TIP3    H142272   7.709   2.881   6.555 -1.9084  1.3177 -1.2766
14105TIP3    H242273   7.643   2.929   6.682 -0.7979  0.9924 -0.5696
14106TIP3   OH242274   1.776   4.554   1.791  0.4134 -0.0766  0.0087
14106TIP3    H142275   1.695   4.550   1.740 -1.0793 -1.0234  2.2748
14106TIP3    H242276   1.834   4.491   1.749 -0.7443 -0.8175 -0.5401
14107TIP3   OH242277   4.504   2.666   6.013 -0.3459  0.1985  0.3485
14107TIP3    H142278   4.552   2.585   5.998  0.1693  0.7578 -1.2743
14107TIP3    H242279   4.428   2.659   5.956 -1.6371 -0.1778  2.0442
14108TIP3   OH242280   3.736   6.274   0.448 -0.0330 -0.7543 -0.0512
14108TIP3    H142281   3.791   6.310   0.518 -0.7869  2.1922 -0.8424
14108TIP3    H242282   3.671   6.221   0.494 -1.1231  1.8734  1.7211
14109TIP3   OH242283   8.220   6.991   1.902 -0.2699  0.3676  0.2493
14109TIP3    H142284   8.273   6.965   1.826  2.3479  1.2530  1.6467
14109TIP3    H242285   8.188   6.908   1.937  1.5285 -0.3925  0.2233
14110TIP3   OH242286   7.596   3.790   2.111 -0.4745  0.1601 -0.4689
14110TIP3    H142287   7.573   3.701   2.087  1.0172 -0.7596  1.2749
14110TIP3    H242288   7.608   3.836   2.028 -0.1919 -1.5356 -1.3953
14111TIP3   OH242289   7.815   6.941   2.315 -0.3290 -0.1089 -0.7757
14111TIP3    H142290   7.776   6.991   2.387  1.4022 -0.2034  0.2779
14111TIP3    H242291   7.776   6.854   2.322  0.4061 -0.3450  0.5629
14112TIP3   OH242292   7.955   2.373   1.623  0.5783  0.1644  0.0863
14112TIP3    H142293   7.885   2.425   1.663  1.1480  1.1743 -0.1742
14112TIP3    H242294   8.030   2.383   1.682  1.0696  0.6956 -0.5913
14113TIP3   OH242295   1.981   0.322   4.276  0.1075 -0.4231 -0.0545
14113TIP3    H142296   2.066   0.281   4.263  0.1277 -0.2200 -0.6133
14113TIP3    H242297   1.984   0.402   4.223 -0.3829 -0.3457  0.0225
14114TIP3   OH242298   1.192   4.651   5.316 -0.2232  0.0077  0.3956
14114TIP3    H142299   1.107   4.613   5.338  0.5290 -1.5875  0.6883
14114TIP3    H242300   1.241   4.650   5.398  0.6896 -0.7738 -0.1503
14115TIP3   OH242301   0.270   1.873   4.618 -0.2054 -0.0082  0.2030
14115TIP3    H142302   0.276   1.792   4.669  0.8964 -0.5390 -0.7149
14115TIP3    H242303   0.239   1.939   4.680 -0.6350 -1.0237  1.0902
14116TIP3   OH242304   8.173   7.796   0.497 -0.5907 -0.1375  0.5288
14116TIP3    H142305   8.203   7.725   0.553 -0.8202 -0.5159  0.1735
14116TIP3    H242306   8.223   7.785   0.416  0.4020  0.9388  0.9630
14117TIP3   OH242307   7.961   3.840   0.297 -0.5432 -0.0121  0.1965
14117TIP3    H142308   7.875   3.825   0.257 -0.2771  0.1614 -0.4532
14117TIP3    H242309   7.945   3.908   0.362 -0.8519  0.1819 -0.0789
14118TIP3   OH242310   4.848   0.140   5.215 -0.0049  0.6504  0.0223
14118TIP3    H142311   4.890   0.200   5.154  1.6728 -1.2931 -0.8835
14118TIP3    H242312   4.769   0.111   5.170 -0.1395  1.1810 -0.0878
14119TIP3   OH242313   4.089   0.134   2.422  0.2187 -0.1387 -0.8041
14119TIP3    H142314   4.184   0.136   2.414  0.1748  0.2290 -1.3356
14119TIP3    H242315   4.058   0.130   2.331 -0.3031  1.6137 -0.7425
14120TIP3   OH242316   4.470   6.656   1.920 -0.0038  0.0403  0.0389
14120TIP3    H142317   4.543   6.717   1.932  1.0422 -0.7011 -1.9842
14120TIP3    H242318   4.512   6.570   1.915 -1.1926 -0.5704  0.3104
14121TIP3   OH242319   6.547   0.397   6.080 -0.1370  0.8170  0.2909
14121TIP3    H142320   6.522   0.327   6.140  0.6104  0.5295  0.2765
14121TIP3    H242321   6.600   0.457   6.132 -0.7272  1.3611  0.2886
14122TIP3   OH242322   6.926   1.356   0.313  0.6475 -0.2968  0.5432
14122TIP3    H142323   6.876   1.281   0.346  1.2327 -1.0981 -0.3270
14122TIP3    H242324   7.018   1.330   0.326  0.8535  0.1992  0.0988
14123TIP3   OH242325   0.671   5.855   2.403  0.6499 -0.0106 -0.6128
14123TIP3    H142326   0.610   5.783   2.422 -0.1804  0.6590 -0.7071
14123TIP3    H242327   0.713   5.829   2.321 -1.3922  0.7006 -1.9522
14124TIP3   OH242328   4.175   5.642   5.849  0.3677 -0.1666  0.1789
14124TIP3    H142329   4.214   5.691   5.776  0.7863  0.4769  0.8201
14124TIP3    H242330   4.106   5.699   5.882  1.1129  0.1827  1.1806
14125TIP3   OH242331   6.714   2.947   1.795 -0.2965  0.4443  0.0757
14125TIP3    H142332   6.672   2.861   1.789  1.6784 -0.6744  1.2295
14125TIP3    H242333   6.642   3.008   1.813 -1.5918 -1.1645  0.5632
14126TIP3   OH242334   6.290   0.468   4.403 -0.1205  0.4522 -0.4201
14126TIP3    H142335   6.260   0.522   4.330 -1.2641  0.6215  0.1574
14126TIP3    H242336   6.259   0.513   4.482 -0.2100 -0.5037  0.1151
14127TIP3   OH242337   5.085   3.426   0.662 -0.5934 -0.4352 -0.3997
14127TIP3    H142338   5.101   3.438   0.569  0.3852  0.1073 -0.1832
14127TIP3    H242339   5.105   3.333   0.678  1.4355 -0.0483 -0.3588
14128TIP3   OH242340   6.096   6.599   1.179  0.3956  0.3770 -0.1816
14128TIP3    H142341   6.064   6.564   1.096  1.6439  0.5498 -0.7497
14128TIP3    H242342   6.055   6.544   1.246 -0.0221 -0.2471 -0.9366
14129TIP3   OH242343   1.050   5.303   5.959  0.1522  0.4195  0.2203
14129TIP3    H142344   0.995   5.225   5.950 -0.7979  1.0915  0.0325
14129TIP3    H242345   1.079   5.302   6.050 -0.3454  0.1660  0.3791
14130TIP3   OH242346   6.921   2.656   6.084  0.3304 -0.0659 -0.0469
14130TIP3    H142347   6.978   2.683   6.012  0.1306  1.7185  0.4098
14130TIP3    H242348   6.871   2.735   6.105 -1.3328 -1.2167  0.4781
14131TIP3   OH242349   6.563   6.440   1.983  0.4676 -0.9543  0.4949
14131TIP3    H142350   6.481   6.470   2.022 -0.2698 -2.0127 -0.1731
14131TIP3    H242351   6.536   6.368   1.925  1.8291 -1.0805 -0.0022
14132TIP3   OH242352   4.943   0.882   6.265  0.4969  0.1892 -0.1827
14132TIP3    H142353   4.900   0.962   6.295  2.3080  1.1571 -0.0029
14132TIP3    H242354   4.921   0.817   6.332  0.0744  0.8988  0.3895
14133TIP3   OH242355   1.281   2.406   5.496 -0.0613  0.2854 -0.4533
14133TIP3    H142356   1.370   2.416   5.461  0.3008  0.3992  0.4824
14133TIP3    H242357   1.288   2.435   5.587 -1.5524  2.5742 -0.9852
14134TIP3   OH242358   4.812   1.836   1.986 -0.0747  0.2122  0.0468
14134TIP3    H142359   4.853   1.776   2.048  0.3369  0.1581 -0.2721
14134TIP3    H242360   4.736   1.788   1.952 -1.2456  0.8297  1.6667
14135TIP3   OH242361   0.591   4.236   5.002  0.0090  0.3249 -0.4114
14135TIP3    H142362   0.560   4.174   5.068 -1.2620  0.1324 -1.1793
14135TIP3    H242363   0.680   4.206   4.982 -0.1440 -0.5228  0.1051
14136TIP3   OH242364   0.414   4.476   2.286 -0.8786 -0.1588 -0.5998
14136TIP3    H142365   0.360   4.411   2.332 -0.1862  0.9075  1.9177
14136TIP3    H242366   0.504   4.447   2.300 -0.6401  0.4168 -0.9158
14137TIP3   OH242367   3.704   2.451   3.229 -0.0883 -0.2373 -0.3340
14137TIP3    H142368   3.633   2.401   3.270 -0.7722  0.8011 -0.2116
14137TIP3    H242369   3.753   2.488   3.302  0.2501 -0.4984 -0.4277
14138TIP3   OH242370   6.611   3.962   2.667 -0.4708 -0.0927  0.4124
14138TIP3    H142371   6.584   3.952   2.576 -0.9439  0.8683  0.4247
14138TIP3    H242372   6.529   3.983   2.713  0.0896  1.8261  0.6349
14139TIP3   OH242373   6.050   1.932   3.139  0.2990 -0.3450 -0.3685
14139TIP3    H142374   6.017   1.883   3.214  2.0151  0.2074  0.7819
14139TIP3    H242375   5.982   1.997   3.121 -0.2015 -0.5911  0.5908
14140TIP3   OH242376   3.979   3.002   6.740  0.4893  0.1895  0.0815
14140TIP3    H142377   3.993   2.908   6.751 -2.8019 -0.5106 -0.6259
14140TIP3    H242378   3.975   3.015   6.646  0.1718  0.9264  0.1931
14141TIP3   OH242379   5.865   1.177   0.549  0.6137 -0.0350 -0.3086
14141TIP3    H142380   5.820   1.115   0.607 -0.4810  1.4648  0.5029
14141TIP3    H242381   5.948   1.133   0.527 -0.0205 -1.6743  0.4160
14142TIP3   OH242382   0.223   1.591   3.617  0.0922 -0.2368  0.6475
14142TIP3    H142383   0.223   1.545   3.701 -1.0912 -0.5350  0.5093
14142TIP3    H242384   0.293   1.656   3.625  1.0987 -1.3562  1.2358
14143TIP3   OH242385   7.636   3.072   5.648 -0.2898  0.3730 -0.3129
14143TIP3    H142386   7.581   3.071   5.726 -0.4458 -1.8467 -0.3941
14143TIP3    H242387   7.575   3.059   5.575  0.2533 -2.9511 -0.3516
14144TIP3   OH242388   6.630   4.485   3.311  0.4258 -0.0231 -0.6170
14144TIP3    H142389   6.697   4.435   3.358  1.5199  1.7973 -0.1341
14144TIP3    H242390   6.584   4.419   3.258  1.2413 -1.6375  0.5776
14145TIP3   OH242391   7.834   6.418   0.161 -0.6228  0.0745 -0.1193
14145TIP3    H142392   7.876   6.333   0.148  0.6913  0.9736 -2.2410
14145TIP3    H242393   7.806   6.445   0.074 -0.6085  2.0333  0.4334
14146TIP3   OH242394   0.132   3.121   6.433 -0.6746 -0.5080  0.0915
14146TIP3    H142395   0.224   3.124   6.405 -0.4777 -1.1031  0.6323
14146TIP3    H242396   0.097   3.207   6.410  0.0333 -0.2567 -0.0839
14147TIP3   OH242397   3.253   3.686   5.433  0.3356  0.3744 -0.3719
14147TIP3    H142398   3.171   3.698   5.481  1.2778 -2.3247  2.2558
14147TIP3    H242399   3.294   3.772   5.433 -2.0465  1.5984 -1.0032
14148TIP3   OH242400   3.487   3.037   5.533 -0.4230 -0.3390 -0.0164
14148TIP3    H142401   3.425   2.976   5.572  0.5892 -0.7794  0.9506
14148TIP3    H242402   3.500   3.104   5.600  1.3368 -1.1008  0.4686
14149TIP3   OH242403   8.191   4.424   4.044  0.6863  0.2194 -0.2088
14149TIP3    H142404   8.144   4.396   3.966  0.0817  1.4976 -0.3346
14149TIP3    H242405   8.212   4.516   4.027 -0.4145  0.8562  1.5497
14150TIP3   OH242406   4.644   4.102   4.039 -0.2139  0.1349 -0.1799
14150TIP3    H142407   4.675   4.013   4.020  0.6682  0.8051 -2.1078
14150TIP3    H242408   4.690   4.126   4.120 -0.2345 -1.0308  0.1994
14151TIP3   OH242409   4.849   4.086   3.405 -0.2073 -0.3431 -0.1856
14151TIP3    H142410   4.934   4.102   3.446 -0.1663  0.3376 -0.5311
14151TIP3    H242411   4.850   4.140   3.326 -1.7443  1.2598  0.8184
14152TIP3   OH242412   2.997   5.001   0.843  0.0374 -0.8285  0.4367
14152TIP3    H142413   2.965   5.020   0.755  0.5611 -0.7697  0.2549
14152TIP3    H242414   3.089   5.025   0.841 -0.4402  1.4343  1.6745
14153TIP3   OH242415   0.205   1.168   2.046  0.3926  0.5705  0.2233
14153TIP3    H142416   0.179   1.077   2.066 -0.6348  1.0836  1.3895
14153TIP3    H242417   0.289   1.179   2.091  1.2765 -0.2336 -1.1673
14154TIP3   OH242418   2.937   3.301   3.604 -0.1269 -0.2494  0.4115
14154TIP3    H142419   2.867   3.362   3.580 -1.0681 -1.1870  0.6966
14154TIP3    H242420   2.894   3.216   3.611  0.7538 -0.6006  2.0677
14155TIP3   OH242421   6.061   2.990   0.170 -0.3509 -0.5305  0.1378
14155TIP3    H142422   5.983   3.003   0.116 -0.6335  0.3329  0.7269
14155TIP3    H242423   6.051   2.901   0.204 -0.8592 -0.5870 -0.1386
14156TIP3   OH242424   3.848   5.120   6.015 -0.4987 -0.4796 -0.6845
14156TIP3    H142425   3.880   5.109   6.104 -1.6316  0.5835 -0.1097
14156TIP3    H242426   3.926   5.113   5.960  0.7628  1.9714  0.6458
14157TIP3   OH242427   5.725   2.165   5.192  0.1619 -0.0927 -0.2080
14157TIP3    H142428   5.704   2.072   5.198  1.7572 -0.4120  1.3467
14157TIP3    H242429   5.681   2.205   5.267  0.1026  0.2883 -0.4404
14158TIP3   OH242430   1.332   6.700   3.831  0.1216  0.1305  0.2395
14158TIP3    H142431   1.310   6.696   3.738  0.3397 -0.0851  0.1969
14158TIP3    H242432   1.249   6.682   3.875  0.2072 -0.6934  0.0750
14159TIP3   OH242433   0.050   3.549   3.400  0.2752 -0.0005  0.0838
14159TIP3    H142434   0.079   3.600   3.325  0.8247  0.5275  0.6548
14159TIP3    H242435   0.129   3.531   3.450 -0.0843 -0.3758  0.5307
14160TIP3   OH242436   6.825   7.442   2.606 -0.2294 -0.7222 -0.1030
14160TIP3    H142437   6.836   7.354   2.571 -0.4915 -0.6995 -0.2438
14160TIP3    H242438   6.883   7.446   2.682 -0.8189 -1.2745  0.3824
14161TIP3   OH242439   1.857   1.737   4.725  0.2288  0.1213 -0.3342
14161TIP3    H142440   1.799   1.690   4.665  0.2140 -0.7743  0.3577
14161TIP3    H242441   1.798   1.794   4.774 -0.3148 -1.6660  1.2187
14162TIP3   OH242442   2.419   5.010   0.122 -0.0123 -0.2563 -0.1286
14162TIP3    H142443   2.434   4.939   0.184  1.2097 -0.9237 -1.1529
14162TIP3    H242444   2.396   4.966   0.040 -1.5756  0.6079 -0.1890
14163TIP3   OH242445   5.953   5.432   2.498  0.1322 -0.5403  0.1809
14163TIP3    H142446   5.918   5.456   2.413 -0.8922  1.1611  1.0311
14163TIP3    H242447   6.004   5.508   2.526 -0.6490 -0.5130  1.6391
14164TIP3   OH242448   4.671   6.666   0.982  0.3715  0.1621 -0.2825
14164TIP3    H142449   4.755   6.638   0.944 -0.2419 -2.6865  0.2107
14164TIP3    H242450   4.679   6.645   1.075 -0.3321  1.4282  0.0858
14165TIP3   OH242451   6.275   3.124   0.080 -0.4993 -0.0944 -0.0412
14165TIP3    H142452   6.339   3.077   0.134 -0.9589 -0.0149  0.5814
14165TIP3    H242453   6.196   3.071   0.085 -0.2824 -0.5875 -1.4154
14166TIP3   OH242454   1.912   1.631   0.856  0.2632  0.2145  0.7348
14166TIP3    H142455   1.825   1.594   0.868 -0.0291  0.9195  0.8280
14166TIP3    H242456   1.907   1.717   0.896  1.2574 -0.0713  1.5166
14167TIP3   OH242457   3.400   5.354   2.467  0.6819 -0.2394  0.8055
14167TIP3    H142458   3.372   5.343   2.376  0.3167  1.9295  0.6024
14167TIP3    H242459   3.417   5.265   2.498 -1.2857 -1.2245 -0.7157
14168TIP3   OH242460   1.150   0.966   6.689  0.3490  0.2143  0.2727
14168TIP3    H142461   1.170   0.939   6.779  1.9329  0.3276 -0.0182
14168TIP3    H242462   1.212   1.036   6.670 -1.0851  1.3522 -0.3515
14169TIP3   OH242463   4.724   0.107   1.136  0.1795 -0.1092 -0.7496
14169TIP3    H142464   4.751   0.017   1.153 -1.5760 -0.9558 -2.1394
14169TIP3    H242465   4.790   0.141   1.075  0.8640 -0.4255 -0.1973
14170TIP3   OH242466   1.170   3.222   2.376  0.4269  0.3027 -0.5907
14170TIP3    H142467   1.136   3.155   2.435  0.9941  0.3079 -0.2621
14170TIP3    H242468   1.253   3.248   2.414 -0.9941  3.1695  0.8291
14171TIP3   OH242469   0.329   0.136   4.515 -0.2025 -0.0090 -0.1096
14171TIP3    H142470   0.378   0.096   4.443 -1.2321 -1.4492 -0.0561
14171TIP3    H242471   0.255   0.179   4.473  0.1640  0.7048 -0.0446
14172TIP3   OH242472   1.676   0.460   6.104  0.2508  0.0056  0.1826
14172TIP3    H142473   1.607   0.514   6.142 -0.9291 -0.2737 -1.4339
14172TIP3    H242474   1.682   0.384   6.161 -1.2577 -0.2754 -0.0061
14173TIP3   OH242475   1.056   4.412   4.824 -0.4464  0.0082 -0.1746
14173TIP3    H142476   1.091   4.352   4.891 -1.4204 -0.3594  0.0247
14173TIP3    H242477   0.971   4.375   4.802 -1.0061  1.2549 -0.1527
14174TIP3   OH242478   5.647   7.319   3.854 -0.2687 -0.4196  0.9267
14174TIP3    H142479   5.686   7.236   3.882 -0.6608 -1.1228 -0.5246
14174TIP3    H242480   5.674   7.382   3.921  1.0929 -1.4443  1.3883
14175TIP3   OH242481   2.350   6.703   1.015 -0.0794  0.0888 -0.4375
14175TIP3    H142482   2.411   6.732   1.083 -1.0323 -0.9832  0.9351
14175TIP3    H242483   2.290   6.776   1.003  0.2253  0.3678 -0.2831
14176TIP3   OH242484   1.372   1.621   3.890  0.0871 -0.3767 -0.2531
14176TIP3    H142485   1.331   1.675   3.823  0.1641 -0.4174 -0.3339
14176TIP3    H242486   1.384   1.679   3.964 -0.9428 -0.5926  0.0989
14177TIP3   OH242487   5.535   5.161   2.255 -0.3868  0.4686 -0.6270
14177TIP3    H142488   5.541   5.077   2.210 -0.6941  0.0407  0.1133
14177TIP3    H242489   5.622   5.201   2.243  0.2802 -0.6463  0.3465
14178TIP3   OH242490   5.852   3.190   3.729  0.1784  0.6043 -0.3618
14178TIP3    H142491   5.829   3.276   3.764 -0.9177 -0.0304  0.5545
14178TIP3    H242492   5.798   3.181   3.650  0.6267  0.9299 -0.7103
14179TIP3   OH242493   5.871   4.420   3.456  0.2737 -0.0233  0.7730
14179TIP3    H142494   5.949   4.460   3.419 -0.0805  0.1866  0.2294
14179TIP3    H242495   5.817   4.399   3.380 -0.1335 -0.2996  1.1322
14180TIP3   OH242496   4.827   2.706   3.513 -0.2443  0.2045  0.0253
14180TIP3    H142497   4.818   2.801   3.501 -0.7431  0.1747  0.1550
14180TIP3    H242498   4.884   2.679   3.441 -2.4704  0.1670 -1.8490
14181TIP3   OH242499   0.261   0.272   5.390  0.4070 -0.3058  0.2615
14181TIP3    H142500   0.239   0.280   5.297  1.8122  2.5317  0.0561
14181TIP3    H242501   0.180   0.297   5.435 -0.4228 -2.1403 -0.1312
14182TIP3   OH242502   0.609   1.669   1.381  0.1593 -0.8903 -0.4970
14182TIP3    H142503   0.523   1.656   1.342  1.1883 -0.7550 -2.9884
14182TIP3    H242504   0.637   1.581   1.407 -0.8810 -0.8743  0.8162
14183TIP3   OH242505   1.098   2.601   4.908  0.0781 -0.2843 -0.1101
14183TIP3    H142506   1.017   2.550   4.900 -0.6293  0.8656 -0.5324
14183TIP3    H242507   1.149   2.554   4.974  0.2316 -2.4938 -1.6883
14184TIP3   OH242508   2.451   4.730   6.034 -0.3137  0.3965 -0.0237
14184TIP3    H142509   2.454   4.706   6.127 -0.9214 -0.7477 -0.2867
14184TIP3    H242510   2.483   4.820   6.032  0.6204  0.1203  1.1817
14185TIP3   OH242511   4.337   4.875   5.543  0.2822 -0.0100  0.0301
14185TIP3    H142512   4.387   4.795   5.561  0.8531  0.2971 -0.1855
14185TIP3    H242513   4.396   4.946   5.566  0.3371  0.3711 -1.2273
14186TIP3   OH242514   8.219   2.073   4.028  0.3824 -0.0441 -0.2841
14186TIP3    H142515   8.286   2.125   4.074  2.4595 -1.3982 -1.5850
14186TIP3    H242516   8.234   1.983   4.058  0.7536 -0.7154 -2.3338
14187TIP3   OH242517   0.322   3.296   1.126  0.5272  0.3585 -0.3253
14187TIP3    H142518   0.357   3.213   1.158  0.2196 -0.1155 -1.1772
14187TIP3    H242519   0.359   3.305   1.038 -1.2886 -0.0799 -1.1869
14188TIP3   OH242520   2.314   3.460   0.184  0.4292 -0.2294 -0.2799
14188TIP3    H142521   2.286   3.432   0.097 -1.6126  0.4332  0.0923
14188TIP3    H242522   2.337   3.379   0.230 -0.1088 -0.7593 -0.9282
14189TIP3   OH242523   8.266   4.499   5.943 -0.0582  0.3761 -0.7710
14189TIP3    H142524   8.258   4.584   5.987 -1.1335  0.1162 -0.4192
14189TIP3    H242525   8.282   4.521   5.851  2.7714  0.9287 -0.2409
14190TIP3   OH242526   1.852   5.707   6.622  0.3408 -0.0489  0.4145
14190TIP3    H142527   1.865   5.679   6.532 -0.1013  2.2158 -0.4269
14190TIP3    H242528   1.801   5.637   6.662 -0.3919 -0.6319 -1.4131
14191TIP3   OH242529   2.157   7.355   6.597 -0.2092 -0.3807 -0.2297
14191TIP3    H142530   2.196   7.323   6.516  0.1948 -0.7305  0.1030
14191TIP3    H242531   2.229   7.398   6.644 -0.1986 -1.0839  0.4133
14192TIP3   OH242532   1.822   0.457   0.137  0.1988 -0.2025  0.0989
14192TIP3    H142533   1.798   0.441   0.045  1.2193  2.3745 -0.7261
14192TIP3    H242534   1.741   0.491   0.176 -0.3168 -1.5697  0.2676
14193TIP3   OH242535   7.876   0.373   1.572  0.1595  0.9622 -0.0310
14193TIP3    H142536   7.816   0.447   1.585  0.0388  0.8721 -0.0674
14193TIP3    H242537   7.937   0.379   1.645 -2.6922 -1.6638  2.9123
14194TIP3   OH242538   6.471   4.085   0.935 -0.2148  0.0810 -0.0323
14194TIP3    H142539   6.392   4.125   0.898 -0.7635  0.1929  1.1956
14194TIP3    H242540   6.444   4.057   1.023  1.0825  0.0078  0.3591
14195TIP3   OH242541   1.300   2.787   5.592 -0.1204 -0.6423  0.8262
14195TIP3    H142542   1.322   2.746   5.676  1.1143 -0.1898  0.7570
14195TIP3    H242543   1.366   2.754   5.532  0.1337  0.4512  0.4801
14196TIP3   OH242544   5.233   6.351   1.999  0.2252 -0.1745  0.0233
14196TIP3    H142545   5.244   6.348   2.094 -1.2486  0.6767  0.2598
14196TIP3    H242546   5.320   6.332   1.964  1.4189  1.9507  1.5782
14197TIP3   OH242547   3.109   6.064   1.272  0.0754  0.5995  0.3353
14197TIP3    H142548   3.169   6.139   1.280 -1.0445  1.4264  1.3095
14197TIP3    H242549   3.099   6.051   1.178  0.9571  1.1157  0.1577
14198TIP3   OH242550   2.986   1.894   6.601  0.4549 -0.4336 -0.3457
14198TIP3    H142551   2.951   1.892   6.511  0.2752  1.9620 -0.3796
14198TIP3    H242552   2.909   1.884   6.657 -0.0281  2.0324 -0.4619
14199TIP3   OH242553   0.774   5.740   5.585 -0.1273 -0.3288 -0.0745
14199TIP3    H142554   0.850   5.798   5.579 -0.8867  0.7494  0.3755
14199TIP3    H242555   0.806   5.663   5.633  0.0984  1.2400  2.5009
14200TIP3   OH242556   3.824   0.924   4.229  0.2059 -0.6135  0.2477
14200TIP3    H142557   3.813   1.012   4.194  0.4137 -0.5215  0.4117
14200TIP3    H242558   3.736   0.887   4.229  0.1846 -0.5791 -0.2701
14201TIP3   OH242559   2.524   1.254   3.348 -0.0754  0.1435 -0.4277
14201TIP3    H142560   2.443   1.255   3.399  1.6712  0.9719  2.5192
14201TIP3    H242561   2.524   1.339   3.304 -0.5287  0.3780  0.0092
14202TIP3   OH242562   2.028   4.268   5.341  0.0091  0.0238  0.1357
14202TIP3    H142563   1.981   4.346   5.373  0.4312  0.9615 -1.4081
14202TIP3    H242564   2.047   4.288   5.249 -0.3867 -2.1617 -0.4755
14203TIP3   OH242565   0.848   1.896   0.717  0.5900  0.1908 -0.6772
14203TIP3    H142566   0.780   1.954   0.683  0.2199 -0.3164 -0.8168
14203TIP3    H242567   0.894   1.949   0.783 -0.0103  0.5080 -0.5030
14204TIP3   OH242568   2.529   2.882   0.992  0.5144  0.2167 -0.3092
14204TIP3    H142569   2.486   2.958   1.031 -1.5997 -0.5697 -0.9891
14204TIP3    H242570   2.601   2.861   1.052 -0.1823  1.4636  0.9919
14205TIP3   OH242571   5.898   0.429   1.556 -0.3356  0.6876  0.0310
14205TIP3    H142572   5.873   0.500   1.496 -1.0400 -0.4249 -1.0427
14205TIP3    H242573   5.895   0.469   1.643 -0.8025  1.9447 -0.5354
14206TIP3   OH242574   0.831   1.082   2.675 -0.1423  0.0702 -0.2324
14206TIP3    H142575   0.741   1.053   2.692  0.4320 -1.8436 -0.2010
14206TIP3    H242576   0.822   1.171   2.641 -1.9359  0.4989  1.2229
14207TIP3   OH242577   7.455   7.630   2.434 -0.2793  0.0140  0.2089
14207TIP3    H142578   7.413   7.666   2.356 -2.0272  1.4912  1.7175
14207TIP3    H242579   7.409   7.672   2.507  2.1078 -0.3302  2.0394
14208TIP3   OH242580   7.079   5.728   1.379 -0.0307  0.8079  0.7034
14208TIP3    H142581   7.133   5.674   1.438 -1.6457 -0.1241  1.3972
14208TIP3    H242582   7.128   5.729   1.297 -0.4064 -2.7198  0.2855
14209TIP3   OH242583   5.497   2.863   4.548 -0.4125 -0.5382  0.5603
14209TIP3    H142584   5.495   2.929   4.478  1.8509 -1.7477 -0.7609
14209TIP3    H242585   5.488   2.913   4.629 -0.3969  1.2061 -0.4687
14210TIP3   OH242586   7.284   4.412   1.532  0.3979 -0.3253 -0.0107
14210TIP3    H142587   7.249   4.324   1.524  1.6265 -0.8407  0.1107
14210TIP3    H242588   7.361   4.413   1.474  2.3470 -0.3877  2.4018
14211TIP3   OH242589   6.063   5.288   4.593  0.6623  0.3187  0.0329
14211TIP3    H142590   6.067   5.199   4.628  2.2206  0.8752  1.3874
14211TIP3    H242591   6.147   5.300   4.549  0.4478  1.1082 -0.1832
14212TIP3   OH242592   6.396   0.143   5.550 -0.0282 -0.3645  0.1067
14212TIP3    H142593   6.389   0.194   5.469 -2.4122 -0.2162  0.3126
14212TIP3    H242594   6.453   0.194   5.607  2.5660 -0.9627 -1.7556
14213TIP3   OH242595   8.298   2.087   0.108 -0.0894  0.2961 -0.0957
14213TIP3    H142596   8.276   2.153   0.042 -0.2011  1.1919  0.8098
14213TIP3    H242597   8.231   2.020   0.098 -1.1036  1.2343  0.2054
14214TIP3   OH242598   4.109   7.501   6.445 -0.0439  0.0152 -0.2037
14214TIP3    H142599   4.170   7.433   6.415  1.0274  1.2257 -0.9293
14214TIP3    H242600   4.082   7.545   6.364  2.0534  2.6637  0.3839
14215TIP3   OH242601   5.884   5.183   5.298 -0.0546 -0.0287  0.1687
14215TIP3    H142602   5.931   5.136   5.229  1.1461  1.1195  0.1560
14215TIP3    H242603   5.888   5.275   5.270 -1.0348  0.2546  0.9266
14216TIP3   OH242604   5.368   4.259   5.081 -0.4572 -0.4896 -1.0047
14216TIP3    H142605   5.404   4.199   5.016 -0.0113  0.5625 -1.7511
14216TIP3    H242606   5.364   4.208   5.162  3.3576 -0.5285 -0.6701
14217TIP3   OH242607   4.676   2.620   4.654 -0.1146 -0.5922 -0.5510
14217TIP3    H142608   4.681   2.582   4.742  1.0960 -1.6436 -1.0331
14217TIP3    H242609   4.583   2.638   4.640 -0.2192  0.5201  1.2981
14218TIP3   OH242610   6.114   4.853   4.851  0.4549 -0.3433  0.0276
14218TIP3    H142611   6.037   4.798   4.866  1.6821 -2.0555  0.3715
14218TIP3    H242612   6.113   4.917   4.922  0.6314 -1.8861  1.4786
14219TIP3   OH242613   3.072   2.375   6.029 -1.2006  0.1543 -0.0634
14219TIP3    H142614   3.078   2.282   6.008 -1.2193  0.0776  0.2623
14219TIP3    H242615   3.117   2.384   6.113  1.1948  0.9130 -1.3659
14220TIP3   OH242616   4.641   0.936   4.813 -0.1586 -0.4521  0.5576
14220TIP3    H142617   4.578   0.864   4.808  0.4821 -1.1190  1.5656
14220TIP3    H242618   4.597   1.004   4.864 -0.4382 -0.4919  0.3715
14221TIP3   OH242619   1.964   1.352   2.454 -0.1623  0.6139  0.0336
14221TIP3    H142620   2.018   1.420   2.415 -1.7590  0.7739 -2.1494
14221TIP3    H242621   1.969   1.279   2.392 -2.9803  0.9347 -0.7099
14222TIP3   OH242622   7.599   3.057   1.721  0.2654  0.3464 -0.4765
14222TIP3    H142623   7.694   3.063   1.725  0.3427 -0.4031 -0.8942
14222TIP3    H242624   7.579   3.053   1.627 -0.3615  2.7603 -0.5186
14223TIP3   OH242625   0.578   1.660   3.488  0.0368  0.3415  0.1274
14223TIP3    H142626   0.521   1.707   3.549  1.8392  1.7711  0.8122
14223TIP3    H242627   0.593   1.575   3.530 -0.0713  0.6800  0.8647
14224TIP3   OH242628   3.983   7.597   5.570 -0.0151 -0.4594 -0.4640
14224TIP3    H142629   4.007   7.509   5.540 -1.2064 -0.5631 -1.1610
14224TIP3    H242630   3.902   7.617   5.524 -0.2108  0.6721  0.3296
14225TIP3   OH242631   0.329   7.111   5.541  0.2013 -0.3759 -0.1600
14225TIP3    H142632   0.281   7.135   5.461  1.5582  0.0566 -0.8790
14225TIP3    H242633   0.285   7.159   5.610  0.2824  0.9350 -0.9784
14226TIP3   OH242634   2.597   4.197   6.479  0.6360  0.4567 -0.4093
14226TIP3    H142635   2.670   4.140   6.456  0.2960 -0.5594  0.9161
14226TIP3    H242636   2.621   4.235   6.563  1.1543  2.8527 -1.5708
14227TIP3   OH242637   6.614   4.720   5.426 -0.4007  0.0418  0.3042
14227TIP3    H142638   6.633   4.731   5.333  0.5831 -2.6676  0.0727
14227TIP3    H242639   6.651   4.797   5.468  0.4316  0.6276 -1.4144
14228TIP3   OH242640   6.320   6.510   6.695 -0.1005 -0.2690  0.2640
14228TIP3    H142641   6.305   6.432   6.749  0.3055 -0.5923 -0.0882
14228TIP3    H242642   6.319   6.582   6.757 -0.7603 -0.5227  0.5597
14229TIP3   OH242643   6.971   5.393   0.808  0.7759  0.0787  0.3738
14229TIP3    H142644   7.039   5.394   0.875  1.5841 -2.1191 -0.3276
14229TIP3    H242645   6.985   5.311   0.761 -0.8427  0.7377 -1.3841
14230TIP3   OH242646   6.719   7.767   1.585  0.4860 -0.9253 -0.2174
14230TIP3    H142647   6.743   7.822   1.510  0.5349 -1.1303 -0.3526
14230TIP3    H242648   6.802   7.729   1.614  0.4007 -1.2134 -0.3509
14231TIP3   OH242649   7.043   5.342   3.268  0.2192 -0.1178  0.0970
14231TIP3    H142650   7.085   5.373   3.187 -0.5415  1.0977  0.1437
14231TIP3    H242651   7.021   5.422   3.315 -0.0219 -0.8013  1.1774
14232TIP3   OH242652   3.912   4.983   6.264  0.1558 -0.1015  0.0043
14232TIP3    H142653   3.878   4.959   6.350 -1.1002 -0.9913 -0.6956
14232TIP3    H242654   3.961   5.064   6.278 -2.1926  1.2143  1.1379
14233TIP3   OH242655   1.864   2.118   2.636  0.5030  0.3092 -0.1798
14233TIP3    H142656   1.854   2.106   2.541  0.4067  0.9355 -0.2557
14233TIP3    H242657   1.911   2.201   2.645  0.1548  0.4590  0.3292
14234TIP3   OH242658   5.749   0.850   5.211  0.2181  0.2630 -0.2672
14234TIP3    H142659   5.796   0.768   5.220 -0.6679 -0.1379  0.8793
14234TIP3    H242660   5.666   0.837   5.258 -0.4417  1.4168 -1.0373
14235TIP3   OH242661   3.554   5.651   5.917  0.1784 -0.1031  0.0649
14235TIP3    H142662   3.628   5.683   5.866 -0.1298  0.3426 -0.1144
14235TIP3    H242663   3.492   5.724   5.917 -1.0041 -1.0693 -1.2181
14236TIP3   OH242664   0.927   6.094   2.871 -0.3524  0.4887  0.0856
14236TIP3    H142665   0.971   6.037   2.808  0.6450 -0.1517  1.3190
14236TIP3    H242666   0.873   6.152   2.818 -2.0692 -2.0964 -1.2481
14237TIP3   OH242667   7.671   1.140   5.824  0.8396  0.0312 -0.0864
14237TIP3    H142668   7.576   1.137   5.813  0.6973 -0.1000  1.0506
14237TIP3    H242669   7.706   1.118   5.738 -0.1424  1.9395 -1.0251
14238TIP3   OH242670   5.489   0.750   5.553  0.6276  0.3370 -0.0643
14238TIP3    H142671   5.515   0.697   5.629 -1.2403  0.9942  1.1090
14238TIP3    H242672   5.556   0.817   5.547  1.7091 -0.7071 -0.0633
14239TIP3   OH242673   0.550   3.763   2.742  0.4729  0.2247  0.1198
14239TIP3    H142674   0.604   3.769   2.663 -1.1373  0.5835 -1.0141
14239TIP3    H242675   0.460   3.770   2.710 -0.3001 -0.8826  1.8627
14240TIP3   OH242676   3.950   1.932   0.165  0.1616  0.0017 -0.2744
14240TIP3    H142677   3.950   2.008   0.107  0.8832 -0.9943 -1.6257
14240TIP3    H242678   4.042   1.918   0.187  0.0707 -0.6308 -0.2596
14241TIP3   OH242679   5.196   7.645   1.948  0.1244 -0.0730 -0.3363
14241TIP3    H142680   5.246   7.670   1.870  0.6304  0.7192  0.2233
14241TIP3    H242681   5.262   7.642   2.018 -0.2891 -0.9622  0.0261
14242TIP3   OH242682   4.836   3.556   3.161  0.0524  0.4263  0.4301
14242TIP3    H142683   4.747   3.534   3.136  0.0329  1.0873 -0.0890
14242TIP3    H242684   4.853   3.641   3.121  0.7088  0.5853  1.0175
14243TIP3   OH242685   3.390   5.182   5.796 -0.4880  0.7215 -0.0835
14243TIP3    H142686   3.463   5.121   5.800 -0.5295  0.6919  0.2970
14243TIP3    H242687   3.431   5.269   5.796 -0.4562  0.7118  0.4406
14244TIP3   OH242688   0.429   3.083   1.405  0.7705 -0.1450 -0.0098
14244TIP3    H142689   0.504   3.093   1.462  1.1388  1.8309 -0.7523
14244TIP3    H242690   0.463   3.039   1.327  1.2339  0.9026 -0.4183
14245TIP3   OH242691   5.602   5.757   2.982  0.2122 -0.0458  0.1936
14245TIP3    H142692   5.537   5.687   2.992  0.1946 -0.3889 -1.9747
14245TIP3    H242693   5.557   5.825   2.933  0.4011  1.3177  1.8341
14246TIP3   OH242694   5.296   6.124   0.048 -0.4476  0.5033  0.0679
14246TIP3    H142695   5.347   6.147  -0.029 -1.3902 -0.3290 -0.8311
14246TIP3    H242696   5.361   6.101   0.115  0.3682  0.8790 -0.5900
14247TIP3   OH242697   3.196   2.217   3.490 -0.6570  0.9216 -0.5134
14247TIP3    H142698   3.110   2.249   3.464 -0.1764  2.8596  0.1238
14247TIP3    H242699   3.252   2.233   3.414 -0.7748 -0.1344 -0.8465
14248TIP3   OH242700   3.690   5.965   5.501  0.0427 -0.0273 -0.6721
14248TIP3    H142701   3.702   5.957   5.406  0.4842 -0.6683 -0.5699
14248TIP3    H242702   3.598   5.990   5.511  1.0770  5.3299 -1.4874
14249TIP3   OH242703   3.203   6.433   5.218  0.4823 -0.4590 -0.0870
14249TIP3    H142704   3.227   6.341   5.206  0.5489 -0.5976  0.9709
14249TIP3    H242705   3.108   6.432   5.229  0.4617 -0.3797 -0.2569
14250TIP3   OH242706   1.016   5.429   2.418  0.2269 -0.0119  0.5286
14250TIP3    H142707   1.110   5.444   2.419  0.4012 -0.9432 -0.2674
14250TIP3    H242708   1.006   5.341   2.381 -0.9513  0.0602  0.6340
14251TIP3   OH242709   3.054   5.556   2.789  0.0790  0.0186 -0.7086
14251TIP3    H142710   3.138   5.541   2.833 -0.0345  0.1144 -0.4559
14251TIP3    H242711   3.049   5.487   2.722 -0.3042 -0.9076  0.2389
14252TIP3   OH242712   6.388   7.725   1.703 -0.6555  0.2131 -0.3748
14252TIP3    H142713   6.382   7.663   1.776 -0.2556  1.2798  0.6022
14252TIP3    H242714   6.424   7.674   1.631 -0.2597 -0.6685  0.4248
14253TIP3   OH242715   0.354   6.686   5.241 -0.3701 -0.4572  0.1896
14253TIP3    H142716   0.269   6.684   5.285 -1.7033 -0.5325 -2.2036
14253TIP3    H242717   0.359   6.773   5.202  1.0704 -0.1525  0.9615
14254TIP3   OH242718   1.003   0.578   0.747  0.5328  0.2430 -0.4786
14254TIP3    H142719   1.088   0.557   0.785 -0.0518  0.3652  0.9639
14254TIP3    H242720   1.003   0.674   0.741 -0.4619  0.4587  1.9903
14255TIP3   OH242721   7.244   1.511   3.565 -0.3893  0.9960 -0.3290
14255TIP3    H142722   7.235   1.562   3.484 -1.5036  0.4550 -0.5714
14255TIP3    H242723   7.313   1.448   3.546 -0.9832  0.5490 -1.0499
14256TIP3   OH242724   3.461   4.339   1.434  0.3982 -1.2252  0.3611
14256TIP3    H142725   3.465   4.318   1.341 -0.6057  0.2869 -0.0505
14256TIP3    H242726   3.368   4.353   1.452  0.7667  0.4966  1.1132
14257TIP3   OH242727   3.033   1.205   6.109  0.0452 -0.0912  0.4208
14257TIP3    H142728   2.948   1.193   6.066 -0.1447  1.1059  0.4252
14257TIP3    H242729   3.082   1.126   6.088 -1.0173 -0.7424  0.2935
14258TIP3   OH242730   7.110   6.991   3.297  0.0992 -0.7917 -0.0701
14258TIP3    H142731   7.203   6.997   3.276  0.2939  0.6965  1.0554
14258TIP3    H242732   7.108   6.978   3.392 -0.8318 -2.1449 -0.2557
14259TIP3   OH242733   4.005   5.984   2.306 -0.0391  0.1164 -0.0016
14259TIP3    H142734   4.062   5.987   2.383 -0.1749  1.6586  0.0871
14259TIP3    H242735   4.010   6.073   2.271 -0.5138 -0.3842 -1.3857
14260TIP3   OH242736   2.274   6.292   1.344  0.1715 -0.2501  0.3298
14260TIP3    H142737   2.236   6.216   1.388  1.5385 -0.9371  0.3731
14260TIP3    H242738   2.202   6.327   1.291 -0.7769 -0.9276  1.1328
14261TIP3   OH242739   7.975   5.772   3.883  0.2752 -0.6345 -0.3517
14261TIP3    H142740   7.960   5.864   3.862 -0.0508 -0.4229  0.7232
14261TIP3    H242741   8.068   5.759   3.868  0.6728  0.3355  1.0779
14262TIP3   OH242742   8.172   2.011   2.573  0.3321 -0.2872 -0.0626
14262TIP3    H142743   8.095   2.050   2.614 -0.9448 -2.6192 -0.0548
14262TIP3    H242744   8.209   2.081   2.518 -0.6155  1.4713  1.4331
14263TIP3   OH242745   5.188   5.218   5.762  0.2321 -0.2729  0.0752
14263TIP3    H142746   5.260   5.262   5.808 -0.0031 -0.8487  1.0309
14263TIP3    H242747   5.217   5.214   5.671  0.9065  0.5228  0.2330
14264TIP3   OH242748   5.919   7.650   3.993 -0.1595  0.4182  0.5827
14264TIP3    H142749   5.987   7.717   3.994 -1.9394  2.3959 -0.7477
14264TIP3    H242750   5.869   7.665   4.073 -0.2329  0.3082  0.5582
14265TIP3   OH242751   0.312   4.366   6.185  0.0516  0.0573 -0.0105
14265TIP3    H142752   0.327   4.330   6.272  1.3444  1.1560  0.2599
14265TIP3    H242753   0.224   4.403   6.189  0.2187  0.3883  0.9597
14266TIP3   OH242754   2.154   4.959   2.197  0.0978 -0.6648  0.6610
14266TIP3    H142755   2.175   5.034   2.252 -0.8219  0.4506 -0.4453
14266TIP3    H242756   2.061   4.945   2.210 -0.6778  1.0082 -2.1016
14267TIP3   OH242757   0.082   7.067   4.270 -0.2127  0.1407 -0.7582
14267TIP3    H142758   0.152   7.020   4.315 -0.4206  1.6790  1.2822
14267TIP3    H242759   0.120   7.151   4.246 -0.5151 -0.1337 -2.3649
14268TIP3   OH242760   0.563   0.998   5.822  0.3525 -0.1912  0.0691
14268TIP3    H142761   0.592   0.929   5.762  0.0634 -0.5709  0.3621
14268TIP3    H242762   0.583   0.965   5.909 -0.7475 -0.3738  0.2685
14269TIP3   OH242763   3.098   6.532   6.122 -0.1130 -0.2856  0.4695
14269TIP3    H142764   3.174   6.578   6.158  0.6477 -0.7969 -0.4341
14269TIP3    H242765   3.023   6.582   6.153  0.5730  0.0827  1.6115
14270TIP3   OH242766   5.797   4.959   4.454 -0.3225 -0.7100  0.0917
14270TIP3    H142767   5.724   4.939   4.396  0.4932 -2.0482 -0.5534
14270TIP3    H242768   5.874   4.954   4.397  0.5726 -2.7093  1.3613
14271TIP3   OH242769   7.861   3.639   4.756 -0.2077  0.0386  0.0329
14271TIP3    H142770   7.923   3.683   4.815  1.0413 -1.9862  0.3199
14271TIP3    H242771   7.777   3.645   4.802 -0.2867  2.7506 -0.3176
14272TIP3   OH242772   5.430   0.527   0.536 -0.3625 -0.0548 -0.2062
14272TIP3    H142773   5.470   0.536   0.622 -2.0916  1.2225  0.5202
14272TIP3    H242774   5.457   0.606   0.489  1.0915 -1.0342 -1.1318
14273TIP3   OH242775   6.726   1.154   3.710 -0.0426  0.2586  0.1837
14273TIP3    H142776   6.680   1.237   3.718 -1.3958 -0.5489  1.1599
14273TIP3    H242777   6.721   1.133   3.617 -1.0479  0.5328  0.1637
14274TIP3   OH242778   0.636   3.333   5.490  0.5155 -0.2825  0.4455
14274TIP3    H142779   0.699   3.362   5.425 -0.6167 -0.1966 -0.6490
14274TIP3    H242780   0.689   3.300   5.562  1.8015 -0.3673 -0.5096
14275TIP3   OH242781   0.854   1.244   1.222  0.4627  0.6598 -0.2084
14275TIP3    H142782   0.773   1.222   1.175  0.0595  1.9037 -0.1222
14275TIP3    H242783   0.875   1.165   1.272 -0.4814  0.1916 -0.5346
14276TIP3   OH242784   4.140   6.653   4.457 -0.0422  0.3036  0.0751
14276TIP3    H142785   4.171   6.682   4.372 -2.4625 -1.7208 -1.6419
14276TIP3    H242786   4.196   6.578   4.479 -1.7993 -1.6572 -1.7303
14277TIP3   OH242787   1.407   0.447   2.512 -0.1862 -0.5177  0.2683
14277TIP3    H142788   1.410   0.436   2.607  2.6898 -2.5717  0.0880
14277TIP3    H242789   1.401   0.357   2.478  2.1199 -0.1059 -1.4388
14278TIP3   OH242790   4.488   2.985   5.009 -0.0546 -0.0339 -0.1491
14278TIP3    H142791   4.491   2.891   4.992  0.9568  0.0843 -0.7096
14278TIP3    H242792   4.574   3.017   4.982 -1.0036  1.3519 -1.7179
14279TIP3   OH242793   6.788   3.730   4.131  0.0136  0.5750 -0.2315
14279TIP3    H142794   6.787   3.667   4.203 -1.7639  1.0559  0.2108
14279TIP3    H242795   6.850   3.797   4.160  1.9908 -0.9317 -0.7436
14280TIP3   OH242796   2.296   7.837   1.654  0.4651  0.0816  0.7844
14280TIP3    H142797   2.372   7.799   1.610 -0.4909 -0.7180 -0.2348
14280TIP3    H242798   2.263   7.766   1.709 -1.1886 -0.5565 -0.9412
14281TIP3   OH242799   0.598   4.195   3.210  0.3431 -0.2959  0.4711
14281TIP3    H142800   0.688   4.222   3.195  0.2848  0.3049  1.1601
14281TIP3    H242801   0.601   4.146   3.292 -0.5064  2.9800  2.6667
14282TIP3   OH242802   6.970   3.728   1.734 -0.1371  0.0166  0.6627
14282TIP3    H142803   6.958   3.692   1.646  0.1205  0.6601  0.3601
14282TIP3    H242804   7.057   3.768   1.732 -0.8313  1.5607  0.6685
14283TIP3   OH242805   0.003   5.735   2.405  0.2431  0.1795  0.4460
14283TIP3    H142806   0.068   5.708   2.470  1.6649 -0.7437 -1.2786
14283TIP3    H242807  -0.026   5.654   2.364  0.7975  0.8246 -1.3489
14284TIP3   OH242808   4.958   2.387   4.755 -0.1421 -0.1672 -0.6035
14284TIP3    H142809   4.872   2.398   4.797 -0.1609  0.1819 -0.7313
14284TIP3    H242810   5.006   2.467   4.778  0.5086 -0.7954  0.3064
14285TIP3   OH242811   8.262   0.775   1.687  0.0139 -0.0412 -0.4770
14285TIP3    H142812   8.226   0.698   1.642 -0.3390 -0.5910  0.7227
14285TIP3    H242813   8.215   0.779   1.770  0.2039  1.3377 -0.4099
14286TIP3   OH242814   2.860   2.875   6.729 -0.3143 -0.0411 -0.2149
14286TIP3    H142815   2.936   2.889   6.786  1.0515  0.5290 -2.0850
14286TIP3    H242816   2.785   2.899   6.783  1.0831  2.8701  0.5981
14287TIP3   OH242817   4.310   0.487   2.680 -0.4795 -0.3160 -0.8697
14287TIP3    H142818   4.332   0.411   2.626  0.2458 -0.9189  0.2270
14287TIP3    H242819   4.388   0.543   2.674 -0.6334 -0.1068 -0.9172
14288TIP3   OH242820   4.164   5.051   4.731 -0.5271  0.4516 -0.2365
14288TIP3    H142821   4.098   4.983   4.745  0.0388  0.0544  0.6141
14288TIP3    H242822   4.139   5.122   4.790 -0.7731  0.7367 -0.6776
14289TIP3   OH242823   0.818   2.102   4.394  0.5053  0.1550 -0.6593
14289TIP3    H142824   0.843   2.120   4.303 -0.3430  0.7111 -0.7955
14289TIP3    H242825   0.741   2.156   4.409  0.2430 -0.4300  0.1959
14290TIP3   OH242826   3.387   0.886   0.068 -0.3376  0.8788  1.1498
14290TIP3    H142827   3.376   0.951   0.138 -1.8119  0.4983  1.3074
14290TIP3    H242828   3.307   0.833   0.072  0.0026  0.2250 -0.1777
14291TIP3   OH242829   5.924   2.814   3.234 -0.5518 -0.6862  0.1499
14291TIP3    H142830   5.955   2.876   3.299  0.2550  0.1895 -1.0368
14291TIP3    H242831   5.993   2.748   3.229  0.4004  0.3811 -1.3080
14292TIP3   OH242832   3.833   7.002   1.076  0.3353  0.3018  0.1187
14292TIP3    H142833   3.821   6.990   1.170  0.5176 -0.1673  0.0852
14292TIP3    H242834   3.878   6.923   1.047 -0.7706 -0.0859 -0.5755
14293TIP3   OH242835   4.924   0.386   3.432  0.6902  0.3521  0.0414
14293TIP3    H142836   4.960   0.322   3.494 -1.0980 -0.2573  0.5204
14293TIP3    H242837   4.921   0.468   3.481 -2.6053 -0.5329  1.6496
14294TIP3   OH242838   3.320   5.925   3.064  0.2361  0.7290  0.2292
14294TIP3    H142839   3.319   5.857   2.996 -0.8930 -0.1080  1.0525
14294TIP3    H242840   3.413   5.944   3.076  0.4540  1.7912 -2.3889
14295TIP3   OH242841   3.239   3.895   1.452  0.5544  0.8501 -0.2558
14295TIP3    H142842   3.263   3.906   1.544 -1.3713  0.0579  0.3808
14295TIP3    H242843   3.280   3.813   1.425  1.2449  1.1608 -0.1662
14296TIP3   OH242844   7.259   0.500   4.171 -0.8103  0.2329 -0.4560
14296TIP3    H142845   7.246   0.441   4.096 -1.7036 -0.3968  0.1654
14296TIP3    H242846   7.273   0.586   4.132 -0.2304 -0.2605 -1.3720
14297TIP3   OH242847   6.083   0.887   4.261  0.2595  0.1034  0.6580
14297TIP3    H142848   6.082   0.940   4.181  0.2750 -2.5562 -1.2538
14297TIP3    H242849   6.001   0.909   4.306  0.0771  1.4156 -0.2749
14298TIP3   OH242850   6.768   6.264   2.826  0.2514  0.2179  0.2220
14298TIP3    H142851   6.792   6.216   2.746 -1.1696  0.2815 -0.2709
14298TIP3    H242852   6.690   6.313   2.802  1.0950  2.0422  1.0125
14299TIP3   OH242853   5.890   4.318   1.052 -0.3487  0.4857 -0.2554
14299TIP3    H142854   5.917   4.233   1.016  1.0809  1.0635 -0.5948
14299TIP3    H242855   5.865   4.298   1.142 -1.3866 -0.5180 -0.7269
14300TIP3   OH242856   6.605   1.993   2.882 -0.1005  0.1490 -0.1130
14300TIP3    H142857   6.647   2.011   2.966 -0.5337 -0.3993  0.2271
14300TIP3    H242858   6.654   2.046   2.819  1.1015 -0.4484  0.2737
14301TIP3   OH242859   2.623   5.362   4.833 -0.7248 -0.2992  0.3034
14301TIP3    H142860   2.554   5.415   4.872  1.1442  1.5478  1.2860
14301TIP3    H242861   2.665   5.421   4.769 -0.0443 -1.3665 -0.2657
14302TIP3   OH242862   1.320   5.121   2.446  0.4620 -0.3124 -0.0412
14302TIP3    H142863   1.264   5.095   2.519 -0.5765  0.2940 -0.6014
14302TIP3    H242864   1.407   5.131   2.485  0.0671 -0.6876  0.9662
14303TIP3   OH242865   1.263   5.649   0.212  0.7120  0.1448 -0.3915
14303TIP3    H142866   1.220   5.570   0.246  0.5963  0.0896 -0.6667
14303TIP3    H242867   1.192   5.710   0.195  0.7716  0.1822 -0.5078
14304TIP3   OH242868   8.152   5.647   1.869  0.3623  0.6323  0.0132
14304TIP3    H142869   8.200   5.659   1.951 -0.9654 -3.2575  1.5653
14304TIP3    H242870   8.208   5.590   1.816 -0.3939  0.0453 -0.1800
14305TIP3   OH242871   4.199   1.595   3.625  0.6655  0.6965 -0.1339
14305TIP3    H142872   4.287   1.621   3.653 -0.6005  1.9566  3.1844
14305TIP3    H242873   4.170   1.535   3.694 -1.0033  0.1345 -1.2839
14306TIP3   OH242874   8.158   0.695   1.995 -0.0532 -0.1596  0.1939
14306TIP3    H142875   8.137   0.788   2.004 -0.6962 -0.2614 -0.2356
14306TIP3    H242876   8.110   0.653   2.066 -3.3235 -0.6846 -2.1187
14307TIP3   OH242877   0.041   0.121   4.096  0.2223 -0.0161 -0.2858
14307TIP3    H142878   0.004   0.135   4.009 -1.2481 -1.0035  0.1443
14307TIP3    H242879   0.025   0.029   4.115  1.1667  0.0106  0.7395
14308TIP3   OH242880   5.632   3.877   6.269 -0.0695  0.0696 -0.0269
14308TIP3    H142881   5.630   3.942   6.339  1.1152  0.8275 -0.6706
14308TIP3    H242882   5.600   3.797   6.311 -1.0823  0.9261  0.9047
14309TIP3   OH242883   1.426   4.492   0.610  0.1867 -0.1204  0.0576
14309TIP3    H142884   1.440   4.409   0.655 -3.3451 -0.2138  1.3385
14309TIP3    H242885   1.330   4.498   0.602  0.3659  3.3640 -0.9062
14310TIP3   OH242886   1.333   5.177   5.875  0.2185 -0.1211  0.3439
14310TIP3    H142887   1.292   5.258   5.844  1.4601  0.6620  0.6582
14310TIP3    H242888   1.272   5.108   5.850 -0.0041  0.7123 -1.6054
14311TIP3   OH242889   2.408   0.550   3.477 -0.0596  0.4550 -0.1406
14311TIP3    H142890   2.420   0.505   3.560 -0.4162 -2.0300 -1.3356
14311TIP3    H242891   2.323   0.592   3.483 -0.8713 -1.1665  0.1712
14312TIP3   OH242892   2.766   3.439   2.211  0.1829 -0.1247 -0.3390
14312TIP3    H142893   2.817   3.455   2.290  1.1571 -2.3246 -0.4545
14312TIP3    H242894   2.705   3.370   2.236 -0.8630  0.5438 -0.9893
14313TIP3   OH242895   7.534   7.355   0.205  0.2987  0.3709  0.0501
14313TIP3    H142896   7.615   7.306   0.187  0.2230  0.6178 -1.0338
14313TIP3    H242897   7.539   7.431   0.146 -1.3454 -0.3058 -1.0054
14314TIP3   OH242898   6.827   6.575   4.780 -0.1413 -0.0087 -0.1121
14314TIP3    H142899   6.835   6.635   4.854 -0.8731  0.0402 -0.0590
14314TIP3    H242900   6.743   6.530   4.795  0.7100 -1.5639  0.2205
14315TIP3   OH242901   2.389   4.924   4.623  0.3352 -0.2415 -0.5845
14315TIP3    H142902   2.453   4.871   4.576  1.0134 -1.4828  1.6447
14315TIP3    H242903   2.441   4.990   4.668 -0.2434  0.4598 -0.9206
14316TIP3   OH242904   7.148   6.553   0.917 -0.6649  0.2045  0.1479
14316TIP3    H142905   7.218   6.498   0.951  0.0224  1.1307  0.2850
14316TIP3    H242906   7.102   6.498   0.854  0.5281 -0.2569 -0.3445
14317TIP3   OH242907   7.634   0.512   1.733  0.1342 -0.3220  0.0828
14317TIP3    H142908   7.611   0.594   1.777 -0.6304  0.2620 -1.3077
14317TIP3    H242909   7.625   0.533   1.640 -1.3785 -2.3387 -0.2934
14318TIP3   OH242910   0.718   5.517   0.655  0.6002  0.6081 -0.3726
14318TIP3    H142911   0.811   5.536   0.645  1.1129 -0.9807  0.9438
14318TIP3    H242912   0.687   5.497   0.567  2.2740 -1.9590 -0.4601
14319TIP3   OH242913   5.829   5.889   6.085 -0.1423  0.1291 -0.0542
14319TIP3    H142914   5.801   5.799   6.073 -4.2473  0.6316  3.3141
14319TIP3    H242915   5.877   5.888   6.168  2.0957  0.7884 -1.2535
14320TIP3   OH242916   2.781   4.937   6.273  0.2554  0.0164  0.0537
14320TIP3    H142917   2.780   4.843   6.288 -1.2072  0.2406  1.6175
14320TIP3    H242918   2.753   4.947   6.182 -2.4857 -0.9778  0.7039
14321TIP3   OH242919   5.931   6.661   0.373  0.2585  0.0297  0.0505
14321TIP3    H142920   5.966   6.592   0.429 -0.8739 -0.6300 -0.0299
14321TIP3    H242921   5.935   6.741   0.426  1.2521 -0.1531  0.2681
14322TIP3   OH242922   3.921   5.340   1.424  0.2831  0.3514  0.4442
14322TIP3    H142923   3.902   5.373   1.336  0.1243  0.5546  0.5549
14322TIP3    H242924   3.844   5.362   1.476 -1.0945 -2.6566 -0.1089
14323TIP3   OH242925   2.621   3.824   4.310 -0.0395 -0.2287 -0.0351
14323TIP3    H142926   2.644   3.752   4.369  1.3994  1.0158  0.9958
14323TIP3    H242927   2.691   3.825   4.244 -0.6234 -0.4222 -0.6664
14324TIP3   OH242928   4.358   7.789   1.734 -0.1523 -0.2949  0.1019
14324TIP3    H142929   4.447   7.756   1.719  0.6446  2.1745 -1.1650
14324TIP3    H242930   4.369   7.856   1.802 -0.9090  0.4028 -0.4376
14325TIP3   OH242931   5.933   0.443   4.208 -0.0614  0.0596 -0.5895
14325TIP3    H142932   5.882   0.482   4.279  0.0960  0.3187 -0.6145
14325TIP3    H242933   5.945   0.515   4.146  0.4890  0.0475 -0.4978
14326TIP3   OH242934   7.351   6.507   1.310  0.4054  0.1541  0.2771
14326TIP3    H142935   7.393   6.483   1.227 -0.1642 -1.5670  0.4312
14326TIP3    H242936   7.390   6.448   1.374 -0.8651 -0.1836  0.7689
14327TIP3   OH242937   4.345   0.261   4.677  0.2790  0.8307 -0.3199
14327TIP3    H142938   4.392   0.212   4.744  0.2909  1.2961  0.0174
14327TIP3    H242939   4.253   0.244   4.694  0.3171 -0.2579 -1.1153
14328TIP3   OH242940   2.553   5.081   4.778  0.2843  0.5673  0.2600
14328TIP3    H142941   2.520   5.077   4.868  0.6164 -1.1140  0.3424
14328TIP3    H242942   2.603   5.163   4.774 -0.1941  0.9342  1.4389
14329TIP3   OH242943   4.607   1.800   2.672 -0.3021 -0.0529 -0.4218
14329TIP3    H142944   4.692   1.818   2.631  1.0218 -1.1117  1.6957
14329TIP3    H242945   4.590   1.708   2.650 -1.1021  0.2437 -1.1064
14330TIP3   OH242946   7.964   3.789   4.970 -0.1671  0.6914 -0.4452
14330TIP3    H142947   7.881   3.795   5.018 -0.4481  2.5824 -1.0439
14330TIP3    H242948   8.021   3.854   5.011  0.4033  0.6530 -1.1469
14331TIP3   OH242949   3.596   5.253   1.664 -0.3972 -0.3727  0.6146
14331TIP3    H142950   3.602   5.346   1.689 -0.6246 -0.3098  0.4345
14331TIP3    H242951   3.583   5.254   1.569  0.7044 -0.6212  0.4472
14332TIP3   OH242952   7.984   6.551   5.252  0.3387 -0.0386 -0.0562
14332TIP3    H142953   8.036   6.575   5.175  0.8248 -1.4917 -0.1982
14332TIP3    H242954   8.044   6.558   5.326 -0.1377  1.3903  0.2421
14333TIP3   OH242955   1.019   5.997   6.585 -0.2376  0.5625  0.6069
14333TIP3    H142956   1.074   6.072   6.565 -1.0155  0.6637 -1.4916
14333TIP3    H242957   1.053   5.926   6.530 -2.5467  0.8512 -1.4166
14334TIP3   OH242958   1.093   3.165   5.420  0.2263  0.1316  0.0157
14334TIP3    H142959   1.079   3.089   5.363  2.4878 -0.0935 -0.3204
14334TIP3    H242960   1.126   3.127   5.502 -1.7935  0.5504  1.0828
14335TIP3   OH242961   1.669   0.145   0.846 -0.2810 -0.6337  0.0824
14335TIP3    H142962   1.710   0.198   0.914 -1.5882 -0.4578  0.7726
14335TIP3    H242963   1.621   0.208   0.792  0.8682 -0.7531 -1.1277
14336TIP3   OH242964   6.221   2.312   5.043  0.1181  0.9417  0.5391
14336TIP3    H142965   6.142   2.301   5.096 -0.0786  0.8047  0.2206
14336TIP3    H242966   6.293   2.293   5.103 -0.1733 -2.0940  0.0784
14337TIP3   OH242967   7.952   2.711   2.144  0.1188 -0.5731 -0.3996
14337TIP3    H142968   8.010   2.784   2.127  1.4283 -1.5704 -0.3872
14337TIP3    H242969   7.921   2.684   2.057 -0.2953 -0.0584 -0.4098
14338TIP3   OH242970   7.321   4.049   0.765 -0.1754  0.2031  0.3984
14338TIP3    H142971   7.256   4.117   0.782 -0.6503  0.5551 -2.2860
14338TIP3    H242972   7.387   4.093   0.711  0.9432 -0.8001  0.9287
14339TIP3   OH242973   1.164   5.822   1.949  0.2208 -0.0048 -0.3490
14339TIP3    H142974   1.081   5.862   1.978  0.5117  0.3574 -0.0085
14339TIP3    H242975   1.208   5.798   2.030  0.9192  0.7579 -0.4945
14340TIP3   OH242976   6.010   5.346   0.125  0.2246 -0.5874 -0.5278
14340TIP3    H142977   6.053   5.429   0.107  0.8700 -0.7804  0.0621
14340TIP3    H242978   6.022   5.332   0.219 -1.6030 -0.3956 -0.2178
14341TIP3   OH242979   8.207   5.277   2.071 -0.5079  0.0485 -0.4790
14341TIP3    H142980   8.182   5.272   1.979  0.4843 -0.9711 -0.7136
14341TIP3    H242981   8.218   5.371   2.087 -0.2749  0.2143 -1.5279
14342TIP3   OH242982   7.315   1.033   0.551  0.3704  0.0216  0.9476
14342TIP3    H142983   7.264   1.013   0.472  1.8902  0.0277 -0.0888
14342TIP3    H242984   7.296   0.962   0.611  1.6141 -1.7878 -0.6764
14343TIP3   OH242985   3.665   1.018   2.873 -0.1959  0.1790  0.2969
14343TIP3    H142986   3.614   0.937   2.881 -0.0956  0.1371  0.5120
14343TIP3    H242987   3.718   1.021   2.953  0.1362  0.2232  0.0777
14344TIP3   OH242988   4.483   0.850   3.973  0.2348 -0.0303 -0.3867
14344TIP3    H142989   4.571   0.822   3.947  0.8509  0.2128  1.3220
14344TIP3    H242990   4.440   0.872   3.890  1.2272 -1.6813 -1.3914
14345TIP3   OH242991   3.540   3.358   4.826  0.3000  0.1471 -0.6516
14345TIP3    H142992   3.572   3.448   4.828  0.6256  0.2092 -3.5001
14345TIP3    H242993   3.450   3.365   4.795  0.5669 -0.4926 -1.6461
14346TIP3   OH242994   3.138   5.457   4.273  0.5357  0.1526 -0.5554
14346TIP3    H142995   3.117   5.408   4.352 -2.5883 -0.5830 -1.7108
14346TIP3    H242996   3.168   5.391   4.210 -0.1647  0.2315 -0.9841
14347TIP3   OH242997   5.600   0.737   1.319  0.1577  0.6978 -0.2494
14347TIP3    H142998   5.548   0.688   1.383  0.3186  0.7249 -0.0980
14347TIP3    H242999   5.617   0.674   1.249 -1.1546  1.0418 -0.9054
14348TIP3   OH243000   1.938   3.044   3.482  0.0031 -0.1699  0.6765
14348TIP3    H143001   2.031   3.065   3.495  0.0305  0.4812 -0.4549
14348TIP3    H243002   1.937   2.972   3.420 -0.2743  0.9266 -0.6273
14349TIP3   OH243003   6.585   6.205   4.860  0.6895  0.3364 -0.3708
14349TIP3    H143004   6.497   6.167   4.854  0.1896  1.3231  0.2792
14349TIP3    H243005   6.569   6.296   4.888  1.9033  0.6128 -0.5419
14350TIP3   OH243006   7.588   7.260   2.073  0.2133  0.2731  0.2164
14350TIP3    H143007   7.635   7.343   2.079 -1.2712  1.2248 -0.3905
14350TIP3    H243008   7.505   7.284   2.030 -2.2759 -0.6358  4.0692
14351TIP3   OH243009   6.007   1.513   6.021  0.0441 -0.6660 -0.0008
14351TIP3    H143010   5.914   1.499   6.035 -0.1658  0.7123  0.0411
14351TIP3    H243011   6.032   1.577   6.088  0.7249 -0.0045 -0.8682
14352TIP3   OH243012   7.312   4.070   2.653 -0.2387  0.1558 -0.0801
14352TIP3    H143013   7.225   4.072   2.614 -1.4436 -2.7992  2.1315
14352TIP3    H243014   7.351   3.989   2.619  0.6084  0.1123  0.9694
14353TIP3   OH243015   1.873   6.053   2.896 -0.2677 -0.4024  0.0334
14353TIP3    H143016   1.805   6.010   2.844  0.3881 -0.7322 -0.5559
14353TIP3    H243017   1.828   6.129   2.935 -0.9212 -0.4964 -0.5083
14354TIP3   OH243018   7.499   1.867   2.132 -0.6717 -0.2603 -0.1761
14354TIP3    H143019   7.533   1.777   2.128  3.0571  0.9253  0.6028
14354TIP3    H243020   7.481   1.881   2.225 -0.6113 -0.0013 -0.2040
14355TIP3   OH243021   1.149   5.774   6.470 -0.3087 -0.0072 -0.6079
14355TIP3    H143022   1.106   5.708   6.415 -0.9234  0.2111 -0.3940
14355TIP3    H243023   1.198   5.723   6.534 -1.0522 -0.2707 -0.2299
14356TIP3   OH243024   7.008   3.290   2.065  0.6810  0.2477 -0.3324
14356TIP3    H143025   7.006   3.380   2.033 -0.1515  0.9785  1.6267
14356TIP3    H243026   7.090   3.284   2.115 -0.6453  0.9412  2.0978
14357TIP3   OH243027   0.533   0.380   0.848 -0.0655  0.2127  0.4264
14357TIP3    H143028   0.540   0.460   0.796 -1.9554  0.2401  0.1462
14357TIP3    H243029   0.551   0.408   0.937  1.1748  0.5684  0.0813
14358TIP3   OH243030   2.524   2.473   1.781 -0.3038  0.0676  0.0298
14358TIP3    H143031   2.603   2.488   1.730  0.5690 -0.4935  1.1539
14358TIP3    H243032   2.538   2.523   1.862 -0.9616 -0.2845  0.3693
14359TIP3   OH243033   3.765   0.522   0.604  0.2058  0.1750 -0.3003
14359TIP3    H143034   3.737   0.443   0.557 -0.7418 -0.4938  1.2866
14359TIP3    H243035   3.723   0.514   0.690 -0.0285  2.4846 -0.1404
14360TIP3   OH243036   3.510   7.425   0.377  0.1545  0.9932 -0.2816
14360TIP3    H143037   3.512   7.505   0.430  0.2550  0.5975  0.3212
14360TIP3    H243038   3.537   7.356   0.437  0.7493  0.6032 -0.9779
14361TIP3   OH243039   8.213   2.075   0.643  0.5184  0.6322  0.2275
14361TIP3    H143040   8.169   2.093   0.560  1.2588  2.3113  0.1649
14361TIP3    H243041   8.173   2.136   0.705  0.8340  0.2391  0.8251
14362TIP3   OH243042   0.782   6.499   3.600  0.0814  0.3026  0.1437
14362TIP3    H143043   0.758   6.423   3.546  0.8130 -0.1624  0.4589
14362TIP3    H243044   0.765   6.470   3.690  2.0113 -0.1431  0.4094
14363TIP3   OH243045   1.662   3.009   0.043 -0.3886 -0.0886 -0.3507
14363TIP3    H143046   1.683   2.957   0.120 -1.6495  0.3977  0.3459
14363TIP3    H243047   1.709   3.092   0.056 -0.4315 -0.0863 -0.2108
14364TIP3   OH243048   1.981   3.864   3.963 -0.4992  0.1383  0.1017
14364TIP3    H143049   2.022   3.795   3.911  1.2250  0.8683  0.4195
14364TIP3    H243050   2.032   3.866   4.045 -1.5106  0.7463  0.7367
14365TIP3   OH243051   4.752   5.574   6.165  0.6688 -0.1000  0.2615
14365TIP3    H143052   4.754   5.647   6.227  0.3171  0.1820 -0.0553
14365TIP3    H243053   4.732   5.615   6.081  0.5362 -0.5546  0.0701
14366TIP3   OH243054   3.641   0.108   5.787 -0.2146 -0.4199 -0.2366
14366TIP3    H143055   3.712   0.101   5.722 -0.5737 -1.8966 -0.5032
14366TIP3    H243056   3.677   0.165   5.855  1.2513 -1.1386 -0.3612
14367TIP3   OH243057   3.901   2.900   2.784 -0.0726 -0.2502  0.3508
14367TIP3    H143058   3.897   2.832   2.717 -1.0509  0.1147  0.0275
14367TIP3    H243059   3.932   2.855   2.862 -1.5385 -1.2745  0.3860
14368TIP3   OH243060   0.058   7.106   2.174  0.5163  0.1246  0.1758
14368TIP3    H143061  -0.034   7.087   2.153  0.4171 -0.2836  0.9485
14368TIP3    H243062   0.056   7.193   2.213  0.1994 -0.5819  1.8185
14369TIP3   OH243063   1.467   1.934   0.898 -0.8279  0.5658 -0.3352
14369TIP3    H143064   1.494   1.967   0.983  1.1173  1.0898 -1.1092
14369TIP3    H243065   1.423   1.851   0.917  1.5387 -0.4567  1.0399
14370TIP3   OH243066   7.674   5.137   3.220  0.0856  0.6273 -0.2050
14370TIP3    H143067   7.702   5.061   3.169 -1.1238  1.1468 -1.7323
14370TIP3    H243068   7.618   5.101   3.288 -2.0968  0.2237 -2.0946
14371TIP3   OH243069   2.052   3.786   6.751  0.8329  0.2630  0.3044
14371TIP3    H143070   2.096   3.850   6.695  0.9222 -0.0337  0.0259
14371TIP3    H243071   2.007   3.838   6.817 -1.0047  0.7861 -1.2553
14372TIP3   OH243072   4.068   3.683   1.267 -0.0301  0.5091  0.8750
14372TIP3    H143073   4.064   3.748   1.197 -0.9259 -0.7647 -0.3115
14372TIP3    H243074   3.983   3.689   1.310 -0.4830 -0.4465  0.1728
14373TIP3   OH243075   5.594   4.138   5.417  0.6331  0.2143  0.8798
14373TIP3    H143076   5.607   4.213   5.359 -0.3925 -0.0530  0.2687
14373TIP3    H243077   5.499   4.123   5.414  0.5607  0.1248  2.5479
14374TIP3   OH243078   0.910   3.333   0.755 -0.1342 -0.1475 -0.2772
14374TIP3    H143079   0.840   3.304   0.696 -0.7265  0.9843 -0.1746
14374TIP3    H243080   0.979   3.269   0.745 -0.5840 -0.4544 -1.5457
14375TIP3   OH243081   6.531   1.220   5.384  0.2425 -0.0640  0.7801
14375TIP3    H143082   6.580   1.264   5.315  1.5139 -1.5426  0.6872
14375TIP3    H243083   6.440   1.226   5.357  0.6689 -0.0819 -0.7131
14376TIP3   OH243084   3.495   4.269   4.011 -0.8548 -0.2498  0.0186
14376TIP3    H143085   3.560   4.322   4.058 -1.0969 -1.0028  1.2584
14376TIP3    H243086   3.426   4.331   3.988 -0.5140  0.2300  0.2593
14377TIP3   OH243087   2.891   0.095   2.120 -0.1616 -0.2506  0.2582
14377TIP3    H143088   2.801   0.095   2.152 -1.0543  0.4897 -2.0555
14377TIP3    H243089   2.942   0.133   2.192 -2.3927  3.7018  0.0433
14378TIP3   OH243090   7.085   6.072   3.312 -0.7630  0.3472  0.4040
14378TIP3    H143091   7.121   6.044   3.227  0.2374  0.8145  0.6576
14378TIP3    H243092   7.082   6.167   3.306 -2.5341  0.3007  0.1860
14379TIP3   OH243093   0.656   2.741   4.791 -0.2852  0.5686  0.2101
14379TIP3    H143094   0.746   2.715   4.807 -0.2811 -0.4884 -1.3941
14379TIP3    H243095   0.604   2.662   4.803 -0.9101  0.9839  0.3515
14380TIP3   OH243096   5.490   5.030   6.394  0.3890  0.2573 -0.2024
14380TIP3    H143097   5.464   5.117   6.424  1.2278 -0.2848  2.3525
14380TIP3    H243098   5.581   5.040   6.366  0.6299  0.1316  0.5186
14381TIP3   OH243099   7.968   6.643   0.008 -0.2662  0.6879 -0.0710
14381TIP3    H143100   7.906   6.682  -0.054 -0.1759  2.7835  1.0569
14381TIP3    H243101   7.950   6.688   0.091  0.8424 -0.7223  0.9829
14382TIP3   OH243102   2.662   6.025   2.926  0.2982 -0.0629  0.2644
14382TIP3    H143103   2.732   6.062   2.980 -0.7774 -0.7909  2.2053
14382TIP3    H243104   2.655   5.934   2.953 -1.3352 -0.0339  0.0209
14383TIP3   OH243105   4.379   5.144   5.982 -0.1992 -0.2753  0.3089
14383TIP3    H143106   4.407   5.235   5.967  1.0353 -0.8362 -0.9896
14383TIP3    H243107   4.284   5.146   5.971 -0.1567  0.8171  0.0182
14384TIP3   OH243108   2.462   1.477   2.939 -0.1138 -0.3918 -0.3437
14384TIP3    H143109   2.405   1.443   2.869  0.5969  0.9013 -1.5974
14384TIP3    H243110   2.535   1.415   2.942  0.8376  0.5757 -2.1469
14385TIP3   OH243111   6.836   2.874   3.898  0.3311 -0.3445  0.1347
14385TIP3    H143112   6.809   2.855   3.809 -1.9552 -1.6206  0.9980
14385TIP3    H243113   6.920   2.919   3.890 -0.2662  0.4238 -2.6687
14386TIP3   OH243114   2.199   7.084   4.400 -0.0139 -0.0999  0.2443
14386TIP3    H143115   2.184   7.162   4.346  1.7919  0.3359  0.2916
14386TIP3    H243116   2.240   7.021   4.340  0.7080 -0.1198  0.7401
14387TIP3   OH243117   1.103   5.747   2.621  0.1298 -0.1434 -0.0796
14387TIP3    H143118   1.057   5.792   2.551 -1.5017 -1.1179  0.3151
14387TIP3    H243119   1.118   5.658   2.588  1.1937 -0.0336  0.0522
14388TIP3   OH243120   0.796   7.106   5.878  0.4769  0.1752 -0.0233
14388TIP3    H143121   0.745   7.054   5.816 -0.1886  1.8865 -1.0037
14388TIP3    H243122   0.853   7.160   5.823 -0.0499  1.6630  0.8179
14389TIP3   OH243123   4.385   0.381   5.087  0.2512 -0.1317  0.2002
14389TIP3    H143124   4.358   0.407   4.999  2.3367  0.8848 -0.1825
14389TIP3    H243125   4.379   0.461   5.139  0.1633 -0.4655  0.7187
14390TIP3   OH243126   1.725   0.774   3.718 -0.2660 -0.2643 -0.0329
14390TIP3    H143127   1.639   0.735   3.736 -1.8097  3.3486  1.2070
14390TIP3    H243128   1.777   0.753   3.796 -0.3672 -1.4545 -0.2626
14391TIP3   OH243129   7.820   5.755   3.321 -0.0072  0.3651  0.6418
14391TIP3    H143130   7.882   5.683   3.314 -0.7294 -0.1696 -0.7106
14391TIP3    H243131   7.874   5.834   3.326  0.8009 -0.1070 -0.2928
14392TIP3   OH243132   1.927   1.303   1.580 -0.3648 -0.6386  0.3451
14392TIP3    H143133   1.850   1.284   1.634  0.3469  0.8353  1.9899
14392TIP3    H243134   1.906   1.267   1.494 -2.7256 -0.6297  0.8494
14393TIP3   OH243135   7.227   5.729   4.403  0.4011 -0.4218  0.1564
14393TIP3    H143136   7.229   5.807   4.348 -0.9434 -0.3297  0.2165
14393TIP3    H243137   7.246   5.657   4.343  1.4117 -0.0859  0.0560
14394TIP3   OH243138   4.413   0.295   2.551 -0.0462 -0.0424  0.0366
14394TIP3    H143139   4.383   0.252   2.471  2.1253 -2.9047  0.5655
14394TIP3    H243140   4.509   0.296   2.542  0.2602 -0.4967  2.5629
14395TIP3   OH243141   1.257   2.630   3.018  0.0485 -0.5062  0.1643
14395TIP3    H143142   1.337   2.609   3.067  0.0470 -0.5663  0.1407
14395TIP3    H243143   1.225   2.711   3.059  0.6728  0.0835 -0.4800
14396TIP3   OH243144   5.366   0.224   1.718  0.1773 -0.5966  0.1716
14396TIP3    H143145   5.386   0.174   1.798 -0.2612 -1.1238 -0.0421
14396TIP3    H243146   5.436   0.201   1.657  1.2308  0.7686  0.7949
14397TIP3   OH243147   3.042   1.534   2.913 -0.7347  0.4321 -0.1520
14397TIP3    H143148   2.956   1.523   2.873 -0.7127 -0.3304  0.0037
14397TIP3    H243149   3.086   1.599   2.858 -0.6373 -0.7091 -1.4713
14398TIP3   OH243150   1.329   4.656   5.579 -0.1110  0.1008 -0.0771
14398TIP3    H143151   1.307   4.578   5.629 -3.9101  0.4907 -0.8644
14398TIP3    H243152   1.314   4.728   5.640  1.4032  0.3542  0.0331
14399TIP3   OH243153   2.783   2.582   1.657 -0.0154 -0.6068  0.1284
14399TIP3    H143154   2.813   2.536   1.578 -1.5581  0.0920 -0.9113
14399TIP3    H243155   2.850   2.562   1.723  1.4222 -1.0546 -1.3948
14400TIP3   OH243156   5.196   4.208   6.323  0.2103 -0.4532  0.2155
14400TIP3    H143157   5.189   4.180   6.232  0.7423 -1.5859  0.5116
14400TIP3    H243158   5.231   4.297   6.317  3.6265 -1.7126 -0.6284
14401TIP3   OH243159   7.556   4.441   3.725 -0.0756  0.1290  0.4640
14401TIP3    H143160   7.580   4.373   3.788 -0.7136 -0.0133  0.5664
14401TIP3    H243161   7.461   4.448   3.733 -0.0191  1.0617  0.4804
14402TIP3   OH243162   2.532   7.426   3.473  0.0182  0.5138  0.5554
14402TIP3    H143163   2.486   7.481   3.537  1.7927  0.9468  1.5381
14402TIP3    H243164   2.624   7.432   3.499  0.5856 -0.6815 -1.0428
14403TIP3   OH243165   7.456   4.886   3.013 -0.1204  0.4611 -0.0092
14403TIP3    H143166   7.528   4.878   3.075 -1.3472 -0.9362  1.3250
14403TIP3    H243167   7.467   4.812   2.953 -0.4658  0.2172  0.2266
14404TIP3   OH243168   7.304   2.392   5.201  0.3907  0.1076  0.0694
14404TIP3    H143169   7.263   2.425   5.281  1.4444  0.0155  0.6709
14404TIP3    H243170   7.252   2.429   5.130 -1.7815 -1.3700  0.7755
14405TIP3   OH243171   2.012   6.457   2.455  0.1852 -0.9627  0.0271
14405TIP3    H143172   2.045   6.510   2.527  0.0559 -2.2124  1.0615
14405TIP3    H243173   1.917   6.467   2.460  0.2357  0.3869 -1.1535
14406TIP3   OH243174   6.266   2.899   4.741 -0.0983  0.3323 -0.1098
14406TIP3    H143175   6.360   2.884   4.736 -0.2526 -0.4696 -0.7618
14406TIP3    H243176   6.228   2.812   4.752 -0.9991  0.1945 -3.4075
14407TIP3   OH243177   3.639   1.313   6.701  0.5410 -0.2666 -0.1172
14407TIP3    H143178   3.708   1.257   6.664  1.7020  1.0206  0.0296
14407TIP3    H243179   3.672   1.402   6.691 -0.4193  0.2978  1.4037
14408TIP3   OH243180   6.865   7.459   2.091 -0.5405  0.0652 -0.1269
14408TIP3    H143181   6.853   7.442   2.184 -0.2835 -0.3781 -0.1697
14408TIP3    H243182   6.885   7.552   2.086 -1.1470  0.2185  0.2026
14409TIP3   OH243183   5.905   7.696   1.585  0.1157  0.0924 -0.4699
14409TIP3    H143184   5.961   7.760   1.629  0.9189 -1.2245  0.5229
14409TIP3    H243185   5.855   7.747   1.521 -1.1993  2.1281  2.0007
14410TIP3   OH243186   3.537   3.595   4.535 -0.2270  0.0673 -0.5081
14410TIP3    H143187   3.632   3.586   4.548 -0.3308  0.5726  0.8315
14410TIP3    H243188   3.529   3.656   4.461  0.4710 -0.9129 -1.4152
14411TIP3   OH243189   6.546   5.422   4.161 -0.4468  0.4985 -0.0232
14411TIP3    H143190   6.460   5.408   4.120  0.0936 -0.4734 -0.8781
14411TIP3    H243191   6.589   5.337   4.155  1.1502  1.3297 -0.9701
14412TIP3   OH243192   1.485   6.627   5.192  0.2677 -0.0930 -0.2749
14412TIP3    H143193   1.514   6.624   5.101  1.1569  0.2483 -0.0213
14412TIP3    H243194   1.513   6.714   5.223 -0.8556  0.1619  0.0596
14413TIP3   OH243195   5.442   1.664   3.399 -0.4534  0.6420 -0.4944
14413TIP3    H143196   5.430   1.667   3.305 -0.9216  0.0830 -0.4582
14413TIP3    H243197   5.387   1.592   3.428 -0.7249  1.1428  0.2717
14414TIP3   OH243198   4.112   1.661   2.475 -0.0583 -0.0170  0.5470
14414TIP3    H143199   4.171   1.628   2.407  1.3182  1.0416  1.1966
14414TIP3    H243200   4.139   1.615   2.555  1.3932  2.0248  1.3088
14415TIP3   OH243201   7.106   3.974   3.181  0.0900  0.5600  0.5269
14415TIP3    H143202   7.100   3.921   3.260  1.5797 -0.0987  0.2301
14415TIP3    H243203   7.024   3.958   3.134 -0.2241 -0.0978  1.2900
14416TIP3   OH243204   3.174   6.672   2.781 -0.1870  0.0448 -0.3590
14416TIP3    H143205   3.253   6.724   2.763  1.0321 -1.8048 -0.6327
14416TIP3    H243206   3.131   6.665   2.695  0.2101 -0.2517 -0.5406
14417TIP3   OH243207   0.951   4.670   4.873 -0.2264  0.0964 -0.3892
14417TIP3    H143208   1.006   4.598   4.842  0.0700  0.2994 -0.3385
14417TIP3    H243209   0.968   4.674   4.967  1.6480  1.8054 -0.7328
14418TIP3   OH243210   0.906   0.240   1.146  0.0830 -0.1729  0.1776
14418TIP3    H143211   0.927   0.297   1.072 -3.0486  0.5165 -0.3278
14418TIP3    H243212   0.990   0.219   1.186  1.5123  3.7162 -0.4218
14419TIP3   OH243213   2.743   6.344   5.694 -0.1392 -0.4939 -0.4337
14419TIP3    H143214   2.677   6.276   5.680 -1.8008  1.2129 -1.3816
14419TIP3    H243215   2.786   6.352   5.609 -0.5997  0.2515 -0.6063
14420TIP3   OH243216   0.340   7.620   0.088  0.1615 -0.1102  0.2951
14420TIP3    H143217   0.298   7.574   0.160 -0.5886  0.3801  0.1806
14420TIP3    H243218   0.301   7.583   0.009  0.8464 -0.5158  0.1420
14421TIP3   OH243219   1.247   0.074   0.137 -0.7157  0.0545  0.0340
14421TIP3    H143220   1.234  -0.008   0.090 -2.3298  1.1499 -1.5759
14421TIP3    H243221   1.162   0.092   0.179 -0.2995  0.7512  0.6086
14422TIP3   OH243222   2.750   2.429   5.501  0.4235  0.0204  0.2852
14422TIP3    H143223   2.782   2.455   5.587 -0.9176  1.2324  0.4697
14422TIP3    H243224   2.796   2.487   5.440  1.8781 -1.2963  0.0919
14423TIP3   OH243225   4.109   3.716   0.457  0.2021  0.4281 -0.2114
14423TIP3    H143226   4.111   3.657   0.382 -0.5474  0.0778  0.0388
14423TIP3    H243227   4.020   3.752   0.457  0.5366  1.2959 -0.1559
14424TIP3   OH243228   4.245   6.831   5.757  0.3009  0.3112  0.4816
14424TIP3    H143229   4.295   6.769   5.809  0.3374  0.3017  0.4352
14424TIP3    H243230   4.154   6.803   5.767  0.4197 -0.4772 -0.5110
14425TIP3   OH243231   0.419   4.822   6.444  0.3014 -0.2856 -0.4566
14425TIP3    H143232   0.419   4.727   6.429 -0.8641 -0.2370 -0.8977
14425TIP3    H243233   0.370   4.832   6.526  0.8021 -0.0862 -0.1783
14426TIP3   OH243234   4.652   2.899   4.653  0.4790  0.0585 -0.6099
14426TIP3    H143235   4.677   2.899   4.745  1.1176 -1.7619 -0.7503
14426TIP3    H243236   4.655   2.807   4.627 -1.1574  0.3658 -2.0649
14427TIP3   OH243237   8.111   4.956   4.778 -0.2017 -0.2900  0.0428
14427TIP3    H143238   8.109   4.959   4.682  0.4029  0.0993  0.0332
14427TIP3    H243239   8.048   5.023   4.806 -0.2741 -0.3047 -0.0850
14428TIP3   OH243240   4.872   2.115   2.060  0.6366  0.1680  0.3762
14428TIP3    H143241   4.870   2.020   2.049 -0.4617  0.3022 -0.7284
14428TIP3    H243242   4.821   2.150   1.986  0.2584  1.5762  1.2581
14429TIP3   OH243243   7.614   5.448   0.094  0.0599  0.1836 -0.6707
14429TIP3    H143244   7.573   5.534   0.091 -2.0157 -0.5417  2.5098
14429TIP3    H243245   7.680   5.455   0.163  2.6183  0.1334 -2.9230
14430TIP3   OH243246   5.440   4.069   3.853  0.0430  0.1357  0.6092
14430TIP3    H143247   5.534   4.068   3.869  0.1194  1.4715  0.3467
14430TIP3    H243248   5.427   4.138   3.789 -0.8431 -1.7213 -1.3387
14431TIP3   OH243249   5.153   5.218   4.260 -0.6030  0.0641  0.2376
14431TIP3    H143250   5.080   5.157   4.271 -2.0474  1.5256 -0.7459
14431TIP3    H243251   5.120   5.285   4.200  1.4587  0.9575  0.0047
14432TIP3   OH243252   1.690   4.600   4.533  0.5108 -0.8077 -0.5097
14432TIP3    H143253   1.704   4.690   4.502 -0.5021 -0.1803  0.7421
14432TIP3    H243254   1.595   4.589   4.532  0.5245 -1.2675  0.8946
14433TIP3   OH243255   7.538   4.532   5.340  0.0787 -0.7763  1.2069
14433TIP3    H143256   7.633   4.531   5.343  0.1535 -1.7565 -0.4601
14433TIP3    H243257   7.511   4.555   5.429  1.8693  1.0900  1.3437
14434TIP3   OH243258   3.565   2.452   1.866  0.1853  0.1601 -0.1173
14434TIP3    H143259   3.584   2.407   1.784  0.9856  1.2220 -0.5423
14434TIP3    H243260   3.470   2.461   1.867 -0.1099 -2.2438  0.3933
14435TIP3   OH243261   2.770   3.422   5.708 -0.0502  0.3273 -0.1854
14435TIP3    H143262   2.746   3.446   5.798 -0.7631 -0.1064 -0.2526
14435TIP3    H243263   2.688   3.427   5.659 -0.0541 -1.3477 -0.3978
14436TIP3   OH243264   4.215   0.098   1.012  0.5462 -0.6380  0.1685
14436TIP3    H143265   4.170   0.097   1.096  0.9784 -0.4861  0.3999
14436TIP3    H243266   4.148   0.069   0.949  0.0005  0.0173  0.4430
14437TIP3   OH243267   1.604   6.852   5.288 -0.3601 -0.3762  0.1680
14437TIP3    H143268   1.570   6.932   5.250 -2.2532 -1.4191 -0.4403
14437TIP3    H243269   1.698   6.855   5.271 -0.7766  0.3816 -2.3976
14438TIP3   OH243270   2.557   5.720   1.997 -0.1029  0.1428  0.0247
14438TIP3    H143271   2.471   5.760   2.009 -1.1295 -2.3032  1.4694
14438TIP3    H243272   2.605   5.741   2.077 -0.1674 -0.3934  0.2048
14439TIP3   OH243273   3.929   3.137   2.950  0.4428  0.2651 -0.0925
14439TIP3    H143274   3.922   3.066   2.887 -0.2484  0.7672 -0.6005
14439TIP3    H243275   3.957   3.094   3.031 -2.3032 -1.0388  0.3075
14440TIP3   OH243276   7.487   1.973   6.533  0.9535 -0.1651  0.4292
14440TIP3    H143277   7.437   2.035   6.481  2.5323 -0.8428 -2.0697
14440TIP3    H243278   7.480   2.006   6.623 -0.6024  1.9662 -0.3905
14441TIP3   OH243279   5.910   1.945   0.201 -0.1701  1.1899 -0.3276
14441TIP3    H143280   5.926   2.019   0.260  0.2637 -0.0974  1.2473
14441TIP3    H243281   5.992   1.934   0.153  0.1732  1.0106  0.2873
14442TIP3   OH243282   3.778   0.811   5.002 -0.4973  0.2041 -0.4317
14442TIP3    H143283   3.873   0.822   4.991 -0.2149  0.6668  1.8578
14442TIP3    H243284   3.757   0.733   4.952  0.7519  1.0480 -2.4197
14443TIP3   OH243285   2.195   7.279   4.177  0.2721 -1.0963 -0.1244
14443TIP3    H143286   2.176   7.227   4.100  0.1737 -0.8222 -0.2867
14443TIP3    H243287   2.144   7.359   4.165  1.3403 -0.4471 -0.4540
14444TIP3   OH243288   5.832   3.735   3.793 -0.8435 -0.3133  0.4071
14444TIP3    H143289   5.885   3.781   3.728  1.5328 -1.2604  1.5466
14444TIP3    H243290   5.782   3.670   3.743  0.0715 -0.2574 -0.5998
14445TIP3   OH243291   6.750   0.564   3.107  0.4093  0.3559 -0.5711
14445TIP3    H143292   6.706   0.625   3.166  0.2367 -0.9740  0.7290
14445TIP3    H243293   6.787   0.497   3.164  0.3140 -0.9443 -1.9655
14446TIP3   OH243294   3.915   1.212   2.763  0.1821 -0.0542  0.2391
14446TIP3    H143295   3.978   1.246   2.700 -1.1287  0.7215 -0.7147
14446TIP3    H243296   3.834   1.202   2.713 -0.9665  0.7923  1.8313
14447TIP3   OH243297   4.534   5.468   0.670 -0.0701  0.2407  0.1403
14447TIP3    H143298   4.579   5.490   0.588 -1.6720  0.5445 -0.6987
14447TIP3    H243299   4.576   5.387   0.699 -0.1038 -0.4141 -1.5115
14448TIP3   OH243300   0.866   2.017   1.187 -0.3440 -0.0022 -0.4561
14448TIP3    H143301   0.908   2.102   1.200 -0.2140 -0.1673  0.2079
14448TIP3    H243302   0.926   1.953   1.226 -0.9448 -0.2884  0.0271
14449TIP3   OH243303   7.525   7.603   0.411 -0.7049  0.3193  0.4013
14449TIP3    H143304   7.574   7.647   0.342  0.3754 -1.9847 -0.4090
14449TIP3    H243305   7.437   7.592   0.374 -1.9076  4.0708  1.6912
14450TIP3   OH243306   6.034   2.853   0.804 -0.0802 -0.3845 -0.1952
14450TIP3    H143307   5.991   2.924   0.852  0.5275 -1.3269  1.8176
14450TIP3    H243308   6.117   2.892   0.774 -0.1429  0.0052  0.1280
14451TIP3   OH243309   1.219   3.778   5.640 -0.0580 -0.1430  0.0824
14451TIP3    H143310   1.176   3.754   5.558  0.2154 -0.9004  0.1482
14451TIP3    H243311   1.154   3.831   5.687 -0.6292 -0.6318 -0.1465
14452TIP3   OH243312   6.450   7.658   0.628  0.0940 -0.3675 -0.3772
14452TIP3    H143313   6.518   7.662   0.561  0.9857  0.1099  0.5242
14452TIP3    H243314   6.492   7.612   0.701 -0.9715 -1.1909 -0.2760
14453TIP3   OH243315   4.885   6.687   1.791 -0.0873 -0.3632 -0.3169
14453TIP3    H143316   4.923   6.764   1.833 -0.1487 -0.4790 -0.0473
14453TIP3    H243317   4.881   6.621   1.860 -0.2543 -0.5331 -0.4863
14454TIP3   OH243318   8.270   0.807   4.735  0.0122 -0.0091  0.1215
14454TIP3    H143319   8.177   0.810   4.758 -0.4401  1.0180 -1.5902
14454TIP3    H243320   8.270   0.803   4.639  1.7421 -0.4370  0.1080
14455TIP3   OH243321   4.468   4.868   0.098 -0.3243 -0.3535 -0.4229
14455TIP3    H143322   4.444   4.820   0.019  1.8148  0.0539 -1.3644
14455TIP3    H243323   4.563   4.877   0.094  0.1970 -2.0315  3.1546
14456TIP3   OH243324   5.633   3.200   3.528  0.0258  0.1546  0.2272
14456TIP3    H143325   5.582   3.210   3.608 -1.4327 -0.7290 -0.5566
14456TIP3    H243326   5.670   3.287   3.512  0.9589  0.1881  2.2193
14457TIP3   OH243327   5.923   1.251   5.818  0.1133  0.1744  1.1193
14457TIP3    H143328   6.019   1.250   5.815  0.2127  3.1974 -1.2001
14457TIP3    H243329   5.902   1.271   5.909  1.8655  2.4721  1.0986
14458TIP3   OH243330   2.054   1.201   3.350 -0.3814  0.2443 -0.2652
14458TIP3    H143331   2.036   1.140   3.279 -0.5209  0.9011 -0.8001
14458TIP3    H243332   1.977   1.259   3.352 -0.5958 -0.0579  0.7245
14459TIP3   OH243333   1.591   4.311   6.487 -0.0668 -0.0902 -0.0474
14459TIP3    H143334   1.582   4.236   6.546  0.0422 -1.2273 -1.4092
14459TIP3    H243335   1.528   4.294   6.416  0.0872  1.0187 -0.4735
14460TIP3   OH243336   7.964   0.033   5.414  0.6318 -0.2380 -0.1310
14460TIP3    H143337   7.951   0.003   5.504  0.1363  0.9528  0.2154
14460TIP3    H243338   8.036  -0.020   5.380  1.0262 -0.4856  1.0729
14461TIP3   OH243339   2.435   5.833   3.537  0.0660 -0.1845 -0.3168
14461TIP3    H143340   2.340   5.826   3.537  0.1695 -2.6218  1.3296
14461TIP3    H243341   2.453   5.917   3.579 -1.3561 -0.1523  0.2843
14462TIP3   OH243342   4.540   7.368   0.377 -0.2498 -0.3463 -0.3577
14462TIP3    H143343   4.453   7.390   0.343  0.4055  2.4625 -0.4541
14462TIP3    H243344   4.597   7.374   0.301  0.1375 -1.6442 -0.1848
14463TIP3   OH243345   6.404   6.392   3.895 -0.3002 -0.2118 -0.0162
14463TIP3    H143346   6.405   6.351   3.981  0.9322 -0.0391  0.0715
14463TIP3    H243347   6.368   6.479   3.910  3.6712  1.4613  1.1900
14464TIP3   OH243348   8.011   6.652   4.366 -0.1061  0.0890 -0.1408
14464TIP3    H143349   7.962   6.724   4.406 -1.1147 -1.2168  1.0993
14464TIP3    H243350   8.099   6.687   4.352 -0.9116  1.9647 -0.8367
14465TIP3   OH243351   3.751   1.161   0.892  0.1128 -0.1770  0.2298
14465TIP3    H143352   3.765   1.255   0.898  0.5549 -0.2467  0.3190
14465TIP3    H243353   3.774   1.127   0.979  1.0429 -0.4962 -0.1207
14466TIP3   OH243354   5.397   6.773   0.454  0.0874  0.0640 -0.4141
14466TIP3    H143355   5.409   6.801   0.545  0.9660  1.4092 -0.9130
14466TIP3    H243356   5.482   6.739   0.428 -0.4831 -1.4365 -0.3892
14467TIP3   OH243357   5.161   5.029   2.577  0.0297  0.4866 -0.0452
14467TIP3    H143358   5.189   4.952   2.527  0.0015  1.7478 -2.1131
14467TIP3    H243359   5.238   5.054   2.628  0.2926 -0.4228  0.0195
14468TIP3   OH243360   6.681   4.734   5.168 -0.3464  0.0729  0.2097
14468TIP3    H143361   6.718   4.647   5.158 -0.2518 -0.0810  1.6529
14468TIP3    H243362   6.752   4.794   5.145 -0.1858 -0.2202 -0.0654
14469TIP3   OH243363   3.053   6.177   1.843 -0.9176 -0.4571  0.2332
14469TIP3    H143364   2.975   6.218   1.806 -0.4019  0.9042  0.5807
14469TIP3    H243365   3.049   6.086   1.815 -0.7176  0.3918 -2.9161
14470TIP3   OH243366   1.128   1.792   3.424 -0.1120  0.5221  0.5938
14470TIP3    H143367   1.048   1.796   3.372  0.4805 -2.0958 -0.6866
14470TIP3    H243368   1.161   1.882   3.424 -1.0370  0.9643 -2.1506
14471TIP3   OH243369   7.596   4.542   5.644  0.2068  0.0729  0.3368
14471TIP3    H143370   7.523   4.495   5.685 -1.0359  0.9804 -0.7628
14471TIP3    H243371   7.674   4.507   5.687 -0.8509 -1.0929  1.3842
14472TIP3   OH243372   0.765   1.677   4.715 -0.3656 -0.0032 -0.2885
14472TIP3    H143373   0.792   1.701   4.804 -0.8276 -1.0816  0.1551
14472TIP3    H243374   0.746   1.761   4.673  1.4231  0.6469  0.0908
14473TIP3   OH243375   4.767   7.685   2.048  0.4085 -0.1975 -0.1969
14473TIP3    H143376   4.839   7.703   1.988 -0.6325  2.8103 -0.6923
14473TIP3    H243377   4.804   7.701   2.135  0.5297  0.6250 -0.3972
14474TIP3   OH243378   5.105   1.808   4.406 -0.1958  0.5849  0.4360
14474TIP3    H143379   5.103   1.722   4.448  0.8528  0.3511  0.0320
14474TIP3    H243380   5.196   1.837   4.414 -0.5447  1.6845  0.6062
14475TIP3   OH243381   2.457   0.743   5.125  0.0748  0.1697  0.1669
14475TIP3    H143382   2.483   0.821   5.174 -0.7376  0.4590  0.1493
14475TIP3    H243383   2.361   0.744   5.128 -0.0073  0.3770 -1.6926
14476TIP3   OH243384   0.669   6.428   3.258 -0.2006  0.0970  0.4023
14476TIP3    H143385   0.699   6.371   3.187  0.1670  0.0156  0.6225
14476TIP3    H243386   0.714   6.396   3.336 -0.0390  0.6502  0.5371
14477TIP3   OH243387   7.803   2.153   6.710 -0.0727 -0.0282 -0.2025
14477TIP3    H143388   7.769   2.064   6.723 -1.8824  0.5866 -0.4966
14477TIP3    H243389   7.785   2.198   6.793 -1.0306  0.6189 -0.7451
14478TIP3   OH243390   1.710   0.296   6.370 -0.1032 -0.0774  0.1274
14478TIP3    H143391   1.626   0.261   6.341  0.2761 -0.5156 -0.4859
14478TIP3    H243392   1.775   0.249   6.317  0.4884  0.7728  0.0730
14479TIP3   OH243393   8.265   1.543   4.211  0.5005  0.2082  0.2950
14479TIP3    H143394   8.211   1.512   4.139  2.3455 -1.0819 -0.5990
14479TIP3    H243395   8.278   1.467   4.268  2.1008  0.2029 -0.0087
14480TIP3   OH243396   3.833   2.715   4.117  0.0408  0.5001 -0.0850
14480TIP3    H143397   3.845   2.788   4.056 -0.8012  1.2031  0.5767
14480TIP3    H243398   3.769   2.747   4.181  2.0002  0.3692  2.0797
14481TIP3   OH243399   4.619   2.097   1.191  0.2168  0.0883 -0.3223
14481TIP3    H143400   4.646   2.187   1.206 -0.6891  0.6269 -1.6938
14481TIP3    H243401   4.557   2.102   1.118  1.9676 -1.9032 -2.0958
14482TIP3   OH243402   7.090   2.612   4.174  0.2825  0.3474  0.4190
14482TIP3    H143403   7.097   2.650   4.261  1.6665  0.2518  0.3579
14482TIP3    H243404   6.997   2.623   4.151 -0.0512  0.5855  1.7913
14483TIP3   OH243405   4.737   0.322   3.243 -0.3516  0.5102 -0.2550
14483TIP3    H143406   4.795   0.323   3.320  0.4277  1.4130 -0.8400
14483TIP3    H243407   4.735   0.230   3.216  1.3900  0.5529 -0.6414
14484TIP3   OH243408   5.713   4.269   3.299 -0.1062 -0.2128  0.1544
14484TIP3    H143409   5.666   4.263   3.383  0.0322  0.1297  0.2561
14484TIP3    H243410   5.698   4.184   3.258  2.9304 -1.8806  2.1595
14485TIP3   OH243411   6.022   4.619   0.083 -0.0050 -0.1571  0.8769
14485TIP3    H143412   6.074   4.698   0.101 -0.4986  0.5374 -0.5370
14485TIP3    H243413   5.931   4.650   0.084 -0.2164 -0.7547  0.5873
14486TIP3   OH243414   1.251   5.123   4.115  0.4947  0.0389  0.1176
14486TIP3    H143415   1.214   5.211   4.113  0.8349  0.1846  0.2030
14486TIP3    H243416   1.193   5.074   4.173 -1.3736 -0.5665 -2.0774
14487TIP3   OH243417   8.059   1.857   4.998  0.1415  0.6478 -0.0338
14487TIP3    H143418   7.977   1.878   5.041  0.6298 -0.1034  1.3433
14487TIP3    H243419   8.120   1.926   5.026  0.6465 -0.2235  1.1270
14488TIP3   OH243420   0.650   1.790   2.966 -0.0108 -0.0475 -0.0297
14488TIP3    H143421   0.714   1.730   2.926  0.2582  0.2805 -0.0907
14488TIP3    H243422   0.685   1.808   3.053  0.3453  0.6809 -0.3123
14489TIP3   OH243423   2.374   4.141   0.909 -0.4308 -0.4534  0.2731
14489TIP3    H143424   2.467   4.145   0.887 -0.5878 -1.7396 -0.7804
14489TIP3    H243425   2.369   4.078   0.981 -0.5070 -0.5753  0.1621
14490TIP3   OH243426   3.128   3.460   1.696 -0.5084 -0.3947  0.2897
14490TIP3    H143427   3.061   3.405   1.736 -0.6795 -0.0118  0.5249
14490TIP3    H243428   3.101   3.469   1.604 -0.6441 -0.4436  0.3254
14491TIP3   OH243429   4.142   7.679   4.523 -0.7906 -0.1028 -0.7021
14491TIP3    H143430   4.112   7.694   4.433  0.7941  2.4074 -0.9162
14491TIP3    H243431   4.234   7.657   4.514 -0.1795  1.8271  0.3209
14492TIP3   OH243432   6.095   0.068   5.185 -0.0027  0.0691  0.4291
14492TIP3    H143433   6.141  -0.016   5.192 -0.2052 -0.0530  0.2719
14492TIP3    H243434   6.097   0.089   5.092 -2.7866 -1.3395 -0.0363
14493TIP3   OH243435   2.107   5.620   2.057  0.2630  0.4558  0.0811
14493TIP3    H143436   2.064   5.565   1.992  0.3748 -0.1361  0.5021
14493TIP3    H243437   2.164   5.561   2.106  1.6077  1.2238 -0.4861
14494TIP3   OH243438   2.537   1.516   2.495 -0.0695  0.3504 -0.0279
14494TIP3    H143439   2.486   1.460   2.554  1.7675 -0.2538  1.0741
14494TIP3    H243440   2.613   1.542   2.547  0.4159  1.7689 -1.3850
14495TIP3   OH243441   3.355   2.911   3.085 -0.3353 -0.2499 -0.3345
14495TIP3    H143442   3.382   2.884   3.174 -0.5617 -2.2953 -0.8189
14495TIP3    H243443   3.270   2.953   3.098  0.2338  0.6927  0.5395
14496TIP3   OH243444   3.041   7.668   1.634  0.6369  0.0066 -0.5542
14496TIP3    H143445   3.030   7.763   1.641 -0.7552 -0.2312  1.1845
14496TIP3    H243446   3.121   7.650   1.684  0.3628  0.1712 -0.0486
14497TIP3   OH243447   5.988   4.596   6.414  0.4488  0.4375 -0.3342
14497TIP3    H143448   6.081   4.620   6.420  0.8322 -1.0098  0.0565
14497TIP3    H243449   5.987   4.522   6.353 -0.2502 -0.4190  0.6832
14498TIP3   OH243450   3.453   7.230   4.556  0.0223 -0.3178  0.2732
14498TIP3    H143451   3.534   7.275   4.580 -0.1928  0.4907 -0.4670
14498TIP3    H243452   3.395   7.244   4.631  0.1970  0.0562  0.3426
14499TIP3   OH243453   2.169   3.211   3.344  0.2111 -0.3076  0.6197
14499TIP3    H143454   2.129   3.298   3.342  2.3433  0.7120  0.1147
14499TIP3    H243455   2.104   3.154   3.301 -0.6920  1.2487 -0.1429
14500TIP3   OH243456   1.851   2.916   6.619 -0.6331 -0.2301 -0.1246
14500TIP3    H143457   1.915   2.927   6.549 -0.7501  0.5900 -0.1101
14500TIP3    H243458   1.779   2.867   6.579 -1.3089  1.4010 -0.9844
14501TIP3   OH243459   0.249   4.747   1.361  0.1442  0.3429  0.0425
14501TIP3    H143460   0.183   4.729   1.295 -1.3505 -0.2816  1.6464
14501TIP3    H243461   0.249   4.670   1.418  1.4123  0.8401  0.7791
14502TIP3   OH243462   3.539   5.957   4.246  0.6844  0.0139 -0.1751
14502TIP3    H143463   3.472   6.013   4.284  0.1939  0.1357 -1.1879
14502TIP3    H243464   3.597   5.936   4.319 -1.5778 -1.8149  1.2471
14503TIP3   OH243465   6.827   6.635   5.061 -0.3360 -0.7340 -0.2492
14503TIP3    H143466   6.916   6.665   5.043 -0.3883 -0.6434 -0.3647
14503TIP3    H243467   6.795   6.692   5.131 -0.2373 -0.8880 -0.0807
14504TIP3   OH243468   6.344   7.158   1.232 -0.4251 -0.0790  0.7603
14504TIP3    H143469   6.325   7.122   1.319 -0.5758 -1.1503  0.2913
14504TIP3    H243470   6.427   7.205   1.244  0.7706 -2.1423  0.9990
14505TIP3   OH243471   7.191   4.738   0.475 -0.7013 -0.4219 -0.0594
14505TIP3    H143472   7.200   4.643   0.468 -0.8834 -0.3026 -2.6109
14505TIP3    H243473   7.243   4.773   0.403  1.5124  1.6177  2.3115
14506TIP3   OH243474   6.058   6.402   2.914 -0.4418 -0.0632 -0.3263
14506TIP3    H143475   6.044   6.491   2.946  0.9878  0.1673 -0.2819
14506TIP3    H243476   6.000   6.348   2.966  1.3706  0.3691  2.3412
14507TIP3   OH243477   1.650   0.313   0.540  0.9024  0.1480  0.3318
14507TIP3    H143478   1.655   0.408   0.527  0.6155  0.5580  2.8200
14507TIP3    H243479   1.729   0.279   0.498  0.4468  1.3249 -1.5910
14508TIP3   OH243480   7.987   6.436   3.084  0.2844  0.8528  0.0196
14508TIP3    H143481   7.942   6.435   3.000  0.8169  1.4087 -0.2798
14508TIP3    H243482   8.020   6.526   3.092  0.5796  0.6922  0.6356
14509TIP3   OH243483   1.171   5.473   1.117 -0.0583 -0.2539  0.1444
14509TIP3    H143484   1.160   5.532   1.191 -0.2994  0.0350 -0.1158
14509TIP3    H243485   1.124   5.517   1.045  1.7494  0.4157 -0.6900
14510TIP3   OH243486   6.173   6.622   4.731 -0.2572 -0.1288  0.1559
14510TIP3    H143487   6.209   6.705   4.699  0.6689 -0.6732 -0.2416
14510TIP3    H243488   6.139   6.579   4.653 -2.1284  0.5020  0.5551
14511TIP3   OH243489   5.573   2.352   0.104 -0.1645 -0.7040  0.1298
14511TIP3    H143490   5.599   2.394   0.022 -2.1879  1.7611  0.6594
14511TIP3    H243491   5.482   2.327   0.091  0.4199 -3.3147  0.5400
14512TIP3   OH243492   7.842   4.857   2.902 -0.1434 -0.0767 -0.8773
14512TIP3    H143493   7.843   4.763   2.883  1.4430 -0.0674 -0.9476
14512TIP3    H243494   7.850   4.899   2.816  0.9418  0.0798 -0.7063
14513TIP3   OH243495   3.626   6.803   5.112  0.6150 -0.3046 -0.5916
14513TIP3    H143496   3.688   6.765   5.173  1.3276  2.0007  0.2291
14513TIP3    H243497   3.542   6.763   5.134  1.1094 -0.5088  0.9990
14514TIP3   OH243498   4.895   6.153   4.468 -0.6716 -0.4001  0.4713
14514TIP3    H143499   4.860   6.068   4.493 -1.4928 -0.1347  0.2482
14514TIP3    H243500   4.938   6.186   4.547  0.9045 -1.6202  0.1800
14515TIP3   OH243501   5.402   5.023   0.969 -0.0200 -0.2277 -0.2883
14515TIP3    H143502   5.335   4.957   0.952 -0.5422 -0.1431  1.2359
14515TIP3    H243503   5.353   5.102   0.990  0.5990  0.5449 -1.6735
14516TIP3   OH243504   4.254   2.686   5.530 -0.3385 -0.2237 -0.0256
14516TIP3    H143505   4.183   2.711   5.470  0.1377  0.6362 -0.2530
14516TIP3    H243506   4.333   2.689   5.475  0.2845  1.7688  0.8793
14517TIP3   OH243507   4.969   4.390   1.576  0.5074  0.1197  0.0684
14517TIP3    H143508   4.943   4.464   1.630 -2.2386  0.6344 -1.7385
14517TIP3    H243509   5.019   4.429   1.504  2.2135 -0.2907  0.9854
14518TIP3   OH243510   1.330   5.258   5.120 -0.0216 -0.2354  0.0835
14518TIP3    H143511   1.252   5.241   5.172 -0.4525  1.1241 -0.0889
14518TIP3    H243512   1.337   5.353   5.116  2.3640 -0.2781  1.1606
14519TIP3   OH243513   7.387   1.557   1.848 -0.2236  0.0844  0.1466
14519TIP3    H143514   7.378   1.609   1.928  0.8441  0.7406 -0.1393
14519TIP3    H243515   7.385   1.622   1.777 -1.1601 -0.4891 -0.3768
14520TIP3   OH243516   7.875   6.369   3.477  0.0617 -0.1552 -0.2919
14520TIP3    H143517   7.836   6.381   3.391  0.2719 -0.9177 -0.5077
14520TIP3    H243518   7.936   6.443   3.487 -2.4093  1.8766  0.6647
14521TIP3   OH243519   4.669   5.284   4.345 -0.3323 -0.3216 -0.2312
14521TIP3    H143520   4.575   5.297   4.333 -0.2615  2.8383  1.6081
14521TIP3    H243521   4.707   5.316   4.263 -0.7756 -1.5027 -0.9368
14522TIP3   OH243522   8.050   0.955   0.334 -0.0230  0.4793 -0.1912
14522TIP3    H143523   7.975   0.908   0.371 -0.5147 -0.7283 -2.5619
14522TIP3    H243524   8.035   1.046   0.357 -0.7065 -0.0846  1.8074
14523TIP3   OH243525   4.380   0.845   0.653  0.0634  0.7287 -1.0674
14523TIP3    H143526   4.367   0.771   0.593  2.1764 -0.8200  0.2708
14523TIP3    H243527   4.325   0.824   0.729  1.8983 -0.3711  0.0124
14524TIP3   OH243528   4.883   5.977   1.168  0.1292 -0.0813  0.0510
14524TIP3    H143529   4.942   5.907   1.139 -0.3941 -1.1458  1.4609
14524TIP3    H243530   4.796   5.939   1.161 -0.2287  0.7231  0.0680
14525TIP3   OH243531   6.654   2.683   0.159 -0.3153 -0.5471 -0.1409
14525TIP3    H143532   6.655   2.772   0.123  2.1747  0.4696  2.1132
14525TIP3    H243533   6.581   2.683   0.221 -0.5118 -0.1624 -0.3677
14526TIP3   OH243534   2.379   2.372   2.890 -0.4139 -0.3513  0.2084
14526TIP3    H143535   2.403   2.355   2.799 -2.2304 -0.3610 -0.3023
14526TIP3    H243536   2.353   2.465   2.891  0.6504 -0.0332  0.9848
14527TIP3   OH243537   3.526   6.421   2.864  0.3561  0.5258 -0.1332
14527TIP3    H143538   3.613   6.399   2.896  0.8473 -0.3968 -1.9923
14527TIP3    H243539   3.466   6.383   2.928  1.2485  2.7457  2.1947
14528TIP3   OH243540   1.918   6.772   1.531  0.6154 -0.2384 -0.5112
14528TIP3    H143541   1.867   6.782   1.450  0.0432 -0.5145 -0.1860
14528TIP3    H243542   1.959   6.686   1.523 -1.0337 -1.1404  0.3730
14529TIP3   OH243543   2.387   2.118   0.601  0.1120 -0.5668 -0.1832
14529TIP3    H143544   2.330   2.044   0.579 -0.4210  0.0185 -0.8316
14529TIP3    H243545   2.452   2.082   0.660  0.6263 -1.8490 -1.4750
14530TIP3   OH243546   0.186   6.594   2.416  0.5041 -0.0152 -0.0580
14530TIP3    H143547   0.184   6.548   2.332  2.1397 -1.4859  0.6364
14530TIP3    H243548   0.274   6.577   2.450 -0.3038  0.0757  2.2150
14531TIP3   OH243549   3.609   1.182   1.420  0.3494  0.1757  0.4934
14531TIP3    H143550   3.668   1.119   1.378 -0.6476 -0.9880  0.7685
14531TIP3    H243551   3.633   1.267   1.383  1.0786 -0.5013 -0.6336
14532TIP3   OH243552   0.073   3.676   3.142 -0.0581  0.3120 -0.1594
14532TIP3    H143553   0.075   3.746   3.207  0.7272 -0.6662  0.9405
14532TIP3    H243554  -0.018   3.646   3.141 -0.3074  1.0735 -0.3347
14533TIP3   OH243555   5.165   0.998   1.539 -0.3263  0.0171  0.4818
14533TIP3    H143556   5.254   1.017   1.568 -0.0834  0.9185 -0.7564
14533TIP3    H243557   5.163   0.903   1.525  1.0122  0.1955 -1.2019
14534TIP3   OH243558   0.113   2.410   3.149 -0.0602 -0.1093 -0.0111
14534TIP3    H143559   0.171   2.423   3.224 -0.5159  1.6663  0.0791
14534TIP3    H243560   0.031   2.379   3.187  0.7307 -2.5918 -0.1363
14535TIP3   OH243561   0.014   6.215   1.624  0.4419  0.3737  0.2821
14535TIP3    H143562   0.019   6.274   1.549  0.5233 -0.3933 -0.3214
14535TIP3    H243563   0.094   6.162   1.618  0.3840  0.2176  0.8373
14536TIP3   OH243564   3.303   4.813   5.376  0.6992  0.5519  0.0031
14536TIP3    H143565   3.275   4.877   5.311  1.9873 -0.1838 -1.3385
14536TIP3    H243566   3.365   4.860   5.432  1.6648  0.5109 -0.9963
14537TIP3   OH243567   0.036   1.184   3.163  0.1045 -0.5423 -0.0255
14537TIP3    H143568  -0.024   1.185   3.089  2.2196  0.2803 -1.8526
14537TIP3    H243569   0.088   1.264   3.153  1.1022 -0.9060  1.8052
14538TIP3   OH243570   8.226   4.239   5.568 -0.3556 -0.3351  0.3207
14538TIP3    H143571   8.144   4.189   5.564  0.1878 -1.1985 -1.9273
14538TIP3    H243572   8.294   4.172   5.564  0.4857  0.4131  1.4986
14539TIP3   OH243573   7.083   3.204   1.463  0.0855  0.7401  0.1193
14539TIP3    H143574   7.097   3.130   1.523  1.2419  1.2910  0.5517
14539TIP3    H243575   7.058   3.277   1.521 -0.5322  0.8305 -0.2520
14540TIP3   OH243576   7.427   0.763   2.124  0.2376 -0.0412 -0.3318
14540TIP3    H143577   7.490   0.720   2.066  0.1656 -1.9846  0.9461
14540TIP3    H243578   7.468   0.760   2.210 -1.6266 -1.5192  0.5680
14541TIP3   OH243579   2.314   1.396   1.785  0.0676  0.1367  0.0154
14541TIP3    H143580   2.373   1.396   1.709  0.1674 -0.6415  0.0850
14541TIP3    H243581   2.310   1.304   1.812  0.5290  0.4945  1.3468
14542TIP3   OH243582   2.976   0.296   3.239 -0.0111 -0.2532 -0.6165
14542TIP3    H143583   3.032   0.352   3.186 -0.1345  0.0919 -0.3790
14542TIP3    H243584   3.036   0.255   3.302  0.0370 -0.1868 -0.6192
14543TIP3   OH243585   1.005   3.895   1.971 -0.2232  0.0573 -0.1115
14543TIP3    H143586   1.069   3.859   2.032 -0.0309 -0.3973 -0.5716
14543TIP3    H243587   0.926   3.843   1.985 -0.9557  1.4989  1.4199
14544TIP3   OH243588   5.471   1.515   1.918  0.3399  0.1272  0.0929
14544TIP3    H143589   5.560   1.542   1.894  0.4525 -1.6384 -1.8224
14544TIP3    H243590   5.425   1.597   1.938  1.6055  1.3837 -1.8366
14545TIP3   OH243591   6.551   6.423   3.270  0.2343 -0.3110  0.0709
14545TIP3    H143592   6.488   6.376   3.325 -0.6955  1.2975  0.4486
14545TIP3    H243593   6.633   6.375   3.282 -0.6417 -1.7981  0.4496
14546TIP3   OH243594   4.182   2.799   2.194  0.2313 -0.1553  0.4216
14546TIP3    H143595   4.087   2.797   2.178  0.4234 -2.1058 -0.7653
14546TIP3    H243596   4.196   2.880   2.243 -1.9064  0.6706 -0.2244
14547TIP3   OH243597   1.845   5.525   3.539  0.3599  0.0405 -0.0713
14547TIP3    H143598   1.840   5.436   3.504  2.5520  0.5948 -2.0377
14547TIP3    H243599   1.866   5.512   3.632 -1.9578 -1.4476  0.3375
14548TIP3   OH243600   7.739   6.264   3.205 -0.3871  0.4144 -0.0711
14548TIP3    H143601   7.827   6.283   3.172 -0.9718 -0.4483 -2.3692
14548TIP3    H243602   7.751   6.190   3.264  0.4673  0.5065 -0.1226
14549TIP3   OH243603   4.088   4.872   5.408 -0.1266  0.0373  0.4799
14549TIP3    H143604   4.045   4.793   5.443 -0.3557  0.8825  2.2412
14549TIP3    H243605   4.171   4.876   5.454  0.0060  0.6698  0.1910
14550TIP3   OH243606   2.574   7.030   4.490  0.2273  0.1652  0.7204
14550TIP3    H143607   2.547   7.009   4.579  0.6406 -1.1163  0.5709
14550TIP3    H243608   2.549   7.121   4.478  0.7790  0.5688  2.3827
14551TIP3   OH243609   4.158   6.986   4.250  0.4969  0.1480  0.3786
14551TIP3    H143610   4.150   7.042   4.173  2.9208 -0.5512 -0.4865
14551TIP3    H243611   4.083   6.927   4.244 -0.7975  1.7427  0.0353
14552TIP3   OH243612   1.564   7.448   4.716  0.0183 -0.3399  0.1436
14552TIP3    H143613   1.653   7.483   4.716 -0.8379  2.0320  0.8298
14552TIP3    H243614   1.544   7.434   4.809 -0.6055 -0.0758  0.0531
14553TIP3   OH243615   0.197   0.706   3.956 -0.2759  0.1597 -0.2153
14553TIP3    H143616   0.238   0.785   3.922  1.5703 -0.5812  0.1515
14553TIP3    H243617   0.235   0.635   3.904  0.2616 -0.7131  1.2848
14554TIP3   OH243618   3.431   0.115   0.370  0.6114  0.5874  0.5823
14554TIP3    H143619   3.391   0.038   0.410  0.8388  1.1390  1.9359
14554TIP3    H243620   3.477   0.082   0.293 -0.6140 -0.3745  0.2398
14555TIP3   OH243621   4.769   1.919   5.680 -0.9694 -0.4960 -0.4758
14555TIP3    H143622   4.819   1.921   5.761 -1.9690 -1.0135  0.1706
14555TIP3    H243623   4.816   1.978   5.622 -0.5385  0.3143  0.6599
14556TIP3   OH243624   2.109   5.726   6.735  0.4697 -0.0450 -0.3318
14556TIP3    H143625   2.039   5.727   6.670 -0.2149  1.5098  0.3758
14556TIP3    H243626   2.174   5.789   6.702  0.2449  0.5490  0.3284
14557TIP3   OH243627   4.010   0.941   0.996 -0.2622  0.4150  0.3345
14557TIP3    H143628   4.042   0.883   1.065 -0.8244 -0.2912  0.0193
14557TIP3    H243629   3.924   0.905   0.973  0.4883 -0.2164 -1.6909
14558TIP3   OH243630   6.610   5.900   2.158 -0.3089  0.2375 -0.1927
14558TIP3    H143631   6.636   5.898   2.066  0.7825  1.1448  0.0714
14558TIP3    H243632   6.595   5.808   2.181  2.0301 -0.3263 -0.5841
14559TIP3   OH243633   3.410   3.370   6.510  0.4534  0.4483 -0.4829
14559TIP3    H143634   3.328   3.383   6.559 -1.4723  0.4663 -3.4566
14559TIP3    H243635   3.446   3.458   6.500  1.0968  0.3994  1.1717
14560TIP3   OH243636   0.534   4.571   6.402 -0.2213  0.3235 -0.1038
14560TIP3    H143637   0.552   4.490   6.353  2.5122 -0.7195  2.3543
14560TIP3    H243638   0.605   4.630   6.378  0.3874  0.2875  1.4887
14561TIP3   OH243639   7.211   0.929   2.084  0.7089 -0.7524 -0.0987
14561TIP3    H143640   7.299   0.901   2.107  0.5888 -0.7329  0.4024
14561TIP3    H243641   7.168   0.850   2.051 -0.0038 -1.5040  2.4185
14562TIP3   OH243642   5.783   4.690   3.982  0.2606 -0.3675  0.3871
14562TIP3    H143643   5.874   4.698   3.954  0.4299 -1.1772  0.6668
14562TIP3    H243644   5.769   4.596   3.993 -0.3595 -0.2050  1.1483
14563TIP3   OH243645   2.188   1.132   0.431  0.0865 -0.2367 -0.5739
14563TIP3    H143646   2.115   1.083   0.394 -1.4914  1.6833 -0.1198
14563TIP3    H243647   2.173   1.222   0.405  2.1248  0.2765 -0.1568
14564TIP3   OH243648   6.509   6.460   0.376  0.0333 -0.0580  0.3445
14564TIP3    H143649   6.469   6.489   0.458  1.4676 -1.2951  1.5406
14564TIP3    H243650   6.567   6.388   0.402  0.3641 -0.6213 -1.7991
14565TIP3   OH243651   4.424   5.085   1.204 -0.2356  0.3238  0.3123
14565TIP3    H143652   4.352   5.053   1.259  0.6464 -0.4241  1.0811
14565TIP3    H243653   4.497   5.096   1.266  0.8260 -0.6545 -0.7084
14566TIP3   OH243654   2.868   1.321   2.427  0.2475 -0.2084  0.2061
14566TIP3    H143655   2.854   1.229   2.405  1.2364 -0.3476  0.1091
14566TIP3    H243656   2.795   1.344   2.484 -2.0447 -0.0377 -2.5397
14567TIP3   OH243657   7.279   7.821   5.976 -0.1489  0.4517  0.4685
14567TIP3    H143658   7.349   7.796   5.915 -0.3737  0.9344  0.0051
14567TIP3    H243659   7.204   7.769   5.947  0.2742 -0.8672  1.6187
14568TIP3   OH243660   7.488   6.267   5.957 -0.3527 -0.3469  0.1034
14568TIP3    H143661   7.566   6.227   5.920 -0.8002 -0.1047 -1.1358
14568TIP3    H243662   7.421   6.198   5.951 -1.1285  0.5216 -2.0449
14569TIP3   OH243663   3.546   2.583   0.252  0.5502  0.0482 -0.3017
14569TIP3    H143664   3.552   2.676   0.230 -0.8375  0.3359  0.4630
14569TIP3    H243665   3.629   2.546   0.221  0.1986  1.0725 -2.7025
14570TIP3   OH243666   4.323   0.795   2.464 -0.1016 -0.5073 -0.1018
14570TIP3    H143667   4.314   0.801   2.369  0.5253  0.9495 -0.0953
14570TIP3    H243668   4.336   0.702   2.481  0.9736 -0.6541 -1.5567
14571TIP3   OH243669   5.747   6.905   2.385  0.0034 -0.3774  0.4281
14571TIP3    H143670   5.834   6.942   2.370 -0.3890  0.4475  0.0985
14571TIP3    H243671   5.748   6.821   2.340  0.3264  0.0494 -0.3691
14572TIP3   OH243672   5.697   1.077   0.734 -0.4737  0.1897  0.4830
14572TIP3    H143673   5.649   1.157   0.754  0.5349  0.5018  1.8386
14572TIP3    H243674   5.631   1.015   0.705 -1.3372  1.3632 -0.1162
14573TIP3   OH243675   4.418   0.766   4.808 -0.1842 -0.1957 -0.2081
14573TIP3    H143676   4.403   0.672   4.818 -0.9333  0.1249  2.6191
14573TIP3    H243677   4.330   0.804   4.806  0.1216  0.5087 -0.4239
14574TIP3   OH243678   1.427   4.418   3.341  0.1531  0.4139 -0.0800
14574TIP3    H143679   1.353   4.359   3.354  0.5333 -0.1450 -0.4394
14574TIP3    H243680   1.401   4.498   3.386 -0.8638  0.3800 -0.5711
14575TIP3   OH243681   4.253   0.497   2.364  0.6617  0.1634 -0.0251
14575TIP3    H143682   4.337   0.539   2.380  1.7306 -1.2625 -1.5236
14575TIP3    H243683   4.257   0.416   2.416  0.5314 -0.2496 -0.6442
14576TIP3   OH243684   7.566   3.321   2.896  0.2405 -0.1905  0.4144
14576TIP3    H143685   7.492   3.283   2.943  0.7948 -0.8403  0.7831
14576TIP3    H243686   7.579   3.263   2.821  0.8633 -0.5393  0.7809
14577TIP3   OH243687   8.039   5.472   6.438 -0.6105 -0.0760  0.2651
14577TIP3    H143688   8.041   5.450   6.531  0.6834 -0.8930  0.0742
14577TIP3    H243689   7.998   5.396   6.396 -0.5644 -0.0176  0.1126
14578TIP3   OH243690   4.876   5.548   3.622 -0.1005 -0.3183 -0.1885
14578TIP3    H143691   4.914   5.480   3.567  0.3863 -1.0722  1.0475
14578TIP3    H243692   4.822   5.501   3.685 -1.1569  0.5719 -0.3877
14579TIP3   OH243693   4.762   6.004   0.435 -0.0147  0.3265  0.0505
14579TIP3    H143694   4.694   5.943   0.407 -0.0847  0.8629 -0.9697
14579TIP3    H243695   4.733   6.033   0.522  0.3821 -1.6170  0.9026
14580TIP3   OH243696   2.585   5.007   3.414 -0.0159 -0.4401  0.1405
14580TIP3    H143697   2.670   4.964   3.408  0.5156  0.6527 -0.4200
14580TIP3    H243698   2.537   4.956   3.479  1.2335 -0.8046  0.8067
14581TIP3   OH243699   4.074   0.861   4.995 -0.8534  0.3245  0.1040
14581TIP3    H143700   4.100   0.803   4.923 -0.4811  1.3830 -0.6365
14581TIP3    H243701   4.151   0.914   5.012 -0.5622 -0.6189  2.0480
14582TIP3   OH243702   8.181   1.995   4.735 -0.3522 -0.2159  0.1590
14582TIP3    H143703   8.199   1.901   4.735 -0.1892 -0.1953 -0.5979
14582TIP3    H243704   8.266   2.036   4.752 -0.2734 -0.1925 -0.2743
14583TIP3   OH243705   1.841   3.870   1.627  0.1888 -0.0985  0.0688
14583TIP3    H143706   1.761   3.818   1.618 -0.3096  0.5531  0.5811
14583TIP3    H243707   1.912   3.806   1.628 -0.1621 -0.5960 -2.1241
14584TIP3   OH243708   2.722   7.109   1.166  0.3197  0.1409  0.4251
14584TIP3    H143709   2.663   7.183   1.181  0.8058  0.6584 -0.1840
14584TIP3    H243710   2.808   7.141   1.194  0.8206  0.3439 -1.2817
14585TIP3   OH243711   7.817   3.255   4.359  0.0354  0.0969  0.2295
14585TIP3    H143712   7.824   3.345   4.327 -2.8559  0.8107  1.3038
14585TIP3    H243713   7.858   3.258   4.446 -2.8025  1.3418  1.6819
14586TIP3   OH243714   5.354   5.556   5.677 -0.1352  0.0778 -0.0779
14586TIP3    H143715   5.281   5.576   5.618  0.0014 -0.1232 -0.3185
14586TIP3    H243716   5.340   5.612   5.753 -1.2555 -0.8429  0.4409
14587TIP3   OH243717   3.985   6.962   2.186 -0.0326 -0.1073 -0.2757
14587TIP3    H143718   3.902   6.986   2.145 -0.3065  0.5629  0.6310
14587TIP3    H243719   4.052   6.990   2.124 -0.4374  0.8438 -0.3003
14588TIP3   OH243720   0.584   6.809   4.121  0.4945 -0.0895  0.0786
14588TIP3    H143721   0.631   6.798   4.203 -1.1642 -1.2115  0.9421
14588TIP3    H243722   0.515   6.872   4.142  0.9952  0.8142 -0.9037
14589TIP3   OH243723   6.769   1.090   6.052 -0.5683  0.5590  0.2878
14589TIP3    H143724   6.755   0.996   6.063 -3.0668  0.9323  1.0336
14589TIP3    H243725   6.822   1.098   5.973 -1.5844 -1.4473 -0.6607
14590TIP3   OH243726   2.909   0.818   6.534 -0.4211 -0.2177 -0.1803
14590TIP3    H143727   2.958   0.748   6.578  0.3057 -1.3700 -2.6460
14590TIP3    H243728   2.920   0.894   6.590  0.5975 -1.5328  1.5096
14591TIP3   OH243729   3.901   6.073   3.763 -0.2894 -0.4787 -0.5847
14591TIP3    H143730   3.972   6.052   3.823 -0.7689 -1.6390 -0.4035
14591TIP3    H243731   3.835   6.117   3.818 -0.2737 -0.5875 -0.4790
14592TIP3   OH243732   7.202   0.089   5.347 -0.3792 -0.5877 -0.1136
14592TIP3    H143733   7.186   0.013   5.291  1.9114 -1.0778 -0.2173
14592TIP3    H243734   7.292   0.115   5.326 -0.5424  1.1365  1.1315
14593TIP3   OH243735   5.370   0.694   3.682 -0.1236 -0.0531 -0.2049
14593TIP3    H143736   5.448   0.651   3.646 -0.4615 -1.4910  0.7047
14593TIP3    H243737   5.389   0.788   3.675  0.8040 -0.3191 -1.8988
14594TIP3   OH243738   8.276   3.196   2.955 -0.1809 -0.4313  0.3292
14594TIP3    H143739   8.190   3.185   2.996 -2.0642  1.2840 -2.7504
14594TIP3    H243740   8.281   3.127   2.889 -0.3739  0.9235 -1.1718
14595TIP3   OH243741   1.400   0.187   0.567 -0.4846 -0.0531 -0.6720
14595TIP3    H143742   1.486   0.225   0.550 -0.9796  1.7701  0.6078
14595TIP3    H243743   1.374   0.149   0.483  0.5024  1.6056 -1.7880
14596TIP3   OH243744   4.500   6.660   0.785 -0.4083  0.1192 -0.2900
14596TIP3    H143745   4.565   6.680   0.853 -0.1700  1.7715 -0.9528
14596TIP3    H243746   4.510   6.566   0.770 -1.2395 -0.5565  2.7067
14597TIP3   OH243747   6.460   3.482   1.839  0.3779 -0.3907 -0.5567
14597TIP3    H143748   6.550   3.453   1.844  0.7979  0.6679 -1.5484
14597TIP3    H243749   6.456   3.535   1.760 -1.2806 -0.9583 -0.8938
14598TIP3   OH243750   5.320   4.043   0.881  0.0318  0.2190 -0.1551
14598TIP3    H143751   5.240   3.991   0.886  0.6824 -0.8873 -0.8017
14598TIP3    H243752   5.294   4.121   0.833 -0.8258  0.2108  0.2689
14599TIP3   OH243753   3.843   4.275   4.183  0.6153  0.2947 -0.1012
14599TIP3    H143754   3.853   4.267   4.088 -2.4795  1.0324 -0.5935
14599TIP3    H243755   3.797   4.195   4.209  2.9093 -0.7340  1.1601
14600TIP3   OH243756   5.462   5.748   5.023  0.0783 -0.3181  0.2763
14600TIP3    H143757   5.395   5.812   4.998 -0.8240 -0.7103  1.6195
14600TIP3    H243758   5.539   5.801   5.045  0.4397  0.1071 -1.8147
14601TIP3   OH243759   4.426   5.473   4.691 -0.0663  0.6993  0.3701
14601TIP3    H143760   4.387   5.410   4.630  2.9888 -0.7888 -0.2679
14601TIP3    H243761   4.414   5.434   4.777  0.1672  0.1599  0.1639
14602TIP3   OH243762   0.860   1.940   6.082 -0.2154 -0.7081  0.3391
14602TIP3    H143763   0.906   1.928   6.165  0.5679  0.0342  0.0283
14602TIP3    H243764   0.769   1.917   6.101  0.0874 -1.1968  1.2275
14603TIP3   OH243765   5.307   3.088   0.791 -0.3465  0.7079 -0.2393
14603TIP3    H143766   5.354   3.006   0.809 -0.4237  0.3846 -1.4555
14603TIP3    H243767   5.376   3.154   0.789 -0.0561  0.3947 -0.9826
14604TIP3   OH243768   5.857   5.491   4.319 -0.6145 -0.5237  0.4568
14604TIP3    H143769   5.798   5.441   4.375  0.6740 -2.0644  0.5091
14604TIP3    H243770   5.940   5.493   4.367 -0.0056 -0.2626 -0.5697
14605TIP3   OH243771   2.477   0.015   6.623  0.7332  0.2395  0.1184
14605TIP3    H143772   2.413   0.015   6.694  0.8119  2.4884  0.2632
14605TIP3    H243773   2.427   0.040   6.546  1.0379 -0.2064 -0.2321
14606TIP3   OH243774   4.355   3.672   0.976  0.1125  0.0831  0.4389
14606TIP3    H143775   4.342   3.765   0.994  0.8080 -0.0737  1.9011
14606TIP3    H243776   4.432   3.648   1.028  0.6372 -1.0669 -0.7854
14607TIP3   OH243777   4.055   6.325   4.058 -0.0550 -0.4332 -0.4940
14607TIP3    H143778   4.033   6.399   4.003  4.0115  0.7175 -0.9495
14607TIP3    H243779   4.039   6.248   4.003  0.0090  0.4249 -1.7482
14608TIP3   OH243780   2.817   0.382   5.017 -0.0830  0.1117  0.0248
14608TIP3    H143781   2.911   0.391   5.003  0.0315  0.6410  1.0358
14608TIP3    H243782   2.799   0.437   5.093 -1.1272 -0.3583  0.1330
14609TIP3   OH243783   3.127   3.903   6.598  0.6576  0.0405  0.0145
14609TIP3    H143784   3.040   3.869   6.574  1.1573 -1.1857 -0.1183
14609TIP3    H243785   3.132   3.888   6.693  1.4775 -1.7694 -0.2651
14610TIP3   OH243786   0.553   2.309   3.721  0.2151 -0.4456  0.0760
14610TIP3    H143787   0.627   2.286   3.777  0.1165 -1.0774 -0.0505
14610TIP3    H243788   0.590   2.370   3.657  1.4364 -3.1570 -1.9991
14611TIP3   OH243789   7.326   2.571   5.759  0.6453 -0.0349  0.0683
14611TIP3    H143790   7.335   2.658   5.798 -0.8069 -0.3012  1.0630
14611TIP3    H243791   7.239   2.542   5.786  0.8594 -1.5390 -0.7882
14612TIP3   OH243792   7.087   2.718   2.291 -0.3845 -0.4257 -0.2407
14612TIP3    H143793   7.093   2.741   2.198 -0.9726  0.9765  0.0582
14612TIP3    H243794   7.175   2.737   2.326  0.1612 -1.9489 -0.6969
14613TIP3   OH243795   1.437   4.677   0.997 -0.0395  0.2460  0.1350
14613TIP3    H143796   1.512   4.650   0.944  0.9721  2.2086  0.4529
14613TIP3    H243797   1.361   4.667   0.939  0.8406  0.8618 -1.1690
14614TIP3   OH243798   3.134   3.814   0.224 -0.6599 -0.0823 -0.4787
14614TIP3    H143799   3.104   3.783   0.138 -0.2746  1.2672 -1.1192
14614TIP3    H243800   3.107   3.905   0.227 -0.8229 -0.1583  0.9297
14615TIP3   OH243801   6.826   6.272   6.359  0.6094  0.0109  0.3417
14615TIP3    H143802   6.917   6.269   6.387  0.7655  0.2259 -0.1255
14615TIP3    H243803   6.822   6.209   6.286  0.3699 -0.0466  0.4027
14616TIP3   OH243804   1.247   6.016   4.350 -0.3175 -0.0553 -0.0421
14616TIP3    H143805   1.342   6.018   4.339 -0.4349  0.4745 -1.1851
14616TIP3    H243806   1.218   5.954   4.283 -0.6492 -1.8341  1.6558
14617TIP3   OH243807   8.165   4.380   1.323  0.2684 -0.2007  0.1154
14617TIP3    H143808   8.164   4.474   1.341  2.9813  0.2045 -1.1688
14617TIP3    H243809   8.155   4.375   1.228  3.0691 -0.8915 -0.2293
14618TIP3   OH243810   8.102   3.310   1.495 -0.6084  0.3511  0.0613
14618TIP3    H143811   8.054   3.385   1.530  1.4569  2.8689 -2.0442
14618TIP3    H243812   8.051   3.282   1.419 -0.1467  1.2713 -0.5995
14619TIP3   OH243813   2.774   5.687   3.958 -0.1690 -0.1791 -0.0584
14619TIP3    H143814   2.685   5.710   3.987 -0.7036 -1.8901 -0.1928
14619TIP3    H243815   2.816   5.651   4.036  0.7949  1.5524  0.2657
14620TIP3   OH243816   4.650   7.454   6.401  0.5314  0.2918 -0.7325
14620TIP3    H143817   4.664   7.544   6.371 -0.5348  0.8671  0.4549
14620TIP3    H243818   4.605   7.462   6.485 -1.2306 -1.3658 -1.4415
14621TIP3   OH243819   3.310   7.441   3.948  0.5489  0.2670 -0.2516
14621TIP3    H143820   3.236   7.399   3.905 -0.4801  1.6426  0.1194
14621TIP3    H243821   3.271   7.493   4.019  1.9613  0.1926  0.6169
14622TIP3   OH243822   4.767   0.881   4.527  0.1409  0.3632 -0.4882
14622TIP3    H143823   4.674   0.903   4.520  0.0911  0.2100 -0.3099
14622TIP3    H243824   4.810   0.963   4.549  0.2693  0.8255 -2.2988
14623TIP3   OH243825   0.713   3.389   5.068 -0.0207  0.1483 -0.2257
14623TIP3    H143826   0.742   3.338   5.145 -0.5088  0.4543  0.1687
14623TIP3    H243827   0.773   3.463   5.065  1.4708 -1.0460 -1.5211
14624TIP3   OH243828   4.066   4.189   1.067 -0.2125  0.0562  0.3970
14624TIP3    H143829   4.118   4.244   1.008  0.8515  0.4918  1.6887
14624TIP3    H243830   3.976   4.213   1.049  0.0062 -0.4414 -1.6408
14625TIP3   OH243831   6.569   6.703   0.781  0.0846 -0.0542 -0.1460
14625TIP3    H143832   6.588   6.666   0.695  0.0563 -0.9551  0.2269
14625TIP3    H243833   6.620   6.784   0.785 -1.9460  1.4375 -2.0536
14626TIP3   OH243834   4.899   3.762   0.249 -0.5375  0.5141  0.3588
14626TIP3    H143835   4.934   3.749   0.161  3.5873  1.8911  1.5790
14626TIP3    H243836   4.854   3.679   0.269 -1.6181  0.1500 -2.8999
14627TIP3   OH243837   0.952   4.948   3.117 -0.3788  0.4279 -0.2409
14627TIP3    H143838   1.008   4.939   3.194 -1.0177 -0.7024  0.1135
14627TIP3    H243839   0.863   4.940   3.150 -0.6714  0.0412 -1.0781
14628TIP3   OH243840   3.411   4.079   4.424 -0.3427 -0.2501 -0.0810
14628TIP3    H143841   3.350   4.067   4.351  0.4354  1.0545 -0.9974
14628TIP3    H243842   3.496   4.052   4.388  0.2648  1.5052 -0.0934
14629TIP3   OH243843   2.935   0.057   2.450  0.1291  0.0426 -0.6199
14629TIP3    H143844   2.951  -0.026   2.404  0.5292 -0.6292  0.6740
14629TIP3    H243845   3.022   0.085   2.478 -0.1863 -0.0354  0.4844
14630TIP3   OH243846   7.299   4.681   6.191 -0.3249 -0.4217 -0.1343
14630TIP3    H143847   7.268   4.595   6.219 -1.9171  0.4561  0.9646
14630TIP3    H243848   7.337   4.718   6.271 -1.3578  0.5978 -0.0942
14631TIP3   OH243849   3.401   1.534   0.994  0.1080  0.0616  0.9571
14631TIP3    H143850   3.453   1.455   1.011  0.6152  0.0562 -0.4609
14631TIP3    H243851   3.314   1.501   0.972  0.2151 -0.0912  0.7531
14632TIP3   OH243852   7.964   5.326   1.855  0.1104 -0.1085 -0.3863
14632TIP3    H143853   8.002   5.311   1.769  3.5266 -2.4344  1.2742
14632TIP3    H243854   7.905   5.252   1.868 -1.6444  1.0729 -1.2057
14633TIP3   OH243855   1.513   5.668   6.535 -0.0489 -0.4221 -1.1917
14633TIP3    H143856   1.591   5.630   6.574  0.7223  0.9719 -1.2862
14633TIP3    H243857   1.546   5.714   6.457 -0.9944 -0.0517 -1.3850
14634TIP3   OH243858   6.556   4.593   0.043  0.4913  0.0745  0.5002
14634TIP3    H143859   6.506   4.603   0.123 -0.6973  1.9773 -0.4103
14634TIP3    H243860   6.505   4.532  -0.010  0.0535  0.6262  0.2808
14635TIP3   OH243861   5.504   6.693   4.121 -0.5383  0.2441  0.0359
14635TIP3    H143862   5.569   6.622   4.125  2.5597  2.7506 -1.5507
14635TIP3    H243863   5.437   6.660   4.061 -2.5727 -3.5847  3.8556
14636TIP3   OH243864   6.904   7.124   5.100 -0.0804  0.3191 -0.0387
14636TIP3    H143865   6.830   7.181   5.084 -0.4056 -0.2855 -0.7190
14636TIP3    H243866   6.980   7.173   5.070 -0.0158  1.4713  1.8370
14637TIP3   OH243867   2.978   3.961   3.052  0.2799  0.1461  0.4164
14637TIP3    H143868   3.014   4.007   2.976  0.9620 -1.0293  0.0142
14637TIP3    H243869   3.026   3.996   3.127 -0.5684  1.4940  0.3715
14638TIP3   OH243870   6.435   5.197   3.140  0.2343  0.2401 -0.0005
14638TIP3    H143871   6.346   5.189   3.103 -0.1791 -1.1201  1.2033
14638TIP3    H243872   6.422   5.196   3.234  1.5537 -0.1186  0.1949
14639TIP3   OH243873   5.697   2.292   2.923  0.7929  0.1796 -0.0271
14639TIP3    H143874   5.691   2.387   2.932  0.8435  0.2163 -0.3678
14639TIP3    H243875   5.612   2.267   2.886  1.3963  0.2870 -1.5223
14640TIP3   OH243876   1.708   1.455   0.500  0.1615  0.3523 -0.1519
14640TIP3    H143877   1.656   1.484   0.425 -0.5136 -0.5538 -0.0532
14640TIP3    H243878   1.700   1.526   0.564  0.0364  0.7529 -0.6118
14641TIP3   OH243879   7.869   4.776   0.581 -0.3533  0.4470  0.1148
14641TIP3    H143880   7.895   4.868   0.581  3.1163 -0.4049  0.9826
14641TIP3    H243881   7.935   4.731   0.528 -1.8334 -1.6305 -0.1335
14642TIP3   OH243882   0.838   4.360   1.197 -0.1348 -1.1661  0.5556
14642TIP3    H143883   0.885   4.327   1.274  0.8644 -2.0253 -0.3830
14642TIP3    H243884   0.793   4.283   1.162 -0.9785 -0.6765  0.5454
14643TIP3   OH243885   1.720   4.943   5.884  0.0906 -0.5471 -0.3641
14643TIP3    H143886   1.700   4.880   5.815 -1.2360 -0.1739 -0.3406
14643TIP3    H243887   1.663   5.018   5.867  0.7158  0.1238  0.3553
14644TIP3   OH243888   2.798   6.716   2.879 -0.0685 -0.0885  0.3693
14644TIP3    H143889   2.840   6.664   2.947  1.2785  0.0126 -0.3465
14644TIP3    H243890   2.771   6.796   2.923 -0.9277 -0.8089  1.1828
14645TIP3   OH243891   1.317   1.829   1.966  0.2978 -0.6934  0.3029
14645TIP3    H143892   1.293   1.885   2.040 -0.1109 -1.1645  0.5337
14645TIP3    H243893   1.345   1.890   1.898  0.2886 -0.2326  0.7028
14646TIP3   OH243894   5.491   0.022   4.552  0.6664  0.5989 -0.0119
14646TIP3    H143895   5.539   0.096   4.512  1.7167  0.2691  0.5899
14646TIP3    H243896   5.442   0.062   4.624 -1.6757  1.2917 -1.8711
14647TIP3   OH243897   6.334   1.511   5.401  1.0333 -0.3557  0.3433
14647TIP3    H143898   6.428   1.512   5.421  1.6386  1.6238 -2.0924
14647TIP3    H243899   6.293   1.554   5.476  2.0824 -1.0024  1.3147
14648TIP3   OH243900   1.859   5.753   1.945 -0.0272 -0.1079 -0.0589
14648TIP3    H143901   1.806   5.696   2.000  0.1850 -1.2544 -0.9941
14648TIP3    H243902   1.799   5.785   1.877  0.6429 -2.3881 -1.8560
14649TIP3   OH243903   5.935   6.405   0.572 -0.0386 -0.7785  0.6608
14649TIP3    H143904   5.863   6.423   0.632 -0.4417 -0.4675  0.0952
14649TIP3    H243905   5.943   6.309   0.573  1.6472 -0.7025  3.1292
14650TIP3   OH243906   1.440   4.270   2.306 -0.6966 -0.4070 -0.0801
14650TIP3    H143907   1.407   4.239   2.221 -1.1627  1.1196 -0.4918
14650TIP3    H243908   1.405   4.359   2.314 -0.3550 -0.3880  1.5589
14651TIP3   OH243909   5.789   1.358   0.365  0.5367 -0.4906 -0.2517
14651TIP3    H143910   5.813   1.298   0.436  0.8196 -0.1093 -0.0220
14651TIP3    H243911   5.694   1.364   0.368  0.5689 -0.2432  0.2843
14652TIP3   OH243912   4.403   6.128   2.412 -0.2916 -0.2434  0.2733
14652TIP3    H143913   4.444   6.214   2.414 -1.7119  0.4522  1.3581
14652TIP3    H243914   4.362   6.123   2.325 -1.5595  0.8786  0.7747
14653TIP3   OH243915   6.335   3.357   2.501  0.5856  0.3139  0.1436
14653TIP3    H143916   6.275   3.405   2.559 -0.5536 -0.1695 -0.6037
14653TIP3    H243917   6.333   3.267   2.533  0.1550  0.0992 -0.4697
14654TIP3   OH243918   0.474   4.790   4.101 -0.4054 -0.5307  0.6414
14654TIP3    H143919   0.463   4.859   4.167  1.0693  0.0506  0.3235
14654TIP3    H243920   0.555   4.745   4.127 -0.8110 -1.5031  0.2684
14655TIP3   OH243921   0.460   4.612   5.467  0.2667 -0.5136  0.3188
14655TIP3    H143922   0.412   4.585   5.546 -2.9050 -0.2228 -1.3541
14655TIP3    H243923   0.466   4.533   5.414 -0.3971 -0.0788 -0.4290
14656TIP3   OH243924   5.148   4.598   2.983  0.4479  0.1092 -0.4902
14656TIP3    H143925   5.066   4.559   2.952  0.3253  0.7373 -0.9579
14656TIP3    H243926   5.216   4.544   2.942  0.2889 -1.2135  0.9036
14657TIP3   OH243927   7.502   5.963   5.356  0.2734  0.4514  0.5470
14657TIP3    H143928   7.491   5.875   5.320 -2.2547  0.0982  1.9793
14657TIP3    H243929   7.452   6.020   5.297  2.8467  1.2488 -1.0686
14658TIP3   OH243930   2.044   3.848   2.003  0.2283  0.3911  0.2321
14658TIP3    H143931   2.078   3.929   1.966  1.1580  0.4566  1.1892
14658TIP3    H243932   2.004   3.875   2.086 -1.1817  0.1432 -0.3382
14659TIP3   OH243933   6.562   1.212   0.212 -0.0592  0.8513 -0.6760
14659TIP3    H143934   6.472   1.188   0.233  0.1326  0.2354 -0.5315
14659TIP3    H243935   6.560   1.228   0.117 -0.0556 -0.4949 -0.9341
14660TIP3   OH243936   0.183   7.607   3.167  0.3104  0.2869  0.0092
14660TIP3    H143937   0.185   7.552   3.246 -0.2755 -1.3113 -1.0356
14660TIP3    H243938   0.271   7.643   3.161  1.2941 -1.9520 -0.1739
14661TIP3   OH243939   2.711   0.928   2.552 -0.6793 -0.1744  0.0194
14661TIP3    H143940   2.647   0.933   2.623 -2.6473 -1.2176 -1.5823
14661TIP3    H243941   2.677   0.860   2.494  2.0724 -0.9805 -0.7792
14662TIP3   OH243942   6.416   7.148   0.959  0.5412 -0.0673 -0.4856
14662TIP3    H143943   6.420   7.059   0.995 -0.8106 -0.0538 -0.2380
14662TIP3    H243944   6.393   7.202   1.034 -2.2302 -0.0195 -1.2458
14663TIP3   OH243945   8.206   2.569   5.249  0.0151  0.7117  0.0418
14663TIP3    H143946   8.245   2.537   5.330  0.4469  0.8496 -0.1105
14663TIP3    H243947   8.197   2.663   5.263 -0.3341  0.6687  0.1054
14664TIP3   OH243948   3.108   6.086   0.995 -0.0706  0.2280  0.0743
14664TIP3    H143949   3.156   6.169   0.988  3.5949 -1.6066  1.2050
14664TIP3    H243950   3.162   6.023   0.948 -1.4498 -2.0085  1.3156
14665TIP3   OH243951   8.170   3.406   4.193 -0.5767  0.7022  0.0421
14665TIP3    H143952   8.214   3.489   4.210 -0.6075  0.9846 -1.1469
14665TIP3    H243953   8.158   3.367   4.279  2.2611  0.4662  0.4256
14666TIP3   OH243954   0.972   0.897   2.861 -0.1796 -0.0952 -0.4141
14666TIP3    H143955   0.918   0.825   2.891 -0.1644 -0.0994 -0.3972
14666TIP3    H243956   0.909   0.964   2.832 -0.2804  1.0799  2.2603
14667TIP3   OH243957   5.684   4.010   1.724 -0.0404 -0.0676 -0.5464
14667TIP3    H143958   5.607   4.067   1.722  0.7865  1.0549 -1.4666
14667TIP3    H243959   5.658   3.934   1.671 -0.9271 -0.2935  0.1776
14668TIP3   OH243960   7.262   0.168   1.147 -0.0882  0.1122 -0.1905
14668TIP3    H143961   7.307   0.148   1.064 -1.0426  0.1845 -0.7420
14668TIP3    H243962   7.169   0.169   1.124 -0.2688  2.2091  0.4324
14669TIP3   OH243963   0.264   4.833   5.606 -0.5045  0.3113  0.1700
14669TIP3    H143964   0.300   4.860   5.521 -2.1056  2.9406  0.2400
14669TIP3    H243965   0.338   4.791   5.650  1.3754  1.9671 -1.1957
14670TIP3   OH243966   2.993   0.047   3.571  0.3208  0.0616  0.3015
14670TIP3    H143967   3.007   0.140   3.553  0.2007 -0.1005 -0.7203
14670TIP3    H243968   2.941   0.016   3.497 -0.7399 -0.5572  1.2740
14671TIP3   OH243969   5.128   7.554   6.366 -0.4244 -0.1530 -0.6327
14671TIP3    H143970   5.083   7.577   6.285 -0.2523  0.5815 -0.5293
14671TIP3    H243971   5.215   7.592   6.357 -0.2275 -0.5315 -0.3284
14672TIP3   OH243972   8.066   4.844   2.113 -0.1356  0.3605  0.0053
14672TIP3    H143973   8.107   4.921   2.153 -1.3204  0.8408  0.3235
14672TIP3    H243974   7.981   4.837   2.155  0.9429 -2.7532  2.0262
14673TIP3   OH243975   4.325   4.712   6.224  0.2752 -0.7912  0.1814
14673TIP3    H143976   4.350   4.772   6.153 -1.0003  0.4546  0.7274
14673TIP3    H243977   4.245   4.671   6.193  0.6238 -1.5059  0.2166
14674TIP3   OH243978   5.675   6.347   4.369 -0.2487  0.4653 -0.5878
14674TIP3    H143979   5.700   6.428   4.413  0.9595  0.4513 -1.1974
14674TIP3    H243980   5.666   6.371   4.277  0.8639 -0.2104 -0.8981
14675TIP3   OH243981   3.073   2.102   0.586  0.0171 -0.1187 -0.2003
14675TIP3    H143982   2.994   2.119   0.638  0.5341 -0.3585  0.6847
14675TIP3    H243983   3.085   2.182   0.535 -0.2886  0.2733  0.3305
14676TIP3   OH243984   7.571   2.699   1.212 -0.3301 -0.2763  0.0527
14676TIP3    H143985   7.575   2.667   1.302 -0.0829 -0.9766 -0.1995
14676TIP3    H243986   7.529   2.628   1.163  1.6078 -0.9200 -0.8024
14677TIP3   OH243987   4.473   1.878   3.247  0.2573 -0.6937 -0.1562
14677TIP3    H143988   4.538   1.939   3.213 -0.6433  0.1234 -0.4405
14677TIP3    H243989   4.389   1.913   3.218 -0.2380 -2.6090 -1.1921
14678TIP3   OH243990   6.632   6.472   0.918  0.0916  0.3762  0.1197
14678TIP3    H143991   6.606   6.406   0.854  1.9217 -0.2713 -0.0020
14678TIP3    H243992   6.594   6.554   0.885 -0.9356 -0.3358 -0.5291
14679TIP3   OH243993   2.576   3.760   0.126  0.1587 -0.8120 -0.0027
14679TIP3    H143994   2.600   3.834   0.071 -1.1785 -0.2928  0.0838
14679TIP3    H243995   2.606   3.785   0.214  1.1198 -1.0803 -0.2357
14680TIP3   OH243996   6.562   3.191   5.891 -0.0550 -0.1898 -0.1693
14680TIP3    H143997   6.494   3.250   5.924  0.1121  0.2698 -0.6244
14680TIP3    H243998   6.555   3.198   5.796 -0.4957 -1.4533 -0.2498
14681TIP3   OH243999   3.677   4.455   5.346 -0.9080  0.1516 -0.2506
14681TIP3    H144000   3.663   4.462   5.441 -0.6730  2.1488 -0.3272
14681TIP3    H244001   3.631   4.530   5.309  1.2679  0.9477 -1.4688
14682TIP3   OH244002   3.812   3.486   3.072  0.0370 -0.3053 -0.3035
14682TIP3    H144003   3.901   3.451   3.084 -0.2980 -1.1976 -0.3001
14682TIP3    H244004   3.785   3.451   2.988 -0.4564 -0.3605 -0.1222
14683TIP3   OH244005   2.850   4.495   1.058  0.0690 -0.5676  0.2003
14683TIP3    H144006   2.895   4.566   1.012 -0.1368 -0.4070  0.2475
14683TIP3    H244007   2.824   4.534   1.142 -3.9264  0.7021 -1.3953
14684TIP3   OH244008   3.593   3.620   4.849 -0.0526 -0.6656 -0.8388
14684TIP3    H144009   3.655   3.627   4.777  2.1598 -1.7397  0.8478
14684TIP3    H244010   3.582   3.710   4.880  0.7213 -0.4678 -1.1273
14685TIP3   OH244011   4.139   6.731   1.392 -0.2344 -0.3696  0.0658
14685TIP3    H144012   4.208   6.698   1.335 -0.3383  1.2699 -1.1101
14685TIP3    H244013   4.169   6.713   1.481  0.8337 -1.2995 -0.4592
14686TIP3   OH244014   3.084   1.084   4.958 -0.2482 -0.1207 -0.9503
14686TIP3    H144015   3.131   1.022   5.014 -1.5861 -0.4436 -0.1153
14686TIP3    H244016   3.138   1.163   4.959 -1.3703  0.8795  3.0903
14687TIP3   OH244017   0.946   2.190   5.136 -0.0798 -0.6428 -0.5862
14687TIP3    H144018   1.018   2.209   5.196  0.4252  1.3808 -1.7357
14687TIP3    H244019   0.921   2.100   5.156  1.1224 -0.5724  1.5274
14688TIP3   OH244020   6.090   6.582   4.484  0.0744 -0.5697  0.2913
14688TIP3    H144021   6.059   6.648   4.422  0.8028  0.4018  0.9261
14688TIP3    H244022   6.143   6.523   4.430  1.5039  0.8108  0.0980
14689TIP3   OH244023   6.515   1.409   1.021 -0.3272  0.3864 -0.1133
14689TIP3    H144024   6.602   1.417   0.981  0.5076 -2.2781  0.9596
14689TIP3    H244025   6.458   1.384   0.949  0.3204 -0.2875 -0.4118
14690TIP3   OH244026   0.183   6.251   5.654  0.7458 -0.2556 -0.1033
14690TIP3    H144027   0.245   6.323   5.643 -0.7504  0.8111 -2.3440
14690TIP3    H244028   0.236   6.172   5.644  1.9629  0.5912 -0.6145
14691TIP3   OH244029   2.346   6.414   6.469  0.0733 -0.4253 -0.0216
14691TIP3    H144030   2.330   6.425   6.375  3.4223  0.2015 -0.6382
14691TIP3    H244031   2.430   6.369   6.474  0.2042 -0.0451  2.7147
14692TIP3   OH244032   4.618   1.591   0.380 -0.6157 -0.0284  0.5929
14692TIP3    H144033   4.639   1.682   0.362 -3.2631  0.4696 -0.4563
14692TIP3    H244034   4.646   1.578   0.471 -0.3831  1.8928  0.8418
14693TIP3   OH244035   7.755   3.555   5.244 -0.0387  0.8823 -0.9762
14693TIP3    H144036   7.832   3.560   5.300 -0.4358 -0.1339 -0.2951
14693TIP3    H244037   7.753   3.638   5.197  0.7872  1.4104 -0.1052
14694TIP3   OH244038   6.244   0.626   5.655 -0.0169 -0.3624  0.1932
14694TIP3    H144039   6.239   0.631   5.560  1.9210  0.6257  0.0870
14694TIP3    H244040   6.330   0.663   5.676 -0.1837 -1.0529  2.2938
14695TIP3   OH244041   2.043   3.086   0.313 -0.5768  0.2552 -0.0011
14695TIP3    H144042   2.037   3.182   0.316 -0.9851  0.2106  1.1526
14695TIP3    H244043   2.116   3.068   0.253  0.2971  1.3188  0.7082
14696TIP3   OH244044   1.441   4.329   4.488 -0.1159 -0.8409  0.5115
14696TIP3    H144045   1.470   4.243   4.518  2.1125 -0.2597  0.1957
14696TIP3    H244046   1.379   4.358   4.556 -2.4595 -3.4250 -0.3421
14697TIP3   OH244047   1.403   2.021   0.578 -0.2601  0.2817 -0.1045
14697TIP3    H144048   1.441   1.981   0.656 -0.4975  0.8438  0.3070
14697TIP3    H244049   1.456   1.988   0.506 -1.4147 -2.0548  0.0153
14698TIP3   OH244050   5.111   5.087   5.975 -0.5103 -0.3319 -0.3825
14698TIP3    H144051   5.123   5.129   5.889 -0.2937  1.6112  0.5284
14698TIP3    H244052   5.018   5.067   5.980 -0.6708  0.3085 -0.7501
14699TIP3   OH244053   5.664   5.249   4.114 -0.4105  0.4376 -0.3673
14699TIP3    H144054   5.571   5.233   4.131 -0.8232  0.9607 -1.9535
14699TIP3    H244055   5.670   5.250   4.018  1.5294 -1.3031 -0.3239
14700TIP3   OH244056   5.110   3.564   2.075  0.3934 -0.2464 -0.3018
14700TIP3    H144057   5.075   3.485   2.116 -0.2895  1.1743  2.1176
14700TIP3    H244058   5.200   3.570   2.108  0.0267  0.6030  0.6155
14701TIP3   OH244059   2.632   1.559   1.922  0.1768 -0.6599  0.1613
14701TIP3    H144060   2.620   1.508   1.841  3.0078  0.8723 -1.3626
14701TIP3    H244061   2.699   1.512   1.971  0.3706 -0.1853  0.3584
14702TIP3   OH244062   4.979   7.615   6.116  0.2300  0.0165 -0.0253
14702TIP3    H144063   4.958   7.537   6.065  1.0280  0.0973 -0.4934
14702TIP3    H244064   4.987   7.685   6.052  2.5847 -0.1453 -0.0142
14703TIP3   OH244065   1.443   6.366   4.075  0.2275 -0.1748  0.1979
14703TIP3    H144066   1.531   6.356   4.112  0.2135 -2.2808 -0.2378
14703TIP3    H244067   1.445   6.315   3.994 -1.9634 -2.0329  1.2073
14704TIP3   OH244068   0.342   0.626   6.485  0.3351 -0.7721 -0.3586
14704TIP3    H144069   0.250   0.628   6.508 -0.0096 -2.2557 -1.4174
14704TIP3    H244070   0.376   0.712   6.511 -1.2196 -0.3763  0.4705
14705TIP3   OH244071   2.408   1.862   5.210  0.0915 -0.6136 -0.3481
14705TIP3    H144072   2.484   1.920   5.211  1.0996 -1.7551 -3.0916
14705TIP3    H244073   2.353   1.896   5.140 -0.7570 -1.2257  0.0058
14706TIP3   OH244074   3.371   0.805   1.157 -0.1996  0.2540 -0.3592
14706TIP3    H144075   3.418   0.795   1.240 -1.4809 -0.5787  0.3023
14706TIP3    H244076   3.298   0.863   1.178  0.3078  1.2640 -1.2932
14707TIP3   OH244077   5.409   4.553   3.590  0.1070 -0.3489 -0.5248
14707TIP3    H144078   5.350   4.628   3.601 -0.0658 -0.6664  0.9870
14707TIP3    H244079   5.490   4.591   3.557 -0.1421  0.4479 -0.2523
14708TIP3   OH244080   6.310   4.169   3.373  0.0712 -0.1171  0.2744
14708TIP3    H144081   6.221   4.136   3.358  0.5713 -1.9570  1.0396
14708TIP3    H244082   6.360   4.091   3.397  1.9286  0.8690 -0.2427
14709TIP3   OH244083   3.241   4.414   6.033 -0.4933  0.0520  0.1093
14709TIP3    H144084   3.195   4.492   6.003 -1.8356 -0.4620  0.7014
14709TIP3    H244085   3.295   4.444   6.106  0.0608  0.6617 -0.5405
14710TIP3   OH244086   6.666   4.651   0.373 -0.1547 -0.3205  0.1475
14710TIP3    H144087   6.603   4.704   0.324  0.8677  0.1329 -0.6994
14710TIP3    H244088   6.746   4.654   0.321  0.6662 -0.6577  1.3468
14711TIP3   OH244089   0.473   4.325   6.655  0.0475 -0.0846 -0.1271
14711TIP3    H144090   0.517   4.254   6.701 -0.0595  0.4142  0.7662
14711TIP3    H244091   0.535   4.398   6.660 -0.2050  0.1392 -0.2806
14712TIP3   OH244092   0.161   5.971   1.267  0.0424  0.0266 -0.0246
14712TIP3    H144093   0.112   5.890   1.278  0.2466 -0.0560  0.2762
14712TIP3    H244094   0.227   5.969   1.336  0.6987 -0.0297 -0.6337
14713TIP3   OH244095   5.957   6.215   0.952  0.1451 -0.2717  0.0884
14713TIP3    H144096   6.007   6.160   0.892  0.8331 -0.3124  0.6902
14713TIP3    H244097   5.944   6.161   1.029  1.3820  0.6110  0.9489
14714TIP3   OH244098   6.550   7.101   3.941 -0.1221 -0.0090  0.4003
14714TIP3    H144099   6.610   7.173   3.961 -1.4234  1.9161 -2.0064
14714TIP3    H244100   6.591   7.023   3.978  1.9065  1.7808  2.1743
14715TIP3   OH244101   3.402   3.506   6.203  0.1824 -0.0111  0.2475
14715TIP3    H144102   3.437   3.545   6.123  2.0276  2.1420  1.9653
14715TIP3    H244103   3.458   3.539   6.273 -2.2169 -0.6049  2.6418
14716TIP3   OH244104   3.834   4.659   3.752 -0.2263 -0.8295 -0.3061
14716TIP3    H144105   3.853   4.586   3.811 -2.0193 -1.4798 -0.4535
14716TIP3    H244106   3.740   4.675   3.764  0.0463  1.2662 -0.5217
14717TIP3   OH244107   2.800   1.546   3.208  0.2826  0.1794 -0.1770
14717TIP3    H144108   2.880   1.494   3.219  0.2726 -0.1782 -1.5972
14717TIP3    H244109   2.793   1.559   3.114 -0.1881  2.0357  0.0735
14718TIP3   OH244110   8.119   0.274   1.270  0.3000  0.4188  0.2217
14718TIP3    H144111   8.105   0.260   1.177  0.6322 -0.6787  0.3231
14718TIP3    H244112   8.203   0.319   1.275  1.1437 -1.0645  0.0509
14719TIP3   OH244113   0.350   5.145   5.973 -0.1582 -0.5917 -0.3836
14719TIP3    H144114   0.277   5.155   5.913  0.7298  0.7402 -1.2843
14719TIP3    H244115   0.367   5.233   6.006  3.2263 -0.0814 -2.9201
14720TIP3   OH244116   1.676   3.955   3.643 -0.5492  0.5359  1.1834
14720TIP3    H144117   1.620   3.996   3.577  0.1684  1.9695  1.4245
14720TIP3    H244118   1.755   4.009   3.644  0.8345 -1.3483  0.9282
14721TIP3   OH244119   0.084   4.982   0.435  0.0115 -0.3740  0.4335
14721TIP3    H144120   0.032   4.925   0.380 -1.2372  1.3442 -0.2676
14721TIP3    H244121   0.138   5.033   0.374 -1.4627  1.6260  0.6825
14722TIP3   OH244122   5.073   5.840   0.803 -0.2055  0.1653  0.0225
14722TIP3    H144123   4.989   5.798   0.788  0.2768 -0.7242 -0.2777
14722TIP3    H244124   5.138   5.777   0.772  0.5871  0.7107  0.5032
14723TIP3   OH244125   6.612   0.518   1.742 -0.1719 -0.1829 -0.4457
14723TIP3    H144126   6.623   0.608   1.710  0.7715  0.4748  1.5629
14723TIP3    H244127   6.659   0.465   1.679  1.0325  0.9818 -0.5730
14724TIP3   OH244128   2.926   4.467   5.680  0.6232  0.0950  0.6159
14724TIP3    H144129   2.891   4.550   5.711  0.4183  0.8567 -1.4863
14724TIP3    H244130   3.019   4.485   5.664  0.6044 -0.1086  0.2714
14725TIP3   OH244131   7.134   2.467   4.682 -0.2221 -0.5717 -0.1444
14725TIP3    H144132   7.086   2.483   4.762 -1.6952 -1.8363 -0.7331
14725TIP3    H244133   7.160   2.375   4.687  1.7299 -0.0598 -0.0782
14726TIP3   OH244134   3.789   1.731   2.349 -0.1497  1.1753  0.1704
14726TIP3    H144135   3.705   1.737   2.302 -0.0403  2.7265  0.1421
14726TIP3    H244136   3.851   1.776   2.293  0.9086 -0.6001 -0.1609
14727TIP3   OH244137   0.007   3.671   4.956 -0.1534  0.3870 -0.0714
14727TIP3    H144138   0.015   3.638   5.046  3.9432  1.5718  0.1866
14727TIP3    H244139   0.018   3.766   4.965 -1.1071  0.6957 -1.7690
14728TIP3   OH244140   5.106   7.404   5.894  1.0423 -0.0143 -0.4870
14728TIP3    H144141   5.013   7.379   5.902  0.9852 -0.1191 -1.3040
14728TIP3    H244142   5.117   7.421   5.800  1.8897 -0.1406 -0.4127
14729TIP3   OH244143   2.980   4.721   0.979  0.4596  0.0060  0.9858
14729TIP3    H144144   2.990   4.805   0.935  2.3933 -1.1323 -0.9897
14729TIP3    H244145   3.021   4.733   1.065  0.4025  1.1716  0.8555
14730TIP3   OH244146   7.162   3.922   2.895  0.1651  0.0756 -0.1845
14730TIP3    H144147   7.081   3.904   2.942 -0.3799  0.7428 -0.8412
14730TIP3    H244148   7.169   3.852   2.831 -0.3456  0.4746 -0.6885
14731TIP3   OH244149   7.580   2.263   6.590 -0.4520 -0.3097 -0.8290
14731TIP3    H144150   7.669   2.268   6.625 -0.7463  0.4855 -0.1530
14731TIP3    H244151   7.570   2.344   6.540 -0.6773 -0.5619 -1.1949
14732TIP3   OH244152   5.776   5.316   4.648 -0.8035  0.4231 -0.4517
14732TIP3    H144153   5.872   5.312   4.657 -0.9305 -0.9514  0.6438
14732TIP3    H244154   5.758   5.273   4.564 -0.4428  1.3197 -1.0091
14733TIP3   OH244155   2.918   2.485   0.921 -0.4627  0.1245  0.4949
14733TIP3    H144156   2.837   2.434   0.923 -0.4459 -0.2815 -2.9024
14733TIP3    H244157   2.986   2.420   0.907  0.0506  0.7056  0.2607
14734TIP3   OH244158   5.845   0.026   4.508 -0.1638  0.4885  0.3456
14734TIP3    H144159   5.909   0.097   4.498  1.6700 -0.9654  1.1310
14734TIP3    H244160   5.768   0.068   4.545  1.0364  1.9993  1.2207
14735TIP3   OH244161   4.836   6.641   0.016  0.1193 -0.5542 -0.2398
14735TIP3    H144162   4.767   6.699  -0.015  0.3694 -0.5159 -0.7369
14735TIP3    H244163   4.826   6.639   0.111 -0.3362 -0.2633 -0.2831
14736TIP3   OH244164   2.846   4.677   4.741 -0.0931 -0.3124  0.0029
14736TIP3    H144165   2.789   4.658   4.667 -1.8824  1.9892  0.6588
14736TIP3    H244166   2.787   4.684   4.816  0.5042  4.2707  0.3592
14737TIP3   OH244167   2.416   1.257   2.581 -0.4154  0.5242 -0.1006
14737TIP3    H144168   2.390   1.165   2.583 -1.0293  0.6525 -1.3195
14737TIP3    H244169   2.349   1.302   2.633  1.0952  0.0501  2.3992
14738TIP3   OH244170   1.083   0.458   6.070 -0.0362 -0.3587  0.3043
14738TIP3    H144171   1.154   0.482   6.010  0.3102 -0.2931  0.7335
14738TIP3    H244172   1.010   0.515   6.045  0.3749  0.2584  0.4902
14739TIP3   OH244173   0.075   3.323   0.370 -0.3576  0.4060 -0.4391
14739TIP3    H144174  -0.008   3.297   0.410  0.3430  0.9743  1.4905
14739TIP3    H244175   0.050   3.367   0.289 -1.9643  0.7357  0.2004
14740TIP3   OH244176   6.337   6.107   3.192  0.1110 -0.2406  0.1796
14740TIP3    H144177   6.409   6.056   3.155  1.6054  0.5647  1.8597
14740TIP3    H244178   6.367   6.132   3.279 -1.5097  1.5688  0.2795
14741TIP3   OH244179   2.153   5.775   3.784 -0.4182 -0.7737  0.0526
14741TIP3    H144180   2.217   5.705   3.771 -0.7459 -0.8477 -1.3298
14741TIP3    H244181   2.103   5.749   3.861 -0.7189 -2.2179 -0.6086
14742TIP3   OH244182   1.857   6.816   2.732  0.4198 -0.4617 -0.6596
14742TIP3    H144183   1.908   6.815   2.812  0.9666 -1.6820 -0.9885
14742TIP3    H244184   1.902   6.879   2.675 -0.0129  0.4588 -0.0011
14743TIP3   OH244185   6.063   7.154   6.196 -0.1412 -0.2352  0.8469
14743TIP3    H144186   5.981   7.113   6.168 -0.4546  0.1846  1.1443
14743TIP3    H244187   6.043   7.193   6.281  0.5167 -0.5904  1.1740
14744TIP3   OH244188   1.984   4.259   0.693 -0.8108  0.2728  0.2260
14744TIP3    H144189   2.048   4.270   0.763 -0.0829 -0.9324 -0.2165
14744TIP3    H244190   2.022   4.306   0.618  0.5392 -1.9855 -0.5974
14745TIP3   OH244191   7.498   7.691   5.874 -0.2444  0.1157 -0.0013
14745TIP3    H144192   7.497   7.595   5.871 -1.5201  0.0934  0.4971
14745TIP3    H244193   7.505   7.712   5.967  0.9300  0.5303 -0.1672
14746TIP3   OH244194   1.159   6.681   2.501  0.5320  0.5904  0.4462
14746TIP3    H144195   1.120   6.622   2.437  3.8619 -2.7146  1.1538
14746TIP3    H244196   1.099   6.678   2.575 -0.5431 -0.0362 -0.4133
14747TIP3   OH244197   4.027   6.930   5.228 -0.3988 -0.9338  0.4620
14747TIP3    H144198   4.113   6.909   5.265  0.1709  0.8585  0.2586
14747TIP3    H244199   3.972   6.949   5.304  0.2129  0.7292  0.5390
14748TIP3   OH244200   5.238   5.907   4.930  0.1099 -0.0160 -0.3541
14748TIP3    H144201   5.241   5.963   4.852  2.6950 -0.1141 -0.4168
14748TIP3    H244202   5.191   5.828   4.901  0.1621  0.3599 -1.5036
14749TIP3   OH244203   1.798   0.331   1.009 -0.2937  0.5039  0.1394
14749TIP3    H144204   1.755   0.393   1.068  1.3916  1.0846  0.8073
14749TIP3    H244205   1.850   0.386   0.950  1.3198 -0.2295  0.8168
14750TIP3   OH244206   7.892   2.258   4.369 -0.2996 -0.4741 -0.1924
14750TIP3    H144207   7.928   2.235   4.284  1.7749  1.4834  0.0794
14750TIP3    H244208   7.964   2.243   4.431 -0.3203  2.1793  0.5877
14751TIP3   OH244209   4.312   3.226   5.261  0.3403 -0.2621  0.1599
14751TIP3    H144210   4.338   3.205   5.351 -1.1305 -0.7152  0.4970
14751TIP3    H244211   4.244   3.163   5.240 -0.4327  0.8308 -0.7176
14752TIP3   OH244212   4.428   2.406   0.324 -0.6112  0.4465 -0.3776
14752TIP3    H144213   4.404   2.487   0.369 -3.8437 -1.3988  1.6134
14752TIP3    H244214   4.478   2.356   0.389  0.9619  0.5851 -1.4277
14753TIP3   OH244215   4.855   5.633   3.031 -0.6085  0.1660 -0.0319
14753TIP3    H144216   4.834   5.588   3.114 -2.1986 -0.2158 -0.5998
14753TIP3    H244217   4.887   5.563   2.974 -0.7195  0.1940 -0.1286
14754TIP3   OH244218   7.886   2.125   2.930 -0.3424 -0.1480 -0.0733
14754TIP3    H144219   7.884   2.030   2.937  3.0237 -0.2465  2.6610
14754TIP3    H244220   7.806   2.154   2.974 -1.0757 -1.6762 -0.3373
14755TIP3   OH244221   4.266   4.596   0.450  0.0619 -0.7017  0.1549
14755TIP3    H144222   4.302   4.678   0.484 -1.3982 -0.4478  1.2324
14755TIP3    H244223   4.291   4.594   0.358  1.5635  0.1118  0.5139
14756TIP3   OH244224   4.098   4.222   2.790  0.0945  0.0460 -0.6033
14756TIP3    H144225   4.041   4.201   2.716  0.9717 -0.6201 -1.1065
14756TIP3    H244226   4.096   4.317   2.795  1.6007  0.2831 -2.8022
14757TIP3   OH244227   3.874   2.281   5.903 -0.3237 -0.1733  0.2963
14757TIP3    H144228   3.906   2.245   5.820 -1.2633  0.8148 -0.5363
14757TIP3    H244229   3.953   2.301   5.953  0.3064  0.2399 -0.8202
14758TIP3   OH244230   7.340   5.243   0.323 -0.3419 -0.3006 -0.2760
14758TIP3    H144231   7.291   5.311   0.276 -0.4115 -0.3548 -0.2824
14758TIP3    H244232   7.376   5.188   0.254 -2.6629 -1.9670 -0.2621
14759TIP3   OH244233   6.193   5.107   6.633  0.1774 -0.1250 -0.6079
14759TIP3    H144234   6.140   5.107   6.713  0.7243  1.8099 -0.1811
14759TIP3    H244235   6.142   5.160   6.571  0.7335  0.1850 -0.8093
14760TIP3   OH244236   3.358   5.071   1.797  0.3558 -0.7084 -0.1371
14760TIP3    H144237   3.397   5.097   1.881  2.5540 -1.8301 -0.7324
14760TIP3    H244238   3.418   5.107   1.731 -2.3152  1.7715 -1.3983
14761TIP3   OH244239   3.285   5.801   6.721  0.6564  1.0457  1.0366
14761TIP3    H144240   3.369   5.839   6.695  1.0068  1.1449  2.2412
14761TIP3    H244241   3.226   5.821   6.649  1.0215  3.2525  1.2923
14762TIP3   OH244242   6.860   0.370   0.717  0.3141 -0.2285 -0.4263
14762TIP3    H144243   6.798   0.328   0.776  1.3594 -1.0744  0.1159
14762TIP3    H244244   6.806   0.410   0.649 -0.8381 -0.4450  0.3400
14763TIP3   OH244245   2.334   3.324   2.355 -0.1932 -0.3326  0.0765
14763TIP3    H144246   2.313   3.321   2.262 -0.3759 -1.0568  0.1366
14763TIP3    H244247   2.261   3.372   2.395 -0.8044 -1.1932  0.0251
14764TIP3   OH244248   4.519   4.961   5.841 -0.0024  0.1702  0.7434
14764TIP3    H144249   4.484   5.049   5.858  3.5932  1.4631  2.4974
14764TIP3    H244250   4.577   4.973   5.766  0.3678 -0.7583  0.8799
14765TIP3   OH244251   1.899   3.540   3.931  0.4675 -0.6130  0.6688
14765TIP3    H144252   1.849   3.463   3.956  1.9221 -1.1928  1.8705
14765TIP3    H244253   1.948   3.565   4.009  0.1684  1.4579  0.2775
14766TIP3   OH244254   6.827   5.711   4.146  0.4864 -0.1952 -0.0784
14766TIP3    H144255   6.832   5.762   4.227  2.0970  1.0134 -0.8715
14766TIP3    H244256   6.900   5.648   4.154 -0.9428 -1.8613  0.5008
14767TIP3   OH244257   2.260   5.327   5.230 -0.4680  0.0913  0.5028
14767TIP3    H144258   2.166   5.331   5.250 -0.5638  2.7030 -0.0234
14767TIP3    H244259   2.264   5.295   5.140 -0.9089  0.4942  0.3325
14768TIP3   OH244260   0.655   2.961   4.165 -0.1337  0.5546 -1.0046
14768TIP3    H144261   0.737   2.921   4.136 -0.7329 -1.3048 -0.3016
14768TIP3    H244262   0.588   2.896   4.142 -1.0672  0.7745  0.9290
14769TIP3   OH244263   2.099   7.789   3.814 -0.1421 -0.1685  0.2493
14769TIP3    H144264   2.165   7.732   3.852 -0.4148 -1.1807 -0.7338
14769TIP3    H244265   2.038   7.807   3.886 -1.1071 -2.7061  0.1763
14770TIP3   OH244266   5.844   7.446   4.365 -0.5660 -0.2950 -0.5710
14770TIP3    H144267   5.844   7.365   4.416  1.5098  0.4228  0.6985
14770TIP3    H244268   5.830   7.515   4.430 -1.7139  0.4171 -1.5485
14771TIP3   OH244269   0.893   1.985   2.681  0.2761  0.1619 -0.2497
14771TIP3    H144270   0.890   2.043   2.758  0.7347 -1.1818  0.8121
14771TIP3    H244271   0.802   1.972   2.658 -0.0843 -1.6991  1.8779
14772TIP3   OH244272   6.390   6.321   0.149  0.2609 -0.0816  0.3002
14772TIP3    H144273   6.472   6.272   0.145 -0.6689 -1.9058  1.6136
14772TIP3    H244274   6.413   6.403   0.192  1.0788 -1.5713  2.9661
14773TIP3   OH244275   7.226   5.483   5.384  0.3852  0.1713  0.2977
14773TIP3    H144276   7.155   5.547   5.386 -0.1625 -0.4216  0.3511
14773TIP3    H244277   7.266   5.493   5.297 -2.5190 -2.3564 -1.5659
14774TIP3   OH244278   7.259   5.756   2.466  0.1293 -0.5115 -0.3831
14774TIP3    H144279   7.321   5.779   2.536  0.9432 -0.4769 -1.1035
14774TIP3    H244280   7.186   5.817   2.478  0.8056  0.2958 -0.2954
14775TIP3   OH244281   5.034   1.002   0.605  0.2576 -0.5273  0.0851
14775TIP3    H144282   5.029   1.025   0.698 -0.9171  0.4741 -0.2114
14775TIP3    H244283   4.956   0.950   0.589  0.4463 -0.6799 -0.3545
14776TIP3   OH244284   0.161   5.471   2.721  0.5648 -0.2942 -0.8147
14776TIP3    H144285   0.089   5.462   2.659  0.4102 -0.6006 -0.5945
14776TIP3    H244286   0.160   5.389   2.771  1.0476 -0.2881 -0.7913
14777TIP3   OH244287   4.672   5.482   4.844  0.1535  0.3769 -0.1239
14777TIP3    H144288   4.668   5.547   4.914 -0.7804  0.1341  0.0569
14777TIP3    H244289   4.592   5.495   4.794  0.4700  0.0654 -0.7263
14778TIP3   OH244290   2.771   1.589   5.389 -0.2413  0.5522 -0.6181
14778TIP3    H144291   2.801   1.514   5.337 -0.9724  0.6429 -1.1987
14778TIP3    H244292   2.685   1.609   5.353 -1.4670 -0.3286  1.5980
14779TIP3   OH244293   6.438   0.302   5.303 -0.1828  0.2525 -0.3629
14779TIP3    H144294   6.434   0.214   5.266  1.2101 -0.9448  2.0727
14779TIP3    H244295   6.409   0.359   5.232 -0.7103 -2.1067 -2.1808
14780TIP3   OH244296   6.653   3.892   0.920 -0.0412 -0.1372 -0.2970
14780TIP3    H144297   6.623   3.851   0.840  0.6232  1.6298 -1.5134
14780TIP3    H244298   6.597   3.968   0.931  1.6272  1.2101 -0.6717
14781TIP3   OH244299   7.993   6.250   5.354 -0.3450  0.2290  0.0822
14781TIP3    H144300   8.072   6.221   5.399 -0.5372 -0.8383 -0.2377
14781TIP3    H244301   8.022   6.322   5.297  0.2745  0.2273  0.3936
14782TIP3   OH244302   3.454   6.316   3.887  0.2605  0.0666 -0.2839
14782TIP3    H144303   3.450   6.220   3.890 -2.0665  0.0868 -1.1953
14782TIP3    H244304   3.491   6.341   3.973  3.2288 -1.6514 -0.9005
14783TIP3   OH244305   7.957   0.030   3.983  0.0621  0.1173  0.1709
14783TIP3    H144306   7.950   0.105   3.923  1.9824  0.7236  0.6317
14783TIP3    H244307   8.048   0.001   3.975 -0.0241 -0.6955  1.7111
14784TIP3   OH244308   0.475   6.251   4.811  0.2379 -0.1148  0.5540
14784TIP3    H144309   0.517   6.260   4.726 -0.7736  1.5916  0.1952
14784TIP3    H244310   0.516   6.317   4.866 -1.6128  1.3514  0.2981
14785TIP3   OH244311   7.265   7.165   1.584  0.9854 -0.1683 -0.3084
14785TIP3    H144312   7.356   7.194   1.593  0.7705 -0.0539  3.4461
14785TIP3    H244313   7.269   7.070   1.597  0.4555  0.1578  3.2430
14786TIP3   OH244314   7.464   6.341   5.640 -0.6524 -0.0536  0.5619
14786TIP3    H144315   7.408   6.286   5.695 -0.5522  0.3342  1.0672
14786TIP3    H244316   7.543   6.354   5.693 -0.3466 -0.0824  0.1169
14787TIP3   OH244317   6.786   6.919   3.153 -0.1040  0.2336 -0.0455
14787TIP3    H144318   6.741   6.838   3.178  0.4604  0.2685  1.1303
14787TIP3    H244319   6.813   6.904   3.062  0.0932 -0.9411  0.1958
14788TIP3   OH244320   3.545   0.285   2.210 -0.2451  0.0628  0.7347
14788TIP3    H144321   3.526   0.334   2.129  0.9672  0.2190  0.5172
14788TIP3    H244322   3.567   0.197   2.179  0.8350  0.2904  0.8246
14789TIP3   OH244323   6.788   3.649   2.148 -0.6524  0.4424  0.0829
14789TIP3    H144324   6.726   3.577   2.157  0.9074 -0.9054  0.4520
14789TIP3    H244325   6.794   3.686   2.236 -1.3583  0.9609 -0.0798
14790TIP3   OH244326   5.826   1.068   6.274  0.0517 -0.2281  0.5872
14790TIP3    H144327   5.803   1.011   6.201 -1.9754  0.4364  0.6419
14790TIP3    H244328   5.790   1.023   6.351 -1.4344  0.9710  0.6515
14791TIP3   OH244329   2.779   0.537   0.430  0.2931  0.2072  0.4939
14791TIP3    H144330   2.803   0.468   0.369 -1.8287  0.6747 -0.9901
14791TIP3    H244331   2.861   0.585   0.447  1.2237 -0.9132 -0.7067
14792TIP3   OH244332   6.060   0.368   6.609  0.1209 -0.7182 -0.4042
14792TIP3    H144333   6.056   0.276   6.585 -0.4851 -0.6802 -0.4667
14792TIP3    H244334   6.154   0.387   6.617  0.2225 -1.6117  0.6869
14793TIP3   OH244335   1.960   1.079   3.113  0.0930 -0.5068  0.3227
14793TIP3    H144336   1.892   1.013   3.121 -0.1456 -0.3420 -0.2821
14793TIP3    H244337   1.925   1.142   3.050  1.1222 -0.8438 -0.6207
14794TIP3   OH244338   5.086   7.723   1.489 -0.5959  0.0964  0.3962
14794TIP3    H144339   4.993   7.733   1.508 -0.9435 -1.5584 -0.2894
14794TIP3    H244340   5.107   7.797   1.432 -1.6656  0.0865 -0.0294
14795TIP3   OH244341   2.183   2.782   3.482 -0.1775 -0.0232 -0.4338
14795TIP3    H144342   2.187   2.844   3.556 -1.1653  2.0111 -1.9898
14795TIP3    H244343   2.253   2.810   3.424 -0.5081 -0.5218 -1.0821
14796TIP3   OH244344   1.996   2.316   3.845  0.4885  0.0744 -0.0272
14796TIP3    H144345   2.008   2.273   3.929  0.3717  1.0486  0.5108
14796TIP3    H244346   1.902   2.337   3.842  0.0443 -1.8907 -1.3889
14797TIP3   OH244347   0.497   0.492   4.140  0.2828 -0.2365 -0.2039
14797TIP3    H144348   0.496   0.539   4.057 -2.0537  0.1159 -0.0470
14797TIP3    H244349   0.461   0.406   4.119  1.4717 -0.8380  0.1227
14798TIP3   OH244350   6.792   5.151   2.204 -0.7626  0.0200 -0.1395
14798TIP3    H144351   6.734   5.224   2.179 -1.0347  0.3386  1.3121
14798TIP3    H244352   6.850   5.189   2.270  2.0133  0.0633 -2.3789
14799TIP3   OH244353   0.834   0.869   4.064 -0.3704  1.0410 -0.9250
14799TIP3    H144354   0.837   0.791   4.120  0.2874  1.4437 -0.3869
14799TIP3    H244355   0.859   0.837   3.978 -0.5535  0.5663 -0.8055
14800TIP3   OH244356   5.567   7.667   4.029  0.2643  0.3368 -0.5558
14800TIP3    H144357   5.599   7.584   4.062 -0.0108  0.6699  0.6186
14800TIP3    H244358   5.548   7.652   3.936 -0.1595 -1.0129 -0.2641
14801TIP3   OH244359   7.019   0.114   0.780  0.4820 -0.2016 -0.6825
14801TIP3    H144360   6.972   0.186   0.737 -0.2339 -0.5626 -0.5102
14801TIP3    H244361   7.022   0.139   0.872 -0.1800 -0.6123 -0.5472
14802TIP3   OH244362   6.287   6.119   5.522  0.0575  0.3681 -0.5130
14802TIP3    H144363   6.289   6.205   5.481 -0.8456  0.6257 -0.0598
14802TIP3    H244364   6.351   6.124   5.593  2.0936 -0.2905 -2.2214
14803TIP3   OH244365   8.177   0.239   0.967 -0.3100  0.4697 -0.0606
14803TIP3    H144366   8.101   0.198   0.925  0.4248 -1.5372  0.4311
14803TIP3    H244367   8.235   0.260   0.894 -0.2720 -0.3154 -0.2642
14804TIP3   OH244368   2.158   2.408   4.140  0.2761  0.2262 -0.4636
14804TIP3    H144369   2.211   2.409   4.061  0.4560 -0.2583 -0.3504
14804TIP3    H244370   2.219   2.436   4.209  0.8661 -1.8953 -0.0474
14805TIP3   OH244371   1.059   0.977   5.988 -0.5681 -0.1079 -0.5658
14805TIP3    H144372   1.015   1.007   6.067  0.1423 -1.4820  0.3889
14805TIP3    H244373   0.991   0.930   5.939 -0.8361  0.1555 -0.4529
14806TIP3   OH244374   1.799   4.070   4.598 -0.1305  0.1235  0.1093
14806TIP3    H144375   1.736   4.097   4.531  2.1467  1.3563 -1.7007
14806TIP3    H244376   1.832   3.986   4.567 -0.8985 -0.5775  1.1150
14807TIP3   OH244377   7.314   1.995   5.522 -0.0225  0.1783 -0.4400
14807TIP3    H144378   7.258   2.028   5.452  0.6323 -0.2533 -1.1781
14807TIP3    H244379   7.253   1.971   5.592 -0.5965  1.8005 -0.3540
14808TIP3   OH244380   3.775   5.152   2.061 -0.6564  0.2321 -0.2404
14808TIP3    H144381   3.859   5.104   2.061 -1.5500 -1.4092  0.2559
14808TIP3    H244382   3.801   5.244   2.067  1.1370 -0.1683 -0.9481
14809TIP3   OH244383   1.699   1.370   5.451 -0.1411 -0.0261  0.2759
14809TIP3    H144384   1.690   1.317   5.372  0.0616  1.1360 -0.5505
14809TIP3    H244385   1.636   1.332   5.513 -0.7544 -0.5665 -0.6587
14810TIP3   OH244386   0.473   1.542   6.200  0.3526 -0.1904 -0.0609
14810TIP3    H144387   0.419   1.503   6.132  0.3570  0.5414 -0.4913
14810TIP3    H244388   0.414   1.553   6.274  0.2785 -0.7231 -0.0368
14811TIP3   OH244389   0.157   4.343   1.292  0.8508 -0.8356  0.8214
14811TIP3    H144390   0.062   4.331   1.301  0.8149 -1.5850 -0.3742
14811TIP3    H244391   0.194   4.299   1.369  0.2778 -1.6007  0.6754
14812TIP3   OH244392   8.188   6.162   0.839  0.2518 -0.0013  0.7780
14812TIP3    H144393   8.238   6.083   0.862 -0.0379 -0.1052  1.0582
14812TIP3    H244394   8.177   6.156   0.744 -0.2016 -0.5578  0.8620
14813TIP3   OH244395   6.302   0.498   1.707 -0.2840 -0.5587  0.1579
14813TIP3    H144396   6.279   0.421   1.759 -0.3532 -0.7988 -0.2250
14813TIP3    H244397   6.396   0.489   1.691 -0.5265 -1.2432 -0.9777
14814TIP3   OH244398   4.891   4.254   1.796 -0.1538 -0.0780  0.0665
14814TIP3    H144399   4.814   4.202   1.773  0.3530 -0.5915 -0.4874
14814TIP3    H244400   4.927   4.281   1.712  2.8972 -3.6550 -0.0083
14815TIP3   OH244401   6.571   0.549   2.854 -0.0834  0.5449  0.2470
14815TIP3    H144402   6.663   0.565   2.832  0.6364 -0.7825  2.0498
14815TIP3    H244403   6.574   0.506   2.939 -2.2793 -1.0210 -0.3845
14816TIP3   OH244404   2.081   0.622   4.786  0.1857 -0.6286 -0.1041
14816TIP3    H144405   2.063   0.533   4.757 -0.6832 -1.4429  2.6057
14816TIP3    H244406   2.176   0.632   4.776  0.4633 -2.3033  0.5861
14817TIP3   OH244407   5.307   2.893   0.533  0.1986 -0.1980  0.3465
14817TIP3    H144408   5.304   2.987   0.548 -2.4075 -0.2023  0.3031
14817TIP3    H244409   5.340   2.856   0.615  0.6347  0.6851  0.5842
14818TIP3   OH244410   4.960   0.054   5.549  0.1558 -0.5821 -0.2616
14818TIP3    H144411   4.989   0.142   5.524  0.7739 -0.7580 -0.1823
14818TIP3    H244412   4.865   0.056   5.538  0.0735  0.3382  0.4674
14819TIP3   OH244413   7.805   3.893   2.726  0.7357 -0.3938  0.4253
14819TIP3    H144414   7.879   3.832   2.720 -0.1537 -1.5377  0.7111
14819TIP3    H244415   7.846   3.980   2.729  2.0153 -0.9372 -0.4375
14820TIP3   OH244416   7.644   0.589   4.252  0.0041 -0.1431 -0.1284
14820TIP3    H144417   7.733   0.622   4.260 -1.2393  3.5891 -0.0787
14820TIP3    H244418   7.621   0.602   4.160 -0.6426 -0.6913 -0.0547
14821TIP3   OH244419   5.646   4.788   5.207 -0.1077  0.3349 -0.2851
14821TIP3    H144420   5.580   4.722   5.184  0.2259 -0.2015  0.2672
14821TIP3    H244421   5.599   4.849   5.264  0.2142 -0.8659  1.3412
14822TIP3   OH244422   5.462   3.146   5.391  0.1111  0.0307  0.7273
14822TIP3    H144423   5.453   3.241   5.385  1.2648  0.0608 -2.8827
14822TIP3    H244424   5.377   3.112   5.367 -0.2949  0.0796  1.9948
14823TIP3   OH244425   7.863   0.258   0.456 -0.5706  0.8284  0.1526
14823TIP3    H144426   7.857   0.196   0.382  1.7443  1.2835 -0.4902
14823TIP3    H244427   7.908   0.334   0.420  0.5313  1.1063  2.0043
14824TIP3   OH244428   7.630   3.968   4.456  0.3063 -0.4775  0.3004
14824TIP3    H144429   7.657   4.046   4.408  1.3424 -2.0857 -1.9038
14824TIP3    H244430   7.701   3.952   4.518  1.0973 -0.8054 -0.6735
14825TIP3   OH244431   0.100   6.267   5.918  0.0180  0.3708  0.8294
14825TIP3    H144432   0.174   6.302   5.969 -0.4925  0.3923  1.5722
14825TIP3    H244433   0.139   6.243   5.834  0.5833  1.7465  0.6679
14826TIP3   OH244434   0.656   7.633   5.000 -0.9077  0.2537 -0.0523
14826TIP3    H144435   0.588   7.568   5.019 -1.2266 -0.0575 -2.0793
14826TIP3    H244436   0.610   7.703   4.954 -0.3127  1.3288  0.9309
14827TIP3   OH244437   1.548   4.798   6.222  0.8094  0.0459  0.0872
14827TIP3    H144438   1.569   4.722   6.276  0.4772  0.1676  0.3952
14827TIP3    H244439   1.524   4.866   6.285 -0.5472 -0.1005 -0.2363
14828TIP3   OH244440   8.287   7.304   0.453 -0.3034 -0.1300 -0.1741
14828TIP3    H144441   8.222   7.374   0.463  1.3172  1.2622  1.3006
14828TIP3    H244442   8.274   7.248   0.529 -0.3808 -0.3913 -0.3780
14829TIP3   OH244443   7.043   4.785   5.416 -0.0303  0.0458  0.2603
14829TIP3    H144444   7.122   4.753   5.373 -0.3454  0.3760 -0.5885
14829TIP3    H244445   7.033   4.875   5.384  0.5274  0.8245  2.1477
14830TIP3   OH244446   1.646   3.666   4.105 -0.3040  0.3285 -0.0370
14830TIP3    H144447   1.650   3.675   4.009 -1.7532  1.0282 -0.0489
14830TIP3    H244448   1.583   3.596   4.120 -0.7513  0.8159  0.4106
14831TIP3   OH244449   2.311   3.120   2.579  0.1499 -0.4444  0.2010
14831TIP3    H144450   2.279   3.209   2.564 -0.5239 -0.5361  1.0505
14831TIP3    H244451   2.399   3.132   2.615 -0.9728  0.0230  3.0590
14832TIP3   OH244452   3.822   7.753   1.085  0.4792  0.0560  0.0452
14832TIP3    H144453   3.798   7.784   0.998 -1.9881 -2.0303 -0.1602
14832TIP3    H244454   3.844   7.661   1.073 -0.0383 -0.3134  1.5957
14833TIP3   OH244455   5.405   2.993   1.796 -0.1806  0.3317  0.2044
14833TIP3    H144456   5.474   3.029   1.740 -0.0015 -1.1732 -0.5901
14833TIP3    H244457   5.393   3.059   1.864  0.4435  1.6634 -0.9181
14834TIP3   OH244458   1.992   5.714   0.153  0.1111  0.0218  0.3084
14834TIP3    H144459   1.904   5.695   0.121  0.2229 -0.2209  0.1413
14834TIP3    H244460   1.986   5.803   0.188  0.0478  0.3853 -0.6123
14835TIP3   OH244461   4.287   0.883   1.674 -0.6157 -0.5190 -0.5617
14835TIP3    H144462   4.240   0.916   1.598  0.7723 -1.9985 -2.1414
14835TIP3    H244463   4.379   0.887   1.649 -0.2409 -2.9820  0.1708
14836TIP3   OH244464   0.963   1.847   6.351  0.2468 -0.2573  0.2557
14836TIP3    H144465   0.930   1.760   6.328  0.0022  0.4680 -2.4958
14836TIP3    H244466   1.058   1.838   6.349  0.2424 -0.7697  1.4683
14837TIP3   OH244467   7.530   6.750   6.163  0.3150 -0.4842 -0.5173
14837TIP3    H144468   7.529   6.656   6.144 -1.0821 -1.1340  2.2282
14837TIP3    H244469   7.441   6.780   6.142  0.1258 -0.2736  0.4950
14838TIP3   OH244470   0.751   4.009   2.292  0.0609  0.2529  0.7497
14838TIP3    H144471   0.749   4.075   2.362  1.3377 -1.7599  2.8345
14838TIP3    H244472   0.828   3.956   2.313  0.5904 -0.3565 -2.3562
14839TIP3   OH244473   6.655   7.443   3.093 -0.3486  0.1523  0.4131
14839TIP3    H144474   6.630   7.443   3.001 -0.5196 -0.0426  0.4579
14839TIP3    H244475   6.745   7.477   3.094 -0.7033  1.1231  0.2756
14840TIP3   OH244476   7.749   1.658   4.712  0.1794 -0.3867 -0.5337
14840TIP3    H144477   7.797   1.621   4.786 -0.1076  1.4430  0.6330
14840TIP3    H244478   7.807   1.726   4.678  0.6599 -1.7319 -2.5712
14841TIP3   OH244479   7.738   2.920   2.488  0.6669 -0.6671  0.3303
14841TIP3    H144480   7.670   2.987   2.483  1.0144 -0.3273  0.1647
14841TIP3    H244481   7.716   2.871   2.567 -0.6091 -1.4778 -0.4844
14842TIP3   OH244482   2.207   4.308   3.263 -0.2715 -0.2520 -0.2023
14842TIP3    H144483   2.150   4.233   3.249  0.8509 -1.2372  0.2783
14842TIP3    H244484   2.261   4.313   3.184 -1.3588  1.0297 -0.9106
14843TIP3   OH244485   5.073   5.545   5.509  0.2470  0.0252 -0.1807
14843TIP3    H144486   5.004   5.478   5.511  0.5130 -0.2394  1.1194
14843TIP3    H244487   5.139   5.510   5.449 -0.2072 -0.2653 -0.5165
14844TIP3   OH244488   0.553   2.959   4.991 -0.7585 -0.2323  0.0913
14844TIP3    H144489   0.638   2.945   4.949 -0.5116 -0.1041  0.5350
14844TIP3    H244490   0.563   2.918   5.077 -1.2769 -0.5509 -0.0001
14845TIP3   OH244491   0.455   3.442   3.760 -0.1193 -0.2795 -0.4192
14845TIP3    H144492   0.486   3.467   3.847 -1.5507  1.2139 -0.2965
14845TIP3    H244493   0.360   3.440   3.768 -0.2508 -0.7143 -1.8130
14846TIP3   OH244494   0.808   0.504   3.558 -0.5367 -0.1099  0.6322
14846TIP3    H144495   0.819   0.570   3.490  0.6329 -2.7621 -2.0080
14846TIP3    H244496   0.870   0.530   3.627 -0.4418  1.7261 -0.1017
14847TIP3   OH244497   6.805   4.358   2.783 -0.0036 -0.0690 -0.6098
14847TIP3    H144498   6.769   4.371   2.695 -0.2668  0.9699 -0.3535
14847TIP3    H244499   6.769   4.430   2.835  2.1128  0.7899 -0.2438
14848TIP3   OH244500   3.159   7.336   6.105 -0.1137  0.0342  0.3340
14848TIP3    H144501   3.229   7.344   6.040  0.3069 -2.1797  0.4312
14848TIP3    H244502   3.081   7.314   6.054 -0.0866 -0.3386  0.4489
   8.29493   7.82053   6.77277   0.00000   0.00000  -2.76497   0.00000  -2.76497  -3.91026
