* SET NIONTYPES = 1
* SET NPOSTOT = 45
* SET NNEGTOT = 42
* SET NIONTOT = 87
*  DATE:     6/13/26      7: 8: 0      CREATED BY USER: charmm-gui
*
        87  EXT
         1         1  LIT       LIT           -12.3321362679       -6.4844587830       24.0918759073  IONS      1               1.0000000000
         2         2  LIT       LIT           -24.2315696120      -28.2113699747        4.5453002372  IONS      2               1.0000000000
         3         3  LIT       LIT             5.5229520172       -6.1745199124       -9.0586125836  IONS      3               1.0000000000
         4         4  LIT       LIT             0.5925825960       34.2858387390       25.0291653846  IONS      4               1.0000000000
         5         5  LIT       LIT             7.3948305445      -15.6039526373       41.0113302546  IONS      5               1.0000000000
         6         6  LIT       LIT           -19.9334186164      -20.5058564419      -16.4332790113  IONS      6               1.0000000000
         7         7  LIT       LIT            -4.4114026729      -30.7392067657       25.5051218543  IONS      7               1.0000000000
         8         8  LIT       LIT            29.7002167884       -3.9326193280       25.1883497449  IONS      8               1.0000000000
         9         9  LIT       LIT           -22.5403579822      -18.8056910463        1.8205150011  IONS      9               1.0000000000
        10        10  LIT       LIT            11.0562872035       15.6494176812      -10.3119124415  IONS      10              1.0000000000
        11        11  LIT       LIT           -17.3915208227      -16.9063026977        1.6049218568  IONS      11              1.0000000000
        12        12  LIT       LIT            -0.6474630996       40.2113318809      -18.1775390439  IONS      12              1.0000000000
        13        13  LIT       LIT             1.8842571315      -41.5433515966      -14.5676024819  IONS      13              1.0000000000
        14        14  LIT       LIT           -37.5672976180      -25.4759487282        5.2866129934  IONS      14              1.0000000000
        15        15  LIT       LIT           -40.1584385496      -10.4356880422       -4.0168469095  IONS      15              1.0000000000
        16        16  LIT       LIT             9.9623725447      -26.8919580204      -24.4341868794  IONS      16              1.0000000000
        17        17  LIT       LIT           -13.9510690050       31.1261641055       -7.7716054931  IONS      17              1.0000000000
        18        18  LIT       LIT           -28.3874219918       18.9001451823      -33.5439094945  IONS      18              1.0000000000
        19        19  LIT       LIT           -23.2522211837       11.5636076316      -29.8005614481  IONS      19              1.0000000000
        20        20  LIT       LIT           -33.0917301829       29.3523326872        4.5842001647  IONS      20              1.0000000000
        21        21  LIT       LIT           -38.7088343141        8.9327345157        8.9009318308  IONS      21              1.0000000000
        22        22  LIT       LIT             8.7586543378       20.4186219898       12.9227247608  IONS      22              1.0000000000
        23        23  LIT       LIT           -10.0100259058      -10.2246873088      -37.8784396862  IONS      23              1.0000000000
        24        24  LIT       LIT            -8.3799860265      -23.0804595162       14.6090467178  IONS      24              1.0000000000
        25        25  LIT       LIT           -13.8522967462        8.8738070946        8.8573110329  IONS      25              1.0000000000
        26        26  LIT       LIT            38.8769435867       19.9751781752        4.4802041030  IONS      26              1.0000000000
        27        27  LIT       LIT           -11.8061071692      -29.5840005060      -23.6401818658  IONS      27              1.0000000000
        28        28  LIT       LIT            16.9897728565       11.2342730008       43.0990150963  IONS      28              1.0000000000
        29        29  LIT       LIT            41.3684975698        1.5523040495        4.0668995430  IONS      29              1.0000000000
        30        30  LIT       LIT            37.4588293864        8.6796027938       27.1641279425  IONS      30              1.0000000000
        31        31  LIT       LIT           -37.1521807597       17.4094559880      -12.6820019288  IONS      31              1.0000000000
        32        32  LIT       LIT            41.0383499107       11.4359865992       16.2949005223  IONS      32              1.0000000000
        33        33  LIT       LIT            27.6840859195      -12.0665881365      -18.5524047653  IONS      33              1.0000000000
        34        34  LIT       LIT            20.2955264760        5.4363378752       22.0345781425  IONS      34              1.0000000000
        35        35  LIT       LIT           -22.6945665192      -17.5354579493      -32.4799387914  IONS      35              1.0000000000
        36        36  LIT       LIT            12.6420206915       39.6774925072      -13.7761491832  IONS      36              1.0000000000
        37        37  LIT       LIT            -4.2114498868       -4.7377471159      -16.5538773585  IONS      37              1.0000000000
        38        38  LIT       LIT            25.9675507662       -0.2993721662      -31.8171016965  IONS      38              1.0000000000
        39        39  LIT       LIT           -38.9883670183       16.1773681371      -25.4288683529  IONS      39              1.0000000000
        40        40  LIT       LIT           -24.2451748552       12.6593302006       23.4035870356  IONS      40              1.0000000000
        41        41  LIT       LIT           -14.5364894625        7.6301577695       40.6470629533  IONS      41              1.0000000000
        42        42  LIT       LIT            -6.7155017533       -2.3421935527       14.5991803606  IONS      42              1.0000000000
        43        43  LIT       LIT            16.7333766855       19.3121128828       23.8458187257  IONS      43              1.0000000000
        44        44  LIT       LIT           -13.0855500024      -20.6933662051      -13.1995958880  IONS      44              1.0000000000
        45        45  LIT       LIT            20.8736248313      -13.7853251282      -35.3719072867  IONS      45              1.0000000000
        46        46  CLA       CLA             5.5370776263       42.0541316684       -0.5587269994  IONS      46             -1.0000000000
        47        47  CLA       CLA            29.3925440611       22.4149819720       -9.5856055844  IONS      47             -1.0000000000
        48        48  CLA       CLA            35.8015442555        2.0897689176      -16.1833288537  IONS      48             -1.0000000000
        49        49  CLA       CLA            -9.5149089736      -33.4299127740      -28.9185271230  IONS      49             -1.0000000000
        50        50  CLA       CLA            31.9540794146       -0.6257714274      -35.5819285421  IONS      50             -1.0000000000
        51        51  CLA       CLA           -42.4487879093      -26.0761819084       -1.0728233580  IONS      51             -1.0000000000
        52        52  CLA       CLA             1.4686871228      -34.7022420105       -1.0148612069  IONS      52             -1.0000000000
        53        53  CLA       CLA            12.4075136328       25.5105531431       19.1709910818  IONS      53             -1.0000000000
        54        54  CLA       CLA            -8.4505145604      -34.5063525657      -15.2456736516  IONS      54             -1.0000000000
        55        55  CLA       CLA           -19.6874985768       15.7640495721      -44.5910560431  IONS      55             -1.0000000000
        56        56  CLA       CLA            -2.4432804342       28.9204737908       32.8629881705  IONS      56             -1.0000000000
        57        57  CLA       CLA             2.4345469972        7.7424683673       22.5355052741  IONS      57             -1.0000000000
        58        58  CLA       CLA            15.5236802836      -14.9081229735      -40.3630196394  IONS      58             -1.0000000000
        59        59  CLA       CLA            -3.9030067651      -34.8073792763       19.2149830251  IONS      59             -1.0000000000
        60        60  CLA       CLA           -11.1078419018       -3.1866075322      -43.8318692081  IONS      60             -1.0000000000
        61        61  CLA       CLA            18.2295388549       -6.2292862925      -31.1353422158  IONS      61             -1.0000000000
        62        62  CLA       CLA            -9.8111605531      -17.5375839069      -20.6287862887  IONS      62             -1.0000000000
        63        63  CLA       CLA            21.4877129308       41.9621720059      -16.3006364050  IONS      63             -1.0000000000
        64        64  CLA       CLA           -18.6822330068       -1.4515221088       -4.3207237677  IONS      64             -1.0000000000
        65        65  CLA       CLA           -26.1706307978      -34.6196298324       -2.6771036597  IONS      65             -1.0000000000
        66        66  CLA       CLA             7.6283434269      -17.9455214929       19.2452679096  IONS      66             -1.0000000000
        67        67  CLA       CLA           -15.4226795061        4.5965629724       25.5751290050  IONS      67             -1.0000000000
        68        68  CLA       CLA           -25.8412550025       17.0812867839      -13.7355523548  IONS      68             -1.0000000000
        69        69  CLA       CLA           -13.1830083280       25.4086860010       36.3062836770  IONS      69             -1.0000000000
        70        70  CLA       CLA            41.7382832493       -6.6923223825       -1.7340258379  IONS      70             -1.0000000000
        71        71  CLA       CLA            41.2390445773       15.4517386951       10.6602028164  IONS      71             -1.0000000000
        72        72  CLA       CLA           -35.6749020264        7.7922482570       17.1475849496  IONS      72             -1.0000000000
        73        73  CLA       CLA           -15.4018627907      -32.9231148029        3.0799570265  IONS      73             -1.0000000000
        74        74  CLA       CLA            -8.0114443316       -0.8274556806       40.1712842075  IONS      74             -1.0000000000
        75        75  CLA       CLA           -21.6793766096      -22.4261718249        7.5116280005  IONS      75             -1.0000000000
        76        76  CLA       CLA           -16.2409120111      -42.3876752088       -2.8813876684  IONS      76             -1.0000000000
        77        77  CLA       CLA            22.7895529556        9.1931230655       23.3937741934  IONS      77             -1.0000000000
        78        78  CLA       CLA             0.5399689719       21.9368763246      -10.7320974022  IONS      78             -1.0000000000
        79        79  CLA       CLA           -12.2257444948       -5.6424759019       31.4228011068  IONS      79             -1.0000000000
        80        80  CLA       CLA           -25.1855867104      -10.2534222296       20.8959087912  IONS      80             -1.0000000000
        81        81  CLA       CLA           -33.6315316913       18.8290465354      -27.0027295574  IONS      81             -1.0000000000
        82        82  CLA       CLA            26.7802992602       23.3687929473        3.7759503987  IONS      82             -1.0000000000
        83        83  CLA       CLA            36.3265041467       28.5472774272       -0.4882717460  IONS      83             -1.0000000000
        84        84  CLA       CLA            24.7785505935      -14.5954953481      -40.3575275781  IONS      84             -1.0000000000
        85        85  CLA       CLA            -0.0829206901       -6.0400070013       -6.4034717072  IONS      85             -1.0000000000
        86        86  CLA       CLA            30.7890152101        9.7307923602       28.9969192371  IONS      86             -1.0000000000
        87        87  CLA       CLA            40.9754559770       20.0876928266      -12.9023367023  IONS      87             -1.0000000000
