Title
29212
    1ASP      N    1   1.394   1.864   3.327 -0.0967 -0.0683  0.4056
    1ASP    HT1    2   1.444   1.955   3.319  1.1945 -0.8978 -2.3073
    1ASP    HT2    3   1.459   1.797   3.281  0.5151 -1.1295  2.7034
    1ASP    HT3    4   1.375   1.828   3.422  0.6220  0.0509  0.6017
    1ASP     CA    5   1.267   1.891   3.263  0.0017  0.3899 -0.2542
    1ASP     HA    6   1.300   1.904   3.161 -1.2078 -0.8282 -0.8442
    1ASP     CB    7   1.177   1.766   3.278 -0.9635 -0.6041  0.4676
    1ASP    HB1    8   1.076   1.785   3.236  0.4182  1.3505 -2.3253
    1ASP    HB2    9   1.159   1.728   3.380  0.0101 -1.7372  0.2276
    1ASP     CG   10   1.248   1.654   3.195  0.0142 -0.6255 -0.0713
    1ASP    OD1   11   1.338   1.682   3.114 -0.0080 -0.3106  0.2932
    1ASP    OD2   12   1.214   1.541   3.215  0.2580 -0.0937  0.1807
    1ASP      C   13   1.206   2.025   3.315  0.2689 -0.2296 -0.6129
    1ASP      O   14   1.275   2.123   3.322  1.0801  0.3681 -0.1370
    2GLY      N   15   1.075   2.035   3.341  0.0589  0.0674 -0.4635
    2GLY     HN   16   1.018   1.956   3.321  0.7035 -0.5508  0.0925
    2GLY     CA   17   1.018   2.166   3.381 -0.1536  0.1419  0.1066
    2GLY    HA1   18   0.914   2.136   3.385  0.3209 -1.8885 -1.3546
    2GLY    HA2   19   1.044   2.231   3.300  0.2436 -1.6174 -1.2370
    2GLY      C   20   1.059   2.215   3.522  0.5863  0.3417  0.1511
    2GLY      O   21   1.166   2.185   3.576  0.5063 -0.5610  0.7256
    3ASP      N   22   0.977   2.295   3.592 -0.2233  0.1447  0.4280
    3ASP     HN   23   0.885   2.311   3.556 -1.4453 -1.7389  2.4702
    3ASP     CA   24   1.007   2.366   3.712 -0.0881 -0.5163  0.4017
    3ASP     HA   25   1.114   2.373   3.722  0.0865 -0.9428 -1.0173
    3ASP     CB   26   0.962   2.517   3.702  0.0073 -0.1028 -0.3571
    3ASP    HB1   27   0.964   2.557   3.806 -0.1298 -0.0052 -0.3919
    3ASP    HB2   28   0.855   2.521   3.671 -0.7578  1.4885  2.1728
    3ASP     CG   29   1.043   2.604   3.609 -0.2762 -0.5844  0.0667
    3ASP    OD1   30   0.994   2.718   3.580  0.0991  0.1689 -0.1339
    3ASP    OD2   31   1.150   2.563   3.564 -0.1915 -0.3385  0.7529
    3ASP      C   32   0.945   2.296   3.824 -0.5402  0.3445 -0.4611
    3ASP      O   33   0.834   2.248   3.822 -0.5212 -0.3601  0.4860
    4GLY      N   34   1.014   2.292   3.942  1.1548 -0.3787 -0.5733
    4GLY     HN   35   1.101   2.340   3.949  1.6098 -1.2519 -0.1429
    4GLY     CA   36   0.958   2.235   4.060  0.3557  0.4390 -0.2514
    4GLY    HA1   37   1.038   2.212   4.130  0.5481  0.0312 -0.5975
    4GLY    HA2   38   0.907   2.144   4.031  0.3201  0.1614  0.6347
    4GLY      C   39   0.857   2.331   4.134  0.4519  0.5683  0.9428
    4GLY      O   40   0.849   2.448   4.098 -0.2959 -0.3302  1.1195
    5PRO      N   41   0.792   2.275   4.229  0.2602 -0.1909  0.5954
    5PRO     CD   42   0.763   2.131   4.239 -0.2359  0.4767  0.3984
    5PRO    HD1   43   0.855   2.069   4.249 -0.5857 -0.1131  0.0033
    5PRO    HD2   44   0.696   2.104   4.154  0.1453 -1.1970  0.5998
    5PRO     CA   45   0.715   2.347   4.328 -0.4429 -1.0677 -0.5704
    5PRO     HA   46   0.618   2.371   4.287 -1.0118 -1.0709  0.7359
    5PRO     CB   47   0.700   2.255   4.439 -0.5612  0.1013 -0.4962
    5PRO    HB1   48   0.623   2.286   4.512  0.8800 -0.5544  1.3714
    5PRO    HB2   49   0.790   2.251   4.504 -0.7718  0.3970 -0.1850
    5PRO     CG   50   0.676   2.121   4.372 -0.2839 -0.3366  0.2266
    5PRO    HG1   51   0.713   2.041   4.440  1.9802  0.2915 -0.1823
    5PRO    HG2   52   0.568   2.114   4.345 -0.0347  2.3891 -1.8757
    5PRO      C   53   0.769   2.478   4.381 -0.2744 -0.0914 -0.1524
    5PRO      O   54   0.888   2.482   4.412 -0.0078 -0.6288  0.9224
    6GLY      N   55   0.685   2.590   4.385 -0.4915 -0.0162 -0.0821
    6GLY     HN   56   0.586   2.581   4.377 -0.4542  0.4606 -1.1972
    6GLY     CA   57   0.732   2.726   4.419  0.0578 -0.2101  0.6703
    6GLY    HA1   58   0.653   2.798   4.403  1.5621  0.8420 -2.8499
    6GLY    HA2   59   0.818   2.750   4.359 -1.2729 -0.0355 -1.2390
    6GLY      C   60   0.775   2.740   4.560 -0.5611  0.2263 -0.3409
    6GLY      O   61   0.780   2.641   4.639 -0.0811 -0.3206 -0.5775
    7ASP      N   62   0.818   2.864   4.591 -0.5447 -0.4385  0.3786
    7ASP     HN   63   0.830   2.933   4.520  4.1541 -0.1409  1.0929
    7ASP     CA   64   0.861   2.898   4.721 -0.8403 -0.2818 -0.9735
    7ASP     HA   65   0.838   2.817   4.789  1.6232 -1.3361 -1.2954
    7ASP     CB   66   1.019   2.914   4.723  0.1538  0.0561 -0.6625
    7ASP    HB1   67   1.051   3.006   4.670 -2.3688 -0.4464 -3.2949
    7ASP    HB2   68   1.076   2.833   4.672  1.9069 -0.1119  1.3789
    7ASP     CG   69   1.077   2.919   4.862 -0.1518 -0.3716 -0.0253
    7ASP    OD1   70   1.024   2.845   4.949  0.3799  0.0920  0.1019
    7ASP    OD2   71   1.195   2.960   4.877  0.0265 -0.0026 -0.1685
    7ASP      C   72   0.801   3.023   4.774 -0.6044 -0.7690  0.7633
    7ASP      O   73   0.814   3.132   4.714  0.2552 -0.2894  0.3327
    8PRO      N   74   0.717   3.020   4.883 -0.4509  0.6098  0.3064
    8PRO     CD   75   0.682   2.898   4.953  0.3917 -0.3283  0.2683
    8PRO    HD1   76   0.771   2.856   5.005 -0.8462 -3.6500  0.0094
    8PRO    HD2   77   0.647   2.824   4.878 -1.3610 -0.3680  1.0693
    8PRO     CA   78   0.653   3.136   4.946 -0.5122  0.0616  0.2087
    8PRO     HA   79   0.575   3.161   4.876 -0.0687 -0.0324 -0.3295
    8PRO     CB   80   0.603   3.081   5.081 -0.7331  0.0834 -0.2410
    8PRO    HB1   81   0.513   3.136   5.116  0.5793  1.1953  1.5844
    8PRO    HB2   82   0.681   3.102   5.157 -1.2326  1.7346 -0.1375
    8PRO     CG   83   0.573   2.933   5.054  0.0054  0.1574 -0.2647
    8PRO    HG1   84   0.576   2.858   5.136  2.0795 -2.0286 -2.2043
    8PRO    HG2   85   0.469   2.926   5.014 -0.6601 -0.5817  1.5027
    8PRO      C   86   0.728   3.261   4.948  0.2350 -0.1772  0.1948
    8PRO      O   87   0.851   3.266   4.961  0.5737  0.3723  0.2809
    9GLY      N   88   0.660   3.380   4.930  0.1768  0.6524  0.6858
    9GLY     HN   89   0.566   3.377   4.898 -0.0615  1.0460  1.3217
    9GLY     CA   90   0.714   3.514   4.916  0.4098 -0.2363 -0.1991
    9GLY    HA1   91   0.635   3.587   4.921  0.6840  0.0261  4.2846
    9GLY    HA2   92   0.766   3.515   4.821  0.0900  1.0888 -0.3849
    9GLY      C   93   0.815   3.566   5.020 -0.6723 -0.0761 -0.1121
    9GLY      O   94   0.855   3.504   5.116 -0.6402  0.7716  0.1700
   10ASP      N   95   0.861   3.691   5.000  0.2662  0.1074  0.1436
   10ASP     HN   96   0.826   3.751   4.928 -0.0844  3.0805  2.5817
   10ASP     CA   97   0.922   3.762   5.104 -0.4831 -0.2231 -0.2879
   10ASP     HA   98   1.012   3.714   5.139 -0.3037  1.3975  1.6486
   10ASP     CB   99   0.969   3.899   5.042  0.2127  0.1047 -0.1332
   10ASP    HB1  100   1.025   3.961   5.115  0.0159  0.5146 -0.3284
   10ASP    HB2  101   0.883   3.958   5.003  0.1719 -0.4780 -0.9558
   10ASP     CG  102   1.078   3.877   4.933  0.1471  0.0876 -0.3597
   10ASP    OD1  103   1.057   3.902   4.809  0.4330  0.0364 -0.3305
   10ASP    OD2  104   1.180   3.818   4.973  0.1236 -0.2329  0.0321
   10ASP      C  105   0.824   3.791   5.227  0.0655  0.3135  0.0727
   10ASP      O  106   0.703   3.786   5.217  0.3539  0.0880 -0.1525
   11GLY      N  107   0.875   3.813   5.348 -0.7424 -0.1454  0.4602
   11GLY     HN  108   0.973   3.810   5.363 -1.0656  0.9946  3.5753
   11GLY     CA  109   0.780   3.858   5.455 -0.2528  0.1658 -0.0905
   11GLY    HA1  110   0.825   3.840   5.551 -4.0061  0.9925  2.0135
   11GLY    HA2  111   0.688   3.801   5.453  0.6423 -1.3822  0.8675
   11GLY      C  112   0.749   4.008   5.456  0.1524 -0.3611 -0.0530
   11GLY    OT1  113   0.628   4.042   5.450  0.2011  0.1802  0.0562
   11GLY    OT2  114   0.842   4.088   5.471  0.8854 -0.0323 -0.4948
   12LIT    LIT  115   2.839   3.317   4.993 -0.0263  0.9431  0.0217
   13LIT    LIT  116   7.112   2.050   5.250 -0.0239 -0.2877  0.4158
   14LIT    LIT  117   1.106   1.435   3.327 -0.4996 -0.0647 -0.3115
   15LIT    LIT  118   5.669   3.483   5.642 -0.3563  0.1310  0.3110
   16LIT    LIT  119   0.715   4.233   5.482  0.6214 -0.6152  0.4421
   17LIT    LIT  120   5.125   6.344   5.480  0.5840  0.0360 -1.3054
   18LIT    LIT  121   1.352   4.411   1.013  0.5148 -1.7956 -0.2544
   19LIT    LIT  122   2.915   5.849   4.887  0.5162 -0.3110  0.7261
   20LIT    LIT  123   5.907   5.305   0.351  0.2312 -0.5049  0.5072
   21LIT    LIT  124   2.794   1.790   5.402  0.6336  0.5752  0.6733
   22LIT    LIT  125   0.348   6.730   0.024 -1.6901  0.5479 -0.9259
   23LIT    LIT  126   2.537   0.934   4.540  0.3987 -0.3450  1.5514
   24LIT    LIT  127   5.664   6.446   4.971  0.7512  0.0051  1.1116
   25LIT    LIT  128   2.007   2.918   4.959 -0.1697  1.9181 -0.1764
   26LIT    LIT  129   1.062   4.066   4.723  0.9149 -0.4485  0.4539
   27LIT    LIT  130   3.946   0.649   0.009  0.1018 -0.0551 -0.1751
   28LIT    LIT  131   1.813   2.916   2.138  0.9869 -0.2522 -0.5577
   29LIT    LIT  132   5.249   1.580   4.655 -0.2646  0.3090 -0.7584
   30LIT    LIT  133   3.915   4.137   2.173 -0.2470  1.2800  0.5325
   31LIT    LIT  134   4.542   2.666   4.907  0.5062 -0.0564 -0.0263
   32LIT    LIT  135   6.228   0.770   5.176 -0.2818 -0.0981  0.4840
   33LIT    LIT  136   0.986   3.090   1.729  0.5642 -0.2710  0.3638
   34LIT    LIT  137   6.915   5.603   5.045  0.1190 -0.4649 -0.9235
   35LIT    LIT  138   4.148   2.653   1.308  0.0982 -0.8993  0.6551
   36LIT    LIT  139   6.248   3.179   3.249 -0.0373 -0.4835 -0.2917
   37LIT    LIT  140   4.591   2.341   1.073  0.1432  0.0942  0.0244
   38LIT    LIT  141   6.937   5.671   3.900  1.3177  0.0719  0.5232
   39LIT    LIT  142   1.339   1.492   3.080 -1.0527  0.1698 -0.2520
   40LIT    LIT  143   2.993   3.854   3.724 -1.0921 -0.3941 -0.0524
   41LIT    LIT  144   4.606   6.378   1.274  0.0239  1.1020  0.1034
   42LIT    LIT  145   1.320   2.606   3.646 -0.4613  0.0339  0.8919
   43CLA    CLA  146   1.509   6.510   2.211  0.0316 -0.1843  0.1924
   44CLA    CLA  147   1.635   4.031   1.026 -0.1063  0.3194  0.3969
   45CLA    CLA  148   6.136   1.407   2.638  0.2105 -0.1524  0.4545
   46CLA    CLA  149   5.239   6.169   1.761  0.0380 -0.1449  0.0098
   47CLA    CLA  150   3.904   0.616   1.785 -0.0283  0.1023 -0.0995
   48CLA    CLA  151   0.129   1.081   4.724  0.0937 -0.2026  0.3044
   49CLA    CLA  152   1.433   0.705   2.374  0.1651  0.2330 -0.1984
   50CLA    CLA  153   7.142   1.385   5.744  0.1711 -0.3161  0.0794
   51CLA    CLA  154   3.278   2.887   4.380 -0.3752  0.1443  0.0407
   52CLA    CLA  155   5.352   0.276   2.498 -0.0633  0.1421  0.0514
   53CLA    CLA  156   3.972   2.814   1.283  0.3122 -0.2903 -0.4754
   54CLA    CLA  157   1.595   2.101   2.548  0.0954  0.2546 -0.2940
   55CLA    CLA  158   1.475   1.937   5.156  0.0776  0.1666 -0.2940
   56CLA    CLA  159   5.299   2.018   0.522  0.0847 -0.4469  0.0646
   57CLA    CLA  160   3.367   1.307   5.373  0.1838 -0.3853  0.4031
   58CLA    CLA  161   1.587   3.913   5.142  0.1414  0.2150 -0.3575
   59CLA    CLA  162   2.634   4.616   3.607  0.0588 -0.2589  0.0195
   60CLA    CLA  163   3.195   2.537   4.756  0.0361  0.1067  0.4256
   61CLA    CLA  164   3.912   4.817   2.463  0.3779  0.6140 -0.1846
   62CLA    CLA  165   4.854   5.607   3.293  0.3664  0.5239 -0.0784
   63CLA    CLA  166   5.106   3.479   1.915  0.2360 -0.1468  0.2080
   64CLA    CLA  167   5.516   5.965   5.778  0.0954  0.1690  0.0183
   65CLA    CLA  168   4.599   1.777   4.988 -0.2011  0.0242 -0.1604
   66CLA    CLA  169   6.465   6.592   0.776  0.1934 -0.4733 -0.8725
   67CLA    CLA  170   0.897   4.822   3.055 -0.3226 -0.5405  0.4117
   68CLA    CLA  171   0.778   4.534   3.399 -0.0308  0.4364 -0.2035
   69CLA    CLA  172   7.092   3.927   5.782  0.0075  0.1813 -0.4543
   70TIP3   OH2  173   6.316   5.695   5.664  0.0043  0.1325 -0.4045
   70TIP3    H1  174   6.380   5.660   5.727  1.5106  0.8932 -1.4495
   70TIP3    H2  175   6.259   5.751   5.716  1.6709  1.3319  0.2254
   71TIP3   OH2  176   5.411   0.217   1.995  0.5482  0.4972 -0.2327
   71TIP3    H1  177   5.442   0.236   1.907  0.0535 -0.2806 -0.5858
   71TIP3    H2  178   5.489   0.227   2.050  1.0893  0.0566 -0.8928
   72TIP3   OH2  179   4.869   1.675   3.034  0.0419  0.1533 -0.3619
   72TIP3    H1  180   4.791   1.686   2.980  0.2945  0.2161 -0.7197
   72TIP3    H2  181   4.933   1.735   2.996  0.0329  0.6526  0.3855
   73TIP3   OH2  182   0.279   0.774   3.793 -0.4732  0.4101 -0.2251
   73TIP3    H1  183   0.245   0.862   3.777 -0.6691  0.6016  1.1754
   73TIP3    H2  184   0.262   0.757   3.886 -1.6326 -1.6344 -0.7404
   74TIP3   OH2  185   0.173   3.601   1.811 -0.6641  0.2191 -0.0516
   74TIP3    H1  186   0.268   3.604   1.798 -0.7727  0.4797 -0.8399
   74TIP3    H2  187   0.160   3.642   1.896  0.0801 -1.5213  0.9546
   75TIP3   OH2  188   7.008   0.375   4.085 -0.1257 -0.1608  0.0718
   75TIP3    H1  189   6.934   0.345   4.137 -0.4768  0.6944  0.0736
   75TIP3    H2  190   6.969   0.426   4.014  0.4729  0.6155  0.2887
   76TIP3   OH2  191   1.645   2.728   5.576 -0.1017  0.4484  0.2560
   76TIP3    H1  192   1.565   2.758   5.619  0.4803  0.6362  1.2479
   76TIP3    H2  193   1.637   2.633   5.573 -1.0423  0.5457 -1.0564
   77TIP3   OH2  194   3.245   0.863   4.577  0.6897 -0.0589  0.0752
   77TIP3    H1  195   3.228   0.823   4.662 -0.6873  1.0435  0.3610
   77TIP3    H2  196   3.169   0.841   4.524  1.4116 -0.5061 -0.8080
   78TIP3   OH2  197   3.679   3.707   0.116  0.2151 -0.7715  0.0130
   78TIP3    H1  198   3.610   3.642   0.130  1.0732 -1.8201 -0.5110
   78TIP3    H2  199   3.726   3.676   0.038 -0.2833  1.2946 -1.2023
   79TIP3   OH2  200   1.018   5.322   5.678 -0.1297 -0.3237 -0.2210
   79TIP3    H1  201   0.941   5.359   5.635  0.0785 -0.2647 -0.5464
   79TIP3    H2  202   0.984   5.252   5.733 -0.3918 -0.4434 -0.5343
   80TIP3   OH2  203   1.214   3.856   1.904 -0.2687  0.2670 -0.1395
   80TIP3    H1  204   1.201   3.761   1.904 -0.5033  0.2987  0.4874
   80TIP3    H2  205   1.167   3.887   1.981  2.9873  0.4622  1.9562
   81TIP3   OH2  206   4.626   1.955   1.673 -0.1773  0.1141 -0.1952
   81TIP3    H1  207   4.647   1.863   1.661  0.7167  0.3836 -0.7893
   81TIP3    H2  208   4.606   1.963   1.767 -1.4530 -0.8931 -0.3454
   82TIP3   OH2  209   4.821   0.573   1.475 -0.6524 -0.1404  0.3785
   82TIP3    H1  210   4.915   0.590   1.471 -0.5066 -0.9480  0.3180
   82TIP3    H2  211   4.800   0.531   1.392 -1.1438  0.3684  0.2365
   83TIP3   OH2  212   1.794   4.202   5.759  0.3268 -0.4387 -0.2354
   83TIP3    H1  213   1.875   4.185   5.808  0.6246 -0.5755 -0.7550
   83TIP3    H2  214   1.746   4.119   5.763  0.4679 -0.5296 -0.3811
   84TIP3   OH2  215   2.456   3.602   1.345  0.0360 -0.3393 -0.3887
   84TIP3    H1  216   2.536   3.652   1.327 -1.7344  2.0718 -2.4036
   84TIP3    H2  217   2.444   3.608   1.439  2.4051 -1.1630  0.0324
   85TIP3   OH2  218   6.229   3.966   5.504  0.3766  0.2237 -0.2289
   85TIP3    H1  219   6.324   3.973   5.489  0.2871  0.1472 -0.8558
   85TIP3    H2  220   6.219   3.884   5.552  0.7951  1.1076  1.4452
   86TIP3   OH2  221   0.940   3.820   4.433  0.0381 -0.2997  0.4610
   86TIP3    H1  222   0.961   3.727   4.446  0.1928 -0.5875 -1.5741
   86TIP3    H2  223   0.848   3.820   4.409  0.4948 -0.1734 -1.4586
   87TIP3   OH2  224   2.818   0.916   4.779  0.2608 -0.1529 -0.4385
   87TIP3    H1  225   2.804   0.859   4.854  1.5665 -1.6918 -1.2905
   87TIP3    H2  226   2.903   0.889   4.744 -0.9006 -0.4559 -3.2992
   88TIP3   OH2  227   5.437   0.128   5.017 -0.1149 -0.8173 -0.3153
   88TIP3    H1  228   5.344   0.105   5.007 -0.2143 -0.0524 -1.2338
   88TIP3    H2  229   5.474   0.116   4.930 -0.2016  2.5729 -0.9421
   89TIP3   OH2  230   0.149   6.012   5.515 -0.1020  0.5351  0.0446
   89TIP3    H1  231   0.236   6.005   5.477  0.3238  0.9896  0.9163
   89TIP3    H2  232   0.100   5.940   5.475  0.5740  0.4646 -0.6902
   90TIP3   OH2  233   1.910   1.250   0.348 -0.0587  0.1184 -0.4615
   90TIP3    H1  234   1.911   1.224   0.440 -0.6325  2.3629  0.2502
   90TIP3    H2  235   1.822   1.285   0.334  0.0850 -0.0234 -1.8119
   91TIP3   OH2  236   0.514   1.922   3.797  0.0192  0.2967 -0.1045
   91TIP3    H1  237   0.582   1.904   3.862  0.4992 -1.6748 -1.0852
   91TIP3    H2  238   0.534   1.863   3.725 -2.0821  0.5112 -0.9185
   92TIP3   OH2  239   0.719   0.190   4.224 -0.3884 -0.2340 -0.1375
   92TIP3    H1  240   0.636   0.213   4.183 -0.2865  2.6530  1.0108
   92TIP3    H2  241   0.696   0.128   4.292 -1.5084  0.0023 -0.2816
   93TIP3   OH2  242   2.169   5.841   4.096  0.3067 -0.1903 -0.6764
   93TIP3    H1  243   2.146   5.877   4.182  1.2404  0.2811 -0.6164
   93TIP3    H2  244   2.171   5.917   4.038  2.3985 -0.0774 -0.5290
   94TIP3   OH2  245   3.699   1.511   2.640  0.1443 -0.8857 -0.7699
   94TIP3    H1  246   3.676   1.433   2.590  3.0611 -1.9751 -0.5875
   94TIP3    H2  247   3.793   1.504   2.654 -0.0283  0.9544  2.2001
   95TIP3   OH2  248   1.868   2.520   1.282  0.9499  0.2427 -0.1147
   95TIP3    H1  249   1.912   2.489   1.203  0.6773 -0.9008  0.1558
   95TIP3    H2  250   1.870   2.444   1.341  0.0204  0.6726  0.4885
   96TIP3   OH2  251   0.096   6.485   4.106 -0.0442 -0.3790  0.3236
   96TIP3    H1  252   0.165   6.477   4.173  1.9367 -0.2334 -1.5881
   96TIP3    H2  253   0.030   6.540   4.146  1.7906  0.9953  1.6439
   97TIP3   OH2  254   5.678   6.432   2.546  0.0097  0.2137  0.0318
   97TIP3    H1  255   5.752   6.406   2.491 -0.3369 -0.0335 -0.3191
   97TIP3    H2  256   5.601   6.414   2.493 -0.3316 -0.0550  0.6057
   98TIP3   OH2  257   1.009   5.484   2.129 -0.4086  0.5582  0.2392
   98TIP3    H1  258   1.040   5.557   2.076  1.1813  0.3120  0.7967
   98TIP3    H2  259   0.984   5.524   2.213  2.0000  0.3267  1.1441
   99TIP3   OH2  260   5.144   5.609   0.763  0.2054  0.1828  0.4885
   99TIP3    H1  261   5.184   5.525   0.782  0.0141  0.1488  0.7392
   99TIP3    H2  262   5.175   5.667   0.832  0.8786  0.4922 -0.0676
  100TIP3   OH2  263   6.645   3.932   1.699  0.1400  0.3557  0.1229
  100TIP3    H1  264   6.711   3.986   1.656 -0.3416 -0.9493 -2.4625
  100TIP3    H2  265   6.564   3.951   1.652 -0.6597 -0.4246  1.1367
  101TIP3   OH2  266   1.688   4.416   5.013  0.3931 -0.7217  0.3959
  101TIP3    H1  267   1.665   4.392   4.924  1.0515 -0.7836  0.2371
  101TIP3    H2  268   1.784   4.420   5.013  0.3546  1.5783  0.4914
  102TIP3   OH2  269   1.094   3.542   2.237 -0.4555  0.2423 -0.7405
  102TIP3    H1  270   1.123   3.482   2.305  1.7047  1.5276 -0.4423
  102TIP3    H2  271   1.120   3.500   2.155  1.1079  0.7699 -0.5312
  103TIP3   OH2  272   6.680   3.987   5.694 -0.5520 -0.0221  0.1363
  103TIP3    H1  273   6.740   4.059   5.714  0.0507 -0.2478 -0.8450
  103TIP3    H2  274   6.736   3.913   5.673 -1.1513 -0.1567 -1.0660
  104TIP3   OH2  275   5.424   4.880   3.895 -0.0656 -0.1981  0.0015
  104TIP3    H1  276   5.391   4.928   3.819  0.6142  1.2168  0.5762
  104TIP3    H2  277   5.351   4.883   3.957  0.0816  0.3397  0.1476
  105TIP3   OH2  278   3.034  -0.011   1.223 -0.2605 -0.3259  0.7021
  105TIP3    H1  279   2.976   0.029   1.159  1.1626  0.5866 -0.0584
  105TIP3    H2  280   3.010   0.030   1.306 -1.2646 -0.5899  0.5538
  106TIP3   OH2  281   1.605   6.238   1.661 -0.4501 -0.1766  0.2927
  106TIP3    H1  282   1.511   6.245   1.680 -0.6164 -0.6693 -0.3049
  106TIP3    H2  283   1.609   6.234   1.565  0.0902 -1.3173  0.3463
  107TIP3   OH2  284   1.207   5.420   2.843 -0.4884 -0.1300  0.0971
  107TIP3    H1  285   1.258   5.479   2.787  0.2222 -0.1235  0.7261
  107TIP3    H2  286   1.255   5.419   2.925  0.1174 -2.3862 -0.2140
  108TIP3   OH2  287   5.299   5.612   4.964 -0.4589  0.6877  0.0996
  108TIP3    H1  288   5.213   5.642   4.934 -1.2995 -1.3140  0.3965
  108TIP3    H2  289   5.318   5.537   4.909  1.9580  2.1005 -1.1649
  109TIP3   OH2  290   3.548   3.681   2.001  0.5421  0.3192  0.1732
  109TIP3    H1  291   3.495   3.670   1.923 -0.5418 -0.5691  1.0065
  109TIP3    H2  292   3.485   3.695   2.072  1.5246  2.3796  0.7456
  110TIP3   OH2  293   1.910   0.290   0.640 -0.7943 -0.2791  0.3851
  110TIP3    H1  294   1.876   0.307   0.553 -0.3029 -0.4743  0.1534
  110TIP3    H2  295   1.875   0.204   0.664  1.2678 -1.5275 -0.7568
  111TIP3   OH2  296   6.230   6.035   4.406 -0.4353 -0.2126  0.3664
  111TIP3    H1  297   6.253   6.117   4.450 -0.3873 -0.7029  1.2954
  111TIP3    H2  298   6.211   5.974   4.478  2.0064 -1.7569 -0.1736
  112TIP3   OH2  299   3.128   0.938   5.072 -0.0814 -0.3889 -0.3756
  112TIP3    H1  300   3.072   0.889   5.131  0.8856  1.2814  2.1032
  112TIP3    H2  301   3.197   0.974   5.128  1.1973  0.9252 -2.6188
  113TIP3   OH2  302   6.932   6.786   4.437 -0.1040  0.1085  0.2089
  113TIP3    H1  303   6.919   6.820   4.526  0.5345  2.2976 -0.4600
  113TIP3    H2  304   6.854   6.732   4.421  1.0638 -2.6984  3.0299
  114TIP3   OH2  305   3.864   5.497   4.922 -0.2361  0.1772 -0.8614
  114TIP3    H1  306   3.885   5.554   4.996  0.6543  1.7663 -2.2443
  114TIP3    H2  307   3.772   5.515   4.903 -0.4448 -0.1776 -0.2053
  115TIP3   OH2  308   3.086   6.582   2.392  0.6810  0.8754  0.6762
  115TIP3    H1  309   3.012   6.527   2.367  2.7579 -2.7605  1.8467
  115TIP3    H2  310   3.108   6.630   2.312 -2.2074  1.3537  0.0359
  116TIP3   OH2  311   5.139   3.432   3.925  0.0861 -0.3564 -0.3980
  116TIP3    H1  312   5.149   3.502   3.989  0.6357 -1.1681  0.4399
  116TIP3    H2  313   5.171   3.470   3.843  0.3514  0.3798  0.0321
  117TIP3   OH2  314   0.562   6.628   2.455  0.4075  0.1900 -0.2694
  117TIP3    H1  315   0.634   6.681   2.421  0.4019 -0.8996 -2.1183
  117TIP3    H2  316   0.578   6.540   2.421 -1.3040 -0.2819  0.0246
  118TIP3   OH2  317   2.847   2.232   5.424 -0.2165 -0.5366 -0.6967
  118TIP3    H1  318   2.778   2.255   5.487  0.1236 -0.2666 -0.4185
  118TIP3    H2  319   2.841   2.300   5.357 -0.0324 -0.3431 -0.5203
  119TIP3   OH2  320   4.596   0.527   3.440  0.0881  0.1322  0.2294
  119TIP3    H1  321   4.617   0.454   3.382 -1.9299  0.6398 -1.2856
  119TIP3    H2  322   4.673   0.584   3.437  1.3634 -1.4804  0.7990
  120TIP3   OH2  323   4.221   2.628   1.483  0.0485 -0.1301 -0.5944
  120TIP3    H1  324   4.177   2.562   1.536 -0.0368 -0.2035 -0.7528
  120TIP3    H2  325   4.224   2.706   1.538  0.3726 -0.3408 -0.3177
  121TIP3   OH2  326   0.092   0.968   0.137 -0.2491  0.3393 -0.2141
  121TIP3    H1  327   0.160   1.034   0.125  0.0656  0.1125  0.2787
  121TIP3    H2  328   0.031   1.007   0.199 -0.0005  0.1207  0.1676
  122TIP3   OH2  329   5.621   3.908   4.297  0.7787  0.4329 -0.3843
  122TIP3    H1  330   5.563   3.963   4.245  2.2184  0.9086 -1.5737
  122TIP3    H2  331   5.588   3.819   4.284  0.3725  0.6808 -1.1357
  123TIP3   OH2  332   2.045   2.954   1.719  0.0594 -0.0295 -0.8418
  123TIP3    H1  333   2.016   3.045   1.728  1.4794  0.4905 -1.1757
  123TIP3    H2  334   1.965   2.904   1.703 -0.9838  0.8573  1.3534
  124TIP3   OH2  335   4.007   5.216   1.836  0.0815 -0.3911 -0.5872
  124TIP3    H1  336   4.044   5.181   1.917 -0.0452  1.3019  0.2361
  124TIP3    H2  337   4.084   5.238   1.783  0.1703 -2.4201 -1.4038
  125TIP3   OH2  338   6.815   1.305   1.178  0.3410 -0.3926  0.4489
  125TIP3    H1  339   6.887   1.358   1.145  0.9094 -1.2206  0.3216
  125TIP3    H2  340   6.787   1.349   1.258 -1.2053  1.7816 -1.1750
  126TIP3   OH2  341   6.385   5.292   2.985  0.0915 -0.1278 -0.0008
  126TIP3    H1  342   6.443   5.217   2.996  0.9039  0.2663 -1.3793
  126TIP3    H2  343   6.419   5.338   2.909  0.5363  2.5090  1.6774
  127TIP3   OH2  344   0.495   2.033   5.856 -0.1242 -0.7420  0.0849
  127TIP3    H1  345   0.511   2.117   5.814 -0.9806  0.0986  1.3885
  127TIP3    H2  346   0.580   2.009   5.894 -0.0216 -0.1846  0.2099
  128TIP3   OH2  347   1.172   0.834   0.154  0.3395 -0.6720  0.4977
  128TIP3    H1  348   1.259   0.794   0.149  0.5240 -0.4934  1.7342
  128TIP3    H2  349   1.118   0.768   0.197 -0.0204 -0.6135  0.1333
  129TIP3   OH2  350   2.685   2.204   4.733 -0.1593 -0.3664 -0.4977
  129TIP3    H1  351   2.696   2.248   4.818 -1.2722  0.0023 -0.5138
  129TIP3    H2  352   2.766   2.155   4.720  1.7785  2.7291 -1.0955
  130TIP3   OH2  353   3.918   0.234   0.501 -0.5396  0.2089 -0.5625
  130TIP3    H1  354   4.010   0.247   0.524 -0.3736  0.4319 -1.3059
  130TIP3    H2  355   3.890   0.159   0.553  0.3490 -0.4880 -1.0590
  131TIP3   OH2  356   2.260   5.943   2.670  1.0650 -0.1376 -0.7432
  131TIP3    H1  357   2.172   5.978   2.660  0.7085 -1.3220 -2.1023
  131TIP3    H2  358   2.249   5.848   2.668  2.4270 -0.3068 -1.6874
  132TIP3   OH2  359   6.603   5.678   5.614  0.2357  0.0892 -0.1434
  132TIP3    H1  360   6.507   5.678   5.611  0.0504  0.6417  2.6270
  132TIP3    H2  361   6.627   5.771   5.619  1.0929  0.0628 -2.4022
  133TIP3   OH2  362   0.393   5.501   0.557 -0.5672 -0.2761  0.5835
  133TIP3    H1  363   0.456   5.429   0.555 -0.4509 -0.1747 -0.8364
  133TIP3    H2  364   0.310   5.461   0.530 -0.1678  0.3712 -1.7930
  134TIP3   OH2  365   5.440   3.037   1.664 -0.2663 -0.4688  0.1121
  134TIP3    H1  366   5.478   2.986   1.592 -0.6783  2.3908 -2.3781
  134TIP3    H2  367   5.515   3.079   1.706 -0.0648 -1.7820  1.1354
  135TIP3   OH2  368   0.065   2.049   2.711 -0.0655 -0.2577 -0.2091
  135TIP3    H1  369  -0.031   2.049   2.712 -0.1416  2.1068  1.2072
  135TIP3    H2  370   0.090   1.989   2.781 -0.5963  0.6130  0.7551
  136TIP3   OH2  371   5.624   0.098   4.558 -0.0232  0.4180  0.1169
  136TIP3    H1  372   5.615   0.189   4.586  1.8446  0.7357 -0.2035
  136TIP3    H2  373   5.690   0.100   4.488  0.5243 -1.2403  0.5333
  137TIP3   OH2  374   1.552   0.859   2.023 -0.5336 -0.0857  0.5062
  137TIP3    H1  375   1.489   0.896   2.085 -0.2701  0.9674  0.1552
  137TIP3    H2  376   1.498   0.820   1.955 -0.8896  2.7078 -0.9481
  138TIP3   OH2  377   4.551   6.425   5.253  0.0303 -0.5756  0.3565
  138TIP3    H1  378   4.485   6.486   5.287  2.2080  1.3380  1.4318
  138TIP3    H2  379   4.579   6.375   5.330 -0.9916 -2.2742 -0.3288
  139TIP3   OH2  380   3.809   6.245   4.242  0.2502 -0.2966  0.5954
  139TIP3    H1  381   3.836   6.199   4.163 -0.7567 -0.6293  0.4330
  139TIP3    H2  382   3.760   6.321   4.209 -0.5709 -0.6838  0.8854
  140TIP3   OH2  383   6.586   0.812   5.229  0.2946  0.2785 -0.2963
  140TIP3    H1  384   6.591   0.771   5.316 -0.5424  0.1629 -0.2901
  140TIP3    H2  385   6.676   0.838   5.209  0.4052  0.8648  0.8754
  141TIP3   OH2  386   1.859   0.587   0.246 -0.1603  0.6365 -0.0366
  141TIP3    H1  387   1.814   0.651   0.191 -2.9759 -1.5639 -0.5607
  141TIP3    H2  388   1.900   0.526   0.184  1.9694  1.5155  0.4419
  142TIP3   OH2  389   6.572   4.252   1.457 -0.6424 -0.6082  0.2844
  142TIP3    H1  390   6.636   4.183   1.475 -0.1329  0.0267  0.9438
  142TIP3    H2  391   6.558   4.247   1.362  0.1144 -0.9876  0.1878
  143TIP3   OH2  392   5.780   4.760   2.598  0.1112  0.4844 -0.0085
  143TIP3    H1  393   5.765   4.734   2.688 -0.5494  0.3373 -0.1594
  143TIP3    H2  394   5.870   4.732   2.580 -0.0058 -0.1519  0.3655
  144TIP3   OH2  395   5.262   3.166   0.066  0.5775  0.5736 -0.6419
  144TIP3    H1  396   5.357   3.174   0.062  0.7285 -1.1313 -1.7776
  144TIP3    H2  397   5.233   3.172  -0.025 -0.3834  0.8528 -0.3334
  145TIP3   OH2  398   3.270   5.310   1.331  1.0311 -0.3299 -0.5035
  145TIP3    H1  399   3.191   5.362   1.347 -0.8006 -2.6384 -1.4408
  145TIP3    H2  400   3.329   5.333   1.403 -1.0095  0.4936  0.9930
  146TIP3   OH2  401   3.305   2.486   5.612  0.0856 -0.0863  0.1013
  146TIP3    H1  402   3.226   2.503   5.562  0.2157  0.5298  0.0969
  146TIP3    H2  403   3.276   2.487   5.704  0.3772  1.9793  0.2196
  147TIP3   OH2  404   4.564   2.494   4.979 -0.0889  0.3844  0.0210
  147TIP3    H1  405   4.583   2.407   4.944 -0.5524  0.1824  0.2751
  147TIP3    H2  406   4.560   2.481   5.074 -1.8355  0.3595 -0.0388
  148TIP3   OH2  407   2.602   4.892   3.094 -0.3903 -0.1457  0.2117
  148TIP3    H1  408   2.590   4.837   3.172  0.4725 -1.9379 -0.8572
  148TIP3    H2  409   2.693   4.878   3.069 -0.3682  1.2319 -0.5260
  149TIP3   OH2  410   6.651   3.977   0.434  0.3000  0.0962 -0.4013
  149TIP3    H1  411   6.654   4.072   0.451 -1.8806  0.1881 -0.3298
  149TIP3    H2  412   6.577   3.946   0.485  2.1422 -2.0582  1.1665
  150TIP3   OH2  413   0.775   1.161   4.361  0.4386 -0.4589 -0.4904
  150TIP3    H1  414   0.733   1.087   4.404  0.9113 -0.9529 -0.8603
  150TIP3    H2  415   0.839   1.121   4.301  0.9453  0.2491 -0.4405
  151TIP3   OH2  416   6.002   4.611   2.552  0.3903  0.2612 -0.2608
  151TIP3    H1  417   6.063   4.566   2.493  0.8292  0.7122 -0.1589
  151TIP3    H2  418   6.012   4.565   2.636 -0.7587 -0.8423 -0.7056
  152TIP3   OH2  419   5.043   3.687   2.459  0.1523  0.0520 -0.1623
  152TIP3    H1  420   5.120   3.700   2.515 -2.6568  0.7764  3.9570
  152TIP3    H2  421   5.009   3.601   2.485 -0.3020 -0.4315 -2.1968
  153TIP3   OH2  422   5.569   4.141   3.768 -0.5476  0.0134  0.2133
  153TIP3    H1  423   5.564   4.080   3.694  2.3150 -1.0829  0.7818
  153TIP3    H2  424   5.611   4.219   3.731 -0.6003  0.0929  0.3230
  154TIP3   OH2  425   4.624   4.869   2.123  0.3286 -0.2099  0.1669
  154TIP3    H1  426   4.672   4.837   2.199 -1.4743  1.2751  2.0580
  154TIP3    H2  427   4.620   4.964   2.136 -1.0959 -0.0624 -1.1213
  155TIP3   OH2  428   7.080   0.626   2.419  0.5925 -0.3725  0.2918
  155TIP3    H1  429   7.078   0.599   2.327  0.3613 -0.8679  0.4392
  155TIP3    H2  430   6.991   0.658   2.437  0.8640  0.5075  0.1180
  156TIP3   OH2  431   4.187   0.450   3.437 -0.2677 -0.5320 -0.4359
  156TIP3    H1  432   4.174   0.455   3.532  0.3725 -0.5537 -0.3424
  156TIP3    H2  433   4.223   0.536   3.413  1.3774 -1.1631 -0.3540
  157TIP3   OH2  434   5.083   3.661   4.538 -0.1700 -0.4057  0.2650
  157TIP3    H1  435   5.091   3.598   4.466  0.3139  0.3018 -0.3249
  157TIP3    H2  436   4.991   3.658   4.564 -1.0671  1.2900 -2.2572
  158TIP3   OH2  437   6.652   4.830   5.087 -0.1753  0.1454 -1.0606
  158TIP3    H1  438   6.587   4.764   5.111  0.2132  0.3593  0.7078
  158TIP3    H2  439   6.626   4.909   5.136  1.0437  0.4071 -0.7987
  159TIP3   OH2  440   5.172   2.242   4.857  0.1113 -0.1682 -0.0209
  159TIP3    H1  441   5.085   2.268   4.828  0.0328 -0.4190 -0.0109
  159TIP3    H2  442   5.190   2.297   4.933  1.4490  2.5515 -2.0962
  160TIP3   OH2  443   0.597   1.434   5.392 -0.3415 -0.8365 -0.0697
  160TIP3    H1  444   0.551   1.365   5.343 -0.9517 -0.6097  0.1692
  160TIP3    H2  445   0.534   1.461   5.459 -1.7450  2.6070 -2.4700
  161TIP3   OH2  446   1.708   5.491   1.685 -0.5872  0.0203 -0.1517
  161TIP3    H1  447   1.794   5.477   1.724 -0.5087  2.3269  0.6845
  161TIP3    H2  448   1.651   5.429   1.730  0.6064 -1.5771 -0.7620
  162TIP3   OH2  449   4.601   3.531   4.465 -0.4575 -0.2962 -0.2871
  162TIP3    H1  450   4.656   3.572   4.532 -0.5669 -0.4120 -0.1247
  162TIP3    H2  451   4.527   3.494   4.514 -0.0643 -1.2024 -0.3494
  163TIP3   OH2  452   0.747   1.964   1.917  0.2046 -0.9476  0.4613
  163TIP3    H1  453   0.716   2.043   1.872  1.6914  0.1150  1.2151
  163TIP3    H2  454   0.829   1.942   1.872  0.1804 -1.6539  0.7432
  164TIP3   OH2  455   5.520   1.326   3.675  0.1335 -0.0638  0.0212
  164TIP3    H1  456   5.535   1.308   3.582 -0.6524  0.5869 -0.2388
  164TIP3    H2  457   5.449   1.389   3.677 -1.3907 -1.7114  1.1486
  165TIP3   OH2  458   0.227   1.439   0.498 -0.0643 -0.2914 -0.3263
  165TIP3    H1  459   0.138   1.416   0.473 -0.1113 -0.4419 -0.0195
  165TIP3    H2  460   0.245   1.387   0.576  1.0307 -1.8344 -1.5522
  166TIP3   OH2  461   1.953   1.800   3.524 -0.7250  0.0082  0.0232
  166TIP3    H1  462   2.012   1.726   3.528 -2.6712 -1.6104  0.3127
  166TIP3    H2  463   1.933   1.820   3.616 -1.2643 -0.0333 -0.0778
  167TIP3   OH2  464   0.967   1.838   1.433  0.2650  0.1532  0.2505
  167TIP3    H1  465   0.904   1.768   1.416 -0.2038  1.2132 -2.9795
  167TIP3    H2  466   1.045   1.793   1.465 -0.8035 -1.5620  0.5846
  168TIP3   OH2  467   5.080   1.669   0.167 -0.3275 -0.0956  0.1174
  168TIP3    H1  468   5.151   1.732   0.182 -1.3148  1.3156 -0.9641
  168TIP3    H2  469   5.059   1.636   0.255  1.6529 -0.5795  0.4655
  169TIP3   OH2  470   1.602   4.281   2.435 -0.0608 -0.4255 -0.0500
  169TIP3    H1  471   1.541   4.310   2.366 -1.0250 -1.5560  0.2823
  169TIP3    H2  472   1.597   4.185   2.431  0.4036 -0.5053  1.1324
  170TIP3   OH2  473   0.271   1.911   5.746 -0.1779  0.4358  0.6804
  170TIP3    H1  474   0.361   1.945   5.752  0.1181  0.0684 -1.0318
  170TIP3    H2  475   0.228   1.943   5.825  1.8494 -0.5976  2.3350
  171TIP3   OH2  476   4.349   1.461   5.409  0.1605  0.0980 -0.1563
  171TIP3    H1  477   4.405   1.521   5.360 -0.6495 -0.7088 -2.1510
  171TIP3    H2  478   4.282   1.517   5.449  0.3567  0.6848 -0.6431
  172TIP3   OH2  479   2.439   6.084   4.072  0.3338 -0.4248 -0.3603
  172TIP3    H1  480   2.450   6.021   4.144  0.6375 -0.2013 -0.2106
  172TIP3    H2  481   2.515   6.141   4.078  1.7025 -1.8633 -2.3442
  173TIP3   OH2  482   3.877   3.425   2.842 -0.2055  0.1340  0.1531
  173TIP3    H1  483   3.924   3.346   2.816 -1.3847 -0.4375 -0.3090
  173TIP3    H2  484   3.826   3.399   2.918 -0.4257  0.5169  0.1378
  174TIP3   OH2  485   5.127   2.886   2.834  0.1795 -0.5296  0.5038
  174TIP3    H1  486   5.115   2.818   2.900 -1.4287 -0.2226  0.5636
  174TIP3    H2  487   5.056   2.870   2.771 -0.5234  1.3678  0.7681
  175TIP3   OH2  488   0.192   2.994   0.499  0.4775  0.0028  0.3917
  175TIP3    H1  489   0.217   2.934   0.429  0.9228  0.4311  0.1855
  175TIP3    H2  490   0.098   2.977   0.512  0.0933  0.7647 -1.1424
  176TIP3   OH2  491   4.622   4.563   4.844 -0.0979  0.2265 -0.7385
  176TIP3    H1  492   4.546   4.595   4.893  1.6373  3.2932  0.1683
  176TIP3    H2  493   4.674   4.515   4.908 -0.9635 -1.5037 -1.2613
  177TIP3   OH2  494   6.708   3.493   4.664 -0.1978  0.0119  0.1708
  177TIP3    H1  495   6.725   3.471   4.572  0.6069  1.7200 -0.1167
  177TIP3    H2  496   6.696   3.587   4.665 -3.0373 -0.2562  1.4402
  178TIP3   OH2  497   0.003   6.623   1.749 -0.0596  0.0380 -0.7193
  178TIP3    H1  498   0.086   6.581   1.730 -0.8940 -1.1414 -1.9864
  178TIP3    H2  499  -0.013   6.607   1.842  1.2007  0.4597 -0.4194
  179TIP3   OH2  500   4.628   0.561   4.858  0.1079  0.2007 -0.4783
  179TIP3    H1  501   4.630   0.655   4.875 -2.0344 -0.0081  1.4549
  179TIP3    H2  502   4.707   0.527   4.901 -0.6672  0.8223  1.5636
  180TIP3   OH2  503   5.431   4.025   1.011 -0.2783 -0.7366  0.1169
  180TIP3    H1  504   5.370   3.956   0.985 -0.3354 -0.3287 -0.8704
  180TIP3    H2  505   5.451   4.006   1.103  1.5909 -3.5181 -0.7282
  181TIP3   OH2  506   4.290   3.557   5.572 -0.8735  0.3883 -0.3311
  181TIP3    H1  507   4.264   3.635   5.524 -0.0468 -0.1320 -1.6925
  181TIP3    H2  508   4.271   3.577   5.663 -1.2593  1.9283 -0.7236
  182TIP3   OH2  509   2.738   6.767   0.489  0.1443  0.4260  0.8558
  182TIP3    H1  510   2.718   6.801   0.401 -0.8619  1.6229  1.5168
  182TIP3    H2  511   2.708   6.676   0.486  0.8604  0.2063 -0.2784
  183TIP3   OH2  512   1.724   0.027   5.090 -0.3606  0.4135 -0.8734
  183TIP3    H1  513   1.693   0.077   5.015 -2.7626  0.9650  0.3945
  183TIP3    H2  514   1.745   0.094   5.156  1.2549 -0.0829 -0.8423
  184TIP3   OH2  515   2.950   6.140   1.048 -0.1959 -0.2021  0.2121
  184TIP3    H1  516   2.954   6.048   1.021 -0.8212 -0.5133  1.1139
  184TIP3    H2  517   2.929   6.136   1.141 -1.5622  0.8680 -0.0267
  185TIP3   OH2  518   5.728   5.712   0.418 -0.2207  0.2751 -0.3118
  185TIP3    H1  519   5.782   5.673   0.486  1.1345  0.6285 -1.1397
  185TIP3    H2  520   5.683   5.638   0.378 -1.2019  0.0875  1.0747
  186TIP3   OH2  521   4.228   3.178   0.131  0.1269  0.0452  0.6842
  186TIP3    H1  522   4.138   3.152   0.109 -0.3045  2.1819 -0.3057
  186TIP3    H2  523   4.266   3.205   0.047  0.9667  1.2415  1.4229
  187TIP3   OH2  524   3.334   2.764   2.272  0.2430 -0.1732  0.1704
  187TIP3    H1  525   3.315   2.675   2.299  1.1857 -1.1344 -2.0825
  187TIP3    H2  526   3.248   2.802   2.251 -0.3509  0.1095  2.7027
  188TIP3   OH2  527   1.627   4.508   4.139 -0.5996 -0.5256 -0.2209
  188TIP3    H1  528   1.598   4.434   4.192  2.7144 -2.4650 -0.7750
  188TIP3    H2  529   1.597   4.487   4.050  0.7486 -1.5945 -0.4704
  189TIP3   OH2  530   7.215   3.705   3.990  0.3491 -0.2950 -0.4326
  189TIP3    H1  531   7.217   3.610   3.983 -0.6722 -0.2956 -0.9267
  189TIP3    H2  532   7.193   3.735   3.902  0.6660  0.3958 -0.2811
  190TIP3   OH2  533   0.361   5.317   1.002  0.3084  0.6107  0.7712
  190TIP3    H1  534   0.367   5.401   0.956 -1.6029  0.3019 -0.1343
  190TIP3    H2  535   0.313   5.261   0.942  1.7214 -1.2248  1.2778
  191TIP3   OH2  536   4.578   3.371   4.993 -0.9248 -0.3685  0.1073
  191TIP3    H1  537   4.562   3.465   4.999  0.0616  0.0462 -2.5304
  191TIP3    H2  538   4.595   3.355   4.900  0.9602 -2.8326  0.7713
  192TIP3   OH2  539   3.421   4.328   3.820 -0.0638 -0.4154  0.2099
  192TIP3    H1  540   3.362   4.272   3.769 -0.4627 -0.5240  0.7769
  192TIP3    H2  541   3.492   4.270   3.846  0.4200 -0.2323 -0.6621
  193TIP3   OH2  542   4.492   0.016   5.333  0.1393 -0.0521  0.4973
  193TIP3    H1  543   4.443   0.054   5.260  0.7917 -1.4534 -0.7266
  193TIP3    H2  544   4.550   0.086   5.362  1.0404  0.0739 -1.4390
  194TIP3   OH2  545   0.357   1.118   0.057  0.4548 -0.4057 -0.1564
  194TIP3    H1  546   0.405   1.201   0.049 -0.8216  0.4141  0.3737
  194TIP3    H2  547   0.400   1.072   0.128  1.4682 -0.4202 -0.7572
  195TIP3   OH2  548   2.455   6.132   0.382 -0.6538  0.9378  0.5473
  195TIP3    H1  549   2.461   6.200   0.449 -0.6433  1.7121 -0.2245
  195TIP3    H2  550   2.544   6.098   0.373  0.0431  3.0141 -1.2647
  196TIP3   OH2  551   6.089   0.016   0.085  0.2244  0.5195  0.1000
  196TIP3    H1  552   6.017   0.013   0.023  0.7080 -2.7509 -0.4799
  196TIP3    H2  553   6.164   0.047   0.034  0.5097 -1.6930 -0.9200
  197TIP3   OH2  554   7.232   5.253   0.056  0.0115  0.3891  0.2939
  197TIP3    H1  555   7.146   5.295   0.061  0.0124  0.3248  1.0796
  197TIP3    H2  556   7.212   5.161   0.040 -0.0730  0.3627  0.5406
  198TIP3   OH2  557   6.401   6.526   1.616  0.2805 -0.0221  0.3611
  198TIP3    H1  558   6.469   6.472   1.656  0.2312 -1.4844 -1.4103
  198TIP3    H2  559   6.319   6.494   1.653  0.2798 -0.9710 -0.4279
  199TIP3   OH2  560   5.041   0.281   4.779  0.2187  0.6255 -0.1821
  199TIP3    H1  561   5.069   0.196   4.745  2.9203  1.9385 -1.5368
  199TIP3    H2  562   4.989   0.320   4.709 -0.4055  0.4076  0.1509
  200TIP3   OH2  563   4.784   3.841   3.271  0.1684 -0.5625  0.3039
  200TIP3    H1  564   4.772   3.811   3.361  1.3308 -0.8659  0.3733
  200TIP3    H2  565   4.695   3.844   3.234 -0.3076 -0.5254  1.4236
  201TIP3   OH2  566   2.284   4.681   0.905 -0.4048 -0.6010  0.0924
  201TIP3    H1  567   2.205   4.734   0.897 -0.6374 -0.9325  0.1889
  201TIP3    H2  568   2.325   4.687   0.819 -0.4567 -0.3098  0.0852
  202TIP3   OH2  569   2.990   1.102   0.231 -0.3846 -0.1058 -0.7842
  202TIP3    H1  570   2.947   1.129   0.313  2.5841  0.4707  0.7315
  202TIP3    H2  571   3.021   1.013   0.249  0.0240 -0.0878 -1.3846
  203TIP3   OH2  572   7.147   2.560   4.301  0.1861 -0.0363 -0.7121
  203TIP3    H1  573   7.072   2.529   4.250 -0.2996  0.9750 -0.6413
  203TIP3    H2  574   7.214   2.581   4.236  0.5156 -1.1533 -0.7652
  204TIP3   OH2  575   2.450   0.083   1.839 -0.5950 -0.3581  0.2781
  204TIP3    H1  576   2.364   0.045   1.856  0.3141 -3.0658 -0.6895
  204TIP3    H2  577   2.459   0.082   1.744  0.7468 -0.7557  0.3903
  205TIP3   OH2  578   4.801   2.545   0.807 -0.1802  0.3399  0.0839
  205TIP3    H1  579   4.768   2.629   0.773 -0.6815  0.2305  0.3003
  205TIP3    H2  580   4.807   2.489   0.730 -2.0023 -0.1385  0.2423
  206TIP3   OH2  581   1.722   0.720   0.041  0.2936 -0.0055  0.6514
  206TIP3    H1  582   1.716   0.677  -0.044 -1.4577  1.1515  0.1233
  206TIP3    H2  583   1.757   0.807   0.022 -0.4724  0.4033  1.0310
  207TIP3   OH2  584   4.425   0.498   0.853 -0.3149  0.3746  0.3904
  207TIP3    H1  585   4.520   0.501   0.839 -0.5800  1.7325 -1.4563
  207TIP3    H2  586   4.390   0.466   0.769 -1.5262  0.4237  0.8664
  208TIP3   OH2  587   0.408   0.410   4.640 -0.2545 -0.6158  0.5432
  208TIP3    H1  588   0.384   0.488   4.691 -0.0420 -0.4805  0.4337
  208TIP3    H2  589   0.341   0.346   4.664 -2.3165  0.5240 -1.6687
  209TIP3   OH2  590   0.165   0.021   3.077 -0.2005 -0.0213  0.0879
  209TIP3    H1  591   0.166  -0.073   3.097 -1.7658  0.2173  1.4756
  209TIP3    H2  592   0.249   0.053   3.111 -1.1470 -0.3335  2.9988
  210TIP3   OH2  593   2.192   0.188   2.024 -0.3047 -0.9422  0.4705
  210TIP3    H1  594   2.240   0.271   2.026  0.2391 -1.2497  0.4341
  210TIP3    H2  595   2.112   0.205   2.073  0.9530 -1.1080  2.6944
  211TIP3   OH2  596   4.410   0.572   4.500 -0.2419 -0.2210 -0.6677
  211TIP3    H1  597   4.451   0.491   4.530  0.4849 -0.1406 -1.4018
  211TIP3    H2  598   4.477   0.615   4.446 -1.3360 -0.1856 -2.0689
  212TIP3   OH2  599   2.205   5.088   1.960 -0.1934  0.3040 -0.6444
  212TIP3    H1  600   2.240   5.174   1.937  0.5976 -0.1840 -1.3686
  212TIP3    H2  601   2.145   5.066   1.888 -0.2889  0.1998 -0.5332
  213TIP3   OH2  602   1.813   1.622   5.327 -0.3827  0.0064  0.7876
  213TIP3    H1  603   1.840   1.708   5.296 -1.0379 -0.0286  0.1050
  213TIP3    H2  604   1.847   1.561   5.261  0.0384 -0.2594  1.2429
  214TIP3   OH2  605   3.974   0.715   0.885  0.4770 -0.4449  0.8471
  214TIP3    H1  606   3.923   0.649   0.838 -2.0950  2.3091 -0.5832
  214TIP3    H2  607   4.027   0.757   0.818  0.7708  0.0907  1.4048
  215TIP3   OH2  608   5.770   3.720   3.220 -1.0400  0.0885  0.6879
  215TIP3    H1  609   5.776   3.802   3.171 -0.0040  0.4391  1.3891
  215TIP3    H2  610   5.678   3.695   3.211 -0.9096  0.1688 -1.3644
  216TIP3   OH2  611   3.813   4.017   3.311 -0.4750 -0.1120 -0.2595
  216TIP3    H1  612   3.737   4.072   3.332  0.0664  0.4701  0.2037
  216TIP3    H2  613   3.884   4.053   3.364  0.5083  0.2917 -1.7864
  217TIP3   OH2  614   3.296   4.554   3.945  0.0914  0.2427  0.2386
  217TIP3    H1  615   3.235   4.527   4.013 -1.2789  1.1868 -0.5440
  217TIP3    H2  616   3.329   4.472   3.908 -0.1650 -0.2802  1.1375
  218TIP3   OH2  617   7.174   4.989   0.015 -0.2810  0.4020 -0.0732
  218TIP3    H1  618   7.137   4.932  -0.053  0.0903 -0.6605  0.5790
  218TIP3    H2  619   7.103   4.997   0.080 -0.8936  2.0124 -0.9044
  219TIP3   OH2  620   6.918   0.584   2.943 -0.1017 -0.2013 -0.1932
  219TIP3    H1  621   6.937   0.541   2.859  0.9946  1.1938 -0.7142
  219TIP3    H2  622   6.992   0.559   2.999  0.2382  0.5139 -0.3152
  220TIP3   OH2  623   6.642   6.700   1.010  0.6828  0.1604 -0.2939
  220TIP3    H1  624   6.588   6.653   0.947 -0.7263 -1.4182  1.9261
  220TIP3    H2  625   6.598   6.784   1.023  0.1074 -0.1390 -0.2764
  221TIP3   OH2  626   4.392   4.673   2.058 -0.6523  0.3737 -0.3804
  221TIP3    H1  627   4.432   4.747   2.103 -0.5462  0.3902 -0.5015
  221TIP3    H2  628   4.362   4.615   2.129 -0.2647  0.2796 -0.2868
  222TIP3   OH2  629   6.373   0.827   1.587 -0.0400 -0.1075  0.4088
  222TIP3    H1  630   6.456   0.795   1.551 -0.8852 -1.1236 -0.7529
  222TIP3    H2  631   6.375   0.921   1.573  0.0459 -0.3594 -1.6207
  223TIP3   OH2  632   1.900   1.649   5.602 -0.3040  0.2712  0.4916
  223TIP3    H1  633   1.881   1.653   5.508  0.5050 -0.5888  0.2662
  223TIP3    H2  634   1.818   1.675   5.644 -1.4698 -1.6134 -0.4376
  224TIP3   OH2  635   4.233   1.812   4.337 -0.4403  0.5083  0.3453
  224TIP3    H1  636   4.318   1.812   4.381 -0.7275 -1.1650  0.9521
  224TIP3    H2  637   4.251   1.851   4.252  0.4753  2.2291  1.2650
  225TIP3   OH2  638   7.042   0.629   4.190 -0.1567  0.5648 -0.2731
  225TIP3    H1  639   7.136   0.645   4.201  0.1540  0.7466 -2.7457
  225TIP3    H2  640   7.037   0.536   4.166 -0.9664 -0.3415  2.9024
  226TIP3   OH2  641   6.373   3.202   2.594  0.1089  0.5892 -0.4539
  226TIP3    H1  642   6.298   3.227   2.648 -0.7754 -0.6741 -1.0523
  226TIP3    H2  643   6.437   3.169   2.656  0.3523  2.0069  0.1048
  227TIP3   OH2  644   5.854   4.518   1.759 -0.3062 -0.2150 -0.2584
  227TIP3    H1  645   5.809   4.438   1.730 -1.1163  0.4171 -0.7883
  227TIP3    H2  646   5.908   4.543   1.684  2.2073 -1.8153  0.8964
  228TIP3   OH2  647   1.632   0.140   0.526  0.1642 -0.4234  0.6357
  228TIP3    H1  648   1.683   0.063   0.551 -1.1183 -1.6527 -0.3664
  228TIP3    H2  649   1.589   0.167   0.607  1.4408 -0.0797  1.2291
  229TIP3   OH2  650   4.498   2.447   3.044 -0.2754  0.3433  0.1577
  229TIP3    H1  651   4.473   2.434   3.135 -0.1832  1.8926  0.4201
  229TIP3    H2  652   4.557   2.522   3.045 -0.2352  0.3577 -1.1741
  230TIP3   OH2  653   3.060   2.240   4.427  0.1313  0.0648 -0.2270
  230TIP3    H1  654   3.138   2.267   4.476  0.7391  1.5329 -1.9056
  230TIP3    H2  655   3.095   2.198   4.349 -0.8247 -2.5913  0.6675
  231TIP3   OH2  656   5.172   2.102   2.877 -0.4336  0.2176  0.2357
  231TIP3    H1  657   5.188   2.046   2.953  2.5810  0.5640 -0.0139
  231TIP3    H2  658   5.163   2.040   2.804 -3.4955 -0.1239  0.7628
  232TIP3   OH2  659   1.585   1.357   3.393  0.5994  0.6010 -0.2242
  232TIP3    H1  660   1.556   1.273   3.429  0.1397  0.4767 -0.8666
  232TIP3    H2  661   1.625   1.402   3.468 -1.1475  0.7266  0.6825
  233TIP3   OH2  662   7.104   2.705   3.544 -0.1606  0.1576  0.3175
  233TIP3    H1  663   7.072   2.779   3.492  0.6380  0.8090  0.7307
  233TIP3    H2  664   7.130   2.744   3.628 -2.3402 -0.9892  1.6274
  234TIP3   OH2  665   3.034   0.266   5.606  0.0013 -0.1820  0.0111
  234TIP3    H1  666   2.942   0.284   5.587 -0.1433  0.3717  1.1497
  234TIP3    H2  667   3.034   0.176   5.640 -0.1367 -0.1434  0.1142
  235TIP3   OH2  668   2.794   1.696   3.582 -0.2629  0.0767 -0.2843
  235TIP3    H1  669   2.869   1.692   3.524  0.5844 -2.7574  0.8167
  235TIP3    H2  670   2.725   1.649   3.535 -0.3323 -0.1384  0.0319
  236TIP3   OH2  671   6.423   5.448   4.307  0.3065 -0.1618 -0.2871
  236TIP3    H1  672   6.372   5.443   4.227 -0.2725 -0.4972  0.0968
  236TIP3    H2  673   6.514   5.447   4.278  0.1122  1.4827 -1.0368
  237TIP3   OH2  674   0.858   6.101   2.661  1.2127  0.1264  0.4924
  237TIP3    H1  675   0.791   6.168   2.644  1.9947  0.7896 -0.0172
  237TIP3    H2  676   0.887   6.074   2.574  2.3565  0.6060  0.7052
  238TIP3   OH2  677   5.617   6.515   1.878  0.2405 -0.1794  0.3558
  238TIP3    H1  678   5.552   6.493   1.944  0.2967  2.0373  1.2661
  238TIP3    H2  679   5.604   6.452   1.807 -1.9735 -0.6136  1.0970
  239TIP3   OH2  680   5.840   5.138   4.927 -0.5616 -0.3703  0.0703
  239TIP3    H1  681   5.906   5.127   4.996 -0.3345 -1.2026 -0.2724
  239TIP3    H2  682   5.823   5.050   4.896 -1.3036 -0.0834 -0.3517
  240TIP3   OH2  683   6.345   4.737   0.440  0.1164 -0.2230 -0.4030
  240TIP3    H1  684   6.377   4.660   0.486  0.0267  0.8053  1.4819
  240TIP3    H2  685   6.267   4.763   0.489  0.6112  1.5302 -0.5033
  241TIP3   OH2  686   3.854   4.802   4.545 -0.1820 -0.0218  1.2183
  241TIP3    H1  687   3.874   4.825   4.636  0.0402  1.3983  0.8330
  241TIP3    H2  688   3.859   4.885   4.497  1.7951 -1.0352 -0.4790
  242TIP3   OH2  689   5.650   4.093   0.851  0.3079  0.3119 -1.0725
  242TIP3    H1  690   5.572   4.078   0.905  0.1225  2.0564 -0.8028
  242TIP3    H2  691   5.641   4.030   0.779 -0.1175 -1.1412  0.1901
  243TIP3   OH2  692   2.074   6.060   1.214  0.0172  0.1785 -0.3258
  243TIP3    H1  693   1.995   6.109   1.193 -0.7219  0.5173  2.6978
  243TIP3    H2  694   2.092   6.082   1.306  2.0010 -2.0706 -0.0740
  244TIP3   OH2  695   3.965   4.709   0.945 -0.3700  0.6699  0.2512
  244TIP3    H1  696   3.944   4.784   1.001  0.4651  0.3592  1.0008
  244TIP3    H2  697   3.881   4.683   0.907 -0.9418  0.9361  1.3050
  245TIP3   OH2  698   6.529   0.594   2.005 -0.0372 -0.6803  0.5396
  245TIP3    H1  699   6.555   0.573   2.094 -1.9510 -1.4627  0.9746
  245TIP3    H2  700   6.449   0.543   1.991 -0.1480 -0.0672 -1.3990
  246TIP3   OH2  701   6.393   2.606   2.468  0.3509 -0.0210  0.2259
  246TIP3    H1  702   6.374   2.571   2.381 -0.3719  0.0570  0.3431
  246TIP3    H2  703   6.371   2.699   2.462  1.2471  0.1942  0.2146
  247TIP3   OH2  704   2.852   1.193   5.332  0.6527  0.7756  0.5391
  247TIP3    H1  705   2.872   1.210   5.424 -2.1004 -1.5072  1.6916
  247TIP3    H2  706   2.905   1.117   5.310  1.0147  1.0831  0.3328
  248TIP3   OH2  707   4.861   1.010   2.107 -0.1383 -0.3342  0.6134
  248TIP3    H1  708   4.926   0.948   2.072 -0.7466 -0.4331 -0.4073
  248TIP3    H2  709   4.786   1.001   2.047  0.1327  2.1158 -0.1798
  249TIP3   OH2  710   3.788   0.743   2.324  0.2865 -0.3181 -0.1477
  249TIP3    H1  711   3.866   0.769   2.374  0.8230  1.1711 -1.6782
  249TIP3    H2  712   3.822   0.709   2.242 -0.6635  0.8150 -1.0393
  250TIP3   OH2  713   3.038   5.095   0.798 -0.3776  0.2257 -0.3430
  250TIP3    H1  714   2.964   5.099   0.738 -0.7208 -1.5298 -0.0880
  250TIP3    H2  715   3.101   5.037   0.754  0.4893  0.9919 -0.1578
  251TIP3   OH2  716   6.568   4.993   0.070  0.1857  0.3800 -0.5813
  251TIP3    H1  717   6.502   5.045   0.117 -1.3417 -0.6790 -1.4678
  251TIP3    H2  718   6.560   4.905   0.107  0.6638  0.0889 -1.1534
  252TIP3   OH2  719   1.303   6.178   2.856 -0.9555  0.3321 -0.2426
  252TIP3    H1  720   1.383   6.223   2.884 -0.6381  0.2917 -1.0749
  252TIP3    H2  721   1.310   6.091   2.895 -1.6043  0.9858  1.4362
  253TIP3   OH2  722   2.703   0.739   5.495  0.0684  0.6036 -0.3975
  253TIP3    H1  723   2.781   0.766   5.545 -1.5415  2.3475  1.3428
  253TIP3    H2  724   2.648   0.694   5.560 -0.3441 -0.7709 -1.6431
  254TIP3   OH2  725   4.707   5.133   1.439 -0.3565 -0.2308 -0.0484
  254TIP3    H1  726   4.638   5.195   1.415 -1.4820 -0.5436  2.1183
  254TIP3    H2  727   4.669   5.047   1.420 -0.5843 -0.4059  1.1654
  255TIP3   OH2  728   5.563   3.015   3.209  0.7271  0.2040  0.5070
  255TIP3    H1  729   5.608   2.943   3.253  1.2050  0.1426 -0.0747
  255TIP3    H2  730   5.470   2.990   3.210  0.7788  0.0229  1.1257
  256TIP3   OH2  731   5.587   5.338   5.596 -0.4170 -0.1835  0.8077
  256TIP3    H1  732   5.666   5.285   5.584 -0.7308 -0.2596 -1.2389
  256TIP3    H2  733   5.538   5.328   5.514 -0.7671  2.8244  0.5213
  257TIP3   OH2  734   6.603   1.572   0.278  0.9162  0.7460  0.4774
  257TIP3    H1  735   6.548   1.604   0.349 -0.4361  1.3062 -0.7677
  257TIP3    H2  736   6.577   1.481   0.266 -0.1212  1.1433 -0.4213
  258TIP3   OH2  737   5.831   3.442   5.745  0.5051  0.4628  0.1376
  258TIP3    H1  738   5.814   3.458   5.838 -0.0635  0.3811  0.0489
  258TIP3    H2  739   5.913   3.392   5.744  0.0981 -0.2304  0.6401
  259TIP3   OH2  740   0.600   1.519   0.518 -0.4977 -0.1449 -0.0179
  259TIP3    H1  741   0.639   1.466   0.588 -0.5608 -0.8572 -0.5021
  259TIP3    H2  742   0.602   1.608   0.551  0.2578 -0.3567  0.5462
  260TIP3   OH2  743   6.054   1.524   3.056 -0.1070 -0.3482  0.3084
  260TIP3    H1  744   6.146   1.499   3.065 -0.7654 -2.9601  0.6136
  260TIP3    H2  745   6.015   1.502   3.140 -1.3322 -0.9677 -0.3947
  261TIP3   OH2  746   4.394   4.782   3.968 -0.5278 -0.4066  0.0354
  261TIP3    H1  747   4.475   4.828   3.946 -2.3035  3.2064  0.2706
  261TIP3    H2  748   4.385   4.714   3.902  1.8593  0.1692 -0.9676
  262TIP3   OH2  749   1.834   5.615   5.471  0.1624 -0.5591 -0.0011
  262TIP3    H1  750   1.811   5.661   5.390 -0.9163 -1.1835 -0.0653
  262TIP3    H2  751   1.801   5.526   5.458  0.4839 -0.8202  0.9060
  263TIP3   OH2  752   3.293   3.885   0.064 -0.2309  0.1622 -0.0733
  263TIP3    H1  753   3.355   3.957   0.077 -1.2273  0.7931  1.4677
  263TIP3    H2  754   3.209   3.928   0.047 -0.5132 -0.6681 -0.8872
  264TIP3   OH2  755   3.593   5.703   0.808  0.1007  0.5516  0.9152
  264TIP3    H1  756   3.499   5.698   0.825 -0.2644  1.1180 -0.7128
  264TIP3    H2  757   3.601   5.682   0.715  1.3010  2.9415  0.4145
  265TIP3   OH2  758   2.118   0.465   0.731  0.4812 -0.0359  0.0481
  265TIP3    H1  759   2.053   0.395   0.727  1.9990 -1.4533 -1.2609
  265TIP3    H2  760   2.189   0.429   0.784  1.8084 -0.0176 -1.6408
  266TIP3   OH2  761   5.398   6.200   2.493  0.1939  0.0414  0.2278
  266TIP3    H1  762   5.433   6.247   2.417 -0.1017 -1.2196 -0.7281
  266TIP3    H2  763   5.310   6.235   2.504 -0.7759 -1.5829 -1.7143
  267TIP3   OH2  764   0.688   1.544   3.839  0.1893  0.8383 -0.2280
  267TIP3    H1  765   0.722   1.594   3.913  0.3110  0.8932 -0.3204
  267TIP3    H2  766   0.766   1.519   3.789  0.1910 -0.0366  0.1918
  268TIP3   OH2  767   6.875   3.355   3.133 -0.5367 -0.3272  0.0926
  268TIP3    H1  768   6.782   3.376   3.132 -0.4893 -0.0998 -0.4880
  268TIP3    H2  769   6.918   3.438   3.155 -0.4925 -0.5459  0.8447
  269TIP3   OH2  770   1.337   6.761   4.966  0.0619  0.3015 -0.3439
  269TIP3    H1  771   1.371   6.845   4.996  1.0326 -0.1911 -0.0126
  269TIP3    H2  772   1.367   6.698   5.031 -1.2931 -0.2060 -0.1876
  270TIP3   OH2  773   4.400   0.943   2.087 -0.1080 -0.2098 -0.6923
  270TIP3    H1  774   4.333   0.904   2.030  0.4164 -1.1307 -0.6987
  270TIP3    H2  775   4.392   0.894   2.169  0.2645 -0.0273 -0.5462
  271TIP3   OH2  776   3.135   4.478   4.442 -0.5431 -0.3472  0.5345
  271TIP3    H1  777   3.121   4.493   4.536 -0.8560 -1.0786  0.6068
  271TIP3    H2  778   3.058   4.517   4.400 -0.0041  0.7441  0.4994
  272TIP3   OH2  779   2.704   4.917   5.063 -0.7451  0.2849 -0.1802
  272TIP3    H1  780   2.798   4.900   5.067 -0.3141  2.1643 -1.0327
  272TIP3    H2  781   2.686   4.972   5.140 -1.0720  0.2319 -0.2167
  273TIP3   OH2  782   7.160   3.955   4.395 -0.0219  0.5231 -0.7764
  273TIP3    H1  783   7.166   3.863   4.370 -0.0312 -0.0499  1.2108
  273TIP3    H2  784   7.251   3.981   4.410 -0.0947  0.5657 -0.4092
  274TIP3   OH2  785   2.961   4.593   3.160  0.1177  0.3112 -0.3381
  274TIP3    H1  786   2.977   4.683   3.189 -0.8500 -0.0252  1.3364
  274TIP3    H2  787   3.031   4.542   3.199 -1.3238 -0.1809  1.7237
  275TIP3   OH2  788   3.150   3.298   0.511 -0.5013  0.2346  0.0282
  275TIP3    H1  789   3.111   3.373   0.556 -0.4921  0.6625 -0.6689
  275TIP3    H2  790   3.183   3.243   0.582 -0.9516  0.6417  0.5666
  276TIP3   OH2  791   0.949   0.945   0.504  0.0180  0.2237  0.4586
  276TIP3    H1  792   0.972   0.997   0.427  0.8576  0.0630  0.5961
  276TIP3    H2  793   1.009   0.871   0.502  1.1398  1.0419  2.1320
  277TIP3   OH2  794   3.699   6.535   3.341  0.7420  0.4233  0.5133
  277TIP3    H1  795   3.675   6.553   3.250  1.7085  2.3570  0.6037
  277TIP3    H2  796   3.769   6.470   3.335  1.2629  1.0308 -0.1662
  278TIP3   OH2  797   0.368   2.808   3.194  0.3260 -0.3390  0.0974
  278TIP3    H1  798   0.292   2.751   3.198 -0.2954  0.2702 -1.9528
  278TIP3    H2  799   0.441   2.749   3.174 -0.3201 -0.4872 -2.0839
  279TIP3   OH2  800   1.857   5.562   2.879  0.3593  0.1218  0.5148
  279TIP3    H1  801   1.832   5.549   2.788  0.4367 -1.4066  0.6771
  279TIP3    H2  802   1.924   5.630   2.876  0.1991  0.2500 -0.5501
  280TIP3   OH2  803   5.630   5.153   1.638 -0.2253 -0.1587 -0.1344
  280TIP3    H1  804   5.630   5.190   1.550  0.4149  1.7159  0.5935
  280TIP3    H2  805   5.713   5.183   1.677 -0.7977 -0.3442  1.3151
  281TIP3   OH2  806   6.443   5.054   2.194 -0.5082  0.3363 -0.6395
  281TIP3    H1  807   6.438   5.007   2.110 -1.1924  0.2092 -0.5357
  281TIP3    H2  808   6.357   5.097   2.202 -0.3019  0.6650 -0.1883
  282TIP3   OH2  809   3.628   3.872   5.027 -0.2245 -0.2122 -0.1024
  282TIP3    H1  810   3.562   3.840   4.966 -1.1711  1.5617 -0.0822
  282TIP3    H2  811   3.578   3.910   5.099  0.6822  2.6675 -0.8527
  283TIP3   OH2  812   1.433   2.428   5.099 -0.3102  0.4090  0.4372
  283TIP3    H1  813   1.458   2.352   5.152 -1.2439  0.0227  0.3509
  283TIP3    H2  814   1.357   2.397   5.048 -0.6951  1.3992  0.3943
  284TIP3   OH2  815   3.629   6.706   4.960 -0.8791  0.3452 -0.3844
  284TIP3    H1  816   3.537   6.726   4.974 -1.1667  0.0260 -1.6959
  284TIP3    H2  817   3.636   6.612   4.976 -0.3092  0.7155  1.8903
  285TIP3   OH2  818   2.172   1.621   3.519  0.3677  0.4678  0.5497
  285TIP3    H1  819   2.251   1.669   3.545  0.2317  0.8343  0.2986
  285TIP3    H2  820   2.202   1.559   3.452  0.1885  1.7128 -0.7382
  286TIP3   OH2  821   6.048   1.771   2.891  0.0052 -0.4414 -0.3857
  286TIP3    H1  822   6.120   1.709   2.898  0.2089 -0.0920  1.0037
  286TIP3    H2  823   5.994   1.754   2.968  0.6876  1.8075  0.7021
  287TIP3   OH2  824   5.482   6.386   4.934 -0.4856 -1.2221 -0.3451
  287TIP3    H1  825   5.419   6.372   5.005  0.5055  0.1214  0.8546
  287TIP3    H2  826   5.428   6.412   4.859 -1.5271 -2.4122 -0.0392
  288TIP3   OH2  827   5.898   0.639   4.898  0.2128  0.1676 -0.2625
  288TIP3    H1  828   5.898   0.556   4.851 -1.5536  1.2683 -2.3431
  288TIP3    H2  829   5.811   0.643   4.939  0.4907  0.7667  0.2805
  289TIP3   OH2  830   3.648   3.397   4.503  0.5015  0.3947 -0.6238
  289TIP3    H1  831   3.676   3.320   4.554  1.2022  0.2729 -1.1807
  289TIP3    H2  832   3.599   3.360   4.430  1.7363  0.3884 -1.4795
  290TIP3   OH2  833   5.715   3.729   4.677 -0.3111  0.3508  0.4098
  290TIP3    H1  834   5.709   3.821   4.701  1.9468  0.7912 -0.3921
  290TIP3    H2  835   5.780   3.692   4.737 -0.4855 -0.4704  0.1165
  291TIP3   OH2  836   6.481   5.890   1.958  0.4135  0.0508  0.7400
  291TIP3    H1  837   6.414   5.853   2.016 -0.0593  0.4198  0.4415
  291TIP3    H2  838   6.489   5.981   1.986 -0.2940  0.4160 -0.1737
  292TIP3   OH2  839   5.577   5.245   1.344 -0.2350  0.1296  0.2591
  292TIP3    H1  840   5.556   5.171   1.288 -0.0613  0.6656 -0.5425
  292TIP3    H2  841   5.514   5.313   1.318  0.8752  0.9348 -0.4651
  293TIP3   OH2  842   4.610   0.774   2.230 -0.0808 -0.0244 -0.7101
  293TIP3    H1  843   4.537   0.713   2.240 -2.3200  2.0811 -2.8484
  293TIP3    H2  844   4.640   0.761   2.140  1.5276 -0.1041 -0.1939
  294TIP3   OH2  845   3.634   4.639   4.149 -0.2656 -0.0550  0.3621
  294TIP3    H1  846   3.579   4.716   4.160 -0.9466 -0.4845  0.0225
  294TIP3    H2  847   3.724   4.672   4.157 -0.5838  0.4681  1.9784
  295TIP3   OH2  848   4.264   5.260   3.917  0.2298 -0.5500 -0.1881
  295TIP3    H1  849   4.358   5.270   3.902 -0.0053  2.0571 -0.4403
  295TIP3    H2  850   4.257   5.236   4.009  1.1327 -0.2084 -0.0192
  296TIP3   OH2  851   2.808   2.302   0.380 -0.3019 -0.0910 -1.0901
  296TIP3    H1  852   2.809   2.299   0.476 -0.1247  1.5202 -1.0043
  296TIP3    H2  853   2.726   2.259   0.356 -0.4696 -0.3041 -0.1947
  297TIP3   OH2  854   4.519   2.903   4.573 -0.1894 -0.3201  0.6338
  297TIP3    H1  855   4.561   2.951   4.645 -0.0847  1.2102 -0.3979
  297TIP3    H2  856   4.429   2.936   4.572 -0.2438 -0.4791  0.1894
  298TIP3   OH2  857   5.332   3.479   0.156 -0.3004  0.0342 -0.0776
  298TIP3    H1  858   5.279   3.477   0.236 -1.2121  1.5214 -0.6084
  298TIP3    H2  859   5.423   3.472   0.187 -0.5556  1.7407  1.2233
  299TIP3   OH2  860   0.568   3.573   5.599  0.2898  0.0872 -0.4056
  299TIP3    H1  861   0.584   3.647   5.657  0.3579 -0.1922 -0.0603
  299TIP3    H2  862   0.644   3.571   5.541  0.7835 -0.3054  0.2296
  300TIP3   OH2  863   6.124   3.399  -0.015 -0.2442  0.3375 -0.5406
  300TIP3    H1  864   6.188   3.328  -0.016 -2.3865 -1.7670  0.4273
  300TIP3    H2  865   6.130   3.435   0.073 -0.1385  0.3792 -0.5650
  301TIP3   OH2  866   0.120   0.934   1.864  0.9058  0.0557 -0.0351
  301TIP3    H1  867   0.073   0.869   1.916  0.3328  0.9108  0.5396
  301TIP3    H2  868   0.198   0.889   1.834  0.3169 -1.0237  0.0075
  302TIP3   OH2  869   5.114   0.901   0.877 -0.1731  0.6006  0.2427
  302TIP3    H1  870   5.122   0.835   0.946 -0.5641  0.7026  0.3913
  302TIP3    H2  871   5.185   0.962   0.893 -0.2193  0.5838  0.5131
  303TIP3   OH2  872   6.239   5.156   0.811 -0.3042 -0.1203 -0.3427
  303TIP3    H1  873   6.271   5.198   0.730 -0.6736 -0.7999 -0.8483
  303TIP3    H2  874   6.206   5.229   0.864 -1.2714  0.2096 -1.3618
  304TIP3   OH2  875   1.063   1.664   4.202  0.4431  0.6404 -0.3568
  304TIP3    H1  876   1.058   1.740   4.260 -1.0168  0.5724 -0.3491
  304TIP3    H2  877   1.131   1.608   4.241  1.6257  1.9720 -0.4390
  305TIP3   OH2  878   3.563   3.159   2.957 -0.6225 -0.4433  0.2561
  305TIP3    H1  879   3.534   3.227   3.018  0.3552  0.0111  0.2458
  305TIP3    H2  880   3.562   3.078   3.009  1.0393  0.0777  1.1810
  306TIP3   OH2  881   1.066   2.901   5.726  0.1124 -0.4979 -0.1632
  306TIP3    H1  882   1.032   2.823   5.682  2.8614 -2.3092  0.6217
  306TIP3    H2  883   1.081   2.964   5.655  0.3931 -1.7126 -1.2177
  307TIP3   OH2  884   6.700   4.584   2.529 -0.6355 -0.1412 -0.1761
  307TIP3    H1  885   6.666   4.674   2.532 -2.5051 -0.7273 -1.6566
  307TIP3    H2  886   6.769   4.586   2.464 -0.6957  0.2153 -0.2313
  308TIP3   OH2  887   1.156   6.215   5.180 -0.3876  0.0437  0.1687
  308TIP3    H1  888   1.189   6.293   5.135  0.9495  0.3072  1.4991
  308TIP3    H2  889   1.085   6.183   5.124  2.7093 -1.1691 -3.5339
  309TIP3   OH2  890   0.802   2.779   2.342  0.1875  0.6101 -0.0841
  309TIP3    H1  891   0.852   2.735   2.273  0.2894  0.3424  0.1566
  309TIP3    H2  892   0.834   2.869   2.340 -1.2449  1.1345 -1.7354
  310TIP3   OH2  893   1.296   1.518   4.713 -0.1344  0.2067  0.4177
  310TIP3    H1  894   1.275   1.552   4.800  0.3145  0.1501  0.5501
  310TIP3    H2  895   1.221   1.542   4.659 -0.9695 -0.8070  1.0964
  311TIP3   OH2  896   2.713   1.994   1.080 -0.1346  0.3391 -0.4825
  311TIP3    H1  897   2.683   2.020   0.993 -0.1458  2.1520  0.0112
  311TIP3    H2  898   2.806   1.975   1.069 -0.1735  0.3970 -0.9318
  312TIP3   OH2  899   1.389   2.429   3.682  0.6983  0.0330 -0.2507
  312TIP3    H1  900   1.387   2.377   3.601 -0.5005 -1.5300  0.7187
  312TIP3    H2  901   1.458   2.388   3.734 -1.3345 -1.7990  1.1932
  313TIP3   OH2  902   2.897   3.724   4.855 -0.1424 -0.1520 -0.2437
  313TIP3    H1  903   2.949   3.769   4.789  0.5352 -0.0612  0.3368
  313TIP3    H2  904   2.951   3.726   4.934 -0.5966 -0.9645  0.1041
  314TIP3   OH2  905   2.737   2.666   2.730 -0.0669 -0.0577  0.4537
  314TIP3    H1  906   2.725   2.643   2.822 -1.0313 -2.1034 -0.1378
  314TIP3    H2  907   2.669   2.731   2.713 -0.4538 -0.3169  0.9618
  315TIP3   OH2  908   3.578   0.669   4.804  0.4128 -0.4919  0.2599
  315TIP3    H1  909   3.574   0.576   4.785 -3.4364 -0.3430 -0.3858
  315TIP3    H2  910   3.526   0.680   4.884 -0.0764  1.1812 -0.2434
  316TIP3   OH2  911   0.525   6.474   1.657 -0.1321 -0.0256 -0.1487
  316TIP3    H1  912   0.557   6.504   1.572 -0.6306  3.0503  0.6567
  316TIP3    H2  913   0.602   6.436   1.700  0.8371  1.1100 -0.8302
  317TIP3   OH2  914   5.687   0.314   2.154  0.2985  0.8468  0.1105
  317TIP3    H1  915   5.689   0.225   2.190  2.7176  0.9923  0.5376
  317TIP3    H2  916   5.697   0.303   2.060  0.8037  0.6678  0.1844
  318TIP3   OH2  917   6.299   4.017   4.078  0.0856  0.4048  0.6630
  318TIP3    H1  918   6.284   4.021   3.984  1.1909  2.1435  0.5329
  318TIP3    H2  919   6.349   3.936   4.091 -0.0116  0.1920 -0.2289
  319TIP3   OH2  920   4.555   3.254   4.267 -0.2713 -0.5064 -0.0519
  319TIP3    H1  921   4.535   3.267   4.174  0.5851 -2.3374 -0.5350
  319TIP3    H2  922   4.470   3.237   4.308 -0.4425 -2.0172 -0.9568
  320TIP3   OH2  923   4.078   2.422   2.495 -0.1756  0.1094 -0.1916
  320TIP3    H1  924   4.035   2.343   2.462 -1.9780 -0.1649  2.5181
  320TIP3    H2  925   4.092   2.476   2.417  1.7309 -3.0411 -2.2882
  321TIP3   OH2  926   0.358   2.058   1.241  0.4741  0.0362  0.0975
  321TIP3    H1  927   0.277   2.021   1.275 -0.0630  1.5043  0.4736
  321TIP3    H2  928   0.370   2.015   1.156 -0.5596 -0.3853  0.1514
  322TIP3   OH2  929   3.086   5.486   2.172 -0.2889 -0.8012 -0.2783
  322TIP3    H1  930   3.042   5.524   2.096 -1.2157  0.7289  0.9782
  322TIP3    H2  931   3.017   5.441   2.220 -0.4013  0.8715  1.2490
  323TIP3   OH2  932   0.514   5.376   3.377  0.0080 -0.0030  0.1990
  323TIP3    H1  933   0.608   5.395   3.387  0.0449  0.8823 -1.4793
  323TIP3    H2  934   0.475   5.460   3.352 -1.1657 -0.4818  0.3594
  324TIP3   OH2  935   1.036   1.549   2.357  0.3056  0.0963 -0.0718
  324TIP3    H1  936   1.047   1.512   2.445 -1.0209  0.1022  0.1261
  324TIP3    H2  937   1.012   1.474   2.302  0.7659  0.1531 -0.3533
  325TIP3   OH2  938   4.177   1.198   3.961  0.1636  0.5086 -0.0238
  325TIP3    H1  939   4.154   1.162   4.047 -2.1778  0.7761 -0.4840
  325TIP3    H2  940   4.158   1.291   3.968  1.3190  0.7888 -0.4217
  326TIP3   OH2  941   5.287   6.019   4.972  0.1662 -0.1684  0.1564
  326TIP3    H1  942   5.321   5.946   5.024 -0.9891 -1.2519 -0.5138
  326TIP3    H2  943   5.335   6.014   4.889  1.2967  0.9270  0.7268
  327TIP3   OH2  944   1.611   4.033   0.094 -0.0267 -0.0138 -0.0403
  327TIP3    H1  945   1.589   3.944   0.068 -1.7482  0.2828  0.2875
  327TIP3    H2  946   1.594   4.087   0.017 -3.6042  0.6358  0.9869
  328TIP3   OH2  947   6.701   2.326   4.361  0.3667  0.3016  0.4336
  328TIP3    H1  948   6.729   2.410   4.325 -0.1543  0.8634  1.3067
  328TIP3    H2  949   6.737   2.326   4.450  1.4873 -0.9786  0.0158
  329TIP3   OH2  950   1.721   5.757   2.268 -0.2860  0.1303  0.2873
  329TIP3    H1  951   1.804   5.785   2.230 -0.1413  0.8638  1.1245
  329TIP3    H2  952   1.669   5.729   2.192  0.2544  0.8853 -0.3864
  330TIP3   OH2  953   7.086   6.013   4.663  0.4967  0.1562  0.1804
  330TIP3    H1  954   7.094   6.101   4.699 -0.5701  0.8841 -1.2854
  330TIP3    H2  955   7.167   6.000   4.614 -0.1686  1.0967 -1.1958
  331TIP3   OH2  956   5.104   6.456   0.444  0.3382 -0.4505  0.2024
  331TIP3    H1  957   5.012   6.481   0.438  0.2324 -0.8889 -0.0646
  331TIP3    H2  958   5.123   6.413   0.360  0.7969 -0.3210  0.2375
  332TIP3   OH2  959   3.251   0.526   4.944 -0.0940  0.1060  0.8916
  332TIP3    H1  960   3.293   0.444   4.918  0.0372  0.6097 -0.5718
  332TIP3    H2  961   3.259   0.529   5.040 -1.3777 -2.2745  1.1410
  333TIP3   OH2  962   2.224   1.181   5.498  0.2265 -0.4051 -1.1007
  333TIP3    H1  963   2.242   1.186   5.592 -0.2052  0.7420 -1.0719
  333TIP3    H2  964   2.281   1.248   5.459 -0.1864 -0.3265 -1.5743
  334TIP3   OH2  965   0.839   1.029   0.806  0.1664 -0.1182  0.0356
  334TIP3    H1  966   0.780   1.069   0.742  0.2219  2.5845  1.5289
  334TIP3    H2  967   0.926   1.043   0.769  0.1026 -0.2592 -0.1726
  335TIP3   OH2  968   1.287   5.799   4.224  0.1454 -0.5122 -0.0933
  335TIP3    H1  969   1.225   5.862   4.259 -1.7678 -2.3026 -0.0003
  335TIP3    H2  970   1.358   5.795   4.288  0.7948  2.1325 -0.5671
  336TIP3   OH2  971   6.566   6.004   4.560  0.4296  0.2444  0.0917
  336TIP3    H1  972   6.473   5.987   4.573  0.8175 -0.8352  1.8180
  336TIP3    H2  973   6.584   6.081   4.614  1.0429 -1.2262  2.1118
  337TIP3   OH2  974   5.582   5.512   0.295  0.4072 -0.3325 -0.1866
  337TIP3    H1  975   5.510   5.546   0.243  0.2352 -1.0599 -0.4385
  337TIP3    H2  976   5.631   5.456   0.235  0.9090 -0.2160  0.1084
  338TIP3   OH2  977   1.464   0.079   1.364  0.1030 -0.5763 -0.8786
  338TIP3    H1  978   1.552   0.090   1.400 -0.6435  0.6468  0.6784
  338TIP3    H2  979   1.427   0.167   1.362 -0.9903 -1.0187 -1.8129
  339TIP3   OH2  980   4.491   2.196   4.737 -0.1298  0.0150  0.2498
  339TIP3    H1  981   4.535   2.129   4.684  1.5565  1.4425 -0.2489
  339TIP3    H2  982   4.418   2.150   4.777  0.1773 -1.8010 -1.1245
  340TIP3   OH2  983   5.803   2.917   0.227 -0.5075 -0.1901 -0.0110
  340TIP3    H1  984   5.787   2.897   0.134 -0.5876 -0.0411 -0.0302
  340TIP3    H2  985   5.739   2.986   0.247 -1.7722 -1.4898  0.6446
  341TIP3   OH2  986   0.942   0.262   4.906  0.1642 -0.0511  0.0251
  341TIP3    H1  987   0.884   0.214   4.964 -1.7749  2.9890  0.8598
  341TIP3    H2  988   0.921   0.228   4.818 -0.2540 -1.4762  0.6495
  342TIP3   OH2  989   3.522   2.878   5.746 -0.1202 -0.0303 -0.5512
  342TIP3    H1  990   3.614   2.891   5.768 -0.7685  1.5457  1.5507
  342TIP3    H2  991   3.490   2.965   5.723 -1.6888 -0.0014  1.4336
  343TIP3   OH2  992   6.870   4.266   3.118  0.0002  0.4464 -0.2266
  343TIP3    H1  993   6.961   4.244   3.136  0.0863  0.9942  0.0069
  343TIP3    H2  994   6.860   4.356   3.148 -0.7125  0.2729  0.0881
  344TIP3   OH2  995   1.265   3.233   4.873 -0.2357  0.5475  0.4192
  344TIP3    H1  996   1.234   3.142   4.869 -0.3105  0.5204  1.4173
  344TIP3    H2  997   1.191   3.285   4.842 -0.5573  0.3334  0.8115
  345TIP3   OH2  998   7.130   6.518   1.225  0.1036  0.0041  0.2404
  345TIP3    H1  999   7.144   6.544   1.134  1.2054 -1.0074  0.0920
  345TIP3    H2 1000   7.070   6.584   1.260 -2.7328 -1.1909 -1.9947
  346TIP3   OH2 1001   3.604   3.550   3.515 -0.4001 -0.1558  0.2795
  346TIP3    H1 1002   3.639   3.613   3.452 -0.0330  1.3108  1.8677
  346TIP3    H2 1003   3.562   3.483   3.462  2.3380 -0.5028 -1.6425
  347TIP3   OH2 1004   6.218   6.619   2.104 -0.7872 -0.3502  0.0256
  347TIP3    H1 1005   6.249   6.555   2.040  0.7378  0.5956 -0.2307
  347TIP3    H2 1006   6.247   6.584   2.188 -0.9278 -0.5347 -0.0016
  348TIP3   OH2 1007   0.595   0.778   2.034 -0.2806 -0.4353 -0.6123
  348TIP3    H1 1008   0.516   0.798   1.982 -0.8606  0.0597  0.4233
  348TIP3    H2 1009   0.563   0.768   2.123  0.7388 -1.0183 -0.2997
  349TIP3   OH2 1010   1.695   5.342   4.864 -0.2026  0.5876 -0.0594
  349TIP3    H1 1011   1.781   5.314   4.896  0.3905  1.1910 -1.0544
  349TIP3    H2 1012   1.637   5.269   4.885  1.2698 -1.4930 -2.5261
  350TIP3   OH2 1013   2.216   2.282   1.778  0.1283  0.1569  0.9503
  350TIP3    H1 1014   2.133   2.239   1.761 -0.7647  1.4704  1.7997
  350TIP3    H2 1015   2.225   2.281   1.873  2.0332 -1.6320  0.8186
  351TIP3   OH2 1016   0.078   2.700   2.374  0.2841  0.1207  0.1949
  351TIP3    H1 1017   0.155   2.750   2.346  0.0923  0.2092 -0.1793
  351TIP3    H2 1018   0.014   2.766   2.400  0.5831  0.0332  1.1837
  352TIP3   OH2 1019   3.707   4.703   0.587  0.5444  0.1241 -0.8067
  352TIP3    H1 1020   3.798   4.726   0.605  0.2591  1.8796 -1.3888
  352TIP3    H2 1021   3.660   4.787   0.591 -1.2464 -0.8855  0.5871
  353TIP3   OH2 1022   5.135   0.810   3.663  0.0261 -0.0622 -0.6250
  353TIP3    H1 1023   5.102   0.877   3.722  2.4579 -0.6393  1.5606
  353TIP3    H2 1024   5.198   0.856   3.607  2.1358 -0.4724  1.2609
  354TIP3   OH2 1025   0.568   0.944   3.351 -0.0463  0.0498 -0.4380
  354TIP3    H1 1026   0.532   0.991   3.276  1.0317  0.6701 -0.6010
  354TIP3    H2 1027   0.534   0.855   3.343 -0.1630  0.1788 -1.5152
  355TIP3   OH2 1028   3.979   4.474   1.225  0.1820 -0.1795  0.1460
  355TIP3    H1 1029   3.922   4.401   1.249 -0.7494  0.5393  0.1889
  355TIP3    H2 1030   3.919   4.547   1.209  1.0390  0.3801 -0.6427
  356TIP3   OH2 1031   1.921   6.690   4.077 -0.6612  0.0690  0.4677
  356TIP3    H1 1032   1.959   6.664   4.161 -1.3170 -0.0692  0.7314
  356TIP3    H2 1033   1.851   6.626   4.062 -0.2811 -0.1469 -0.3869
  357TIP3   OH2 1034   0.581   0.916   0.967 -0.2588 -0.4273  1.0573
  357TIP3    H1 1035   0.646   0.940   0.901 -0.9376  0.1306  0.5714
  357TIP3    H2 1036   0.604   0.827   0.993  1.4260  0.1896  1.7918
  358TIP3   OH2 1037   2.365   6.571   4.479 -0.3486 -0.0684 -0.2974
  358TIP3    H1 1038   2.359   6.582   4.384  1.2827  0.3659 -0.3662
  358TIP3    H2 1039   2.345   6.657   4.515 -2.6426 -0.6029 -0.1194
  359TIP3   OH2 1040   2.165   0.685   4.583  0.2095  0.1353  0.8297
  359TIP3    H1 1041   2.178   0.614   4.520  0.9900  0.6187  0.4195
  359TIP3    H2 1042   2.221   0.662   4.657  0.8755  0.5593  0.4762
  360TIP3   OH2 1043   5.599   3.105   0.275 -0.3272  0.6433 -0.2178
  360TIP3    H1 1044   5.641   3.188   0.296 -1.3429  1.1522 -0.1262
  360TIP3    H2 1045   5.552   3.121   0.193  0.3819 -0.1771 -0.8065
  361TIP3   OH2 1046   3.890   6.094   5.106 -0.2263  0.1832  0.1213
  361TIP3    H1 1047   3.959   6.120   5.044  2.2356  0.9008  2.9414
  361TIP3    H2 1048   3.825   6.164   5.098  1.1494  1.5153 -0.0676
  362TIP3   OH2 1049   0.449   1.193   2.628 -0.2400 -1.0923  0.2958
  362TIP3    H1 1050   0.422   1.102   2.624 -1.9806 -0.6083  0.1836
  362TIP3    H2 1051   0.488   1.203   2.716  0.0764 -1.9506  0.2576
  363TIP3   OH2 1052   0.244   4.681   2.929  0.5216  0.0131  0.7566
  363TIP3    H1 1053   0.154   4.716   2.926  1.0456  1.3453 -0.9875
  363TIP3    H2 1054   0.237   4.602   2.982 -2.4595 -2.0517 -2.3061
  364TIP3   OH2 1055   0.242   0.286   2.354  0.3789 -0.1796 -0.1690
  364TIP3    H1 1056   0.260   0.293   2.260 -0.2432 -1.5727 -0.4183
  364TIP3    H2 1057   0.175   0.219   2.361 -1.1182  1.3573  1.1315
  365TIP3   OH2 1058   3.321   4.596   2.206  0.1251  0.0758 -0.3615
  365TIP3    H1 1059   3.252   4.533   2.185 -0.6085  1.1265 -1.2050
  365TIP3    H2 1060   3.302   4.623   2.296 -0.9905  0.8680 -0.8209
  366TIP3   OH2 1061   3.444   2.206   5.641 -0.8177  0.1307  0.0208
  366TIP3    H1 1062   3.526   2.220   5.594  0.9394 -0.7728  2.6323
  366TIP3    H2 1063   3.413   2.295   5.662  0.6524  0.4852  0.8294
  367TIP3   OH2 1064   0.898   4.948   4.075 -0.3833 -0.4273 -0.4639
  367TIP3    H1 1065   0.932   5.013   4.014  0.8294 -0.7548 -0.1463
  367TIP3    H2 1066   0.841   4.999   4.134  0.2927  0.2940 -0.4203
  368TIP3   OH2 1067   0.609   6.334   1.107  0.4259 -0.2500 -0.2355
  368TIP3    H1 1068   0.643   6.247   1.127  0.8970  0.1212  0.6345
  368TIP3    H2 1069   0.521   6.318   1.073  1.2713 -1.2152 -2.1887
  369TIP3   OH2 1070   2.132   2.486   2.029 -0.0385 -0.3724 -0.2552
  369TIP3    H1 1071   2.048   2.440   2.037 -0.2418  0.1709  1.0025
  369TIP3    H2 1072   2.148   2.491   1.935 -1.0955 -1.0495 -0.4906
  370TIP3   OH2 1073   3.611   3.185   0.776 -0.7625  0.1914  0.3562
  370TIP3    H1 1074   3.698   3.192   0.735 -1.5213 -1.0356 -1.5878
  370TIP3    H2 1075   3.630   3.166   0.868  1.0492 -1.6396 -0.3166
  371TIP3   OH2 1076   3.881   5.910   0.331  0.5134  0.0607 -0.2428
  371TIP3    H1 1077   3.944   5.854   0.377 -0.8164 -1.1896  0.1401
  371TIP3    H2 1078   3.848   5.856   0.260 -3.0524 -0.9251  1.9098
  372TIP3   OH2 1079   7.040   5.896   2.019  0.2974  0.7280 -0.6092
  372TIP3    H1 1080   7.084   5.822   1.977 -2.1122 -2.5863  2.2424
  372TIP3    H2 1081   7.105   5.930   2.081  0.8953  0.0354 -0.8361
  373TIP3   OH2 1082   3.908   0.916   5.759 -0.0975  0.1832 -0.3537
  373TIP3    H1 1083   3.883   1.005   5.735 -3.3281 -0.3588  0.5254
  373TIP3    H2 1084   3.934   0.874   5.677  0.8698  1.7387 -0.8662
  374TIP3   OH2 1085   1.237   3.206   0.983  0.1555 -0.0013 -0.6172
  374TIP3    H1 1086   1.235   3.301   0.997  0.8107 -0.0342 -0.2414
  374TIP3    H2 1087   1.242   3.196   0.888 -0.6676  0.3229 -0.6965
  375TIP3   OH2 1088   3.004   1.058   3.259 -0.4084 -0.3461  0.0040
  375TIP3    H1 1089   3.088   1.034   3.218 -0.2186 -0.6305  0.5442
  375TIP3    H2 1090   2.980   1.141   3.219  0.3269 -0.0724  0.1182
  376TIP3   OH2 1091   4.133   4.248   5.114  0.5826 -0.5232  0.2009
  376TIP3    H1 1092   4.207   4.191   5.134  1.2469  0.3886  0.3821
  376TIP3    H2 1093   4.100   4.215   5.030  2.6363  0.4725 -1.0754
  377TIP3   OH2 1094   1.789   5.124   3.070  0.3716  0.1194  0.2020
  377TIP3    H1 1095   1.752   5.129   3.158  3.5481  3.0108  1.6220
  377TIP3    H2 1096   1.754   5.200   3.025  0.9579  0.2599 -0.0270
  378TIP3   OH2 1097   2.925   2.244   1.381  0.3862 -0.2567  0.1841
  378TIP3    H1 1098   2.942   2.274   1.470 -0.3285 -0.1056  0.2729
  378TIP3    H2 1099   2.833   2.219   1.381  0.5445 -0.8709 -0.3388
  379TIP3   OH2 1100   4.574   4.278   1.948  0.1950 -0.2459 -0.1520
  379TIP3    H1 1101   4.570   4.364   1.906 -0.0941  1.1169  2.4679
  379TIP3    H2 1102   4.518   4.286   2.025  0.9268 -2.4917  0.6973
  380TIP3   OH2 1103   4.694   2.019   4.420 -0.9234  0.3438 -0.5000
  380TIP3    H1 1104   4.668   1.970   4.342 -1.1967 -0.4239  0.0628
  380TIP3    H2 1105   4.630   1.994   4.487 -0.9169  1.2814 -0.1279
  381TIP3   OH2 1106   7.105   3.717   2.177 -0.2642 -0.2914 -0.4353
  381TIP3    H1 1107   7.046   3.645   2.155  0.2879 -0.1812 -2.5216
  381TIP3    H2 1108   7.086   3.784   2.111  1.2293  0.3097 -0.2896
  382TIP3   OH2 1109   6.254   6.366   3.701 -0.4404  0.2905  0.7283
  382TIP3    H1 1110   6.255   6.376   3.605  1.7888  2.4375  0.8901
  382TIP3    H2 1111   6.171   6.405   3.727 -0.4316  1.0044 -0.2357
  383TIP3   OH2 1112   6.435   1.952   1.438 -0.4464  0.1201 -0.1291
  383TIP3    H1 1113   6.516   1.917   1.402 -1.2275 -0.9946 -0.8857
  383TIP3    H2 1114   6.428   1.911   1.524  0.6892  1.6628  0.7588
  384TIP3   OH2 1115   0.820   2.220   2.440  0.0147 -0.2585 -0.1148
  384TIP3    H1 1116   0.903   2.205   2.486  1.3848  0.5538 -2.1970
  384TIP3    H2 1117   0.844   2.219   2.348 -2.3458 -0.0894 -0.7685
  385TIP3   OH2 1118   3.234   1.363   0.415  0.1591  0.0415 -0.7359
  385TIP3    H1 1119   3.289   1.402   0.483  0.0587 -0.7070 -0.2141
  385TIP3    H2 1120   3.156   1.418   0.413  0.7983  0.9625 -1.3078
  386TIP3   OH2 1121   4.159   1.503   1.616  0.4091  0.1826  0.2309
  386TIP3    H1 1122   4.179   1.480   1.525  0.9038 -1.4654  0.7077
  386TIP3    H2 1123   4.090   1.441   1.641  0.9956 -0.0721  1.2741
  387TIP3   OH2 1124   5.927   6.657   0.929  0.1834  0.0695 -0.2910
  387TIP3    H1 1125   6.001   6.630   0.874  0.3218 -1.0883  0.4278
  387TIP3    H2 1126   5.853   6.606   0.897 -0.0295  0.3359 -0.2274
  388TIP3   OH2 1127   4.096   4.595   3.728  0.1835 -0.1234 -0.0901
  388TIP3    H1 1128   4.134   4.541   3.659 -0.6232  0.6783 -1.1887
  388TIP3    H2 1129   4.067   4.675   3.684  1.1538  1.1679  1.4333
  389TIP3   OH2 1130   2.952   2.409   3.745 -0.1662  0.5604  0.0255
  389TIP3    H1 1131   2.873   2.366   3.779 -0.0057 -0.5750 -0.9581
  389TIP3    H2 1132   3.005   2.426   3.823 -1.1576  0.9045  0.6512
  390TIP3   OH2 1133   4.451   0.959   4.271  0.3491 -0.0014  0.3967
  390TIP3    H1 1134   4.463   1.037   4.217 -1.2099  1.3421  1.8717
  390TIP3    H2 1135   4.371   0.918   4.238  1.9074 -1.8907 -1.3162
  391TIP3   OH2 1136   2.685   5.461   1.976 -0.2282 -0.0788 -0.1535
  391TIP3    H1 1137   2.617   5.395   1.962  0.6697 -0.6766 -2.0195
  391TIP3    H2 1138   2.718   5.443   2.064 -2.1855 -0.0111  0.6477
  392TIP3   OH2 1139   2.939   6.794   3.412  0.0273  0.3608  0.1127
  392TIP3    H1 1140   2.913   6.832   3.328 -1.3463 -1.9680 -0.6131
  392TIP3    H2 1141   3.024   6.753   3.394  0.0707  0.4804  0.0469
  393TIP3   OH2 1142   4.849   5.570   4.102  0.6011 -0.0947  0.3530
  393TIP3    H1 1143   4.843   5.515   4.023  0.6575 -1.2031  1.1010
  393TIP3    H2 1144   4.904   5.643   4.076 -0.0574 -0.0006 -0.8831
  394TIP3   OH2 1145   1.522   3.208   3.732  0.5344  0.1247  0.0463
  394TIP3    H1 1146   1.600   3.194   3.679 -0.0207 -1.4549 -0.4088
  394TIP3    H2 1147   1.536   3.155   3.811 -0.8596 -1.8085 -0.9171
  395TIP3   OH2 1148   3.544   4.643   2.043 -0.4243 -0.5652 -1.0970
  395TIP3    H1 1149   3.583   4.728   2.065  0.6064 -1.4672  0.7700
  395TIP3    H2 1150   3.456   4.647   2.082  0.4043 -1.1095  0.9830
  396TIP3   OH2 1151   3.973   1.710   1.004 -0.2724  0.3797  0.2716
  396TIP3    H1 1152   3.887   1.730   1.042 -0.3218 -1.1736  1.0565
  396TIP3    H2 1153   4.020   1.794   1.006 -1.6976  1.2295 -0.0333
  397TIP3   OH2 1154   6.242   2.577   1.869  0.2635 -0.1255 -0.0420
  397TIP3    H1 1155   6.304   2.575   1.941 -0.1411 -0.6563  0.2983
  397TIP3    H2 1156   6.266   2.503   1.813 -1.0608 -1.3893  0.9647
  398TIP3   OH2 1157   1.633   4.441   2.890  0.1364 -0.5585 -0.2701
  398TIP3    H1 1158   1.566   4.412   2.829  0.5565  0.2728 -1.1540
  398TIP3    H2 1159   1.694   4.367   2.895 -0.2106 -0.8573 -0.3926
  399TIP3   OH2 1160   6.520   2.769   5.666  0.1889  0.2404 -0.0512
  399TIP3    H1 1161   6.608   2.805   5.662  0.2838  0.1591  0.9607
  399TIP3    H2 1162   6.479   2.795   5.583  1.6223 -0.9868 -1.1796
  400TIP3   OH2 1163   1.335   6.463   2.723  0.2679 -0.4278 -0.3784
  400TIP3    H1 1164   1.258   6.503   2.764 -0.5959 -1.5411 -0.8632
  400TIP3    H2 1165   1.404   6.473   2.788 -0.9847 -1.8746  1.2895
  401TIP3   OH2 1166   6.924   2.700   0.527 -0.0544 -0.4900 -0.1274
  401TIP3    H1 1167   6.844   2.697   0.474 -0.3442  0.1855  0.2541
  401TIP3    H2 1168   6.995   2.691   0.463 -0.3810  0.8803 -0.7399
  402TIP3   OH2 1169   5.060   1.608   4.700 -0.0517 -0.0515  0.2068
  402TIP3    H1 1170   5.031   1.525   4.664  1.9387 -1.6673  2.0469
  402TIP3    H2 1171   4.987   1.637   4.755 -1.1300 -0.0612 -1.1808
  403TIP3   OH2 1172   2.729   5.764   1.267  0.9523 -0.1836 -0.2978
  403TIP3    H1 1173   2.656   5.803   1.218  0.6611 -0.9320 -0.4720
  403TIP3    H2 1174   2.733   5.815   1.348  0.4442  0.0773 -0.4299
  404TIP3   OH2 1175   5.865   1.911   0.240 -0.2619  0.5387 -0.0525
  404TIP3    H1 1176   5.784   1.865   0.263 -0.9663  0.8580 -1.7016
  404TIP3    H2 1177   5.933   1.844   0.242 -0.8839 -0.1100 -0.3073
  405TIP3   OH2 1178   0.335   2.389   2.225 -0.3225 -0.1831  0.4805
  405TIP3    H1 1179   0.384   2.448   2.167  1.1521 -2.2157 -0.4811
  405TIP3    H2 1180   0.389   2.310   2.229 -2.0473 -1.3629  1.9650
  406TIP3   OH2 1181   4.235   6.823   2.461 -0.0701  0.0464  0.5271
  406TIP3    H1 1182   4.151   6.837   2.418  0.2873 -0.7996 -0.4851
  406TIP3    H2 1183   4.235   6.729   2.483  0.5869  0.0482  0.5446
  407TIP3   OH2 1184   0.789   6.458   4.212  0.2413  0.2168  0.0442
  407TIP3    H1 1185   0.729   6.451   4.138  0.9999  0.4124 -0.6122
  407TIP3    H2 1186   0.837   6.539   4.196 -0.4915  0.9412  1.4592
  408TIP3   OH2 1187   4.732   3.218   1.120  0.3530  0.3802 -0.2608
  408TIP3    H1 1188   4.748   3.216   1.215 -1.4558 -1.7431  0.0788
  408TIP3    H2 1189   4.644   3.182   1.110  1.0897 -0.8959 -2.8706
  409TIP3   OH2 1190   2.371   1.416   0.856  0.0648  0.1133 -0.3370
  409TIP3    H1 1191   2.417   1.443   0.776 -0.3705  0.4687 -0.4746
  409TIP3    H2 1192   2.434   1.362   0.903  0.7071  0.8036 -0.3930
  410TIP3   OH2 1193   4.651   5.378   4.104 -0.0854 -0.2773 -0.1461
  410TIP3    H1 1194   4.612   5.407   4.186 -1.1113  0.7726 -0.9743
  410TIP3    H2 1195   4.738   5.416   4.103 -0.7254  1.2509 -0.3440
  411TIP3   OH2 1196   1.868   6.379   5.432  0.1951 -0.6239 -0.5015
  411TIP3    H1 1197   1.845   6.435   5.505  1.9875  1.1163 -1.1602
  411TIP3    H2 1198   1.791   6.378   5.376 -0.4555 -0.2680  0.3800
  412TIP3   OH2 1199   5.406   3.077   5.187  0.5982 -0.8216 -0.2919
  412TIP3    H1 1200   5.396   2.989   5.152  3.7910 -1.5430  0.2611
  412TIP3    H2 1201   5.399   3.135   5.111 -0.7884 -1.5814 -0.7679
  413TIP3   OH2 1202   2.462   1.179   3.261  0.5027  0.7735 -0.7158
  413TIP3    H1 1203   2.427   1.143   3.342 -3.3855  1.6386 -1.7855
  413TIP3    H2 1204   2.501   1.104   3.216  1.4779  0.0183  1.2910
  414TIP3   OH2 1205   4.179   6.217   3.906  0.8179  0.2275  0.0994
  414TIP3    H1 1206   4.144   6.242   3.820  1.7005 -0.9923 -0.6514
  414TIP3    H2 1207   4.271   6.198   3.890  1.0576  0.2376  1.3829
  415TIP3   OH2 1208   6.106   2.806   2.244  0.0086  0.3484 -0.2793
  415TIP3    H1 1209   6.065   2.758   2.316 -0.4398 -0.6479 -1.1703
  415TIP3    H2 1210   6.092   2.750   2.167  2.8528  0.0256 -0.6766
  416TIP3   OH2 1211   5.631   2.749   3.258  0.0022 -0.7678  0.2654
  416TIP3    H1 1212   5.709   2.697   3.235  0.5237  0.2468 -0.3093
  416TIP3    H2 1213   5.557   2.693   3.233  0.5522 -0.8694 -1.2195
  417TIP3   OH2 1214   0.054   5.768   5.399 -0.2060 -0.1676 -0.1750
  417TIP3    H1 1215  -0.027   5.742   5.442 -0.5783 -0.1322 -0.8509
  417TIP3    H2 1216   0.121   5.711   5.437 -0.2553  0.8167  1.5074
  418TIP3   OH2 1217   0.884   1.170   0.316 -0.0692 -0.6510 -0.0261
  418TIP3    H1 1218   0.802   1.202   0.353 -0.6264 -0.2282 -1.5591
  418TIP3    H2 1219   0.861   1.142   0.227  1.6048  0.2203 -0.7741
  419TIP3   OH2 1220   5.672   3.218   5.288 -0.1386  0.4801  0.1055
  419TIP3    H1 1221   5.658   3.132   5.249 -0.5669  0.1925  0.8626
  419TIP3    H2 1222   5.731   3.201   5.362 -2.3066  0.3415  1.9409
  420TIP3   OH2 1223   3.071   1.642   5.171 -0.7581  0.0893 -0.5406
  420TIP3    H1 1224   3.147   1.680   5.128 -0.4605  0.2557  0.1267
  420TIP3    H2 1225   3.080   1.548   5.158 -1.6176  0.1962 -2.4055
  421TIP3   OH2 1226   6.136   4.446   0.239 -0.5781  0.0420 -0.3974
  421TIP3    H1 1227   6.070   4.414   0.301  1.2601  2.1679  2.9418
  421TIP3    H2 1228   6.201   4.376   0.234  0.2782  0.5929  1.8552
  422TIP3   OH2 1229   4.402   3.066   1.481 -0.2176  0.0112 -0.3256
  422TIP3    H1 1230   4.311   3.041   1.494 -0.0377 -0.7879 -0.5044
  422TIP3    H2 1231   4.411   3.079   1.387 -0.4775  1.4866 -0.1578
  423TIP3   OH2 1232   5.328   4.143   0.561  0.6882  0.4102 -0.4638
  423TIP3    H1 1233   5.315   4.198   0.638 -0.4573 -0.0641 -0.3014
  423TIP3    H2 1234   5.248   4.090   0.555  1.4224 -0.6806 -1.0655
  424TIP3   OH2 1235   4.720   0.443   1.240 -0.5941 -0.9085 -0.5861
  424TIP3    H1 1236   4.700   0.359   1.201 -0.2917  0.2562 -3.4768
  424TIP3    H2 1237   4.790   0.480   1.185 -2.5299  2.3324 -1.1707
  425TIP3   OH2 1238   1.116   1.343   2.162 -0.7368  0.0998 -0.2219
  425TIP3    H1 1239   1.137   1.261   2.206 -1.7110 -0.2900 -0.4570
  425TIP3    H2 1240   1.115   1.322   2.069  2.4153  1.1653 -0.6020
  426TIP3   OH2 1241   0.032   0.255   2.954 -0.7780 -0.0966  0.4954
  426TIP3    H1 1242   0.105   0.246   2.892 -0.7245  0.9574  0.3945
  426TIP3    H2 1243   0.038   0.177   3.009  1.0063  0.4194  1.1011
  427TIP3   OH2 1244   2.173   3.025   4.980  0.0946  0.4848  0.2697
  427TIP3    H1 1245   2.239   2.987   4.922 -0.0893 -1.3072  1.1710
  427TIP3    H2 1246   2.225   3.070   5.047  0.4295 -0.6293  0.7857
  428TIP3   OH2 1247   5.752   5.706   3.703 -0.3536 -0.0916  0.3710
  428TIP3    H1 1248   5.750   5.616   3.671 -1.3013  0.4610 -1.3019
  428TIP3    H2 1249   5.841   5.736   3.686  0.1220 -0.8519  1.4330
  429TIP3   OH2 1250   4.451   4.867   3.204  0.3938 -0.4174  0.7292
  429TIP3    H1 1251   4.389   4.927   3.163 -0.5117 -0.8853  1.3964
  429TIP3    H2 1252   4.499   4.922   3.267  3.3842  0.8807 -2.3519
  430TIP3   OH2 1253   2.188   3.228   1.829 -0.6616  0.3617 -0.2607
  430TIP3    H1 1254   2.243   3.244   1.906 -0.7294  2.3297 -0.5788
  430TIP3    H2 1255   2.242   3.173   1.772  0.7760  1.7969 -0.3265
  431TIP3   OH2 1256   3.744   1.786   1.145  0.4630 -0.0047 -0.0496
  431TIP3    H1 1257   3.787   1.836   1.215  1.3966 -0.9182  0.0474
  431TIP3    H2 1258   3.669   1.745   1.187 -0.7394  1.8464 -0.2869
  432TIP3   OH2 1259   4.229   4.598   5.355 -0.3629  0.1683 -0.3021
  432TIP3    H1 1260   4.137   4.617   5.338 -0.4535  0.0674  0.0709
  432TIP3    H2 1261   4.257   4.664   5.418 -1.0661 -1.6948  2.1062
  433TIP3   OH2 1262   0.894   3.074   3.618  0.7247  0.1812  0.6195
  433TIP3    H1 1263   0.948   3.011   3.666 -0.7024  0.1237  2.2150
  433TIP3    H2 1264   0.875   3.031   3.535 -0.7379 -1.8390  1.9135
  434TIP3   OH2 1265   5.263   6.060   4.099 -0.5990 -0.9645  0.0761
  434TIP3    H1 1266   5.348   6.017   4.102 -0.3560 -0.4687  0.3951
  434TIP3    H2 1267   5.213   6.021   4.170 -0.3955 -0.7598  0.3342
  435TIP3   OH2 1268   4.305   3.401   1.933 -0.5505  0.0104  0.4671
  435TIP3    H1 1269   4.321   3.478   1.987 -1.8777 -0.3310  1.3937
  435TIP3    H2 1270   4.273   3.436   1.850  0.2158  0.4925  0.3669
  436TIP3   OH2 1271   1.551   2.385   0.951  0.1980  0.4642  0.0839
  436TIP3    H1 1272   1.514   2.306   0.990  0.2216  0.7469  0.6802
  436TIP3    H2 1273   1.631   2.354   0.908  0.1384  0.1433  0.1985
  437TIP3   OH2 1274   2.394   4.853   4.389 -0.2930 -0.0019 -0.1299
  437TIP3    H1 1275   2.428   4.780   4.338 -1.1725  0.4488 -1.4221
  437TIP3    H2 1276   2.388   4.925   4.326 -2.2000  0.3474  0.3805
  438TIP3   OH2 1277   3.670   1.148   1.828 -0.1346  0.3916  0.2611
  438TIP3    H1 1278   3.575   1.142   1.834 -0.3334  1.2227 -1.4074
  438TIP3    H2 1279   3.702   1.061   1.852 -1.4660 -0.5448 -1.1879
  439TIP3   OH2 1280   5.990   4.344   4.599  0.0495  0.0411 -0.4768
  439TIP3    H1 1281   5.920   4.323   4.537  0.5083 -0.8439 -0.7181
  439TIP3    H2 1282   6.056   4.277   4.583 -0.3489 -0.9849  1.8304
  440TIP3   OH2 1283   0.151   5.299   5.155  0.1396 -0.4501 -0.2588
  440TIP3    H1 1284   0.110   5.269   5.237 -1.3239  0.5723 -0.5668
  440TIP3    H2 1285   0.164   5.219   5.105 -0.8237 -0.8992  0.1696
  441TIP3   OH2 1286   3.524   4.989   3.255 -0.0872  0.7042 -0.0517
  441TIP3    H1 1287   3.510   5.007   3.348 -2.4800 -0.3191 -0.1318
  441TIP3    H2 1288   3.618   4.974   3.247  0.1417  0.5852  2.2461
  442TIP3   OH2 1289   1.113   4.200   4.283  0.6065 -0.0544  0.4912
  442TIP3    H1 1290   1.124   4.286   4.325  0.9575 -0.5055  1.3525
  442TIP3    H2 1291   1.020   4.179   4.297  0.5417  0.1361  0.3602
  443TIP3   OH2 1292   1.671   3.024   0.682  0.9152  0.4408 -0.0296
  443TIP3    H1 1293   1.596   2.967   0.664 -0.4276  2.1146 -0.0131
  443TIP3    H2 1294   1.707   2.992   0.765 -0.7600  0.5740  0.7725
  444TIP3   OH2 1295   1.877   2.134   0.319 -0.7094 -0.2590  0.5602
  444TIP3    H1 1296   1.853   2.094   0.236  1.0421  1.1392 -0.6959
  444TIP3    H2 1297   1.830   2.217   0.321  2.1641  1.5398 -0.9647
  445TIP3   OH2 1298   5.076   0.254   0.829  0.3446  0.2531 -0.2928
  445TIP3    H1 1299   5.080   0.343   0.864  2.8335 -0.1637  0.7689
  445TIP3    H2 1300   5.089   0.264   0.735  0.7505  1.0123 -0.1651
  446TIP3   OH2 1301   5.115   0.069   0.235 -0.1866 -0.0504 -0.6258
  446TIP3    H1 1302   5.086   0.015   0.162 -0.3101 -0.1235 -0.5218
  446TIP3    H2 1303   5.086   0.157   0.212  3.3807  0.7721 -2.7351
  447TIP3   OH2 1304   0.007   2.474   3.489  0.2090  0.6955  0.1106
  447TIP3    H1 1305  -0.034   2.554   3.522  0.9814  1.0986  0.1170
  447TIP3    H2 1306   0.073   2.505   3.428  2.0216  0.1863  1.7264
  448TIP3   OH2 1307   4.407   6.187   0.947  0.5426  0.0922  0.4861
  448TIP3    H1 1308   4.435   6.222   0.862 -0.3149 -0.5807 -0.1003
  448TIP3    H2 1309   4.314   6.167   0.934  0.0276  1.2658  2.0217
  449TIP3   OH2 1310   5.823   0.901   5.792 -0.4922  0.1152 -0.5351
  449TIP3    H1 1311   5.749   0.872   5.846  0.0368 -0.4441 -0.0982
  449TIP3    H2 1312   5.828   0.837   5.721  1.6264 -1.9115  1.2552
  450TIP3   OH2 1313   0.247   0.191   4.021 -0.1294 -0.1745  0.0453
  450TIP3    H1 1314   0.174   0.162   4.075 -1.1077  3.7715  1.2090
  450TIP3    H2 1315   0.207   0.215   3.938 -0.5811  3.0498  1.0486
  451TIP3   OH2 1316   5.543   2.022   5.306  0.0473 -0.6122 -0.6046
  451TIP3    H1 1317   5.577   2.073   5.232  0.1775  1.4964  0.8370
  451TIP3    H2 1318   5.619   1.975   5.339  0.4531  0.0667 -0.5529
  452TIP3   OH2 1319   6.993   2.050   3.342  0.4042  0.1660 -0.2264
  452TIP3    H1 1320   7.006   2.081   3.252  0.7685  0.5325 -0.0494
  452TIP3    H2 1321   7.043   2.111   3.396  0.0240  0.0617  0.2453
  453TIP3   OH2 1322   2.767   2.166   4.406  0.4937  0.1879  0.0245
  453TIP3    H1 1323   2.713   2.238   4.440  0.0954 -1.1267  2.3269
  453TIP3    H2 1324   2.855   2.204   4.398 -0.1437  1.5373 -0.9953
  454TIP3   OH2 1325   6.418   3.296   3.277  0.3499  0.4055  0.2839
  454TIP3    H1 1326   6.471   3.335   3.346  0.8294 -1.4478  1.0454
  454TIP3    H2 1327   6.480   3.279   3.205  0.4288 -0.1291  0.4731
  455TIP3   OH2 1328   2.869   2.625   3.988  0.8761 -0.2972 -0.1485
  455TIP3    H1 1329   2.943   2.577   4.026  0.8016 -0.2104  0.1048
  455TIP3    H2 1330   2.906   2.668   3.911  1.5048  1.1736  0.9455
  456TIP3   OH2 1331   1.806   2.697   3.932 -0.6108 -0.0467 -0.2573
  456TIP3    H1 1332   1.800   2.633   3.861  1.2360 -0.6901  0.1111
  456TIP3    H2 1333   1.802   2.782   3.888 -0.6531 -0.4272 -1.0090
  457TIP3   OH2 1334   1.534   2.195   2.880  0.4082  0.0088  0.2693
  457TIP3    H1 1335   1.560   2.205   2.971  3.5875 -0.4463 -0.4626
  457TIP3    H2 1336   1.582   2.118   2.850 -1.5026 -0.5719 -1.5119
  458TIP3   OH2 1337   3.149   4.750   1.448 -0.2024  0.0032 -0.0122
  458TIP3    H1 1338   3.067   4.791   1.423  0.0025  0.8596  0.6760
  458TIP3    H2 1339   3.214   4.820   1.445 -0.1573  0.1965  2.8065
  459TIP3   OH2 1340   0.530   6.032   1.146  0.6877 -0.4842  0.1749
  459TIP3    H1 1341   0.503   5.943   1.123 -0.1653 -0.6388  1.6743
  459TIP3    H2 1342   0.625   6.032   1.130  0.4827 -1.2179 -1.1770
  460TIP3   OH2 1343   3.470   4.320   4.144  0.3763  0.1173  0.0815
  460TIP3    H1 1344   3.422   4.272   4.211  1.3361  0.4745  1.0561
  460TIP3    H2 1345   3.429   4.407   4.143  0.6042  0.2310  0.4786
  461TIP3   OH2 1346   3.580   4.943   0.937  0.4165  0.5048  0.2237
  461TIP3    H1 1347   3.493   4.933   0.976 -0.4757  1.1098 -1.4978
  461TIP3    H2 1348   3.603   5.035   0.954  0.2707  0.6189 -0.1965
  462TIP3   OH2 1349   2.021   5.944   5.044  0.5462  0.1992 -0.5287
  462TIP3    H1 1350   1.942   5.896   5.019  0.9105 -1.4425  1.2876
  462TIP3    H2 1351   2.088   5.911   4.984  0.0126  1.2562 -1.7635
  463TIP3   OH2 1352   1.592   2.272   2.279 -0.0540  0.3112  0.6777
  463TIP3    H1 1353   1.589   2.367   2.287  0.0585  0.4064 -0.2888
  463TIP3    H2 1354   1.617   2.241   2.366  2.2764  1.2938  0.4144
  464TIP3   OH2 1355   6.060   5.020   2.853  0.0173  0.1271  0.6176
  464TIP3    H1 1356   6.052   4.926   2.834 -1.0313  0.2948  0.1761
  464TIP3    H2 1357   6.045   5.063   2.769  1.2456  0.6819  0.6558
  465TIP3   OH2 1358   6.574   6.015   2.246 -0.0145 -0.5381  0.2079
  465TIP3    H1 1359   6.628   6.001   2.169 -0.6955 -1.0589 -0.1912
  465TIP3    H2 1360   6.622   5.974   2.318 -0.4701 -2.1639 -0.3676
  466TIP3   OH2 1361   0.357   2.477   4.044 -0.0542 -0.0445 -0.5321
  466TIP3    H1 1362   0.440   2.509   4.009  0.0670 -0.1379 -0.3299
  466TIP3    H2 1363   0.338   2.398   3.994  0.7656 -0.9054  0.4725
  467TIP3   OH2 1364   4.064   3.981   2.772  0.7676 -0.1192  0.1669
  467TIP3    H1 1365   4.148   3.994   2.729 -0.2096  0.4224 -1.6869
  467TIP3    H2 1366   4.039   3.892   2.751  0.5844 -0.0751  0.1958
  468TIP3   OH2 1367   3.200   4.564   5.067 -0.0344  0.2380 -0.4629
  468TIP3    H1 1368   3.152   4.484   5.044 -0.2800  0.0065  0.7819
  468TIP3    H2 1369   3.136   4.617   5.115  1.0076 -0.2070  1.4876
  469TIP3   OH2 1370   6.294   4.710   0.805 -0.8362 -0.3565  0.4215
  469TIP3    H1 1371   6.279   4.740   0.715 -0.5085 -1.2670  0.0440
  469TIP3    H2 1372   6.307   4.790   0.856  0.5454  0.1383 -0.6376
  470TIP3   OH2 1373   2.707   5.367   2.667  0.3070  0.2061  0.0891
  470TIP3    H1 1374   2.644   5.329   2.606  0.9117 -0.0782 -0.3697
  470TIP3    H2 1375   2.757   5.292   2.699  0.5852  0.4574  0.2488
  471TIP3   OH2 1376   1.146   2.746   2.614 -0.0280 -0.0694 -0.3039
  471TIP3    H1 1377   1.106   2.733   2.700  0.4862 -0.6807 -0.1497
  471TIP3    H2 1378   1.207   2.819   2.626  1.0600 -1.0328  0.2132
  472TIP3   OH2 1379   5.215   3.443   0.386 -1.2552  0.6733 -0.1185
  472TIP3    H1 1380   5.264   3.408   0.461 -1.0301  1.7206  0.2482
  472TIP3    H2 1381   5.162   3.370   0.355  0.3097 -0.4137 -0.3372
  473TIP3   OH2 1382   4.427   0.951   2.442  0.1319 -0.2626 -0.6355
  473TIP3    H1 1383   4.424   0.913   2.530 -0.0663 -1.4523 -1.1462
  473TIP3    H2 1384   4.515   0.988   2.435 -0.7777  2.6782  1.1876
  474TIP3   OH2 1385   4.435   0.532   2.814 -0.0034 -0.2670  0.6829
  474TIP3    H1 1386   4.492   0.608   2.823  0.6482 -0.6909  0.3009
  474TIP3    H2 1387   4.474   0.466   2.871 -0.8942 -0.1437  1.4570
  475TIP3   OH2 1388   0.207   0.922   1.358  0.3688  0.4403 -0.2766
  475TIP3    H1 1389   0.277   0.929   1.293  1.2077  0.4382  0.6084
  475TIP3    H2 1390   0.158   0.844   1.332  1.4882 -0.3294 -0.1842
  476TIP3   OH2 1391   2.140   2.885   1.248 -0.2715 -0.1298 -0.0414
  476TIP3    H1 1392   2.128   2.975   1.217  3.8993  0.5675 -0.2055
  476TIP3    H2 1393   2.107   2.831   1.176 -0.1868  1.3453 -1.2497
  477TIP3   OH2 1394   2.661   1.551   0.056 -0.2350  0.3504 -0.2412
  477TIP3    H1 1395   2.669   1.541  -0.038  0.7950 -1.0212 -0.0417
  477TIP3    H2 1396   2.724   1.489   0.093  0.7012  2.1088  1.3349
  478TIP3   OH2 1397   4.323   0.842   4.006 -0.4531 -0.2935  0.3348
  478TIP3    H1 1398   4.284   0.857   3.920 -0.4791 -1.9772  0.0199
  478TIP3    H2 1399   4.254   0.863   4.069 -0.7089  0.1120 -0.0777
  479TIP3   OH2 1400   4.391   2.341   1.871 -0.3629 -0.0557 -0.2179
  479TIP3    H1 1401   4.465   2.329   1.930  0.0160  1.1042 -0.4347
  479TIP3    H2 1402   4.368   2.434   1.880 -2.5009 -0.6105  0.6674
  480TIP3   OH2 1403   3.401   5.153   3.763 -0.2079  0.0651  0.5552
  480TIP3    H1 1404   3.389   5.065   3.729 -0.4252  0.5506 -0.7060
  480TIP3    H2 1405   3.470   5.191   3.707 -1.7876  1.4724 -0.5378
  481TIP3   OH2 1406   4.800   3.733   3.508  0.0827  0.7351  0.2342
  481TIP3    H1 1407   4.819   3.811   3.561  1.8348  0.6587 -0.2200
  481TIP3    H2 1408   4.811   3.660   3.568 -0.9799  0.7828  0.5103
  482TIP3   OH2 1409   3.907   4.024   1.525 -0.3292 -0.7065 -0.0848
  482TIP3    H1 1410   3.816   4.020   1.497 -0.2466 -0.6306 -0.3679
  482TIP3    H2 1411   3.958   4.009   1.445 -0.0875 -0.1562 -0.0422
  483TIP3   OH2 1412   1.855   0.380   1.132  0.3552 -0.1732  0.1772
  483TIP3    H1 1413   1.864   0.454   1.072  0.6801 -0.2593  0.1163
  483TIP3    H2 1414   1.770   0.393   1.174 -1.2549 -1.6383 -2.3696
  484TIP3   OH2 1415   0.746   1.299   5.656 -0.1170 -0.1665  0.4619
  484TIP3    H1 1416   0.694   1.219   5.649 -0.9124  0.4397 -1.1716
  484TIP3    H2 1417   0.689   1.361   5.701  0.6963 -0.6253  2.2169
  485TIP3   OH2 1418   1.184   5.096   0.289 -0.1603 -0.0314  0.4980
  485TIP3    H1 1419   1.216   5.087   0.200 -0.7785  1.0393  0.1479
  485TIP3    H2 1420   1.250   5.052   0.343 -1.4049 -3.7781 -0.7041
  486TIP3   OH2 1421   6.106   4.691   4.739 -0.2310  0.3743 -0.1713
  486TIP3    H1 1422   6.133   4.763   4.683 -0.3693 -0.4029 -1.2770
  486TIP3    H2 1423   6.022   4.662   4.703 -1.6811  1.5069  2.0374
  487TIP3   OH2 1424   4.906   6.240   0.042 -0.4733  0.0105 -0.0575
  487TIP3    H1 1425   4.894   6.228  -0.052 -1.3508 -0.2363  0.0809
  487TIP3    H2 1426   4.880   6.331   0.059 -1.3091 -0.2545  0.1032
  488TIP3   OH2 1427   6.280   2.747   5.193 -0.2653 -0.0034  0.1557
  488TIP3    H1 1428   6.358   2.745   5.137  0.3678  0.2024  1.0102
  488TIP3    H2 1429   6.296   2.679   5.258 -1.9230 -1.6643 -1.0924
  489TIP3   OH2 1430   6.067   3.998   5.264  0.6870  0.2279  0.4689
  489TIP3    H1 1431   6.105   4.027   5.181  1.0036 -3.0646 -0.6712
  489TIP3    H2 1432   6.142   3.988   5.323  0.4970  2.2299  1.1327
  490TIP3   OH2 1433   5.053   6.662   1.237 -0.6607  0.3297  0.3713
  490TIP3    H1 1434   5.137   6.698   1.264 -0.3298  2.1015 -2.5856
  490TIP3    H2 1435   5.072   6.614   1.157 -2.0499 -1.9652  1.3120
  491TIP3   OH2 1436   6.852   1.308   2.331 -0.3991  0.4876 -0.1130
  491TIP3    H1 1437   6.778   1.364   2.310 -0.5570 -0.1424 -1.3189
  491TIP3    H2 1438   6.858   1.247   2.257 -0.3451 -1.1963  1.2241
  492TIP3   OH2 1439   5.650   2.077   1.576  0.2712  0.6785  0.6132
  492TIP3    H1 1440   5.630   2.117   1.660 -0.4735  0.8813  0.3437
  492TIP3    H2 1441   5.566   2.075   1.529  0.2959 -1.0502  0.5598
  493TIP3   OH2 1442   1.894   0.998   1.430 -0.4842  0.7127 -0.4254
  493TIP3    H1 1443   1.885   1.037   1.517 -1.7266 -0.7718  0.1626
  493TIP3    H2 1444   1.844   0.916   1.436  0.5882 -0.1058 -2.1105
  494TIP3   OH2 1445   2.451   0.933   0.021 -0.4351 -0.1908 -0.2827
  494TIP3    H1 1446   2.511   0.945   0.095 -0.9061  1.7188 -0.1567
  494TIP3    H2 1447   2.385   1.001   0.033 -2.3822 -1.9117 -0.7002
  495TIP3   OH2 1448   6.165   0.951   5.196  0.3213  0.1604  0.5161
  495TIP3    H1 1449   6.116   0.984   5.271  0.9706  0.6737  0.7259
  495TIP3    H2 1450   6.149   1.015   5.126  1.1042  0.6176  0.7444
  496TIP3   OH2 1451   2.678   4.431   5.603 -0.9672 -0.1310  0.7050
  496TIP3    H1 1452   2.763   4.416   5.645  0.3726 -0.3761 -1.8803
  496TIP3    H2 1453   2.622   4.361   5.637  0.6363 -1.5265  0.6355
  497TIP3   OH2 1454   4.058   1.509   3.896  0.6547 -0.3210 -0.1917
  497TIP3    H1 1455   3.992   1.562   3.939 -0.4656 -1.3781 -0.5545
  497TIP3    H2 1456   4.119   1.486   3.966  0.7149  0.7475  0.1252
  498TIP3   OH2 1457   6.109   5.513   1.589  0.1275  0.1331 -0.0422
  498TIP3    H1 1458   6.050   5.443   1.618  0.3624  0.1922  0.5782
  498TIP3    H2 1459   6.052   5.590   1.583  0.4892  0.6726  2.4834
  499TIP3   OH2 1460   3.274   2.402   0.759  0.4062  0.4572 -0.0428
  499TIP3    H1 1461   3.279   2.490   0.721  1.9037  1.0452  1.4021
  499TIP3    H2 1462   3.195   2.404   0.813 -0.4347  0.3819 -1.2465
  500TIP3   OH2 1463   6.352   4.705   4.194  0.0125  0.3952 -0.1328
  500TIP3    H1 1464   6.370   4.641   4.125  0.1136  2.5252 -2.1878
  500TIP3    H2 1465   6.264   4.738   4.173  0.3426  1.6039  0.2973
  501TIP3   OH2 1466   2.086   2.698   1.466  0.3058 -0.2420  0.4293
  501TIP3    H1 1467   2.129   2.756   1.402 -1.3653  0.4390 -0.1274
  501TIP3    H2 1468   2.033   2.757   1.520 -1.1011 -1.1712  0.1212
  502TIP3   OH2 1469   4.416   5.727   0.950 -0.2460 -0.1633  0.1370
  502TIP3    H1 1470   4.360   5.650   0.961  0.6838 -1.0064 -0.7393
  502TIP3    H2 1471   4.364   5.788   0.898 -1.7584  0.6902  2.4946
  503TIP3   OH2 1472   3.616   6.135   4.455  0.6164 -0.2783  0.3959
  503TIP3    H1 1473   3.694   6.148   4.402  1.0798  0.4792  1.2386
  503TIP3    H2 1474   3.645   6.149   4.545 -0.4982  0.1183  0.7140
  504TIP3   OH2 1475   0.267   6.617   4.527  0.3257 -0.2589  0.2693
  504TIP3    H1 1476   0.227   6.663   4.453 -1.5080 -1.0469  0.7135
  504TIP3    H2 1477   0.343   6.670   4.550 -0.9066  1.8135 -0.1161
  505TIP3   OH2 1478   2.682   2.277   0.102 -0.4230 -0.1965 -0.4738
  505TIP3    H1 1479   2.748   2.311   0.162 -0.3056 -0.6226 -0.3580
  505TIP3    H2 1480   2.724   2.279   0.016  0.2612 -1.7776 -0.2095
  506TIP3   OH2 1481   3.044   0.408   1.290 -0.3799  0.0941  0.0034
  506TIP3    H1 1482   3.065   0.324   1.331 -0.6262 -0.0033 -0.0690
  506TIP3    H2 1483   3.028   0.386   1.198 -0.1265  0.2678 -0.0827
  507TIP3   OH2 1484   0.345   6.323   5.676 -0.5687 -0.1856  0.3716
  507TIP3    H1 1485   0.253   6.340   5.658 -0.4436  2.1683  1.5559
  507TIP3    H2 1486   0.346   6.270   5.756 -0.9306  1.0318  1.2176
  508TIP3   OH2 1487   2.814   6.548   3.394 -0.3979  0.5212 -0.3075
  508TIP3    H1 1488   2.856   6.632   3.414 -0.5841  0.3457  0.9098
  508TIP3    H2 1489   2.742   6.571   3.335 -0.3517  1.1891 -0.1119
  509TIP3   OH2 1490   4.084   3.370   1.151  0.1231 -0.4084  0.5785
  509TIP3    H1 1491   4.081   3.414   1.236 -0.1314  0.8060 -0.0348
  509TIP3    H2 1492   4.017   3.301   1.157 -0.7928  0.4961  0.9227
  510TIP3   OH2 1493   4.678   5.636   4.688 -0.4827  0.1428  0.5337
  510TIP3    H1 1494   4.606   5.594   4.640 -0.2990  0.5879 -0.1505
  510TIP3    H2 1495   4.749   5.572   4.685 -0.1889  0.4907 -0.5416
  511TIP3   OH2 1496   3.604   5.758   5.913 -0.3984 -0.1087 -0.0888
  511TIP3    H1 1497   3.578   5.785   5.825 -0.4135  0.3155  0.0444
  511TIP3    H2 1498   3.697   5.735   5.905  0.2161  2.0581  0.2407
  512TIP3   OH2 1499   1.571   0.179   0.027 -0.2533  0.2429  0.2729
  512TIP3    H1 1500   1.546   0.163   0.118  1.6839  0.5901  0.9282
  512TIP3    H2 1501   1.575   0.092  -0.013  1.0814 -0.1519  1.1829
  513TIP3   OH2 1502   3.250   4.710   5.357 -0.6920  0.9940  0.3241
  513TIP3    H1 1503   3.211   4.627   5.385 -0.4804  0.2125 -1.5383
  513TIP3    H2 1504   3.186   4.776   5.383 -1.0523  0.2296  1.4950
  514TIP3   OH2 1505   4.528   2.817   1.634 -0.3672 -0.5822  0.2230
  514TIP3    H1 1506   4.592   2.871   1.681 -1.0712  1.2661 -0.8378
  514TIP3    H2 1507   4.450   2.872   1.627 -2.0435 -2.6671  1.2187
  515TIP3   OH2 1508   2.259   6.578   0.903 -0.0732 -0.3343 -0.3051
  515TIP3    H1 1509   2.333   6.603   0.848 -0.1838 -0.0907 -0.3477
  515TIP3    H2 1510   2.202   6.655   0.902 -1.3192 -1.1910 -1.9111
  516TIP3   OH2 1511   1.592   0.687   3.269  0.3659  0.4712  0.1370
  516TIP3    H1 1512   1.550   0.612   3.311  2.1706  0.3229  1.8065
  516TIP3    H2 1513   1.591   0.666   3.176 -0.4784 -0.9323  0.4287
  517TIP3   OH2 1514   6.980   6.698   1.376 -0.2456  0.4021 -0.2984
  517TIP3    H1 1515   6.895   6.669   1.342 -1.6425  3.1655  0.5703
  517TIP3    H2 1516   6.990   6.652   1.459 -0.1322 -1.0711 -1.0959
  518TIP3   OH2 1517   2.754   0.166   5.060  0.1105  0.5570  0.4540
  518TIP3    H1 1518   2.703   0.202   4.987  0.5444  1.3527  0.5280
  518TIP3    H2 1519   2.835   0.217   5.060  0.9674 -0.7715  0.2659
  519TIP3   OH2 1520   2.194   4.770   3.958 -0.1599  0.0013 -0.2987
  519TIP3    H1 1521   2.205   4.754   4.052 -0.3970 -0.1395 -0.2935
  519TIP3    H2 1522   2.264   4.831   3.936 -0.7106  0.8391  0.1888
  520TIP3   OH2 1523   4.607   5.612   2.438  0.8167 -0.3103  0.2457
  520TIP3    H1 1524   4.657   5.652   2.509  0.9042 -0.6793  0.3980
  520TIP3    H2 1525   4.641   5.522   2.433  1.0608 -0.1881 -0.4981
  521TIP3   OH2 1526   0.657   0.999   0.599 -0.0970  0.3646  0.0747
  521TIP3    H1 1527   0.628   0.912   0.627 -2.1881  0.9624 -0.0722
  521TIP3    H2 1528   0.738   0.983   0.550  1.0910 -1.1835  2.3570
  522TIP3   OH2 1529   5.704   4.831   1.343 -0.0747 -0.3353  0.4234
  522TIP3    H1 1530   5.777   4.882   1.310  0.4305 -0.6734  1.0168
  522TIP3    H2 1531   5.742   4.747   1.370 -0.7223 -0.6357  0.4530
  523TIP3   OH2 1532   4.710   2.349   2.401  0.1458 -0.0471  0.3080
  523TIP3    H1 1533   4.690   2.376   2.491  2.8443  1.4541  0.5508
  523TIP3    H2 1534   4.650   2.400   2.347 -0.2521  0.4167  1.1634
  524TIP3   OH2 1535   5.983   0.912   0.061  0.2655 -0.2355  0.1330
  524TIP3    H1 1536   5.901   0.874   0.029 -0.4250  0.3254  1.1925
  524TIP3    H2 1537   5.975   1.006   0.043  1.5325 -0.3972 -1.5460
  525TIP3   OH2 1538   7.103   0.406   0.100 -0.3961  0.1220 -0.2280
  525TIP3    H1 1539   7.068   0.360   0.176  1.4352 -1.2988 -0.1714
  525TIP3    H2 1540   7.151   0.480   0.138 -3.2942  2.2195 -0.3175
  526TIP3   OH2 1541   5.936   6.236   1.582 -0.5359  0.3434 -0.6445
  526TIP3    H1 1542   5.949   6.164   1.644  1.2154  0.3530 -0.9519
  526TIP3    H2 1543   5.855   6.278   1.610 -0.2587 -0.2081  1.0801
  527TIP3   OH2 1544   5.528   4.867   3.055 -0.0225 -0.0045  0.1733
  527TIP3    H1 1545   5.447   4.896   3.097 -0.3391 -0.4689 -0.1014
  527TIP3    H2 1546   5.538   4.926   2.980 -1.0916 -1.0496 -0.8528
  528TIP3   OH2 1547   4.152   5.793   4.186 -0.1847 -0.0077 -0.1941
  528TIP3    H1 1548   4.100   5.733   4.240 -0.5283 -1.0263 -1.6015
  528TIP3    H2 1549   4.210   5.836   4.248  0.9160 -2.6710  0.7703
  529TIP3   OH2 1550   3.512   6.050   4.731  0.3285 -0.0896 -0.2865
  529TIP3    H1 1551   3.545   6.098   4.807  1.2230 -1.5229  0.2675
  529TIP3    H2 1552   3.422   6.081   4.720  0.6277  1.1223  0.5247
  530TIP3   OH2 1553   7.080   4.123   2.140 -0.6893  0.1291  0.0125
  530TIP3    H1 1554   7.057   4.178   2.065  0.4151 -0.7431 -1.0107
  530TIP3    H2 1555   7.047   4.036   2.117 -1.3482  0.0803  1.0673
  531TIP3   OH2 1556   0.327   1.068   1.578  0.2624 -0.0487 -0.4069
  531TIP3    H1 1557   0.324   1.156   1.540  1.8964 -0.2248 -0.9957
  531TIP3    H2 1558   0.269   1.016   1.522  0.5023  0.3111 -0.9995
  532TIP3   OH2 1559   3.230   5.961   0.613  0.3427  0.0665 -0.1263
  532TIP3    H1 1560   3.138   5.980   0.630  0.5432  0.6690  0.3279
  532TIP3    H2 1561   3.233   5.866   0.600 -0.1378 -0.1319  1.1383
  533TIP3   OH2 1562   0.891   2.542   1.383 -0.7324 -0.5514 -0.3751
  533TIP3    H1 1563   0.890   2.537   1.287 -0.6830  1.0716 -0.4959
  533TIP3    H2 1564   0.956   2.477   1.409 -1.3208 -1.5820 -1.3786
  534TIP3   OH2 1565   3.060   0.776   1.764 -0.1063 -0.5081 -0.1232
  534TIP3    H1 1566   3.139   0.731   1.734  0.5209 -0.9382  2.0146
  534TIP3    H2 1567   3.015   0.711   1.818  1.0694  1.3730  3.4730
  535TIP3   OH2 1568   3.563   5.372   3.669  0.0200 -0.7476  0.0150
  535TIP3    H1 1569   3.569   5.387   3.763  1.4290 -2.7528  0.3081
  535TIP3    H2 1570   3.620   5.439   3.630 -2.3018  1.5367  0.3462
  536TIP3   OH2 1571   4.489   1.588   5.213 -0.0589  0.6094 -0.1017
  536TIP3    H1 1572   4.583   1.599   5.220  0.0141  0.7619 -1.1743
  536TIP3    H2 1573   4.466   1.626   5.129 -1.2408  1.5213  0.6034
  537TIP3   OH2 1574   5.537   2.115   3.375  0.2894 -0.1316  0.2730
  537TIP3    H1 1575   5.452   2.138   3.336  0.1190 -0.6190  0.3600
  537TIP3    H2 1576   5.528   2.024   3.404  0.6873 -0.0437  0.7053
  538TIP3   OH2 1577   5.097   2.968   4.590  0.0167 -0.3400  0.7094
  538TIP3    H1 1578   5.128   3.052   4.625  1.2562  0.5889 -2.2480
  538TIP3    H2 1579   5.064   2.921   4.666 -2.7110  3.6151  2.3013
  539TIP3   OH2 1580   3.838   0.166   3.819 -0.2543 -0.4464  0.0628
  539TIP3    H1 1581   3.751   0.160   3.858  0.1522 -0.2579  1.0111
  539TIP3    H2 1582   3.834   0.243   3.763 -0.9609 -0.9435 -0.5946
  540TIP3   OH2 1583   3.364   2.057   3.700 -0.5405 -0.1494 -0.1489
  540TIP3    H1 1584   3.354   2.095   3.612  0.6160 -0.0981 -0.2724
  540TIP3    H2 1585   3.355   1.962   3.686  3.1334 -0.5286 -0.9805
  541TIP3   OH2 1586   5.465   3.156   1.322  0.2926  0.0782  0.1218
  541TIP3    H1 1587   5.475   3.248   1.346  1.1116  0.0805 -0.2134
  541TIP3    H2 1588   5.549   3.116   1.342  0.4009 -0.3009 -1.0421
  542TIP3   OH2 1589   3.483   2.666   4.784  0.2576 -0.2928  0.1216
  542TIP3    H1 1590   3.501   2.696   4.695 -0.7076 -2.1182 -0.7429
  542TIP3    H2 1591   3.395   2.630   4.780 -0.6695  1.4282  2.3587
  543TIP3   OH2 1592   0.428   0.710   5.695  0.3609  0.8959  0.3315
  543TIP3    H1 1593   0.366   0.764   5.646  0.1007  0.8881  0.6578
  543TIP3    H2 1594   0.377   0.635   5.725  0.6945  0.5250 -0.0182
  544TIP3   OH2 1595   0.100   5.183   5.643 -0.0475  0.1235 -0.5449
  544TIP3    H1 1596   0.106   5.116   5.711 -1.6940  0.7157  0.2352
  544TIP3    H2 1597   0.174   5.241   5.660  1.3942 -1.4045 -1.2137
  545TIP3   OH2 1598   1.110   1.951   2.222 -0.7696  0.0029 -0.6974
  545TIP3    H1 1599   1.122   1.886   2.153  2.0321 -0.8146  0.4095
  545TIP3    H2 1600   1.188   2.006   2.216 -2.0608  1.9763 -0.2321
  546TIP3   OH2 1601   0.939   4.448   1.781  0.3573 -0.2821 -0.4997
  546TIP3    H1 1602   0.881   4.463   1.855 -0.9972 -0.2523 -1.5377
  546TIP3    H2 1603   1.025   4.478   1.811 -0.1523 -0.3198  1.0582
  547TIP3   OH2 1604   6.938   3.803   1.420 -0.3775 -0.3206 -0.2419
  547TIP3    H1 1605   6.967   3.840   1.336 -0.9149  2.0582  0.5548
  547TIP3    H2 1606   6.843   3.793   1.410 -0.2320 -1.6948 -0.4810
  548TIP3   OH2 1607   3.665   5.101   2.292  0.2955  0.0481  0.2443
  548TIP3    H1 1608   3.643   5.119   2.200 -1.2059 -0.5348  0.4687
  548TIP3    H2 1609   3.627   5.175   2.340  2.5849  1.2885  0.2838
  549TIP3   OH2 1610   3.987   3.101   3.449  0.0256 -0.1104 -0.1079
  549TIP3    H1 1611   4.007   3.166   3.516 -1.2833 -0.4164  0.6139
  549TIP3    H2 1612   3.993   3.017   3.494  0.4637 -0.4186 -0.7181
  550TIP3   OH2 1613   1.227   1.611   0.569  0.1028 -0.9174  0.0876
  550TIP3    H1 1614   1.249   1.519   0.583 -0.3658 -0.8666  1.2492
  550TIP3    H2 1615   1.238   1.652   0.655 -1.0912 -0.1789 -0.0887
  551TIP3   OH2 1616   1.952   5.028   3.530  0.4521 -0.8123 -0.0011
  551TIP3    H1 1617   1.956   4.970   3.454 -0.0322 -0.9988  0.1138
  551TIP3    H2 1618   2.031   5.008   3.580 -0.0575 -1.8737  0.3982
  552TIP3   OH2 1619   7.166   0.193   3.393 -0.1797  0.2050 -0.0168
  552TIP3    H1 1620   7.254   0.160   3.409 -0.1405 -0.2371 -1.0357
  552TIP3    H2 1621   7.146   0.165   3.303 -1.6159 -0.2795  0.4249
  553TIP3   OH2 1622   1.260   2.203   5.600 -0.1972 -0.3175  0.5300
  553TIP3    H1 1623   1.300   2.274   5.649 -0.8371  0.6312 -0.2946
  553TIP3    H2 1624   1.237   2.241   5.516  1.2373 -2.0115 -0.7020
  554TIP3   OH2 1625   0.493   1.824   0.731  0.3363 -0.4970  0.1826
  554TIP3    H1 1626   0.426   1.770   0.688 -0.0515 -0.9170  1.2634
  554TIP3    H2 1627   0.565   1.828   0.668  0.1035 -1.7312 -0.1988
  555TIP3   OH2 1628   5.917   0.026   1.900 -0.2311  0.3413  0.2791
  555TIP3    H1 1629   5.854   0.096   1.883  0.6014  0.6629 -1.7658
  555TIP3    H2 1630   5.961   0.052   1.981 -3.1119 -0.2518  2.1890
  556TIP3   OH2 1631   6.215   6.678   4.704  0.1046 -0.1505  1.1075
  556TIP3    H1 1632   6.297   6.685   4.753  1.8536 -0.9861 -1.4946
  556TIP3    H2 1633   6.199   6.584   4.698  0.5052 -0.1219 -0.7460
  557TIP3   OH2 1634   1.386   6.470   1.934  0.5761 -0.1897 -0.0538
  557TIP3    H1 1635   1.425   6.473   2.021 -0.5848  0.0954  0.4819
  557TIP3    H2 1636   1.362   6.561   1.914  0.2563 -0.3411 -0.3909
  558TIP3   OH2 1637   2.305   5.089   0.396 -0.2544 -0.2974  0.0913
  558TIP3    H1 1638   2.238   5.091   0.464 -0.8690 -0.4204 -0.5066
  558TIP3    H2 1639   2.275   5.151   0.330  0.2250 -0.3489 -0.1818
  559TIP3   OH2 1640   5.425   5.833   5.518 -0.5501  0.0095  0.3365
  559TIP3    H1 1641   5.405   5.752   5.566 -1.7692  0.3854  0.5058
  559TIP3    H2 1642   5.466   5.890   5.583 -0.7345 -0.0604  0.5153
  560TIP3   OH2 1643   4.281   0.288   2.798  0.3072 -0.6438  0.1258
  560TIP3    H1 1644   4.341   0.363   2.789 -0.1433 -0.1363  1.1697
  560TIP3    H2 1645   4.224   0.294   2.722  0.5024 -0.1385  0.0153
  561TIP3   OH2 1646   1.596   3.305   0.585 -0.5017  0.5160  0.4023
  561TIP3    H1 1647   1.514   3.308   0.535 -1.1796  0.2671  1.4612
  561TIP3    H2 1648   1.599   3.216   0.621  0.1604  0.5738  0.5049
  562TIP3   OH2 1649   4.698   5.890   3.792  0.6037 -0.1963 -0.1950
  562TIP3    H1 1650   4.673   5.980   3.814  0.1559 -0.5960  0.9904
  562TIP3    H2 1651   4.673   5.839   3.868 -2.2325 -1.8882 -2.0894
  563TIP3   OH2 1652   5.783   6.011   3.592 -0.3653 -0.0143  0.6753
  563TIP3    H1 1653   5.818   5.924   3.613 -0.7711 -0.1531  0.7839
  563TIP3    H2 1654   5.703   5.993   3.543  0.4476  0.2991 -0.8265
  564TIP3   OH2 1655   4.768   3.236   0.255 -0.4154  0.3436  0.3611
  564TIP3    H1 1656   4.702   3.258   0.189  2.4143 -1.0178 -3.2624
  564TIP3    H2 1657   4.772   3.141   0.253  0.1522  0.3051  2.1763
  565TIP3   OH2 1658   4.443   3.417   2.693  0.3761  0.4694  0.6257
  565TIP3    H1 1659   4.493   3.499   2.697  1.3811 -0.0404 -0.6609
  565TIP3    H2 1660   4.445   3.393   2.600 -0.7767 -0.4859  0.8330
  566TIP3   OH2 1661   2.471   4.252   1.864 -0.1441  0.1921 -0.2139
  566TIP3    H1 1662   2.402   4.314   1.841  0.6516  2.3416  2.6201
  566TIP3    H2 1663   2.550   4.288   1.825 -0.1362 -0.6680 -1.0092
  567TIP3   OH2 1664   4.181   2.874   3.182 -0.0683 -0.0361 -0.4163
  567TIP3    H1 1665   4.245   2.833   3.240 -0.6703 -0.4221 -0.0096
  567TIP3    H2 1666   4.163   2.807   3.115 -1.7256 -0.8419  0.7546
  568TIP3   OH2 1667   5.682   6.085   1.876  0.3731 -0.8278  0.4124
  568TIP3    H1 1668   5.748   6.017   1.888  0.5397 -0.5781  0.9359
  568TIP3    H2 1669   5.712   6.158   1.930  0.6136 -0.0309 -0.7601
  569TIP3   OH2 1670   1.768   6.070   0.675  0.3133 -0.4400 -0.3282
  569TIP3    H1 1671   1.805   5.984   0.693  0.6345 -0.4314 -0.9034
  569TIP3    H2 1672   1.807   6.095   0.591  1.0756  0.7331  0.3501
  570TIP3   OH2 1673   7.065   5.226   3.983 -0.3197 -0.2494  0.1148
  570TIP3    H1 1674   7.064   5.312   4.026 -1.1323 -0.3364  0.2897
  570TIP3    H2 1675   7.148   5.186   4.011 -1.2929 -0.7472  2.5645
  571TIP3   OH2 1676   0.201   2.626   1.831  0.3443 -0.1720 -0.0680
  571TIP3    H1 1677   0.225   2.624   1.738  0.7146 -1.7071  0.0271
  571TIP3    H2 1678   0.134   2.694   1.837 -1.4116 -1.5982 -1.9406
  572TIP3   OH2 1679   3.591   6.507   3.593 -0.1620  0.2065  0.2374
  572TIP3    H1 1680   3.616   6.436   3.653 -0.0324 -1.1215 -1.3154
  572TIP3    H2 1681   3.644   6.492   3.515  0.5269  2.5764  0.1729
  573TIP3   OH2 1682   2.041   5.281   5.863 -0.6256  0.1184  0.1238
  573TIP3    H1 1683   1.961   5.318   5.900 -1.2609  1.7030 -2.5694
  573TIP3    H2 1684   2.014   5.199   5.823 -0.8234  0.4386 -0.4040
  574TIP3   OH2 1685   6.811   5.236   5.157  0.4058 -0.1089  0.3737
  574TIP3    H1 1686   6.867   5.213   5.083  0.0842  1.1291 -0.2757
  574TIP3    H2 1687   6.723   5.213   5.130  0.3113  0.1524  0.4563
  575TIP3   OH2 1688   2.470   0.835   0.448 -0.0606 -0.4026 -0.5920
  575TIP3    H1 1689   2.461   0.791   0.532 -1.7425  2.4815  0.9307
  575TIP3    H2 1690   2.381   0.836   0.411  0.4056 -0.4762 -1.7627
  576TIP3   OH2 1691   4.241   1.576   3.683 -0.4036  0.7455 -0.3476
  576TIP3    H1 1692   4.186   1.502   3.708 -0.7507  1.0484 -0.2094
  576TIP3    H2 1693   4.181   1.638   3.642 -0.6213  2.0856  1.8140
  577TIP3   OH2 1694   3.505   1.420   3.401 -0.0046  0.2040  0.4205
  577TIP3    H1 1695   3.577   1.359   3.387 -1.2677 -1.1743 -0.3236
  577TIP3    H2 1696   3.426   1.365   3.404 -1.1170  1.7158  0.5221
  578TIP3   OH2 1697   4.452   1.156   4.068 -0.4691  0.3474 -0.2298
  578TIP3    H1 1698   4.369   1.143   4.023  0.6164  0.9761 -2.5234
  578TIP3    H2 1699   4.451   1.247   4.096  0.2318  0.9539 -2.0576
  579TIP3   OH2 1700   4.345   2.201   5.847  0.0090  0.7315 -0.1064
  579TIP3    H1 1701   4.275   2.220   5.785 -0.6638 -0.4064  0.2570
  579TIP3    H2 1702   4.326   2.256   5.923  0.4199  1.5875 -0.6115
  580TIP3   OH2 1703   6.030   1.911   5.000 -0.4201 -0.2032  0.6186
  580TIP3    H1 1704   6.069   1.826   5.020 -1.8202 -1.1166 -0.2487
  580TIP3    H2 1705   6.071   1.938   4.918 -0.9476 -0.7523  0.1558
  581TIP3   OH2 1706   1.040   1.814   3.950  0.5293 -0.3002  0.1583
  581TIP3    H1 1707   1.026   1.788   4.042 -1.8796  1.9219  0.5440
  581TIP3    H2 1708   1.077   1.902   3.956  0.3100 -0.1193 -1.0179
  582TIP3   OH2 1709   1.171   0.297   3.895 -0.2872 -0.2449  0.1433
  582TIP3    H1 1710   1.080   0.321   3.879 -0.1085  0.2168 -0.2266
  582TIP3    H2 1711   1.179   0.208   3.861  0.0275  0.6416 -2.3170
  583TIP3   OH2 1712   2.644   1.532   1.077  0.4247 -0.0359  0.4808
  583TIP3    H1 1713   2.697   1.498   1.005 -1.3533 -1.4231 -0.2518
  583TIP3    H2 1714   2.582   1.591   1.036 -0.7973 -1.0640  0.7684
  584TIP3   OH2 1715   0.206   1.174   1.897  0.6055 -0.0813 -0.1739
  584TIP3    H1 1716   0.186   1.081   1.884 -0.0507 -0.0294  0.4206
  584TIP3    H2 1717   0.156   1.219   1.829 -0.2756 -0.0522  0.4858
  585TIP3   OH2 1718   1.050   4.029   2.910 -0.2189 -0.3969 -0.9442
  585TIP3    H1 1719   1.034   3.936   2.899  0.0141 -0.1575 -4.1204
  585TIP3    H2 1720   0.967   4.063   2.946  0.0206 -1.8738  1.1794
  586TIP3   OH2 1721   6.854   4.316   3.920 -0.1408  0.0064  0.8408
  586TIP3    H1 1722   6.776   4.344   3.872  0.1366 -0.7370 -0.0719
  586TIP3    H2 1723   6.862   4.223   3.902  1.6191  0.2796 -0.0799
  587TIP3   OH2 1724   4.920   0.056   2.916 -0.4390 -0.0985  0.7326
  587TIP3    H1 1725   4.963   0.063   2.830 -1.0956  2.3604  0.5209
  587TIP3    H2 1726   4.985   0.014   2.972  0.2760 -1.1006 -0.7916
  588TIP3   OH2 1727   4.598   4.938   0.978  0.2250  0.2072 -0.3900
  588TIP3    H1 1728   4.636   4.973   0.897  0.3578  0.7471 -0.1048
  588TIP3    H2 1729   4.510   4.975   0.982  0.1640  0.0602 -0.3664
  589TIP3   OH2 1730   6.170   4.555   4.432 -0.1349 -0.6571 -0.3928
  589TIP3    H1 1731   6.151   4.479   4.487 -0.4139 -0.3636 -0.0785
  589TIP3    H2 1732   6.223   4.612   4.486 -0.0372 -0.5663 -0.5830
  590TIP3   OH2 1733   3.831   0.612   4.677  0.0965 -1.0545 -0.3079
  590TIP3    H1 1734   3.907   0.553   4.686 -0.5637 -1.8272  0.4018
  590TIP3    H2 1735   3.797   0.620   4.766  0.6901  1.1437 -0.2314
  591TIP3   OH2 1736   5.117   0.996   2.496  0.6277 -0.3233  0.3906
  591TIP3    H1 1737   5.029   0.974   2.524  0.3098 -0.0524 -0.3693
  591TIP3    H2 1738   5.125   1.090   2.511  0.8797 -0.3963  0.7110
  592TIP3   OH2 1739   0.802   2.488   0.656 -0.0082  0.0401  0.1917
  592TIP3    H1 1740   0.811   2.442   0.739  1.7869 -1.2920 -0.6567
  592TIP3    H2 1741   0.870   2.450   0.600  1.5770  3.6635 -0.6349
  593TIP3   OH2 1742   6.605   2.750   1.375  0.0380 -0.5196  0.1981
  593TIP3    H1 1743   6.663   2.675   1.366 -0.1840 -0.5578 -1.0818
  593TIP3    H2 1744   6.522   2.722   1.335 -1.2585 -0.8219  2.8397
  594TIP3   OH2 1745   0.580   0.872   2.577 -0.6277 -0.2813  0.1629
  594TIP3    H1 1746   0.568   0.856   2.483 -0.3289 -1.8374  0.3663
  594TIP3    H2 1747   0.496   0.907   2.606 -1.0023 -0.5769 -0.5323
  595TIP3   OH2 1748   1.701   6.734   0.927 -0.0004  0.6351  0.2271
  595TIP3    H1 1749   1.765   6.669   0.955 -0.0877 -0.0912 -1.2085
  595TIP3    H2 1750   1.745   6.818   0.941  0.9133  0.1837  0.1348
  596TIP3   OH2 1751   0.343   3.416   3.617  0.2466  0.0122 -0.0359
  596TIP3    H1 1752   0.354   3.402   3.523 -0.1232 -2.9921  0.2741
  596TIP3    H2 1753   0.421   3.376   3.656  0.6909  1.7471  0.9856
  597TIP3   OH2 1754   0.089   1.434   0.885  0.1038 -0.1270  0.4495
  597TIP3    H1 1755   0.081   1.529   0.879  1.1952 -0.0561 -0.1153
  597TIP3    H2 1756   0.012   1.400   0.840 -0.3343  0.4940  0.7312
  598TIP3   OH2 1757   2.002   6.730   1.661 -0.3433 -0.1675  0.1973
  598TIP3    H1 1758   1.992   6.825   1.662 -1.4299 -0.1974 -1.8777
  598TIP3    H2 1759   1.916   6.697   1.685 -0.1042 -0.6347  0.4223
  599TIP3   OH2 1760   5.937   2.155   5.099  0.1067 -0.2887 -0.4973
  599TIP3    H1 1761   5.978   2.075   5.065  0.6668  0.0151 -0.5556
  599TIP3    H2 1762   5.964   2.158   5.191 -2.7713 -2.0017  0.5383
  600TIP3   OH2 1763   6.825   1.406   3.594 -0.0707 -0.2149 -0.4715
  600TIP3    H1 1764   6.903   1.461   3.588 -0.5854  0.4877 -0.8156
  600TIP3    H2 1765   6.764   1.457   3.648 -0.9611  0.0603 -1.7109
  601TIP3   OH2 1766   7.166   2.195   3.985 -0.6548 -0.7989 -0.5222
  601TIP3    H1 1767   7.231   2.215   3.919 -0.3435 -0.2616 -0.0634
  601TIP3    H2 1768   7.195   2.242   4.063 -1.8163 -0.1939 -0.4283
  602TIP3   OH2 1769   1.373   1.937   2.776  0.3831  0.3325 -0.0214
  602TIP3    H1 1770   1.320   1.879   2.722 -1.2357  1.8805 -0.1999
  602TIP3    H2 1771   1.428   1.984   2.715  2.2873 -1.4901  0.1888
  603TIP3   OH2 1772   5.735   6.681   3.280 -0.0375 -0.6941 -0.0328
  603TIP3    H1 1773   5.734   6.768   3.241  0.0955 -1.1461 -1.0740
  603TIP3    H2 1774   5.805   6.685   3.346  0.8584 -0.3939 -0.9823
  604TIP3   OH2 1775   0.605   0.220   2.216  0.0544  0.6750 -0.8999
  604TIP3    H1 1776   0.630   0.308   2.244 -0.9245  0.7504 -0.2030
  604TIP3    H2 1777   0.680   0.188   2.167 -0.0300  2.3528 -2.2046
  605TIP3   OH2 1778   3.975   6.046   3.324  0.2167 -0.2199 -0.2095
  605TIP3    H1 1779   3.964   6.097   3.244  0.5239  1.1554  0.5929
  605TIP3    H2 1780   4.069   6.044   3.338  0.1802 -0.6770 -0.0089
  606TIP3   OH2 1781   1.839   5.797   1.927  0.3765 -0.0694 -0.1883
  606TIP3    H1 1782   1.771   5.740   1.963 -0.0665  1.5562  1.7194
  606TIP3    H2 1783   1.801   5.833   1.847 -0.0410 -1.0302 -0.4291
  607TIP3   OH2 1784   4.973   4.775   2.077 -0.3938 -0.6133  0.6313
  607TIP3    H1 1785   4.896   4.723   2.053  0.2895 -1.4214  0.1147
  607TIP3    H2 1786   5.029   4.713   2.124  1.0046 -0.7151 -1.1087
  608TIP3   OH2 1787   1.322   6.580   5.237 -0.5221 -0.6378  0.5099
  608TIP3    H1 1788   1.316   6.509   5.301 -0.6072 -0.5402  0.6104
  608TIP3    H2 1789   1.412   6.612   5.245 -0.1894 -1.3619 -0.2043
  609TIP3   OH2 1790   0.294   4.969   0.630 -0.0175  0.0789  0.0854
  609TIP3    H1 1791   0.240   4.928   0.698 -2.8348  3.8143  0.4653
  609TIP3    H2 1792   0.238   4.971   0.552  0.3209  2.1751 -0.1700
  610TIP3   OH2 1793   0.800   0.303   5.760 -0.3044  0.5315 -0.2614
  610TIP3    H1 1794   0.851   0.356   5.821  0.0637  0.6083 -0.6308
  610TIP3    H2 1795   0.709   0.317   5.786 -0.0752 -1.6672  2.1098
  611TIP3   OH2 1796   2.151   4.961   3.693 -0.1082 -0.5676  0.1510
  611TIP3    H1 1797   2.218   4.895   3.678  1.8328  1.2287  0.4359
  611TIP3    H2 1798   2.183   5.011   3.769 -1.1558  1.0775 -0.4302
  612TIP3   OH2 1799   4.975   5.324   3.220 -0.6564 -0.4459 -0.3741
  612TIP3    H1 1800   4.936   5.402   3.259 -0.3773 -0.7908  0.6318
  612TIP3    H2 1801   4.941   5.251   3.272  0.6114 -0.8256 -0.0426
  613TIP3   OH2 1802   0.824   5.195   3.892  0.0781  0.3066  0.1196
  613TIP3    H1 1803   0.893   5.155   3.839 -0.2309  0.7349 -0.6295
  613TIP3    H2 1804   0.821   5.286   3.862  0.6337  0.8487  1.6564
  614TIP3   OH2 1805   1.141   6.529   3.454 -0.6978  0.8596 -0.3147
  614TIP3    H1 1806   1.236   6.519   3.462 -0.9813 -3.0554  0.3648
  614TIP3    H2 1807   1.125   6.541   3.361  0.4604  2.2676 -0.3546
  615TIP3   OH2 1808   0.309   6.260   4.693  0.3429 -0.0672 -0.2407
  615TIP3    H1 1809   0.331   6.288   4.782 -0.5100 -0.3456  0.0685
  615TIP3    H2 1810   0.310   6.164   4.698 -0.6832 -0.0871 -0.2699
  616TIP3   OH2 1811   2.132   1.716   0.331  0.2584 -0.3355  0.3610
  616TIP3    H1 1812   2.079   1.736   0.254 -0.2532 -0.0292  0.7905
  616TIP3    H2 1813   2.077   1.739   0.406  1.6565  1.8380  0.8275
  617TIP3   OH2 1814   2.778   1.488   4.285 -0.1130 -0.0706  0.1291
  617TIP3    H1 1815   2.780   1.573   4.328  1.1821  1.3751 -2.5205
  617TIP3    H2 1816   2.705   1.493   4.224 -1.5486 -1.8458  1.5894
  618TIP3   OH2 1817   2.798   2.995   1.975  0.2168 -0.0641 -0.6975
  618TIP3    H1 1818   2.745   3.071   1.950  1.6563  0.7563 -1.4218
  618TIP3    H2 1819   2.869   3.032   2.028  0.1331 -1.1130  0.1649
  619TIP3   OH2 1820   3.643   1.977   2.641  0.1434 -0.2639 -0.0027
  619TIP3    H1 1821   3.604   2.047   2.587  1.9313 -0.2338 -1.3458
  619TIP3    H2 1822   3.603   1.897   2.609 -0.7283 -0.0161  0.4389
  620TIP3   OH2 1823   4.723   5.363   5.817 -0.0300 -0.5257 -0.1692
  620TIP3    H1 1824   4.758   5.359   5.906 -0.6956  2.7911  0.3785
  620TIP3    H2 1825   4.755   5.446   5.782 -1.6667 -0.6633 -2.2126
  621TIP3   OH2 1826   1.906   5.011   3.821  0.2798 -0.4812 -0.6935
  621TIP3    H1 1827   1.873   4.922   3.832  0.9042 -0.5734  0.6547
  621TIP3    H2 1828   1.964   5.006   3.745  1.3072 -1.5378  0.1244
  622TIP3   OH2 1829   6.259   4.888   0.102 -0.0713 -0.0156  0.3335
  622TIP3    H1 1830   6.322   4.837   0.153 -1.1899 -0.0859  1.6833
  622TIP3    H2 1831   6.197   4.823   0.069 -1.3738  0.4099  1.8724
  623TIP3   OH2 1832   2.514   3.687   5.846  0.3143  0.1250  0.4630
  623TIP3    H1 1833   2.500   3.781   5.854 -1.2274  0.1487 -1.7752
  623TIP3    H2 1834   2.427   3.649   5.839  0.9258 -1.4421  0.7659
  624TIP3   OH2 1835   3.598   5.170   0.390 -0.4418  0.3140  0.8190
  624TIP3    H1 1836   3.585   5.124   0.307 -1.5132  2.1925 -0.1159
  624TIP3    H2 1837   3.693   5.180   0.397  0.0305 -3.3270  1.8939
  625TIP3   OH2 1838   4.556   2.504   5.382 -0.4611  0.3890 -0.3073
  625TIP3    H1 1839   4.500   2.473   5.311 -0.9380  0.1930  0.1439
  625TIP3    H2 1840   4.495   2.529   5.451  0.0012 -2.4365  1.2810
  626TIP3   OH2 1841   1.123   2.552   4.303 -0.5257 -0.2806  0.0764
  626TIP3    H1 1842   1.039   2.529   4.343  0.0391 -1.2468  0.7651
  626TIP3    H2 1843   1.172   2.595   4.373  0.1689 -1.2435  0.2029
  627TIP3   OH2 1844   5.693   4.509   0.266 -0.1743  0.1884  0.4730
  627TIP3    H1 1845   5.682   4.579   0.330  1.2183  0.6742  0.2110
  627TIP3    H2 1846   5.605   4.474   0.253 -0.6691  0.9474  1.6655
  628TIP3   OH2 1847   3.900   5.738   0.090  0.0842 -0.1606  0.0089
  628TIP3    H1 1848   3.905   5.670   0.157 -1.9617 -1.1571 -0.7695
  628TIP3    H2 1849   3.991   5.753   0.064  0.8673 -0.1720  2.5480
  629TIP3   OH2 1850   2.471   0.085   0.742 -0.2358  0.1830 -0.5787
  629TIP3    H1 1851   2.557   0.093   0.783 -0.5352 -1.9075  0.6116
  629TIP3    H2 1852   2.409   0.115   0.810 -0.7357 -3.3025  0.7390
  630TIP3   OH2 1853   2.993   0.714   2.566 -0.1108 -0.6908  0.6960
  630TIP3    H1 1854   2.986   0.623   2.593  1.1036 -1.1932 -0.5759
  630TIP3    H2 1855   3.074   0.718   2.516 -0.6957  0.8539 -0.1922
  631TIP3   OH2 1856   5.006   1.210   3.497  0.0321  0.6143  0.2325
  631TIP3    H1 1857   4.965   1.264   3.429  1.3105  2.2709  0.7050
  631TIP3    H2 1858   5.048   1.273   3.555 -0.9129 -0.7497  2.5397
  632TIP3   OH2 1859   1.045   1.584   5.677 -0.2496  0.7410 -0.1315
  632TIP3    H1 1860   1.058   1.634   5.596  0.2704  1.9780  0.6755
  632TIP3    H2 1861   1.132   1.548   5.697 -0.2451  0.9151  0.1677
  633TIP3   OH2 1862   2.334   0.399   2.993 -1.0028 -0.1666 -0.1681
  633TIP3    H1 1863   2.323   0.305   3.005 -1.1120  0.1014  2.2453
  633TIP3    H2 1864   2.426   0.409   2.967 -0.9730 -0.9098 -0.3798
  634TIP3   OH2 1865   2.714   4.718   4.136  0.4221  0.0468 -0.3405
  634TIP3    H1 1866   2.758   4.690   4.055 -0.8222  0.2633 -1.1204
  634TIP3    H2 1867   2.716   4.814   4.132  0.7062  0.0581  0.0827
  635TIP3   OH2 1868   4.706   5.750   5.565 -0.0571  0.1052 -0.1588
  635TIP3    H1 1869   4.634   5.695   5.596 -0.0550 -0.1473 -0.5944
  635TIP3    H2 1870   4.730   5.713   5.480 -1.3344  1.8847 -1.4008
  636TIP3   OH2 1871   4.874   0.449   0.388 -0.2351 -0.0868  0.0122
  636TIP3    H1 1872   4.921   0.464   0.306 -1.8592  0.5865 -0.8562
  636TIP3    H2 1873   4.832   0.363   0.376 -1.0051  0.3001 -0.1685
  637TIP3   OH2 1874   1.251   2.690   4.538  0.0277  0.3292  0.1244
  637TIP3    H1 1875   1.305   2.758   4.498  0.8125 -0.3445  0.0152
  637TIP3    H2 1876   1.280   2.688   4.629  0.9769 -0.7680 -0.1761
  638TIP3   OH2 1877   4.140   0.951   3.477  0.2959  0.1576  0.0478
  638TIP3    H1 1878   4.233   0.932   3.462 -0.1369 -1.7925 -0.4515
  638TIP3    H2 1879   4.117   0.897   3.552 -0.6553 -0.0930 -0.4176
  639TIP3   OH2 1880   6.877   2.543   5.723 -0.0438 -0.6083 -0.5039
  639TIP3    H1 1881   6.802   2.488   5.745 -0.0808 -0.1792  0.4894
  639TIP3    H2 1882   6.908   2.577   5.807 -1.0878  2.2608 -1.1737
  640TIP3   OH2 1883   4.529   2.312   1.520  0.4684 -0.1535  0.6257
  640TIP3    H1 1884   4.441   2.295   1.555 -0.1461  0.5640 -0.4775
  640TIP3    H2 1885   4.569   2.371   1.583  0.3480 -0.8746  1.3908
  641TIP3   OH2 1886   1.495   2.827   1.490  0.5032  0.2135 -0.7260
  641TIP3    H1 1887   1.566   2.806   1.430  1.0141  0.4812 -0.2210
  641TIP3    H2 1888   1.422   2.851   1.433  0.8179 -0.0619 -1.2474
  642TIP3   OH2 1889   5.840   1.143   4.274 -0.0427  0.1114  0.1538
  642TIP3    H1 1890   5.922   1.094   4.271  0.7256  1.4008 -1.6313
  642TIP3    H2 1891   5.836   1.189   4.190 -2.7777 -0.1758  0.0352
  643TIP3   OH2 1892   2.861   6.320   0.848 -0.0309 -0.1556  0.4026
  643TIP3    H1 1893   2.838   6.396   0.902  1.2150  1.4173 -1.1971
  643TIP3    H2 1894   2.907   6.262   0.909  0.0154  0.8732  1.4017
  644TIP3   OH2 1895   6.508   4.289   1.724 -0.1284 -0.3055  0.9376
  644TIP3    H1 1896   6.562   4.293   1.645 -1.3237  1.1729  0.1454
  644TIP3    H2 1897   6.569   4.306   1.795  0.4696  1.4639  0.0561
  645TIP3   OH2 1898   3.201   0.364   4.154  0.2745  0.2056  0.1115
  645TIP3    H1 1899   3.214   0.292   4.216  1.5371 -0.9661 -1.4028
  645TIP3    H2 1900   3.174   0.438   4.208 -2.6781 -1.7521  1.5983
  646TIP3   OH2 1901   2.075   0.148   4.660  0.5793 -0.5032  0.0322
  646TIP3    H1 1902   2.136   0.220   4.673 -0.7402  0.2772  2.6984
  646TIP3    H2 1903   1.993   0.190   4.635  0.5865 -1.3920 -1.6209
  647TIP3   OH2 1904   1.787   6.179   1.866  0.1533  0.3812  0.1191
  647TIP3    H1 1905   1.755   6.176   1.776  0.5834 -1.0654 -0.0243
  647TIP3    H2 1906   1.741   6.252   1.906 -0.1368  0.9754 -1.2404
  648TIP3   OH2 1907   2.585   2.739   0.215  0.2285  0.3735  0.1724
  648TIP3    H1 1908   2.673   2.768   0.239 -0.5181  2.5614  0.5197
  648TIP3    H2 1909   2.587   2.732   0.120  1.1707 -1.1305  0.2710
  649TIP3   OH2 1910   0.816   3.349   2.007  1.0910  0.1150  0.3609
  649TIP3    H1 1911   0.885   3.305   2.058  0.1842 -2.4524 -0.4595
  649TIP3    H2 1912   0.749   3.372   2.072  0.7561 -1.4678  0.6231
  650TIP3   OH2 1913   6.027   2.030   2.989  0.3750 -0.5717  0.3063
  650TIP3    H1 1914   6.076   2.027   3.072  1.2848 -0.7779 -0.2174
  650TIP3    H2 1915   6.062   1.956   2.939  1.4917  0.8595 -1.1517
  651TIP3   OH2 1916   5.521   0.599   4.709  0.1011  1.5425 -0.4208
  651TIP3    H1 1917   5.572   0.603   4.790 -1.3630  0.0427  0.6510
  651TIP3    H2 1918   5.443   0.652   4.727 -0.6691  0.4632 -0.4828
  652TIP3   OH2 1919   0.286   3.807   0.740 -0.1290  0.4320  0.0524
  652TIP3    H1 1920   0.253   3.856   0.815 -1.0099  0.6981 -0.4882
  652TIP3    H2 1921   0.351   3.747   0.777  0.0703  1.1459  0.8973
  653TIP3   OH2 1922   2.314   1.914   0.591  0.0895 -0.2407  0.1014
  653TIP3    H1 1923   2.260   1.926   0.513  0.3033 -1.2270 -0.2228
  653TIP3    H2 1924   2.254   1.880   0.657 -0.3728  1.8375  0.8056
  654TIP3   OH2 1925   5.976   6.626   3.399 -0.6737 -0.0016  0.4482
  654TIP3    H1 1926   6.069   6.609   3.415 -0.4668  0.9492  0.3211
  654TIP3    H2 1927   5.945   6.549   3.352  0.5466  0.5177 -1.3397
  655TIP3   OH2 1928   5.961   5.513   5.735  0.1966  0.2834  0.2124
  655TIP3    H1 1929   5.945   5.420   5.754 -1.6628  0.8401  1.6115
  655TIP3    H2 1930   5.893   5.537   5.673  0.3953  0.8378  0.2054
  656TIP3   OH2 1931   5.161   3.497   5.820  0.5755  0.8740  0.6674
  656TIP3    H1 1932   5.135   3.484   5.729 -0.6638  0.3153  1.0776
  656TIP3    H2 1933   5.157   3.591   5.834 -0.1046  0.8938  0.3749
  657TIP3   OH2 1934   6.078   0.413   3.748  0.3852  0.3820  0.0259
  657TIP3    H1 1935   6.062   0.487   3.690  0.3174 -0.4269 -1.0120
  657TIP3    H2 1936   6.173   0.408   3.756  0.3728  0.9604  0.6168
  658TIP3   OH2 1937   5.852   1.543   2.687 -0.0967 -0.4043 -0.4226
  658TIP3    H1 1938   5.822   1.551   2.778 -0.4382  0.1388 -0.5760
  658TIP3    H2 1939   5.937   1.501   2.693  0.4202  0.6898  0.2393
  659TIP3   OH2 1940   1.038   4.410   5.231  0.4308  0.2691 -0.0240
  659TIP3    H1 1941   1.083   4.492   5.209 -1.7376  1.5299 -0.0501
  659TIP3    H2 1942   0.995   4.384   5.150  0.0368 -0.1900  0.3296
  660TIP3   OH2 1943   1.029   0.841   2.290 -0.1214  0.2509 -0.3654
  660TIP3    H1 1944   0.997   0.824   2.378  1.7918 -0.2229  0.2882
  660TIP3    H2 1945   1.053   0.755   2.256  0.1689  0.5547 -0.9371
  661TIP3   OH2 1946   5.007   6.774   1.926 -0.2366  0.2657  0.3460
  661TIP3    H1 1947   5.065   6.781   1.850 -0.8089  0.0947 -0.1262
  661TIP3    H2 1948   5.065   6.766   2.001  0.3503  1.1647 -0.0003
  662TIP3   OH2 1949   6.130   4.956   0.336 -0.2017  0.0981  0.0626
  662TIP3    H1 1950   6.186   4.929   0.263  0.2772 -1.2430  0.8827
  662TIP3    H2 1951   6.042   4.935   0.306 -0.0834  0.2613 -0.4209
  663TIP3   OH2 1952   1.896   5.373   1.903 -0.5933  0.1780  0.6293
  663TIP3    H1 1953   1.917   5.357   1.995  1.4265 -1.9653 -0.1191
  663TIP3    H2 1954   1.961   5.437   1.874  0.2315 -0.8631  0.1487
  664TIP3   OH2 1955   3.880   1.091   4.356 -0.1767  0.2623  0.2545
  664TIP3    H1 1956   3.895   1.002   4.388 -0.2567 -0.8185 -2.4119
  664TIP3    H2 1957   3.802   1.083   4.301  0.6619  1.6318 -1.2234
  665TIP3   OH2 1958   2.336   3.813   0.514  0.3220  0.4431 -0.4179
  665TIP3    H1 1959   2.294   3.727   0.518  0.8144  0.0146 -2.6934
  665TIP3    H2 1960   2.425   3.798   0.546  0.9947 -0.4020 -2.4663
  666TIP3   OH2 1961   2.124   4.596   5.709  0.0520  0.2099  0.0462
  666TIP3    H1 1962   2.061   4.556   5.648 -2.2169  0.8504  1.8026
  666TIP3    H2 1963   2.185   4.526   5.730 -1.5351 -1.2133  0.1186
  667TIP3   OH2 1964   1.397   1.792   4.885  0.0964  0.2761 -0.1774
  667TIP3    H1 1965   1.348   1.725   4.934 -2.0787  1.4561 -0.6179
  667TIP3    H2 1966   1.407   1.864   4.947 -1.1269  1.0818 -0.8660
  668TIP3   OH2 1967   2.235   3.330   0.682  0.0705  0.0823 -0.8049
  668TIP3    H1 1968   2.145   3.298   0.684  0.2795 -0.4793  0.9799
  668TIP3    H2 1969   2.288   3.255   0.656  0.0991  0.2272 -1.1721
  669TIP3   OH2 1970   0.428   5.874   4.056  0.2059  0.3540 -0.3875
  669TIP3    H1 1971   0.445   5.782   4.037 -0.3865 -0.2044  1.5821
  669TIP3    H2 1972   0.373   5.873   4.134 -0.2038  2.3757 -0.6041
  670TIP3   OH2 1973   5.260   3.919   3.700  0.1315  1.0980  0.3510
  670TIP3    H1 1974   5.280   3.946   3.610  0.9879  1.8273  0.7490
  670TIP3    H2 1975   5.272   3.997   3.753 -0.2570  0.6504  1.1344
  671TIP3   OH2 1976   6.033   3.248   5.789 -0.0382  0.5128  0.2707
  671TIP3    H1 1977   6.093   3.279   5.857  0.5787  1.1217 -0.5187
  671TIP3    H2 1978   6.016   3.157   5.811  2.0253 -0.0024 -0.0319
  672TIP3   OH2 1979   4.030   5.217   5.403  0.1361 -0.1101  0.4941
  672TIP3    H1 1980   3.978   5.137   5.410 -0.6175  0.1345 -1.6439
  672TIP3    H2 1981   4.073   5.225   5.488 -1.5397 -1.5595  1.5468
  673TIP3   OH2 1982   2.571   6.296   5.284 -0.2590 -0.2051  0.1159
  673TIP3    H1 1983   2.506   6.261   5.345  1.2006  0.1928  1.9862
  673TIP3    H2 1984   2.654   6.290   5.331  0.6219  2.2240 -0.9323
  674TIP3   OH2 1985   3.088   0.226   4.590  0.1243  0.1123  0.1131
  674TIP3    H1 1986   3.141   0.190   4.662 -1.7063 -0.3097  1.3264
  674TIP3    H2 1987   3.130   0.194   4.511  0.8389 -1.4265  1.0662
  675TIP3   OH2 1988   4.096   6.327   2.722  0.0207  0.0068  0.2398
  675TIP3    H1 1989   4.119   6.412   2.759 -0.2291  0.5810 -0.8503
  675TIP3    H2 1990   4.177   6.294   2.683 -0.2969  0.7006 -1.0867
  676TIP3   OH2 1991   5.532   0.582   4.420  0.0189 -0.7845  0.2068
  676TIP3    H1 1992   5.453   0.539   4.387  0.3562 -2.5960  1.5709
  676TIP3    H2 1993   5.515   0.595   4.514  1.1642 -0.7969  0.4291
  677TIP3   OH2 1994   5.691   5.350   0.123  0.4161 -0.3507  0.1178
  677TIP3    H1 1995   5.757   5.281   0.130  1.4987  0.7559  1.2319
  677TIP3    H2 1996   5.659   5.343   0.033  2.4307 -0.5989 -0.6350
  678TIP3   OH2 1997   6.034   1.951   2.656  0.3340  0.1612  0.7977
  678TIP3    H1 1998   5.999   1.919   2.574 -1.1435  0.0941  1.4276
  678TIP3    H2 1999   6.050   1.872   2.708 -0.9399  0.2874  1.4170
  679TIP3   OH2 2000   5.823   4.189   1.872  0.6153 -0.1939 -0.4292
  679TIP3    H1 2001   5.773   4.201   1.954  0.6603 -0.3029 -0.3858
  679TIP3    H2 2002   5.763   4.142   1.815 -0.2677  1.8095 -1.2675
  680TIP3   OH2 2003   3.334   5.573   1.458 -0.2480 -0.2368  0.0008
  680TIP3    H1 2004   3.250   5.546   1.422 -1.1564  0.5230  1.4664
  680TIP3    H2 2005   3.336   5.536   1.546  1.1908 -0.6799 -0.1973
  681TIP3   OH2 2006   5.880   4.914   0.243 -0.3518 -0.3262 -0.1967
  681TIP3    H1 2007   5.842   4.838   0.286 -1.7383 -0.0365 -0.8224
  681TIP3    H2 2008   5.848   4.909   0.153  0.7058  0.2353 -0.6235
  682TIP3   OH2 2009   5.690   1.434   1.890  0.7666  0.3682  0.5533
  682TIP3    H1 2010   5.657   1.361   1.941  1.4115 -0.3621 -0.0587
  682TIP3    H2 2011   5.626   1.505   1.905  0.2996 -0.2188  1.3724
  683TIP3   OH2 2012   3.958   0.619   4.944  0.7767 -0.0789  0.1533
  683TIP3    H1 2013   4.040   0.635   4.898  0.5865  0.7535  0.0756
  683TIP3    H2 2014   3.911   0.703   4.939 -0.2653 -0.6624 -0.1932
  684TIP3   OH2 2015   1.208   3.655   2.588  0.4299 -0.4210  0.6160
  684TIP3    H1 2016   1.173   3.741   2.609 -0.7655 -1.0886  1.4810
  684TIP3    H2 2017   1.290   3.673   2.541  0.5385  1.1628  1.3560
  685TIP3   OH2 2018   1.189   3.737   1.461  0.2860 -0.2800  0.1123
  685TIP3    H1 2019   1.121   3.671   1.448  0.1422 -0.3492  1.1430
  685TIP3    H2 2020   1.142   3.821   1.457  0.4083 -0.2422 -0.8048
  686TIP3   OH2 2021   6.597   1.931   0.999 -0.5627 -0.0901  0.5708
  686TIP3    H1 2022   6.525   1.993   0.990 -1.1872 -0.9880 -0.9774
  686TIP3    H2 2023   6.584   1.868   0.928  0.2902 -1.7488  1.7962
  687TIP3   OH2 2024   3.672   6.090   1.788  0.3510 -0.1483  0.2486
  687TIP3    H1 2025   3.641   6.179   1.774 -0.2090 -0.1089  1.5457
  687TIP3    H2 2026   3.596   6.035   1.767  0.2192 -0.2125  0.8621
  688TIP3   OH2 2027   0.229   1.925   3.866  0.3483  0.2636  0.0713
  688TIP3    H1 2028   0.244   1.899   3.957 -0.0381  0.1018  0.0930
  688TIP3    H2 2029   0.310   1.902   3.821  0.1121 -0.7514  0.1417
  689TIP3   OH2 2030   4.582   1.638   2.963  0.0021 -0.1526  0.2827
  689TIP3    H1 2031   4.564   1.679   2.878  1.9250 -2.9663 -1.6570
  689TIP3    H2 2032   4.495   1.620   2.999 -0.8910  0.4964 -1.4011
  690TIP3   OH2 2033   5.180   0.186   5.248 -0.2545 -0.1461  0.3932
  690TIP3    H1 2034   5.189   0.126   5.174  1.6020 -0.0407  0.4977
  690TIP3    H2 2035   5.211   0.137   5.323 -1.9026 -0.1658  1.1148
  691TIP3   OH2 2036   4.294   5.634   1.822  0.3967  0.2959 -0.3116
  691TIP3    H1 2037   4.300   5.539   1.816 -0.8571  0.0690  1.3619
  691TIP3    H2 2038   4.282   5.663   1.732  1.0098 -1.0936 -0.8652
  692TIP3   OH2 2039   6.061   6.822   3.616 -0.6268  0.3682  0.0599
  692TIP3    H1 2040   6.075   6.742   3.566  1.0569  0.3930  0.4196
  692TIP3    H2 2041   6.131   6.822   3.681  0.1323  2.6811 -0.6415
  693TIP3   OH2 2042   4.527   5.084   5.488 -0.5346  0.7548  0.0142
  693TIP3    H1 2043   4.598   5.019   5.480  0.1240  1.6272 -1.6292
  693TIP3    H2 2044   4.449   5.031   5.503  0.4575 -0.2259  2.2525
  694TIP3   OH2 2045   7.128   2.958   3.186  0.1285  0.4739 -0.1839
  694TIP3    H1 2046   7.132   2.988   3.096 -2.3814  3.4671  0.5379
  694TIP3    H2 2047   7.119   2.863   3.180  1.3858  0.4491 -2.9499
  695TIP3   OH2 2048   4.244   3.683   1.279 -0.2320  0.2320 -0.0756
  695TIP3    H1 2049   4.170   3.680   1.218  0.4887  1.0678 -1.0153
  695TIP3    H2 2050   4.204   3.707   1.363 -1.0506  0.4714 -0.5166
  696TIP3   OH2 2051   2.300   5.799   4.993  0.2580 -0.1472  0.2912
  696TIP3    H1 2052   2.350   5.725   4.957  2.3150  0.6569  1.3097
  696TIP3    H2 2053   2.243   5.826   4.922  0.4107 -1.8793 -0.5542
  697TIP3   OH2 2054   5.968   5.299   2.244 -0.1970  0.1540 -0.1356
  697TIP3    H1 2055   6.020   5.380   2.247 -1.6640  1.1063  1.3700
  697TIP3    H2 2056   5.879   5.328   2.222  0.0242 -1.5997 -4.3529
  698TIP3   OH2 2057   6.662   3.199   0.030  0.4492 -0.1031  0.2024
  698TIP3    H1 2058   6.641   3.293   0.022  1.8051  0.3224  1.3058
  698TIP3    H2 2059   6.639   3.178   0.120  0.9590 -0.6203  0.2125
  699TIP3   OH2 2060   2.246   3.741   3.807  0.2847 -0.3392 -0.3620
  699TIP3    H1 2061   2.217   3.650   3.808  0.8848 -0.5429 -0.8340
  699TIP3    H2 2062   2.167   3.791   3.828 -0.3697 -0.8987 -1.3883
  700TIP3   OH2 2063   4.525   6.139   2.426 -0.0200  0.0543 -0.9059
  700TIP3    H1 2064   4.490   6.071   2.484 -0.4053  0.8884 -0.1436
  700TIP3    H2 2065   4.449   6.188   2.397  0.3578  0.8854 -0.5183
  701TIP3   OH2 2066   3.757   3.564   4.311  0.3319 -0.2383 -0.3599
  701TIP3    H1 2067   3.727   3.654   4.317  1.4025  0.0400  1.2469
  701TIP3    H2 2068   3.714   3.519   4.384 -2.2609 -1.7322 -2.5958
  702TIP3   OH2 2069   4.989   3.315   2.274  0.8128 -0.3970  0.2405
  702TIP3    H1 2070   5.053   3.379   2.306 -0.8264  1.2099  0.5033
  702TIP3    H2 2071   5.026   3.284   2.191  2.2553 -0.0800  0.7295
  703TIP3   OH2 2072   7.011   0.708   4.724  0.1028  0.1498  0.1931
  703TIP3    H1 2073   6.964   0.641   4.774 -0.9708  1.0161  0.3990
  703TIP3    H2 2074   6.973   0.704   4.637  0.1016  0.4084  0.1798
  704TIP3   OH2 2075   0.142   3.397   5.175 -0.6346 -0.0277  0.0371
  704TIP3    H1 2076   0.198   3.426   5.102 -0.3119 -0.5373  0.0802
  704TIP3    H2 2077   0.063   3.450   5.166 -0.2935  0.4473 -0.2391
  705TIP3   OH2 2078   5.596   1.553   3.361 -0.0110 -0.2882  0.1245
  705TIP3    H1 2079   5.502   1.536   3.374 -0.1244  0.5163  0.4306
  705TIP3    H2 2080   5.631   1.560   3.450  0.0556  0.8470  0.0262
  706TIP3   OH2 2081   1.466   2.569   0.597 -0.7194 -0.5182  0.0501
  706TIP3    H1 2082   1.549   2.522   0.601 -0.6087 -0.3027  0.2952
  706TIP3    H2 2083   1.428   2.560   0.684 -0.2636  0.6266  0.3863
  707TIP3   OH2 2084   2.467   6.554   1.821 -0.0387 -0.2205  0.0904
  707TIP3    H1 2085   2.545   6.499   1.809  0.0604 -0.1723  0.4903
  707TIP3    H2 2086   2.485   6.602   1.902  0.2510  1.0369 -0.6951
  708TIP3   OH2 2087   6.620   2.362   5.617 -0.1357  0.6256  0.3270
  708TIP3    H1 2088   6.542   2.308   5.604  0.6258 -0.8610  1.5944
  708TIP3    H2 2089   6.673   2.346   5.539 -0.6572  0.8779 -0.0852
  709TIP3   OH2 2090   1.885   4.829   1.286 -0.1016  0.3013 -0.6270
  709TIP3    H1 2091   1.953   4.843   1.219  0.6487 -0.8619 -0.1402
  709TIP3    H2 2092   1.933   4.800   1.363 -1.0323  0.9116  0.2015
  710TIP3   OH2 2093   1.143   4.647   1.885  0.0672 -0.0365 -0.3311
  710TIP3    H1 2094   1.133   4.709   1.813  2.2412  2.3972  1.2492
  710TIP3    H2 2095   1.226   4.603   1.867 -0.4084 -0.9591 -0.3358
  711TIP3   OH2 2096   4.071   6.177   1.930  0.1056  0.1141  0.4744
  711TIP3    H1 2097   4.156   6.136   1.916  0.5403  1.6579 -1.9713
  711TIP3    H2 2098   4.008   6.109   1.908  0.7601 -0.2631 -0.2876
  712TIP3   OH2 2099   3.902   3.639   3.153 -0.3636  0.2148 -0.0827
  712TIP3    H1 2100   3.978   3.632   3.095  0.4433  2.8198  0.5319
  712TIP3    H2 2101   3.921   3.579   3.225  0.5994  0.0309 -0.4729
  713TIP3   OH2 2102   0.218   0.900   2.895 -0.1143  0.2646 -0.3669
  713TIP3    H1 2103   0.198   0.962   2.965  1.2609 -0.7406  0.9912
  713TIP3    H2 2104   0.207   0.814   2.935  0.5708 -0.3433 -1.4326
  714TIP3   OH2 2105   0.479   2.679   4.665 -0.0821 -0.5201  0.3218
  714TIP3    H1 2106   0.438   2.605   4.619  1.5900 -0.3502 -1.5875
  714TIP3    H2 2107   0.573   2.659   4.662  0.3346  1.2759  0.5298
  715TIP3   OH2 2108   3.068   2.231   3.278  0.4388  0.6972  0.2094
  715TIP3    H1 2109   3.113   2.148   3.297 -0.7800  0.2951  1.5999
  715TIP3    H2 2110   3.101   2.257   3.193  1.8932 -0.5129  0.3450
  716TIP3   OH2 2111   3.661   0.668   4.044  0.0046  0.4731 -0.3997
  716TIP3    H1 2112   3.631   0.748   4.003  1.0275  0.8375 -0.4528
  716TIP3    H2 2113   3.600   0.601   4.013 -1.5420  1.3910  0.5155
  717TIP3   OH2 2114   4.888   4.887   0.848 -0.0237 -0.2655 -0.0401
  717TIP3    H1 2115   4.893   4.814   0.909 -1.0162  0.5969  1.1226
  717TIP3    H2 2116   4.971   4.885   0.800  0.4958 -1.3551  0.8777
  718TIP3   OH2 2117   0.213   4.136   0.430 -0.0790  0.2226 -0.3273
  718TIP3    H1 2118   0.138   4.077   0.434  0.8802 -1.0302 -0.3874
  718TIP3    H2 2119   0.287   4.082   0.456  0.8840  1.3105 -0.7578
  719TIP3   OH2 2120   6.182   1.221   2.219 -0.0656 -0.3144 -0.4674
  719TIP3    H1 2121   6.264   1.234   2.172 -0.7964 -0.2791 -1.7782
  719TIP3    H2 2122   6.122   1.184   2.154 -0.9787 -0.7190  0.5675
  720TIP3   OH2 2123   4.345   3.031   2.705  0.0484  0.6165  0.0413
  720TIP3    H1 2124   4.267   3.049   2.758  0.3845  2.9082 -0.1342
  720TIP3    H2 2125   4.416   3.077   2.750  1.2670 -1.1095 -0.0074
  721TIP3   OH2 2126   5.004   4.962   0.204 -0.8997 -0.5171 -0.2918
  721TIP3    H1 2127   4.964   5.029   0.259 -1.8805 -0.0045 -1.5854
  721TIP3    H2 2128   5.084   5.002   0.171 -0.3384 -0.8041  0.6688
  722TIP3   OH2 2129   6.895   5.527   3.521  0.0928  0.4512 -0.3605
  722TIP3    H1 2130   6.905   5.432   3.516 -0.2750  0.3238  0.9454
  722TIP3    H2 2131   6.960   5.561   3.460  0.9564 -0.6178 -0.0755
  723TIP3   OH2 2132   5.038   2.616   0.449 -0.2027  0.3763 -0.1870
  723TIP3    H1 2133   5.060   2.678   0.518 -0.7637 -0.1296  0.4556
  723TIP3    H2 2134   4.977   2.555   0.490 -0.3045 -0.1099 -1.0453
  724TIP3   OH2 2135   7.188   2.535   3.874 -0.9612  0.2138 -0.6508
  724TIP3    H1 2136   7.240   2.582   3.810 -0.4407 -0.4421 -0.7212
  724TIP3    H2 2137   7.118   2.494   3.823 -0.6408 -0.1751 -0.7847
  725TIP3   OH2 2138   3.331   1.755   5.003  0.2716 -0.3447 -0.2958
  725TIP3    H1 2139   3.369   1.688   5.059 -1.3197 -0.7363  0.3731
  725TIP3    H2 2140   3.396   1.826   5.002  1.2783 -1.2377  0.2597
  726TIP3   OH2 2141   2.073   4.014   4.863  0.4702 -0.1947  0.2381
  726TIP3    H1 2142   2.139   3.991   4.797 -0.7018  0.9559 -1.4134
  726TIP3    H2 2143   1.993   3.971   4.832 -0.2315  0.8267  0.6015
  727TIP3   OH2 2144   0.787   2.526   4.973 -0.0690 -0.0912  0.5900
  727TIP3    H1 2145   0.870   2.543   4.929 -0.2483  0.2266  0.3688
  727TIP3    H2 2146   0.763   2.437   4.945 -1.0151  0.6984 -1.3522
  728TIP3   OH2 2147   1.635   0.446   0.601  0.1492 -0.6913  0.2793
  728TIP3    H1 2148   1.583   0.412   0.674  1.8059 -2.1899  0.8388
  728TIP3    H2 2149   1.705   0.382   0.589  2.4540  1.6327  0.2041
  729TIP3   OH2 2150   0.300   5.316   3.009 -0.1764  0.1662 -0.0831
  729TIP3    H1 2151   0.281   5.249   3.076 -0.8437  0.5697  0.1360
  729TIP3    H2 2152   0.357   5.271   2.946  1.1376 -0.0010  1.1673
  730TIP3   OH2 2153   4.459   3.557   5.331 -0.1028  0.0941 -0.1056
  730TIP3    H1 2154   4.406   3.502   5.389  1.7914  0.0431  1.7161
  730TIP3    H2 2155   4.458   3.643   5.373  0.1202  0.4455 -0.8094
  731TIP3   OH2 2156   0.804   1.071   2.544  0.2188  0.4695 -0.5653
  731TIP3    H1 2157   0.851   0.993   2.574 -0.6824  0.0770 -0.1315
  731TIP3    H2 2158   0.772   1.047   2.457  0.4190  0.5709 -0.6689
  732TIP3   OH2 2159   2.440   2.031   5.782 -0.1785 -0.6390 -0.2116
  732TIP3    H1 2160   2.497   2.019   5.706  1.0033  0.0005  0.5370
  732TIP3    H2 2161   2.454   1.951   5.834 -0.4762 -0.7805 -0.3502
  733TIP3   OH2 2162   4.501   5.442   5.223 -0.1649  0.3118 -0.0452
  733TIP3    H1 2163   4.585   5.402   5.201 -0.9954 -1.1648 -0.6471
  733TIP3    H2 2164   4.462   5.384   5.289 -0.8291  0.8353  0.0390
  734TIP3   OH2 2165   1.735   4.289   1.873 -0.2044  0.1158  0.2421
  734TIP3    H1 2166   1.736   4.217   1.810  0.0059  0.5282 -0.2382
  734TIP3    H2 2167   1.807   4.271   1.933 -0.7963 -0.6086  0.7512
  735TIP3   OH2 2168   5.388   1.122   5.217  0.3549 -0.9268 -0.3336
  735TIP3    H1 2169   5.480   1.112   5.244  0.7306  0.0784 -1.1606
  735TIP3    H2 2170   5.393   1.163   5.131 -0.8998  0.9696  0.4447
  736TIP3   OH2 2171   5.310   1.376   3.858 -1.1248 -0.4903 -0.4187
  736TIP3    H1 2172   5.377   1.308   3.857 -0.3027  0.2692  0.6883
  736TIP3    H2 2173   5.227   1.329   3.850 -0.6486 -1.7501  1.5092
  737TIP3   OH2 2174   1.021   2.063   1.266 -0.2607 -0.5648 -0.1311
  737TIP3    H1 2175   1.067   2.135   1.309 -0.4237  0.1393 -1.1120
  737TIP3    H2 2176   1.004   2.001   1.337 -0.9145  0.7604  0.9320
  738TIP3   OH2 2177   3.859   5.249   3.766 -0.0515 -0.2949  0.5305
  738TIP3    H1 2178   3.914   5.327   3.755 -0.3407 -0.2289 -0.4925
  738TIP3    H2 2179   3.910   5.193   3.825  0.7016  0.1459  0.3177
  739TIP3   OH2 2180   2.809   6.275   1.639  0.0696  0.3586  0.2039
  739TIP3    H1 2181   2.867   6.337   1.595 -3.1500  4.0289  0.6339
  739TIP3    H2 2182   2.839   6.275   1.731  1.2131 -0.2643 -0.1445
  740TIP3   OH2 2183   3.097   1.548   5.672  0.4210 -0.3461 -0.0022
  740TIP3    H1 2184   3.128   1.458   5.683  1.1978 -0.0988 -0.0660
  740TIP3    H2 2185   3.171   1.594   5.633 -0.2526  0.1454 -0.7203
  741TIP3   OH2 2186  -0.002   3.620   5.744  0.6093 -0.5066 -0.3667
  741TIP3    H1 2187   0.089   3.594   5.754  0.5046  0.0138  2.6863
  741TIP3    H2 2188  -0.004   3.713   5.768 -0.5837 -0.1946 -1.5274
  742TIP3   OH2 2189   1.166   2.260   1.409  0.2774 -0.1411  0.3325
  742TIP3    H1 2190   1.248   2.236   1.454 -0.0364 -0.4802  0.7262
  742TIP3    H2 2191   1.119   2.314   1.473  1.0781  1.7846 -0.6133
  743TIP3   OH2 2192   3.136   5.797   5.547  0.7226  0.1215 -0.5048
  743TIP3    H1 2193   3.204   5.863   5.535  0.8228 -0.2542 -2.2130
  743TIP3    H2 2194   3.167   5.721   5.498  0.8591 -1.4362  1.8392
  744TIP3   OH2 2195   2.144   1.235   2.554 -0.0681 -0.6367  0.0919
  744TIP3    H1 2196   2.187   1.283   2.625 -0.2297 -1.6217  0.8716
  744TIP3    H2 2197   2.182   1.147   2.558 -0.7732 -0.9728 -0.4263
  745TIP3   OH2 2198   6.651   5.593   2.787 -0.0299 -0.6557  0.1493
  745TIP3    H1 2199   6.741   5.618   2.809 -0.9953  2.8079  0.8368
  745TIP3    H2 2200   6.599   5.623   2.862 -1.9314 -1.1253 -0.9025
  746TIP3   OH2 2201   6.434   4.238   0.865 -0.2618 -0.0786 -0.0943
  746TIP3    H1 2202   6.372   4.272   0.930 -0.7669 -0.0034 -0.6106
  746TIP3    H2 2203   6.397   4.265   0.781  0.2452 -0.4152 -0.4237
  747TIP3   OH2 2204   3.175   3.308   2.014 -0.1060 -0.3696 -0.2411
  747TIP3    H1 2205   3.248   3.284   2.071 -0.7081  0.4927  0.9361
  747TIP3    H2 2206   3.188   3.255   1.935  1.2799 -0.8937  0.3002
  748TIP3   OH2 2207   5.744   0.065   2.285 -0.3433 -0.3761 -0.8651
  748TIP3    H1 2208   5.817   0.005   2.293  0.9595  1.1071 -1.1846
  748TIP3    H2 2209   5.719   0.085   2.375 -0.4595 -0.9896 -0.7563
  749TIP3   OH2 2210   4.230   5.000   0.361 -0.1738 -0.3753 -0.2263
  749TIP3    H1 2211   4.143   4.989   0.400 -0.9352  2.2292 -1.0407
  749TIP3    H2 2212   4.219   4.976   0.269 -0.2157  0.6016 -0.4838
  750TIP3   OH2 2213   1.520   3.973   2.470 -0.4523 -0.4133  0.3528
  750TIP3    H1 2214   1.434   3.960   2.432 -0.4104  2.9894 -1.3394
  750TIP3    H2 2215   1.581   3.962   2.397  0.5346 -2.1441  1.3824
  751TIP3   OH2 2216   6.760   5.987   1.977 -0.4476  0.1883 -0.2836
  751TIP3    H1 2217   6.855   5.985   1.987 -0.5946  1.5502  2.5511
  751TIP3    H2 2218   6.744   5.954   1.889  2.5248 -1.6968 -0.2588
  752TIP3   OH2 2219   3.714   0.760   0.947 -0.5485  0.1269  0.8452
  752TIP3    H1 2220   3.683   0.675   0.977  0.9772  0.1030  2.5533
  752TIP3    H2 2221   3.809   0.751   0.941 -0.4745  1.3364 -0.2121
  753TIP3   OH2 2222   4.136   0.345   3.173 -0.4662  0.2191  0.1264
  753TIP3    H1 2223   4.215   0.295   3.150 -1.2816 -1.6066  1.0782
  753TIP3    H2 2224   4.145   0.363   3.266  0.2817  2.8626 -0.3641
  754TIP3   OH2 2225   1.096   3.063   3.342  0.5817 -0.3169 -0.2959
  754TIP3    H1 2226   1.147   2.982   3.348  0.7040 -0.2126  0.1575
  754TIP3    H2 2227   1.045   3.053   3.262  0.6910 -0.7871 -0.3139
  755TIP3   OH2 2228   5.700   3.405   3.715 -0.3087 -0.2601  0.0762
  755TIP3    H1 2229   5.630   3.357   3.760 -1.7388  0.4732 -1.2625
  755TIP3    H2 2230   5.667   3.417   3.626  0.8851  1.4329 -0.1820
  756TIP3   OH2 2231   4.846   5.757   5.799  0.5216 -0.3659 -0.0562
  756TIP3    H1 2232   4.909   5.700   5.753  1.0262  0.5202 -0.4829
  756TIP3    H2 2233   4.811   5.814   5.731  0.3847  0.1621  0.4526
  757TIP3   OH2 2234   3.579   6.381   1.756 -0.3794  0.0739  0.0452
  757TIP3    H1 2235   3.541   6.467   1.739  2.4392  1.1083 -1.7967
  757TIP3    H2 2236   3.603   6.383   1.849 -0.6246  1.1540  0.0926
  758TIP3   OH2 2237   3.167   3.881   1.755 -0.7518 -0.0281 -0.3904
  758TIP3    H1 2238   3.079   3.874   1.717 -1.2575  1.6078  0.3793
  758TIP3    H2 2239   3.205   3.958   1.714  0.3831 -0.7477 -0.7474
  759TIP3   OH2 2240   4.608   5.925   4.791  0.1107 -0.0255  0.0430
  759TIP3    H1 2241   4.561   5.976   4.726  0.5695 -0.9644 -1.0732
  759TIP3    H2 2242   4.635   5.846   4.744  1.4980 -0.1884  1.0378
  760TIP3   OH2 2243   5.616   5.289   4.338  0.1628 -0.1735 -0.1373
  760TIP3    H1 2244   5.558   5.355   4.300 -0.1236  0.9132  2.0077
  760TIP3    H2 2245   5.703   5.330   4.337  0.1660 -0.1688  0.2871
  761TIP3   OH2 2246   6.785   4.870   4.197  0.0610 -0.3827 -0.0155
  761TIP3    H1 2247   6.811   4.791   4.149  0.3467  0.6851 -1.7146
  761TIP3    H2 2248   6.854   4.933   4.176 -0.8739  0.7254  0.1904
  762TIP3   OH2 2249   1.277   1.607   1.815  0.1221  0.1142  0.3348
  762TIP3    H1 2250   1.296   1.566   1.899 -0.3049 -0.4954  0.1386
  762TIP3    H2 2251   1.182   1.619   1.815 -0.1005 -1.4534 -0.7553
  763TIP3   OH2 2252   0.959   6.555   5.003 -0.1920 -0.2441  0.1829
  763TIP3    H1 2253   0.917   6.495   4.942  0.9028  0.1572 -1.0167
  763TIP3    H2 2254   0.895   6.566   5.073 -0.8093 -2.0280 -0.0427
  764TIP3   OH2 2255   1.617   4.770   0.239  0.4661  0.0587 -0.3739
  764TIP3    H1 2256   1.663   4.772   0.323 -0.1977  0.3828 -0.0084
  764TIP3    H2 2257   1.665   4.705   0.187 -0.1732 -1.4672  0.8706
  765TIP3   OH2 2258   4.817   1.586   1.374  0.5527  0.4574 -0.6274
  765TIP3    H1 2259   4.802   1.572   1.468 -0.1366  0.6091 -0.7154
  765TIP3    H2 2260   4.855   1.504   1.343 -2.3209 -0.8759 -0.9004
  766TIP3   OH2 2261   5.617   0.107   5.250 -0.2979  0.2583 -0.1667
  766TIP3    H1 2262   5.586   0.150   5.170 -1.3504 -1.2519 -0.6302
  766TIP3    H2 2263   5.542   0.109   5.309 -0.3799 -0.8791 -0.2031
  767TIP3   OH2 2264   0.915   1.913   5.492  1.1054 -0.1614  0.7309
  767TIP3    H1 2265   1.002   1.876   5.504  0.8776 -0.5209  1.3051
  767TIP3    H2 2266   0.859   1.838   5.472  0.6664 -0.1313  1.7727
  768TIP3   OH2 2267   3.058   0.522   1.895 -0.1517  0.3466 -0.2382
  768TIP3    H1 2268   3.132   0.464   1.876  0.7690  1.0032  1.1619
  768TIP3    H2 2269   3.032   0.498   1.984 -0.4319  1.3661 -0.0373
  769TIP3   OH2 2270   1.776   1.419   1.224 -0.0560 -0.5848  0.1133
  769TIP3    H1 2271   1.818   1.459   1.148  0.2216 -1.1048 -0.0087
  769TIP3    H2 2272   1.843   1.361   1.261 -0.4392 -0.9055  0.3121
  770TIP3   OH2 2273   2.468   2.581   5.387  0.2452  0.3079 -0.3804
  770TIP3    H1 2274   2.440   2.492   5.410 -0.2220  0.7561  0.8344
  770TIP3    H2 2275   2.399   2.613   5.329  1.2839 -0.7210 -2.2703
  771TIP3   OH2 2276   2.903   5.949   3.211 -0.0007  0.0742 -0.3458
  771TIP3    H1 2277   2.851   5.882   3.254  0.8158 -0.3474  0.0005
  771TIP3    H2 2278   2.844   6.025   3.206 -1.2700 -0.9595 -1.6592
  772TIP3   OH2 2279   0.467   3.611   0.799  0.2215  0.6264 -0.2764
  772TIP3    H1 2280   0.547   3.577   0.758  0.9298 -0.3224  1.7521
  772TIP3    H2 2281   0.409   3.535   0.806 -0.5413  1.1313 -0.9901
  773TIP3   OH2 2282   2.808   0.782   2.876  0.0713  0.0763 -0.3899
  773TIP3    H1 2283   2.844   0.694   2.863 -1.4842 -0.6697  0.0846
  773TIP3    H2 2284   2.831   0.804   2.966  0.3595  0.1069 -0.4700
  774TIP3   OH2 2285   5.344   5.146   0.379 -0.0312  0.0817  0.0496
  774TIP3    H1 2286   5.418   5.188   0.422  0.5139 -0.6605 -0.1347
  774TIP3    H2 2287   5.373   5.056   0.363  0.1359  0.4983 -2.5841
  775TIP3   OH2 2288   0.353   0.595   4.811 -0.1434 -0.2740  0.1719
  775TIP3    H1 2289   0.275   0.647   4.831  0.6985  0.8209  0.7458
  775TIP3    H2 2290   0.426   0.654   4.831  0.8873 -1.9594  1.6740
  776TIP3   OH2 2291   5.810   2.019   3.836  0.4843  0.5936  0.0850
  776TIP3    H1 2292   5.781   2.055   3.920 -0.3622  0.8283 -0.3035
  776TIP3    H2 2293   5.834   1.928   3.857  0.2336  0.6341  0.5719
  777TIP3   OH2 2294   0.845   1.098   2.129 -0.1874 -0.0511 -0.3013
  777TIP3    H1 2295   0.814   1.063   2.046  1.4479 -1.4380 -0.3864
  777TIP3    H2 2296   0.802   1.044   2.195 -0.4109  0.1380 -0.2900
  778TIP3   OH2 2297   4.556   5.604   2.083 -0.4896 -0.1553  0.0080
  778TIP3    H1 2298   4.461   5.617   2.095 -0.7071  1.6338 -2.7308
  778TIP3    H2 2299   4.596   5.651   2.156 -1.7138  1.5277 -0.3450
  779TIP3   OH2 2300   5.281   5.624   1.762 -0.2848 -0.2242 -0.1162
  779TIP3    H1 2301   5.271   5.633   1.857 -0.2552 -2.0538  0.0955
  779TIP3    H2 2302   5.194   5.642   1.726 -0.4723 -0.2574  0.3171
  780TIP3   OH2 2303   0.205   3.050   1.095 -0.5054 -0.6517  0.8711
  780TIP3    H1 2304   0.186   3.001   1.176  1.0521  0.4054  1.9180
  780TIP3    H2 2305   0.124   3.098   1.077 -1.0337 -1.2730  1.5245
  781TIP3   OH2 2306   4.140   6.145   1.636  1.2001  0.1121 -0.0472
  781TIP3    H1 2307   4.212   6.168   1.694 -0.7920  0.3099  2.5176
  781TIP3    H2 2308   4.117   6.056   1.659 -0.1974  0.4942  0.1289
  782TIP3   OH2 2309   7.077   1.638   3.780  0.2633 -0.1557 -0.0161
  782TIP3    H1 2310   7.160   1.602   3.811  1.0653  1.3192 -0.3278
  782TIP3    H2 2311   7.036   1.674   3.858 -0.4125 -1.4483  0.2493
  783TIP3   OH2 2312   4.828   2.719   0.310 -0.1810 -0.0938 -0.8838
  783TIP3    H1 2313   4.883   2.784   0.267  0.2071 -1.1131 -1.9932
  783TIP3    H2 2314   4.889   2.670   0.366 -0.7758  1.5807  1.3426
  784TIP3   OH2 2315   1.504   3.361   1.598 -0.3821 -0.1644 -0.3247
  784TIP3    H1 2316   1.423   3.412   1.597 -0.1190  0.2902  0.6636
  784TIP3    H2 2317   1.499   3.307   1.518 -2.2794 -1.1423  0.3914
  785TIP3   OH2 2318   0.702   2.007   0.403  0.4472 -0.3616  0.6192
  785TIP3    H1 2319   0.660   1.922   0.395  1.6141 -0.8205 -1.2479
  785TIP3    H2 2320   0.795   1.990   0.387  0.4616  1.4890 -2.0015
  786TIP3   OH2 2321   1.361   6.343   1.113  0.7276 -0.3447 -0.3598
  786TIP3    H1 2322   1.334   6.376   1.027  0.6986  1.0034  0.1457
  786TIP3    H2 2323   1.455   6.364   1.117  0.7923 -0.6706 -0.1739
  787TIP3   OH2 2324   4.344   5.115   3.046  0.0257  0.0280  0.2468
  787TIP3    H1 2325   4.421   5.144   3.095  0.4023 -0.1866 -0.2126
  787TIP3    H2 2326   4.270   5.145   3.098  0.3893  2.2573 -0.4340
  788TIP3   OH2 2327   4.113   3.324   5.558  0.2027  0.5328  0.1400
  788TIP3    H1 2328   4.148   3.408   5.529  0.9221  0.5748  1.0921
  788TIP3    H2 2329   4.104   3.273   5.478  1.3751  0.9232 -0.2516
  789TIP3   OH2 2330   3.615   3.454   3.214  0.0497  0.0895 -0.4682
  789TIP3    H1 2331   3.702   3.481   3.185 -0.2149 -1.1948 -2.7090
  789TIP3    H2 2332   3.631   3.372   3.261  0.0328 -0.5260 -1.4953
  790TIP3   OH2 2333   6.139   4.170   2.132 -0.2908  0.0894 -0.3783
  790TIP3    H1 2334   6.143   4.195   2.039  0.3292  2.6185  0.2537
  790TIP3    H2 2335   6.073   4.229   2.169  0.1201 -0.2839  0.9810
  791TIP3   OH2 2336   1.982   2.429   5.442 -0.1059 -0.7011  0.0350
  791TIP3    H1 2337   2.018   2.487   5.375 -0.3544 -1.5132 -0.8344
  791TIP3    H2 2338   2.005   2.470   5.525  1.4006 -0.3614 -0.5167
  792TIP3   OH2 2339   2.891   2.894   5.698 -0.0344 -0.6350 -0.5970
  792TIP3    H1 2340   2.948   2.962   5.661 -1.2472  0.6695 -0.1274
  792TIP3    H2 2341   2.949   2.818   5.707  0.9656 -0.1712 -2.5975
  793TIP3   OH2 2342   6.093   3.916   2.271 -0.2538 -0.1634  0.3739
  793TIP3    H1 2343   6.093   3.997   2.220  0.3190  1.0041  2.1458
  793TIP3    H2 2344   6.129   3.850   2.211 -2.7745  0.3223 -1.8762
  794TIP3   OH2 2345   0.660   6.625   5.007 -0.3033  0.3262 -0.1885
  794TIP3    H1 2346   0.669   6.538   4.968  1.7209  0.9520 -1.2773
  794TIP3    H2 2347   0.626   6.680   4.936  1.3876  1.0292 -0.5117
  795TIP3   OH2 2348   3.723   0.314   5.418 -0.1223  0.0201  0.2737
  795TIP3    H1 2349   3.746   0.368   5.494 -0.4077 -1.4340  1.4518
  795TIP3    H2 2350   3.653   0.257   5.450 -1.5553  0.6233 -1.6501
  796TIP3   OH2 2351   6.413   0.526   3.938  0.6574  0.2752  0.5860
  796TIP3    H1 2352   6.428   0.614   3.903  1.5462 -0.1397 -0.1079
  796TIP3    H2 2353   6.418   0.468   3.862  0.2273 -0.3945  1.0570
  797TIP3   OH2 2354   2.844   5.503   4.235 -0.0221 -0.2758  0.8128
  797TIP3    H1 2355   2.772   5.446   4.206 -0.7151  1.1860 -0.5039
  797TIP3    H2 2356   2.879   5.539   4.154 -0.7378  2.4654  1.6131
  798TIP3   OH2 2357   3.123   2.263   5.508 -0.0157 -0.0113 -0.1258
  798TIP3    H1 2358   3.129   2.343   5.561  0.4001 -0.4227  0.4573
  798TIP3    H2 2359   3.029   2.248   5.498 -0.1481 -0.6997  1.7243
  799TIP3   OH2 2360   1.193   3.918   3.981 -0.0721  0.1062 -0.1397
  799TIP3    H1 2361   1.263   3.871   3.936  1.9569  2.7342 -0.0091
  799TIP3    H2 2362   1.199   3.889   4.072 -0.6910 -1.3236 -0.5296
  800TIP3   OH2 2363   4.904   3.231   4.844  0.2400  0.3411 -0.6178
  800TIP3    H1 2364   4.832   3.293   4.841  0.9012  1.1019 -1.2578
  800TIP3    H2 2365   4.978   3.278   4.806  0.7103 -0.9051 -1.3056
  801TIP3   OH2 2366   6.965   6.200   5.808 -0.4169 -0.4100  0.0327
  801TIP3    H1 2367   6.937   6.251   5.731 -1.0634 -1.0940 -0.1935
  801TIP3    H2 2368   7.045   6.156   5.779 -0.1954 -0.0186  0.0318
  802TIP3   OH2 2369   0.179   5.722   3.646 -0.0769 -0.1120 -0.0882
  802TIP3    H1 2370   0.218   5.797   3.692  1.7922 -1.4284  0.6027
  802TIP3    H2 2371   0.179   5.747   3.554 -1.2136  1.4395  0.2918
  803TIP3   OH2 2372   6.255   2.761   1.652  0.2775  0.1260 -0.0708
  803TIP3    H1 2373   6.231   2.722   1.736  0.3271  0.6464  0.1870
  803TIP3    H2 2374   6.211   2.706   1.587 -0.1136 -0.0238  0.3136
  804TIP3   OH2 2375   2.769   4.082   4.773  0.0975 -0.7412  0.8324
  804TIP3    H1 2376   2.775   4.043   4.686 -0.9383  1.5214 -0.3408
  804TIP3    H2 2377   2.711   4.024   4.822 -0.8248 -1.0699 -0.6103
  805TIP3   OH2 2378   1.603   2.469   5.723  0.1703 -0.5747 -0.6070
  805TIP3    H1 2379   1.512   2.459   5.694 -0.0334 -0.6818  0.0519
  805TIP3    H2 2380   1.641   2.381   5.715  0.2797 -0.4861 -1.0838
  806TIP3   OH2 2381   0.891   1.683   4.806  0.3766 -0.6432 -0.1389
  806TIP3    H1 2382   0.952   1.756   4.820  1.0787 -1.1110 -0.6403
  806TIP3    H2 2383   0.891   1.635   4.889  0.5826 -0.5469 -0.0817
  807TIP3   OH2 2384   2.201   2.183   5.041  0.4364  0.0267 -0.8735
  807TIP3    H1 2385   2.260   2.168   4.967  0.3666  0.4406 -1.0189
  807TIP3    H2 2386   2.115   2.158   5.009  0.7735 -2.5319 -0.0261
  808TIP3   OH2 2387   6.330   5.297   5.740 -0.7485  0.1386 -0.2370
  808TIP3    H1 2388   6.265   5.258   5.799  0.0695  0.8319  1.1932
  808TIP3    H2 2389   6.279   5.338   5.671 -1.8093  0.0125  0.4522
  809TIP3   OH2 2390   5.233   2.465   1.142 -0.0492 -0.7023  0.5164
  809TIP3    H1 2391   5.255   2.379   1.106 -1.3641 -1.3150  1.1075
  809TIP3    H2 2392   5.184   2.508   1.072 -0.6234 -1.0032  0.7246
  810TIP3   OH2 2393   5.882   3.728   0.865  0.2993  0.0197 -0.2376
  810TIP3    H1 2394   5.844   3.731   0.777 -0.1303  1.6828 -0.0366
  810TIP3    H2 2395   5.968   3.770   0.855  0.3549 -0.0151  0.0907
  811TIP3   OH2 2396   1.359   5.316   4.688 -0.1815  0.4626  0.3754
  811TIP3    H1 2397   1.387   5.245   4.745  0.8277  1.7981  1.6137
  811TIP3    H2 2398   1.417   5.310   4.612 -0.4411 -0.3112  0.2244
  812TIP3   OH2 2399   4.165   5.293   4.670  0.2700 -0.5970  0.3984
  812TIP3    H1 2400   4.105   5.367   4.664  0.7743 -0.0914  1.2970
  812TIP3    H2 2401   4.108   5.216   4.678 -0.3024 -0.5981 -2.6298
  813TIP3   OH2 2402   4.734   4.120   3.993  0.4598  0.1164  0.0279
  813TIP3    H1 2403   4.814   4.115   4.045 -0.4123  1.3859  1.5718
  813TIP3    H2 2404   4.752   4.188   3.928  1.0776 -0.5243 -0.4879
  814TIP3   OH2 2405   1.865   1.421   5.132 -0.5736  0.0568  0.6401
  814TIP3    H1 2406   1.871   1.455   5.043 -1.9170 -0.3101  0.3880
  814TIP3    H2 2407   1.943   1.366   5.142 -1.0703 -0.9792 -0.8150
  815TIP3   OH2 2408   6.736   1.323   0.402 -0.4025 -0.4368  0.4135
  815TIP3    H1 2409   6.692   1.302   0.320 -1.9537  0.7724  0.9036
  815TIP3    H2 2410   6.773   1.239   0.431 -0.0784 -0.9438 -1.3335
  816TIP3   OH2 2411   5.997   0.677   2.360 -0.4554  0.5816  0.8963
  816TIP3    H1 2412   5.914   0.692   2.406  0.5867 -0.0565  3.0976
  816TIP3    H2 2413   6.051   0.630   2.423  2.3526  2.8300  0.3225
  817TIP3   OH2 2414   6.400   1.597   1.276  0.0102  0.5083 -0.0940
  817TIP3    H1 2415   6.358   1.666   1.225  0.6703  0.1191 -1.2020
  817TIP3    H2 2416   6.367   1.516   1.237 -0.0823  0.1927  0.6285
  818TIP3   OH2 2417   1.908   6.177   3.403 -0.1757  0.2446 -0.1353
  818TIP3    H1 2418   1.938   6.110   3.342  1.0370 -0.1605  0.8536
  818TIP3    H2 2419   1.825   6.144   3.436 -0.2083 -0.1561 -0.6089
  819TIP3   OH2 2420   5.095   3.538   5.545  0.1509  0.3487  0.3545
  819TIP3    H1 2421   5.077   3.623   5.505 -1.5362 -0.2201 -0.1758
  819TIP3    H2 2422   5.109   3.479   5.471  0.8053  0.0476  0.7057
  820TIP3   OH2 2423   4.383   0.208   3.148  0.4315  0.0034  0.2827
  820TIP3    H1 2424   4.388   0.157   3.067  1.5738  1.0717 -0.3592
  820TIP3    H2 2425   4.432   0.156   3.212  1.2065  0.0629 -0.2453
  821TIP3   OH2 2426   4.730   5.962   1.013 -0.3932 -0.3493 -0.3742
  821TIP3    H1 2427   4.818   5.981   0.982 -1.4095  0.9089 -2.7349
  821TIP3    H2 2428   4.734   5.977   1.108  1.5996  0.9573 -0.6119
  822TIP3   OH2 2429   3.000   0.767   5.247  0.0613 -0.3763  0.0445
  822TIP3    H1 2430   2.948   0.695   5.283  0.6804 -0.6970  0.3117
  822TIP3    H2 2431   3.022   0.821   5.322  0.1793 -0.2833 -0.0562
  823TIP3   OH2 2432   4.120   2.462   1.243  0.2775  0.4854  0.7958
  823TIP3    H1 2433   4.160   2.380   1.271  0.1330  0.7781  1.9117
  823TIP3    H2 2434   4.079   2.441   1.158  0.0745 -0.6424  1.1559
  824TIP3   OH2 2435   4.520   4.459   5.366 -0.1898  0.0713  0.1454
  824TIP3    H1 2436   4.517   4.533   5.427  1.2835 -0.2906  0.7148
  824TIP3    H2 2437   4.464   4.392   5.405 -2.7142  1.3358 -1.0939
  825TIP3   OH2 2438   1.272   5.825   0.358  0.2062  0.0340  0.1082
  825TIP3    H1 2439   1.284   5.846   0.265  0.9082 -1.1751 -0.0823
  825TIP3    H2 2440   1.359   5.833   0.396  0.1406 -0.6776  0.4109
  826TIP3   OH2 2441   3.940   0.788   3.628 -0.1077 -0.0459  0.4140
  826TIP3    H1 2442   3.925   0.712   3.685  0.1921 -0.4490 -0.0334
  826TIP3    H2 2443   3.852   0.809   3.595 -0.0944 -0.6862 -0.0578
  827TIP3   OH2 2444   4.919   0.949   4.855  0.1579 -0.3380  0.4785
  827TIP3    H1 2445   4.977   1.009   4.808 -1.7865  1.1077 -0.2291
  827TIP3    H2 2446   4.935   0.969   4.948  1.2074 -0.4111  0.3292
  828TIP3   OH2 2447   0.550   1.483   5.776  0.1442 -0.1961  0.4143
  828TIP3    H1 2448   0.529   1.521   5.861  2.0187 -0.0879  0.8591
  828TIP3    H2 2449   0.464   1.459   5.740 -0.6911 -0.4400  2.3981
  829TIP3   OH2 2450   0.307   3.011   1.876 -0.6622  0.3461 -0.4676
  829TIP3    H1 2451   0.355   2.940   1.920 -2.3252 -0.4672  0.1202
  829TIP3    H2 2452   0.338   3.091   1.919 -0.7951 -0.2767  0.8456
  830TIP3   OH2 2453   2.774   3.263   5.370  0.0922  0.0505 -0.5059
  830TIP3    H1 2454   2.703   3.244   5.431  0.9892 -2.3155 -0.1183
  830TIP3    H2 2455   2.797   3.354   5.388 -0.0058 -0.4106  2.3753
  831TIP3   OH2 2456   1.173   0.812   5.436  0.0652 -0.1870 -0.3091
  831TIP3    H1 2457   1.084   0.819   5.472  0.8354  2.2829  1.3875
  831TIP3    H2 2458   1.163   0.755   5.359 -2.7212 -1.0473  0.5592
  832TIP3   OH2 2459   3.084   2.918   2.162 -0.4461 -0.0173  0.6680
  832TIP3    H1 2460   3.066   2.853   2.094  0.1586  0.4597  0.0333
  832TIP3    H2 2461   2.999   2.955   2.183 -0.7215 -0.6119  0.6297
  833TIP3   OH2 2462   4.815   0.678   2.826 -0.6042 -0.4331  1.1991
  833TIP3    H1 2463   4.880   0.626   2.874 -0.2031  0.4271  1.5927
  833TIP3    H2 2464   4.865   0.748   2.785 -1.1090 -0.5016  0.4474
  834TIP3   OH2 2465   5.414   0.082   2.256  0.3360  0.2446  0.3577
  834TIP3    H1 2466   5.386   0.146   2.321  0.4761  2.2827 -1.4609
  834TIP3    H2 2467   5.336   0.030   2.238  0.2316 -0.1840  1.9220
  835TIP3   OH2 2468   6.042   0.490   2.099 -0.3544  0.2039 -0.1588
  835TIP3    H1 2469   5.950   0.496   2.075 -0.4043 -1.6890 -0.6391
  835TIP3    H2 2470   6.088   0.478   2.016  0.1220 -0.4869  0.1842
  836TIP3   OH2 2471   1.205   1.054   1.431  0.4019  0.1077 -0.4420
  836TIP3    H1 2472   1.234   1.117   1.497  1.2227  0.9578 -1.5715
  836TIP3    H2 2473   1.144   1.103   1.376 -1.0209 -0.8656  0.2159
  837TIP3   OH2 2474   6.289   2.916   2.047  0.1353  0.7471  0.3181
  837TIP3    H1 2475   6.248   2.867   2.119 -0.1963 -2.1953 -1.6763
  837TIP3    H2 2476   6.377   2.880   2.041  0.4210  1.5306 -0.2566
  838TIP3   OH2 2477   1.352   1.502   5.230 -0.4350  0.3347 -0.4196
  838TIP3    H1 2478   1.283   1.439   5.208 -0.1689  0.2989 -1.1551
  838TIP3    H2 2479   1.432   1.450   5.237 -0.4524  0.3878  0.3675
  839TIP3   OH2 2480   2.116   2.173   1.025 -0.4023 -0.7058  0.1083
  839TIP3    H1 2481   2.183   2.127   1.076 -1.0640 -1.6949  0.0935
  839TIP3    H2 2482   2.127   2.141   0.936 -0.5305 -0.4347 -0.0078
  840TIP3   OH2 2483   1.579   0.958   5.240  0.1794  0.0714  0.4422
  840TIP3    H1 2484   1.582   1.020   5.313  0.2390  0.6777 -0.0648
  840TIP3    H2 2485   1.486   0.946   5.222  0.1793  1.0239 -0.2845
  841TIP3   OH2 2486   6.223   5.037   4.860  0.1113 -0.1851 -0.1107
  841TIP3    H1 2487   6.182   5.061   4.943 -0.7974  0.1997 -0.6539
  841TIP3    H2 2488   6.173   4.962   4.828  0.1637 -0.0504 -0.5250
  842TIP3   OH2 2489   1.476   4.374   1.638 -0.0612  0.0703 -0.0502
  842TIP3    H1 2490   1.522   4.333   1.710  1.0026 -0.3584 -0.9428
  842TIP3    H2 2491   1.541   4.378   1.567 -0.3503  2.6191 -0.2424
  843TIP3   OH2 2492   2.637   3.799   3.141  0.2236  0.0760  0.0591
  843TIP3    H1 2493   2.708   3.735   3.147 -0.7392 -1.3366 -2.2577
  843TIP3    H2 2494   2.680   3.884   3.153  2.0586 -0.8333  0.1926
  844TIP3   OH2 2495   4.717   0.058   5.601  0.0582  0.1107  0.6002
  844TIP3    H1 2496   4.756   0.038   5.687  0.1981  0.3482  0.5960
  844TIP3    H2 2497   4.759  -0.003   5.541  0.1102  0.0771  0.6700
  845TIP3   OH2 2498   5.872   5.820   2.445 -0.2467  0.1283 -0.4353
  845TIP3    H1 2499   5.920   5.880   2.501 -1.1751  0.2385  0.2654
  845TIP3    H2 2500   5.872   5.737   2.493  0.1483 -0.1644 -0.9246
  846TIP3   OH2 2501   4.548   2.828   3.755 -0.4085 -0.2241  0.0539
  846TIP3    H1 2502   4.548   2.752   3.813 -1.0791 -1.4656 -1.4945
  846TIP3    H2 2503   4.469   2.876   3.778 -0.1604 -0.1681  0.8133
  847TIP3   OH2 2504   3.429   1.675   0.332 -0.0938 -0.0608  0.5374
  847TIP3    H1 2505   3.354   1.735   0.328 -0.2437 -0.2993 -0.4282
  847TIP3    H2 2506   3.439   1.643   0.243  0.4847 -0.8708  0.8790
  848TIP3   OH2 2507   3.470   0.435   3.283  0.4636 -0.3498 -0.3980
  848TIP3    H1 2508   3.560   0.403   3.282  0.4628 -0.3584 -0.2509
  848TIP3    H2 2509   3.479   0.530   3.290  0.4738 -0.2638 -1.4298
  849TIP3   OH2 2510   2.086   6.160   4.645  0.1757  0.0596  0.4991
  849TIP3    H1 2511   2.156   6.193   4.701 -0.6381 -0.3144  1.7902
  849TIP3    H2 2512   2.105   6.197   4.558  1.5690  0.5105  0.9678
  850TIP3   OH2 2513   5.219   6.734   0.558 -0.3008  0.1093  0.2342
  850TIP3    H1 2514   5.138   6.780   0.580 -0.5832 -0.1388 -0.2697
  850TIP3    H2 2515   5.200   6.691   0.474  0.5331  0.5075 -0.1693
  851TIP3   OH2 2516   0.797   0.381   1.371  0.2638  0.1697 -0.6262
  851TIP3    H1 2517   0.718   0.411   1.326  0.1762  0.9181  0.0245
  851TIP3    H2 2518   0.840   0.324   1.307 -1.1626 -0.8418 -0.7343
  852TIP3   OH2 2519   3.107   6.353   5.510  0.1679 -0.3740 -0.6925
  852TIP3    H1 2520   3.073   6.422   5.453 -1.6045 -0.2380  0.4636
  852TIP3    H2 2521   3.079   6.272   5.468 -1.0910 -0.2743 -0.0984
  853TIP3   OH2 2522   1.494   3.095   2.043  0.3935 -0.0013 -0.7395
  853TIP3    H1 2523   1.550   3.138   1.978  2.3447 -2.0036 -0.5007
  853TIP3    H2 2524   1.469   3.012   2.002  1.8877 -1.4297  1.0489
  854TIP3   OH2 2525   0.862   4.924   1.645  0.0158 -0.0265  0.1014
  854TIP3    H1 2526   0.879   4.867   1.719  1.1306  0.2724  0.0855
  854TIP3    H2 2527   0.824   4.867   1.578  0.1447 -0.5348  0.4615
  855TIP3   OH2 2528   5.250   2.509   5.765  0.3653  0.3869 -0.1536
  855TIP3    H1 2529   5.243   2.529   5.672  1.6324 -0.6153 -0.4912
  855TIP3    H2 2530   5.173   2.455   5.784 -0.3951  1.3541 -0.3743
  856TIP3   OH2 2531   1.606   1.745   2.166 -0.2856  0.0068  0.2323
  856TIP3    H1 2532   1.539   1.776   2.227 -0.9786 -1.2296  0.1292
  856TIP3    H2 2533   1.586   1.789   2.083  0.9421  2.0649  0.9381
  857TIP3   OH2 2534   6.432   4.070   2.138 -0.4589  0.1530 -0.3537
  857TIP3    H1 2535   6.403   4.048   2.050 -1.3268  0.6528 -0.2060
  857TIP3    H2 2536   6.351   4.093   2.185  0.1856  1.7193  0.0396
  858TIP3   OH2 2537   3.921   0.134   5.583 -0.0863  0.2639 -0.0602
  858TIP3    H1 2538   3.960   0.168   5.502 -0.9724  1.1952 -0.1130
  858TIP3    H2 2539   3.872   0.057   5.555  2.2491 -1.3976  0.1163
  859TIP3   OH2 2540   6.644   3.232   4.806  0.1616 -0.0994 -0.0917
  859TIP3    H1 2541   6.591   3.226   4.727  1.6867 -1.7934 -1.0516
  859TIP3    H2 2542   6.697   3.310   4.794  0.7171 -0.6000 -0.9763
  860TIP3   OH2 2543   4.186   2.457   3.741 -0.0482  0.4201  0.5252
  860TIP3    H1 2544   4.112   2.429   3.795 -1.3517  0.4214 -1.1674
  860TIP3    H2 2545   4.253   2.390   3.755 -1.1954 -0.7897  0.4466
  861TIP3   OH2 2546   4.205   3.175   5.311  0.3561 -0.0385  0.1496
  861TIP3    H1 2547   4.176   3.094   5.268 -0.5340  0.7802 -0.8691
  861TIP3    H2 2548   4.294   3.187   5.280  0.3417 -0.4038 -0.0461
  862TIP3   OH2 2549   3.060   3.472   1.223 -0.5836 -0.7596  0.1285
  862TIP3    H1 2550   3.006   3.393   1.218 -0.1544 -1.0272 -0.2891
  862TIP3    H2 2551   3.063   3.493   1.317  1.4072 -2.7083  0.5664
  863TIP3   OH2 2552   3.296   1.102   4.688 -0.1271 -0.3956  0.0884
  863TIP3    H1 2553   3.329   1.069   4.772  2.4450  0.0519 -0.6849
  863TIP3    H2 2554   3.289   1.025   4.633 -0.9145 -0.5542  0.3876
  864TIP3   OH2 2555   1.962   1.823   4.219  0.2790 -0.0369  0.6017
  864TIP3    H1 2556   1.990   1.734   4.196 -1.7083 -0.1990 -1.5284
  864TIP3    H2 2557   2.023   1.879   4.172  0.9959 -0.2570  1.2446
  865TIP3   OH2 2558   7.172   4.459   0.547 -0.6531 -0.3581 -0.1719
  865TIP3    H1 2559   7.124   4.378   0.565  0.9953 -0.8619  2.6964
  865TIP3    H2 2560   7.117   4.528   0.585  0.3443 -0.8354  2.3267
  866TIP3   OH2 2561   1.856   5.001   0.522  0.1763  0.0475  0.0073
  866TIP3    H1 2562   1.855   5.003   0.618 -0.3934  2.8819  0.0209
  866TIP3    H2 2563   1.773   5.041   0.496 -0.3059 -1.9148 -1.7389
  867TIP3   OH2 2564   0.416   4.544   4.048  0.4717 -0.6120  0.2479
  867TIP3    H1 2565   0.417   4.449   4.063  1.9832 -1.0281 -2.0045
  867TIP3    H2 2566   0.498   4.561   4.001  0.6319  1.9605  1.3147
  868TIP3   OH2 2567   2.222   2.869   0.774 -0.2807 -0.1830  0.3354
  868TIP3    H1 2568   2.269   2.892   0.693 -0.6417  0.9909  0.4375
  868TIP3    H2 2569   2.232   2.946   0.830 -1.1386 -0.4757  0.9068
  869TIP3   OH2 2570   4.990   1.775   5.031 -0.3716  0.3500  0.0119
  869TIP3    H1 2571   5.044   1.845   4.996  0.6508 -0.7514 -0.6696
  869TIP3    H2 2572   4.967   1.805   5.120  1.1189  0.9674  0.2168
  870TIP3   OH2 2573   1.288   0.516   4.044  0.2160  0.0273 -0.1521
  870TIP3    H1 2574   1.299   0.490   4.136 -1.6058  0.5276  0.2496
  870TIP3    H2 2575   1.284   0.434   3.996 -0.5717 -0.2966  0.4498
  871TIP3   OH2 2576   3.489   4.074   2.905 -0.2421 -0.3846 -0.4021
  871TIP3    H1 2577   3.561   4.052   2.846  0.3262 -0.8354  0.4308
  871TIP3    H2 2578   3.413   4.084   2.848 -0.0822 -2.4918 -1.0600
  872TIP3   OH2 2579   1.001   6.579   5.863  0.0608 -0.1448 -0.1228
  872TIP3    H1 2580   1.056   6.505   5.888 -2.2996 -1.0748  2.9544
  872TIP3    H2 2581   1.063   6.649   5.839  2.4369 -1.9640  0.3780
  873TIP3   OH2 2582   6.349   1.030   4.114  0.6368 -0.5489 -0.2368
  873TIP3    H1 2583   6.394   1.002   4.194 -0.3274  0.9064  0.8781
  873TIP3    H2 2584   6.274   0.971   4.107  1.2777 -1.3275 -0.6509
  874TIP3   OH2 2585   4.031   1.246   1.665  0.2519  0.2097  0.0865
  874TIP3    H1 2586   4.060   1.165   1.706 -4.1397 -0.8578  1.6873
  874TIP3    H2 2587   4.006   1.222   1.576 -0.4375 -0.1045  0.3554
  875TIP3   OH2 2588   4.820   3.621   4.632 -0.3779 -0.1670  0.4728
  875TIP3    H1 2589   4.785   3.697   4.679  1.7044  0.9096  0.3985
  875TIP3    H2 2590   4.858   3.566   4.701  0.1619  0.0250  0.3397
  876TIP3   OH2 2591   6.499   3.388   5.747  0.3960  0.0588  0.1954
  876TIP3    H1 2592   6.494   3.292   5.747 -0.6440  0.0914 -0.1989
  876TIP3    H2 2593   6.482   3.412   5.656 -1.2530  0.6682  0.6253
  877TIP3   OH2 2594   2.043   0.022   3.562  0.7026  0.0192 -0.2796
  877TIP3    H1 2595   2.120   0.079   3.567  0.5253  0.1767  0.8321
  877TIP3    H2 2596   2.032   0.005   3.468  1.5250  0.7589 -0.5227
  878TIP3   OH2 2597   2.888   1.234   5.604  0.1526  0.0528 -0.7500
  878TIP3    H1 2598   2.832   1.302   5.567 -0.9282 -0.4061 -0.0075
  878TIP3    H2 2599   2.846   1.211   5.687  1.8789  0.2627  0.2404
  879TIP3   OH2 2600   0.202   2.353   5.305  0.2019 -0.7616  0.2362
  879TIP3    H1 2601   0.171   2.394   5.386 -0.4520  1.8321 -1.1930
  879TIP3    H2 2602   0.148   2.275   5.295 -0.8114 -0.2707  1.5213
  880TIP3   OH2 2603   5.690   4.357   3.609 -0.5329 -0.5164 -0.5662
  880TIP3    H1 2604   5.766   4.354   3.551 -1.2096 -3.1359 -1.4265
  880TIP3    H2 2605   5.645   4.438   3.585  1.7932  0.9862 -0.1884
  881TIP3   OH2 2606   1.291   0.969   5.265  0.4452  0.3411 -0.1863
  881TIP3    H1 2607   1.270   0.914   5.340 -0.1244 -1.7785 -1.7860
  881TIP3    H2 2608   1.209   1.012   5.242  0.1200 -0.5375 -0.7281
  882TIP3   OH2 2609   6.147   6.671   3.929 -0.0582  0.7561 -0.2379
  882TIP3    H1 2610   6.125   6.591   3.881  0.4404  0.4138  0.0930
  882TIP3    H2 2611   6.077   6.678   3.995  0.5691 -0.1136  0.5538
  883TIP3   OH2 2612   3.755   5.610   4.529  0.2847 -1.1859 -0.4991
  883TIP3    H1 2613   3.719   5.578   4.447  1.8068  0.3526 -1.8391
  883TIP3    H2 2614   3.686   5.666   4.566  0.3797 -0.1217 -1.8633
  884TIP3   OH2 2615   1.908   5.211   5.001  0.1528 -0.1909  0.0279
  884TIP3    H1 2616   1.974   5.168   4.947  1.9432 -0.4445  2.2484
  884TIP3    H2 2617   1.899   5.154   5.078  0.2694  1.7719  1.5925
  885TIP3   OH2 2618   1.655   3.591   4.130 -0.0160 -0.0663 -0.1391
  885TIP3    H1 2619   1.570   3.609   4.090 -0.4801  0.1527  0.8964
  885TIP3    H2 2620   1.704   3.672   4.118 -0.7410  0.5961  1.1460
  886TIP3   OH2 2621   4.117   2.592   3.179 -0.1747 -0.1720  0.0780
  886TIP3    H1 2622   4.169   2.515   3.155  0.4002  0.5445 -1.1079
  886TIP3    H2 2623   4.087   2.575   3.268  1.2972 -1.0481  0.4393
  887TIP3   OH2 2624   5.248   3.403   5.021 -0.2447 -0.5893 -0.1829
  887TIP3    H1 2625   5.336   3.370   5.036 -0.6479 -1.4918  0.2442
  887TIP3    H2 2626   5.190   3.330   5.042 -1.1034  0.0091 -0.3877
  888TIP3   OH2 2627   1.333   0.707   5.643 -0.0358 -1.2363  0.0273
  888TIP3    H1 2628   1.297   0.749   5.565  1.3149 -0.0457  0.0149
  888TIP3    H2 2629   1.427   0.717   5.635  0.1798 -1.9197  1.3778
  889TIP3   OH2 2630   3.645   3.522   5.869  0.2674 -0.2909 -0.8561
  889TIP3    H1 2631   3.558   3.514   5.830 -1.5524  0.0847  2.6671
  889TIP3    H2 2632   3.665   3.615   5.865  0.5501 -0.3913 -1.7650
  890TIP3   OH2 2633   1.688   1.850   4.856 -0.2233 -0.2367  0.1119
  890TIP3    H1 2634   1.603   1.819   4.887 -0.1121 -0.7551 -0.0940
  890TIP3    H2 2635   1.672   1.940   4.828 -0.6246 -0.2155  0.4074
  891TIP3   OH2 2636   6.706   2.354   2.962  0.4188 -0.5696 -0.4477
  891TIP3    H1 2637   6.761   2.306   3.024  2.8155 -1.3427 -3.0076
  891TIP3    H2 2638   6.634   2.293   2.942  0.7953 -1.1526 -0.0577
  892TIP3   OH2 2639   3.202   2.268   2.527 -0.0412  0.0730 -0.1452
  892TIP3    H1 2640   3.217   2.246   2.435  0.1742  2.4844 -0.7465
  892TIP3    H2 2641   3.130   2.211   2.554  0.6532 -1.5077 -1.4233
  893TIP3   OH2 2642   3.931   5.695   1.676  0.0692  0.3437 -0.0582
  893TIP3    H1 2643   3.953   5.743   1.596  0.8491  1.7062  0.9371
  893TIP3    H2 2644   3.979   5.613   1.669  0.2377  0.5114 -0.9168
  894TIP3   OH2 2645   1.020   2.156   3.027  0.1612  0.2185 -0.0699
  894TIP3    H1 2646   1.103   2.130   3.067 -1.1594 -2.0016  1.4397
  894TIP3    H2 2647   0.996   2.083   2.970 -0.9942  0.5644 -0.0636
  895TIP3   OH2 2648   3.411   0.890   4.272 -0.0855 -0.2923  0.1172
  895TIP3    H1 2649   3.372   0.804   4.253 -1.4689  0.5242 -0.9448
  895TIP3    H2 2650   3.393   0.904   4.365  0.7976 -1.4476  0.4850
  896TIP3   OH2 2651   3.701   1.686   3.159  0.0434 -0.0737 -0.3957
  896TIP3    H1 2652   3.791   1.690   3.124  1.0710 -1.2437  1.8997
  896TIP3    H2 2653   3.665   1.606   3.121  0.4035 -0.2465 -0.3801
  897TIP3   OH2 2654   0.454   0.581   4.099  0.0048 -0.3831 -0.0279
  897TIP3    H1 2655   0.368   0.554   4.132 -0.7194  0.1758 -1.3902
  897TIP3    H2 2656   0.510   0.583   4.177 -1.5340  0.5147  1.1139
  898TIP3   OH2 2657   1.872   3.593   2.959  0.2319 -0.0229  0.2938
  898TIP3    H1 2658   1.847   3.587   2.866 -1.1119 -0.7866  0.6878
  898TIP3    H2 2659   1.935   3.521   2.971 -0.5120 -0.6860  0.2518
  899TIP3   OH2 2660   5.955   0.203   4.613 -0.0738  0.0490  0.6478
  899TIP3    H1 2661   5.978   0.111   4.627 -0.2424  0.1907  1.8956
  899TIP3    H2 2662   5.904   0.202   4.531  0.4926 -0.8670  0.2926
  900TIP3   OH2 2663   3.594   1.587   3.894 -0.9032  0.0360  0.1662
  900TIP3    H1 2664   3.685   1.598   3.922 -0.7601 -0.6740 -0.0024
  900TIP3    H2 2665   3.600   1.573   3.800 -1.0250 -1.7559  0.3882
  901TIP3   OH2 2666   3.593   3.123   5.158 -0.5079  0.3674 -0.3607
  901TIP3    H1 2667   3.630   3.169   5.234  1.3297  1.2249 -1.7139
  901TIP3    H2 2668   3.534   3.058   5.197  1.4396 -0.2178  1.9168
  902TIP3   OH2 2669   2.903   4.987   3.361  0.3296 -0.2978 -0.1957
  902TIP3    H1 2670   2.954   5.066   3.380 -0.8741  0.5837 -0.4442
  902TIP3    H2 2671   2.832   4.989   3.425  0.3262 -1.2299 -0.1625
  903TIP3   OH2 2672   5.395   1.959   1.487 -0.1947  0.3111  0.2960
  903TIP3    H1 2673   5.364   2.034   1.435 -1.4385  0.4512  1.2032
  903TIP3    H2 2674   5.433   1.900   1.423 -2.0059  0.3222 -0.8548
  904TIP3   OH2 2675   6.960   5.800   1.713  0.4689  0.6216 -0.0560
  904TIP3    H1 2676   6.959   5.750   1.794 -1.8460  0.9965  0.2355
  904TIP3    H2 2677   7.034   5.859   1.721  0.1599  0.8144  1.9044
  905TIP3   OH2 2678   3.638   4.715   4.872 -0.8274 -0.2488 -0.5089
  905TIP3    H1 2679   3.703   4.650   4.899 -0.1108  0.5000 -0.4004
  905TIP3    H2 2680   3.554   4.670   4.881 -0.4409 -0.7588  0.7569
  906TIP3   OH2 2681   4.818   2.648   1.483 -0.1120  0.0293  0.7054
  906TIP3    H1 2682   4.883   2.683   1.422 -0.2544 -1.7952 -0.6047
  906TIP3    H2 2683   4.858   2.567   1.516 -2.2320 -2.0383 -1.3766
  907TIP3   OH2 2684   7.057   1.083   4.819 -0.2968 -0.3945 -0.7615
  907TIP3    H1 2685   7.045   1.009   4.879 -2.2118  2.3185  2.5759
  907TIP3    H2 2686   7.152   1.094   4.813  0.0143 -0.5494  2.3078
  908TIP3   OH2 2687   3.835   1.465   0.401  0.0565 -0.1108  0.3828
  908TIP3    H1 2688   3.915   1.431   0.360 -0.4794 -1.4006  0.3438
  908TIP3    H2 2689   3.836   1.558   0.382  1.3417 -0.1746  0.0220
  909TIP3   OH2 2690   1.515   1.393   2.359  0.2483 -0.1332 -0.2468
  909TIP3    H1 2691   1.509   1.321   2.421  2.3477 -0.2301 -0.0779
  909TIP3    H2 2692   1.481   1.469   2.407 -0.0537 -0.6109  0.2996
  910TIP3   OH2 2693   3.519   0.813   1.722  0.2360 -0.5584 -0.8539
  910TIP3    H1 2694   3.528   0.908   1.709 -0.0249 -0.4296 -0.1206
  910TIP3    H2 2695   3.570   0.775   1.650  2.9002  0.1395  0.5322
  911TIP3   OH2 2696   2.535   2.362   1.469 -0.4202  0.0785  0.2730
  911TIP3    H1 2697   2.569   2.275   1.449  0.0312  0.4250 -0.5002
  911TIP3    H2 2698   2.614   2.415   1.486 -0.7169  0.1820  1.4178
  912TIP3   OH2 2699   6.863   0.293   1.619 -0.5905  0.7073  0.0671
  912TIP3    H1 2700   6.908   0.335   1.692 -0.0824 -0.1459  0.2632
  912TIP3    H2 2701   6.796   0.238   1.660  0.3704 -0.5762 -0.0237
  913TIP3   OH2 2702   4.494   4.172   0.462 -0.5544  0.5773  0.1447
  913TIP3    H1 2703   4.430   4.103   0.478 -0.7968  1.1366  1.6751
  913TIP3    H2 2704   4.446   4.238   0.412 -0.6553  0.2114 -0.2561
  914TIP3   OH2 2705   6.457   2.391   4.231  0.1074 -0.4910 -0.4749
  914TIP3    H1 2706   6.414   2.309   4.205  0.3121 -0.7731  0.0549
  914TIP3    H2 2707   6.385   2.452   4.245 -0.0933 -0.7791 -0.2187
  915TIP3   OH2 2708   2.472   3.835   5.198 -0.0423 -0.2083  0.4449
  915TIP3    H1 2709   2.535   3.846   5.127  0.6464  1.5846  1.2894
  915TIP3    H2 2710   2.388   3.863   5.160  0.4994  1.7055  0.5843
  916TIP3   OH2 2711   5.777   3.203   1.244 -0.2880 -0.2348  0.1038
  916TIP3    H1 2712   5.815   3.236   1.326  0.1368 -0.1809 -0.1123
  916TIP3    H2 2713   5.769   3.109   1.257 -1.8877 -0.0172  0.8834
  917TIP3   OH2 2714   3.783   6.724   3.709 -0.6434  0.1610 -0.4394
  917TIP3    H1 2715   3.722   6.650   3.718 -2.7537  1.8278 -0.3251
  917TIP3    H2 2716   3.745   6.777   3.639 -0.0775  1.9667  0.5820
  918TIP3   OH2 2717   3.289   4.607   0.171  0.1360  0.1158  0.4175
  918TIP3    H1 2718   3.317   4.673   0.108  1.0437  1.3044  1.9920
  918TIP3    H2 2719   3.354   4.611   0.241 -1.5388 -0.1763  2.0827
  919TIP3   OH2 2720   5.069   1.601   2.001 -0.0083 -0.6950  0.1936
  919TIP3    H1 2721   5.121   1.659   2.057  0.2132 -0.9815  0.2831
  919TIP3    H2 2722   5.124   1.524   1.988 -0.3389 -0.9252  0.1450
  920TIP3   OH2 2723   2.929   0.841   5.657 -0.3617  0.1318 -0.4582
  920TIP3    H1 2724   3.007   0.784   5.663  1.6004  2.6810 -0.0997
  920TIP3    H2 2725   2.889   0.835   5.743  1.1587  0.9982  0.3497
  921TIP3   OH2 2726   5.618   0.996   1.000 -0.1755  0.4603  0.0541
  921TIP3    H1 2727   5.683   1.017   1.067  0.9764  0.7992 -1.1216
  921TIP3    H2 2728   5.645   0.909   0.968  0.8498  1.3675 -1.6968
  922TIP3   OH2 2729   2.203   1.335   1.774 -0.7384  0.6507 -0.1102
  922TIP3    H1 2730   2.194   1.376   1.688 -0.9951 -1.0577 -0.9288
  922TIP3    H2 2731   2.221   1.243   1.756  1.6656  0.6892  1.6663
  923TIP3   OH2 2732   1.547   0.107   2.813  0.1902  0.0131 -0.0724
  923TIP3    H1 2733   1.492   0.183   2.794  0.1613  0.0547  0.1629
  923TIP3    H2 2734   1.623   0.144   2.858 -0.2518 -0.1858  0.8709
  924TIP3   OH2 2735   3.068   2.447   0.933 -0.4662 -0.8896 -0.1443
  924TIP3    H1 2736   3.136   2.458   0.999 -1.1770 -0.1652  0.4854
  924TIP3    H2 2737   2.991   2.492   0.969 -0.7331 -0.0463 -1.6628
  925TIP3   OH2 2738   6.504   0.393   1.552  0.4859 -0.2184 -0.0524
  925TIP3    H1 2739   6.525   0.301   1.561 -0.4456 -0.3762  0.6120
  925TIP3    H2 2740   6.575   0.429   1.498  0.9887 -1.2568 -0.0963
  926TIP3   OH2 2741   4.044   2.420   0.053 -0.0617  0.3719 -0.0769
  926TIP3    H1 2742   4.033   2.480   0.127 -0.6649 -0.4113  0.4942
  926TIP3    H2 2743   4.137   2.397   0.055  0.4969  2.3105 -1.1511
  927TIP3   OH2 2744   5.030   4.659   1.417 -0.8988  0.3802  0.7605
  927TIP3    H1 2745   5.099   4.620   1.363 -1.5258  0.3537 -0.0415
  927TIP3    H2 2746   5.041   4.753   1.405 -1.5523  0.3579 -0.0916
  928TIP3   OH2 2747   6.137   4.832   0.587  0.5848 -0.3228 -0.3890
  928TIP3    H1 2748   6.114   4.875   0.504 -2.1649 -1.0703 -0.1162
  928TIP3    H2 2749   6.083   4.876   0.652  2.2264 -0.2003  0.9586
  929TIP3   OH2 2750   6.371   6.639   2.649  0.5507 -0.1592  0.2190
  929TIP3    H1 2751   6.336   6.720   2.686 -0.5821 -0.6279  0.2302
  929TIP3    H2 2752   6.439   6.667   2.588  1.9483  0.6856  2.0636
  930TIP3   OH2 2753   3.998   4.773   1.579 -0.5375 -0.2785  0.2068
  930TIP3    H1 2754   4.023   4.739   1.665  1.8053  0.3185 -0.1712
  930TIP3    H2 2755   3.981   4.866   1.594  1.9439  0.3116 -0.2647
  931TIP3   OH2 2756   6.214   0.314   4.187 -0.4620 -0.2401  0.1664
  931TIP3    H1 2757   6.135   0.349   4.145 -1.0800 -1.0992  0.5669
  931TIP3    H2 2758   6.205   0.219   4.177 -0.0546 -0.3967  1.2468
  932TIP3   OH2 2759   1.672   5.757   1.348 -0.1717  0.7469  0.8712
  932TIP3    H1 2760   1.640   5.751   1.258  1.3002 -1.2561  0.3955
  932TIP3    H2 2761   1.612   5.702   1.399 -0.1211  0.6527  0.8290
  933TIP3   OH2 2762   2.863   6.228   1.336 -0.2090 -0.2172  0.5792
  933TIP3    H1 2763   2.923   6.155   1.354  1.7366  1.3795  0.9042
  933TIP3    H2 2764   2.900   6.302   1.385 -1.7891  1.1366 -0.1896
  934TIP3   OH2 2765   1.417   0.478   3.303 -0.2745  0.4849  0.6837
  934TIP3    H1 2766   1.460   0.429   3.233  2.5545  0.7968  2.0809
  934TIP3    H2 2767   1.381   0.411   3.361 -1.2240  0.2148 -0.1726
  935TIP3   OH2 2768   7.018   3.902   1.976  0.2173 -0.4633  0.2794
  935TIP3    H1 2769   7.044   3.848   1.901  0.9461 -0.7802  0.7410
  935TIP3    H2 2770   6.923   3.901   1.976  0.1678  0.6545 -1.4364
  936TIP3   OH2 2771   2.612   5.098   3.771 -0.0949 -0.1057 -0.3007
  936TIP3    H1 2772   2.573   5.185   3.764 -0.5386 -0.2472  0.3553
  936TIP3    H2 2773   2.683   5.109   3.834  0.0982 -0.1387 -0.5102
  937TIP3   OH2 2774   2.021   0.519   5.684 -0.3542  0.4137 -0.4881
  937TIP3    H1 2775   1.932   0.497   5.712 -1.2455  0.3364 -3.0976
  937TIP3    H2 2776   2.010   0.552   5.595  2.3644 -0.6167 -1.2776
  938TIP3   OH2 2777   2.158   1.395   0.626  0.4172 -0.2189  0.8175
  938TIP3    H1 2778   2.241   1.404   0.673  1.3171 -1.3699 -0.4813
  938TIP3    H2 2779   2.183   1.393   0.533 -1.1370  0.1366  0.3651
  939TIP3   OH2 2780   0.000   3.438   3.944 -0.2335  0.2683  0.2833
  939TIP3    H1 2781   0.068   3.408   3.883  1.1409  1.5984  1.1006
  939TIP3    H2 2782   0.004   3.376   4.016  1.4743  1.3552  1.2031
  940TIP3   OH2 2783   6.370   2.060   2.242  0.3010 -0.6186  0.0220
  940TIP3    H1 2784   6.319   2.006   2.302 -0.0809 -0.3214 -0.0301
  940TIP3    H2 2785   6.304   2.103   2.187  0.6308 -0.6507 -0.4042
  941TIP3   OH2 2786   4.945   5.499   5.685  0.6005  0.3208 -0.2202
  941TIP3    H1 2787   4.966   5.410   5.712 -1.1419  0.2064  0.9347
  941TIP3    H2 2788   4.929   5.493   5.590  1.0170 -0.4819 -0.2395
  942TIP3   OH2 2789   4.291   6.753   5.422  0.0838  0.4259  0.5208
  942TIP3    H1 2790   4.201   6.785   5.417  0.8988  2.9377  0.5555
  942TIP3    H2 2791   4.290   6.670   5.374 -2.1283  0.6390  0.0927
  943TIP3   OH2 2792   2.481   3.761   4.575  0.2251  0.2221  0.4055
  943TIP3    H1 2793   2.545   3.708   4.528  0.8835 -1.2123  2.7489
  943TIP3    H2 2794   2.448   3.823   4.510 -0.1098 -2.6047 -2.3483
  944TIP3   OH2 2795   2.875   5.795   5.511 -0.1876 -0.5051 -0.8026
  944TIP3    H1 2796   2.855   5.703   5.532 -1.1429  0.4353  3.1807
  944TIP3    H2 2797   2.967   5.805   5.536 -0.7439  0.0986  1.2298
  945TIP3   OH2 2798   0.825   2.908   4.135 -0.5371  0.0201 -0.4972
  945TIP3    H1 2799   0.856   2.997   4.117 -0.8733  0.2542  0.0724
  945TIP3    H2 2800   0.897   2.852   4.104 -0.0737  0.5084 -0.3258
  946TIP3   OH2 2801   2.451   3.151   2.267  0.0720 -0.1479  0.1571
  946TIP3    H1 2802   2.499   3.069   2.257  2.0568  0.8479  0.9716
  946TIP3    H2 2803   2.454   3.170   2.361 -1.9126  0.0061  0.2377
  947TIP3   OH2 2804   5.013   2.473   3.601  0.0028  0.1207  0.3892
  947TIP3    H1 2805   4.969   2.479   3.516  0.8056  1.5444  0.0435
  947TIP3    H2 2806   4.971   2.541   3.654  1.1898  0.9332  0.3131
  948TIP3   OH2 2807   1.925   2.905   0.802 -0.3161  0.3288 -0.1729
  948TIP3    H1 2808   1.923   2.896   0.898  0.6655  4.3772  0.4255
  948TIP3    H2 2809   2.018   2.912   0.781 -0.5729  0.6066 -1.2767
  949TIP3   OH2 2810   3.682   0.981   4.184  0.1233  0.0902 -0.5137
  949TIP3    H1 2811   3.617   0.913   4.204  0.2388 -0.3010 -1.4113
  949TIP3    H2 2812   3.630   1.054   4.149 -0.0403  0.6309  0.8104
  950TIP3   OH2 2813   5.928   4.437   3.382 -0.1826  0.4582 -0.1045
  950TIP3    H1 2814   5.866   4.479   3.323 -0.2702  0.0316 -0.3223
  950TIP3    H2 2815   6.013   4.473   3.357  0.0328 -0.9573 -1.6825
  951TIP3   OH2 2816   0.755   3.593   0.968 -0.0554 -0.5106  0.0193
  951TIP3    H1 2817   0.731   3.500   0.968 -0.6314 -0.3817  1.1377
  951TIP3    H2 2818   0.828   3.598   1.030  0.9700 -0.4415 -1.1717
  952TIP3   OH2 2819   5.117   0.400   3.392 -0.4601 -0.1008 -0.1278
  952TIP3    H1 2820   5.074   0.365   3.470  1.5142 -0.8300  0.6845
  952TIP3    H2 2821   5.143   0.489   3.416 -2.2041  0.6897 -0.9359
  953TIP3   OH2 2822   5.589   1.151   0.685  0.6642 -0.3494 -0.3657
  953TIP3    H1 2823   5.522   1.119   0.745  1.6105 -1.3385  0.2171
  953TIP3    H2 2824   5.670   1.111   0.717  1.0494 -1.9379 -2.9767
  954TIP3   OH2 2825   4.249   1.636   1.850 -0.0311 -0.3335  0.1731
  954TIP3    H1 2826   4.320   1.592   1.897  0.6601 -0.3163 -0.8459
  954TIP3    H2 2827   4.238   1.586   1.769 -0.4919  0.2758 -0.1542
  955TIP3   OH2 2828   1.034   2.188   1.005 -0.5385 -0.0231  0.4354
  955TIP3    H1 2829   1.028   2.124   1.076  0.8325 -0.8622 -0.1634
  955TIP3    H2 2830   1.089   2.258   1.040  0.1549 -0.4470  0.1996
  956TIP3   OH2 2831   2.974   6.423   3.173 -0.4759 -0.1717 -0.4542
  956TIP3    H1 2832   2.909   6.449   3.238 -0.0924 -1.2999  0.4018
  956TIP3    H2 2833   2.940   6.456   3.090 -2.6800 -1.6182 -0.1970
  957TIP3   OH2 2834   6.288   1.624   2.809  0.2672 -0.7348  0.1344
  957TIP3    H1 2835   6.367   1.570   2.811  0.7857  0.0004  0.4062
  957TIP3    H2 2836   6.224   1.574   2.759  0.8235 -1.4646  0.1514
  958TIP3   OH2 2837   6.191   0.401   2.913  0.0028  0.5433 -0.2520
  958TIP3    H1 2838   6.208   0.320   2.864 -2.5440 -0.1406 -0.1666
  958TIP3    H2 2839   6.193   0.470   2.846 -1.7059 -0.1591 -1.0964
  959TIP3   OH2 2840   3.216   2.595   4.405 -0.3228  0.0575 -0.2083
  959TIP3    H1 2841   3.201   2.690   4.405 -0.7994 -0.0034  0.7465
  959TIP3    H2 2842   3.219   2.572   4.498 -2.1455 -1.1667 -0.4022
  960TIP3   OH2 2843   4.741   0.832   0.024  0.1825  0.3960 -0.2669
  960TIP3    H1 2844   4.769   0.747  -0.010 -1.5439  0.8297 -3.1632
  960TIP3    H2 2845   4.661   0.812   0.073 -0.7660  0.3695 -1.7525
  961TIP3   OH2 2846   4.719   6.756   5.413  0.0540 -0.1461  0.0026
  961TIP3    H1 2847   4.714   6.704   5.493  1.4232 -0.4750 -0.1035
  961TIP3    H2 2848   4.743   6.844   5.443  0.0398 -0.1388 -0.0072
  962TIP3   OH2 2849   4.099   0.573   2.266  0.5224 -0.1517  0.1346
  962TIP3    H1 2850   4.089   0.542   2.176  0.4680  1.4606 -0.4459
  962TIP3    H2 2851   4.023   0.537   2.313 -0.1781  0.0748 -0.7968
  963TIP3   OH2 2852   1.647   5.050   3.303  0.3398  0.0266 -0.0687
  963TIP3    H1 2853   1.724   5.001   3.333  0.1296  0.6540  1.6457
  963TIP3    H2 2854   1.598   5.069   3.383  0.2676  2.7501 -0.6349
  964TIP3   OH2 2855   0.349   6.270   1.032  0.1891  0.5307 -0.5075
  964TIP3    H1 2856   0.349   6.177   1.057  0.9667  0.9452  1.1958
  964TIP3    H2 2857   0.267   6.304   1.068  0.1428  0.6215 -0.6977
  965TIP3   OH2 2858   0.128   5.435   3.621 -0.3033  0.0929  0.5373
  965TIP3    H1 2859   0.129   5.420   3.527 -1.5340  0.3196  0.4805
  965TIP3    H2 2860   0.144   5.529   3.631 -0.2939  0.0894  0.5568
  966TIP3   OH2 2861   4.644   6.105   3.983 -0.1980  0.3539  0.6609
  966TIP3    H1 2862   4.581   6.154   4.036 -1.8457 -0.9497 -0.0223
  966TIP3    H2 2863   4.674   6.034   4.040 -2.1818 -1.2169 -0.1364
  967TIP3   OH2 2864   1.351   0.955   2.541 -0.3259  0.1569  0.3819
  967TIP3    H1 2865   1.346   0.883   2.477 -0.3882 -1.1675  1.8068
  967TIP3    H2 2866   1.268   1.000   2.532  0.1172  0.7206 -1.2511
  968TIP3   OH2 2867   6.565   0.111   4.726 -0.2015 -0.0362 -0.1339
  968TIP3    H1 2868   6.515   0.146   4.800  2.6536 -0.0397  1.9710
  968TIP3    H2 2869   6.655   0.139   4.743  1.0116 -2.3480 -2.2199
  969TIP3   OH2 2870   1.659   2.917   0.972 -0.2041 -0.6825  0.3173
  969TIP3    H1 2871   1.694   2.829   0.983 -0.7256 -0.9766 -0.3039
  969TIP3    H2 2872   1.568   2.903   0.946 -0.1577  0.0335 -0.2622
  970TIP3   OH2 2873   5.265   0.577   1.159  0.2896 -0.0390  0.4856
  970TIP3    H1 2874   5.341   0.524   1.136  1.0452 -0.5391  3.6038
  970TIP3    H2 2875   5.287   0.665   1.131  0.4792 -0.7368 -1.7260
  971TIP3   OH2 2876   2.000   4.992   4.080 -0.3309 -0.1111  0.1569
  971TIP3    H1 2877   1.967   5.004   3.991 -0.2501 -1.6970 -0.1036
  971TIP3    H2 2878   2.093   5.014   4.074 -0.3438 -0.1248 -0.1193
  972TIP3   OH2 2879   5.771   1.054   4.769  0.0494 -0.2748 -0.7237
  972TIP3    H1 2880   5.797   1.125   4.710  0.8626 -2.4385 -3.1789
  972TIP3    H2 2881   5.696   1.014   4.726 -2.0237  0.5156  1.9082
  973TIP3   OH2 2882   0.123   3.396   4.643  0.1542  0.3725 -0.0153
  973TIP3    H1 2883   0.035   3.359   4.643 -0.4810  1.7841  1.3168
  973TIP3    H2 2884   0.135   3.430   4.732  2.1189  0.0819 -0.1057
  974TIP3   OH2 2885   6.488   2.935   3.489  0.9397  0.0623  0.1783
  974TIP3    H1 2886   6.498   2.889   3.405  0.7080  1.3431 -0.5748
  974TIP3    H2 2887   6.404   2.903   3.523 -0.0178  1.1081 -1.1227
  975TIP3   OH2 2888   1.363   6.497   3.796 -0.0854  0.5686 -0.3254
  975TIP3    H1 2889   1.297   6.450   3.746  0.9468  0.2419 -1.4269
  975TIP3    H2 2890   1.360   6.457   3.883 -1.2747  0.5226 -0.3763
  976TIP3   OH2 2891   4.632   5.939   2.823 -0.2445  0.3374  0.7469
  976TIP3    H1 2892   4.658   5.847   2.827 -0.6908  0.2274  1.2755
  976TIP3    H2 2893   4.694   5.979   2.762 -0.0927 -0.3266  0.4568
  977TIP3   OH2 2894   5.691   5.714   5.768 -0.3011 -0.1951 -0.4403
  977TIP3    H1 2895   5.732   5.690   5.685  1.2343  0.9153 -0.0532
  977TIP3    H2 2896   5.675   5.808   5.760 -2.6263 -0.5431 -0.4708
  978TIP3   OH2 2897   6.874   0.574   1.193 -0.3102  0.0629  0.2003
  978TIP3    H1 2898   6.822   0.534   1.124 -1.3085  0.0311  0.9588
  978TIP3    H2 2899   6.832   0.547   1.274  1.6796 -1.0865  0.9092
  979TIP3   OH2 2900   1.592   5.902   4.219  0.4289  0.2630 -0.0307
  979TIP3    H1 2901   1.585   5.980   4.163  0.3579 -0.4834 -1.0903
  979TIP3    H2 2902   1.681   5.906   4.254  0.7154  0.3769 -0.7537
  980TIP3   OH2 2903   6.112   0.838   2.723 -0.5562 -0.6102 -0.3162
  980TIP3    H1 2904   6.143   0.877   2.804 -1.0039 -1.3534  0.2186
  980TIP3    H2 2905   6.188   0.840   2.665  0.4749 -2.1900  0.8905
  981TIP3   OH2 2906   0.839   3.185   1.801 -0.2282 -0.1519 -0.3977
  981TIP3    H1 2907   0.750   3.167   1.770  0.4624 -1.9488 -1.4780
  981TIP3    H2 2908   0.827   3.223   1.888 -2.1009  1.3205 -1.2158
  982TIP3   OH2 2909   6.879   6.663   2.825  0.2664  0.6557  0.3055
  982TIP3    H1 2910   6.817   6.591   2.817  0.3743  0.6434 -0.4564
  982TIP3    H2 2911   6.898   6.668   2.919 -0.4930  0.3342  0.4836
  983TIP3   OH2 2912   0.473   0.101   4.964 -0.0213  0.2214 -0.3080
  983TIP3    H1 2913   0.392   0.094   4.913  0.1301  0.6089 -0.6021
  983TIP3    H2 2914   0.467   0.029   5.028  0.1095 -0.7123 -1.3209
  984TIP3   OH2 2915   5.779   0.364   2.392 -0.4514  0.0963  1.0470
  984TIP3    H1 2916   5.715   0.389   2.457 -1.7236  1.7878 -0.7471
  984TIP3    H2 2917   5.736   0.379   2.308  1.6254 -0.5588 -0.2249
  985TIP3   OH2 2918   6.870   1.864   5.873  0.1695 -0.1240 -1.2656
  985TIP3    H1 2919   6.813   1.938   5.851  1.7479  1.6873  0.3172
  985TIP3    H2 2920   6.957   1.892   5.844  1.1278 -0.4687  1.0159
  986TIP3   OH2 2921   1.965   0.675   4.880  0.1870  0.4902 -0.6209
  986TIP3    H1 2922   1.902   0.726   4.829  1.3582  1.3971 -1.2117
  986TIP3    H2 2923   2.029   0.740   4.911  0.2976 -0.2593  0.8086
  987TIP3   OH2 2924   3.262   2.501   2.342 -0.5372  0.2102  0.5571
  987TIP3    H1 2925   3.234   2.419   2.302 -0.8262 -0.0007  1.1770
  987TIP3    H2 2926   3.308   2.474   2.421 -1.0843  0.6569  1.0361
  988TIP3   OH2 2927   3.261   3.398   3.866  0.0563  0.0569 -0.0270
  988TIP3    H1 2928   3.201   3.467   3.895 -0.8501 -0.2967 -0.9924
  988TIP3    H2 2929   3.203   3.326   3.839  0.9049 -0.2307 -1.1321
  989TIP3   OH2 2930   0.092   1.140   1.195 -0.3308  0.0957  0.6998
  989TIP3    H1 2931   0.177   1.105   1.222 -0.2897 -0.0967  0.3317
  989TIP3    H2 2932   0.028   1.083   1.237 -0.2793  0.2201  0.9500
  990TIP3   OH2 2933   3.950   6.153   5.632  0.1362 -0.0847  0.0857
  990TIP3    H1 2934   3.989   6.184   5.550 -0.6288  0.1165 -0.2125
  990TIP3    H2 2935   3.938   6.233   5.683 -0.5864 -0.0526 -0.1333
  991TIP3   OH2 2936   2.314   2.287   4.804 -0.0485  0.2177 -0.3734
  991TIP3    H1 2937   2.303   2.213   4.745  0.2525 -1.2195  1.2828
  991TIP3    H2 2938   2.392   2.333   4.771 -0.1314 -0.2926 -1.3104
  992TIP3   OH2 2939   5.422   2.005   1.035 -0.3760 -0.3590  0.2675
  992TIP3    H1 2940   5.360   1.964   0.975  0.5051 -0.6370 -0.4647
  992TIP3    H2 2941   5.433   1.941   1.106 -0.8029 -0.3706  0.3256
  993TIP3   OH2 2942   5.757   2.454   4.722  0.3732  0.2734  0.0405
  993TIP3    H1 2943   5.697   2.492   4.787 -1.4876 -0.9586 -0.8737
  993TIP3    H2 2944   5.824   2.411   4.774 -1.3029 -1.0619  1.2314
  994TIP3   OH2 2945   6.476   5.866   4.344  0.1962 -0.2100  0.1845
  994TIP3    H1 2946   6.424   5.803   4.392  0.6022 -0.5210  0.2186
  994TIP3    H2 2947   6.518   5.920   4.411 -1.2235  1.0017  0.1542
  995TIP3   OH2 2948   0.532   0.434   2.731 -0.4309 -0.2242 -0.2454
  995TIP3    H1 2949   0.593   0.376   2.683  0.7187 -0.9586  1.9805
  995TIP3    H2 2950   0.466   0.375   2.766 -0.0905 -0.0159  0.7849
  996TIP3   OH2 2951   2.973   6.758   3.759 -0.5786  0.4058  0.3510
  996TIP3    H1 2952   2.989   6.705   3.681 -1.2139 -0.7431  0.9840
  996TIP3    H2 2953   2.879   6.751   3.774 -0.9358  2.8206 -0.3014
  997TIP3   OH2 2954   5.480   6.726   2.045  0.0336  0.4454 -0.4761
  997TIP3    H1 2955   5.574   6.737   2.031  0.1921  2.3841  1.5979
  997TIP3    H2 2956   5.468   6.631   2.054  2.3546  0.2873  2.1912
  998TIP3   OH2 2957   1.239   1.105   2.775  0.0176 -0.3360  0.0747
  998TIP3    H1 2958   1.332   1.114   2.796 -0.3068  0.2934  1.3724
  998TIP3    H2 2959   1.202   1.056   2.849 -0.8515  0.2884  0.0736
  999TIP3   OH2 2960   5.510   2.827   1.513  0.2190  0.0656  0.5097
  999TIP3    H1 2961   5.558   2.757   1.557  0.7751 -1.2804 -2.0498
  999TIP3    H2 2962   5.506   2.800   1.421 -2.3200  1.9026 -0.0293
 1000TIP3   OH2 2963   0.827   0.936   2.987 -0.1843 -0.7978  0.1742
 1000TIP3    H1 2964   0.780   0.883   3.050  0.6668 -0.8182  0.8123
 1000TIP3    H2 2965   0.840   0.878   2.911 -0.9019 -0.8853  0.1176
 1001TIP3   OH2 2966   2.403   4.796   1.359 -0.3928 -0.0774 -0.0652
 1001TIP3    H1 2967   2.396   4.704   1.331 -1.3545  0.4451 -1.7110
 1001TIP3    H2 2968   2.494   4.818   1.343 -0.5581 -0.2633 -1.3860
 1002TIP3   OH2 2969   0.663   4.849   2.820 -0.3389 -0.0308 -0.0863
 1002TIP3    H1 2970   0.583   4.830   2.870 -0.0799  1.8493  1.1547
 1002TIP3    H2 2971   0.727   4.875   2.887  0.7908  0.1886 -1.2118
 1003TIP3   OH2 2972   5.524   0.369   0.310  0.1624 -0.2418 -0.1876
 1003TIP3    H1 2973   5.585   0.364   0.236  0.8321  1.2608  0.2321
 1003TIP3    H2 2974   5.508   0.278   0.334  1.9285 -0.6874 -0.5749
 1004TIP3   OH2 2975   7.034   1.759   4.950 -0.1566 -0.2183 -0.6256
 1004TIP3    H1 2976   6.954   1.720   4.914 -0.3249 -0.0777 -0.4086
 1004TIP3    H2 2977   7.051   1.709   5.029  0.1779 -0.4841 -0.8625
 1005TIP3   OH2 2978   4.206   1.256   5.774 -0.6557  0.1550  0.1673
 1005TIP3    H1 2979   4.217   1.187   5.839 -0.9609  0.4000  0.4873
 1005TIP3    H2 2980   4.287   1.308   5.781 -0.0544 -0.6514 -0.6715
 1006TIP3   OH2 2981   4.728   6.290   2.536 -0.4954 -0.4880  0.1794
 1006TIP3    H1 2982   4.700   6.363   2.591  1.4676  0.4518  0.0334
 1006TIP3    H2 2983   4.647   6.242   2.516 -1.5980  0.6337  1.7084
 1007TIP3   OH2 2984   7.135   6.166   1.080 -0.0280 -0.5887  0.4623
 1007TIP3    H1 2985   7.189   6.235   1.118 -1.4414  0.7984  0.0508
 1007TIP3    H2 2986   7.045   6.198   1.088 -0.6386 -1.8428 -0.8057
 1008TIP3   OH2 2987   0.639   3.632   3.734  0.1420 -0.1786 -0.7140
 1008TIP3    H1 2988   0.706   3.587   3.786  0.5245  1.0777 -0.0800
 1008TIP3    H2 2989   0.646   3.724   3.760 -0.8373  0.2087 -1.7308
 1009TIP3   OH2 2990   5.541   2.036   4.128 -0.2854 -0.2242 -0.0618
 1009TIP3    H1 2991   5.518   2.041   4.220 -0.1099  0.7409 -0.0671
 1009TIP3    H2 2992   5.620   2.089   4.119 -0.1721 -0.4927 -0.7272
 1010TIP3   OH2 2993   1.157   0.381   5.085 -0.1539 -0.1218  0.7734
 1010TIP3    H1 2994   1.118   0.348   5.004  1.6842 -0.2463 -0.1319
 1010TIP3    H2 2995   1.171   0.303   5.138  0.1481 -0.2689  0.4874
 1011TIP3   OH2 2996   0.101   2.987   2.119  0.2594 -0.6828  0.2773
 1011TIP3    H1 2997   0.191   3.000   2.089 -0.3591 -1.6464 -2.2289
 1011TIP3    H2 2998   0.092   2.892   2.126 -0.7636 -0.6257 -0.1892
 1012TIP3   OH2 2999   3.069   5.595   2.711 -0.1036  0.5672  0.2367
 1012TIP3    H1 3000   3.157   5.599   2.747  0.1864 -0.0811 -0.3897
 1012TIP3    H2 3001   3.080   5.562   2.622 -0.9215  1.0784 -0.0693
 1013TIP3   OH2 3002   4.002   4.325   2.165  0.1054  0.0919 -0.0902
 1013TIP3    H1 3003   3.971   4.370   2.087 -0.8963 -1.1054 -0.4187
 1013TIP3    H2 3004   3.998   4.391   2.234 -2.0835  0.3508 -0.3835
 1014TIP3   OH2 3005   7.159   2.836   3.772 -0.0022  0.1550  0.3800
 1014TIP3    H1 3006   7.239   2.798   3.807 -0.6875 -1.6579  0.0874
 1014TIP3    H2 3007   7.168   2.930   3.787  2.1253 -0.0146  0.4277
 1015TIP3   OH2 3008   3.784   3.506   3.986  0.6756  0.0927 -0.2014
 1015TIP3    H1 3009   3.752   3.419   3.964 -0.1212  0.3255 -0.0010
 1015TIP3    H2 3010   3.768   3.514   4.080  1.2310  0.2548 -0.1209
 1016TIP3   OH2 3011   2.893   1.556   4.951 -0.4594 -0.1787  0.4345
 1016TIP3    H1 3012   2.945   1.582   5.028 -1.7014  2.0352  0.6102
 1016TIP3    H2 3013   2.855   1.471   4.975  0.4918 -0.3066  1.5817
 1017TIP3   OH2 3014   1.404   4.207   5.507  0.3182  0.0758  0.4245
 1017TIP3    H1 3015   1.496   4.232   5.507  0.2029  0.5357 -0.7700
 1017TIP3    H2 3016   1.404   4.120   5.467  0.0791  0.7326 -1.0391
 1018TIP3   OH2 3017   1.682   4.858   3.021 -0.0476  0.2042  0.0052
 1018TIP3    H1 3018   1.623   4.887   2.952 -0.1429  0.5163  0.2145
 1018TIP3    H2 3019   1.713   4.939   3.062  1.8002  0.1435 -1.1344
 1019TIP3   OH2 3020   1.751   6.290   5.748  0.1318 -0.5479 -0.2648
 1019TIP3    H1 3021   1.657   6.273   5.759 -0.0752 -1.1878 -2.5426
 1019TIP3    H2 3022   1.755   6.373   5.701  0.8595  0.7256  1.8654
 1020TIP3   OH2 3023   1.858   2.918   5.082  0.1848  0.4440  0.0145
 1020TIP3    H1 3024   1.769   2.926   5.047  0.7179  1.3014 -1.2179
 1020TIP3    H2 3025   1.846   2.899   5.175 -1.2818 -0.3317 -0.3033
 1021TIP3   OH2 3026   6.747   3.921   2.511  0.1190 -0.0163  0.3469
 1021TIP3    H1 3027   6.731   3.943   2.602 -0.6960 -0.3617  0.2921
 1021TIP3    H2 3028   6.685   3.974   2.461  0.7596  0.3955 -0.0365
 1022TIP3   OH2 3029   1.117   4.359   3.083  0.1442 -0.1141 -0.1039
 1022TIP3    H1 3030   1.081   4.278   3.121  1.3032  0.0985  1.5344
 1022TIP3    H2 3031   1.050   4.425   3.101 -1.4032 -0.8717 -2.5670
 1023TIP3   OH2 3032   1.654   3.232   2.836  0.3975 -0.0047 -0.6115
 1023TIP3    H1 3033   1.649   3.180   2.756 -0.3497  1.8635 -1.8448
 1023TIP3    H2 3034   1.715   3.303   2.815 -0.0550  0.6876  0.3571
 1024TIP3   OH2 3035   5.953   5.678   5.017  0.6628 -0.4702 -0.6868
 1024TIP3    H1 3036   5.943   5.706   4.926  1.5937  0.4986 -0.5111
 1024TIP3    H2 3037   5.938   5.756   5.069 -0.0979 -1.0681  0.0215
 1025TIP3   OH2 3038   5.494   6.413   0.439 -0.3248 -0.0998  0.2305
 1025TIP3    H1 3039   5.458   6.440   0.524 -1.3166 -0.6997  0.0263
 1025TIP3    H2 3040   5.549   6.338   0.458 -1.7056 -1.1587  0.2020
 1026TIP3   OH2 3041   6.301   5.765   4.998 -0.1489 -0.0906  0.5602
 1026TIP3    H1 3042   6.218   5.770   4.952 -0.0601 -0.6757  0.3280
 1026TIP3    H2 3043   6.291   5.824   5.072  0.1158  1.7899 -0.8311
 1027TIP3   OH2 3044   3.013   3.010   1.025 -0.2294 -0.0044 -0.2031
 1027TIP3    H1 3045   2.984   3.083   1.079  1.9047 -0.5385  1.8112
 1027TIP3    H2 3046   3.064   3.051   0.955  0.6818  0.4768  0.7252
 1028TIP3   OH2 3047   5.706   2.544   0.050  0.2793 -0.0039 -0.5319
 1028TIP3    H1 3048   5.738   2.505  -0.032 -0.8943 -0.3473 -0.8482
 1028TIP3    H2 3049   5.731   2.482   0.118  0.1698 -0.3259 -0.7865
 1029TIP3   OH2 3050   0.854   6.224   2.390 -0.2866 -0.0691  0.2298
 1029TIP3    H1 3051   0.942   6.190   2.399  0.0320  0.3365 -1.1329
 1029TIP3    H2 3052   0.811   6.164   2.329 -0.8119  0.0025  0.5213
 1030TIP3   OH2 3053   3.737   0.338   3.166  0.1181 -0.1973 -0.4469
 1030TIP3    H1 3054   3.810   0.400   3.172  0.8703 -1.1117  0.2849
 1030TIP3    H2 3055   3.773   0.264   3.117 -0.5347 -0.3694 -0.6666
 1031TIP3   OH2 3056   0.312   5.509   1.557  0.2875 -0.0848  0.6960
 1031TIP3    H1 3057   0.309   5.471   1.645 -0.3123 -0.3199  0.5769
 1031TIP3    H2 3058   0.244   5.463   1.509  1.3315 -0.7395 -0.2075
 1032TIP3   OH2 3059   3.406   1.806   3.927  0.2350 -0.2298  0.0731
 1032TIP3    H1 3060   3.482   1.748   3.918 -1.3913 -2.6959  1.3660
 1032TIP3    H2 3061   3.346   1.778   3.858 -0.2767  0.4486  0.2311
 1033TIP3   OH2 3062   2.019   1.910   2.366 -0.4329  0.2114  0.1623
 1033TIP3    H1 3063   2.035   1.837   2.426 -1.1190  0.4867  0.6889
 1033TIP3    H2 3064   1.927   1.903   2.343 -1.1567  2.2834  2.1121
 1034TIP3   OH2 3065   3.263   1.054   0.522 -0.1850 -0.5569  0.2993
 1034TIP3    H1 3066   3.180   1.018   0.553 -0.0139  1.3019  3.3292
 1034TIP3    H2 3067   3.249   1.149   0.524  0.8738 -0.2153 -2.8166
 1035TIP3   OH2 3068   5.787   3.227   3.917  0.5001  0.0673  0.0713
 1035TIP3    H1 3069   5.870   3.274   3.931  1.1268 -0.9350 -0.1784
 1035TIP3    H2 3070   5.749   3.267   3.839 -0.7422  2.5600  1.8421
 1036TIP3   OH2 3071   0.945   1.341   4.023  0.0791 -0.4371  0.4341
 1036TIP3    H1 3072   0.855   1.357   3.992  0.3556  0.2043 -0.0662
 1036TIP3    H2 3073   0.940   1.258   4.069 -0.6579 -0.6968 -0.0967
 1037TIP3   OH2 3074   5.505   5.338   0.490 -0.3163 -0.5042 -0.5835
 1037TIP3    H1 3075   5.478   5.371   0.576  3.1280 -0.3500  0.5653
 1037TIP3    H2 3076   5.504   5.414   0.433  0.5207  0.0896  0.1779
 1038TIP3   OH2 3077   2.872   6.683   1.389  0.2892 -0.7328  0.7154
 1038TIP3    H1 3078   2.796   6.700   1.334  0.2891  0.5688  1.1043
 1038TIP3    H2 3079   2.944   6.672   1.327  0.1782  0.1293  0.4283
 1039TIP3   OH2 3080   0.261   2.389   2.973 -0.3904 -0.0237  0.1124
 1039TIP3    H1 3081   0.316   2.386   2.895  0.9497  0.4123  1.0123
 1039TIP3    H2 3082   0.243   2.482   2.986 -1.0411 -0.1357  0.0379
 1040TIP3   OH2 3083   4.158   0.633   4.589  0.4067  0.6901 -0.3182
 1040TIP3    H1 3084   4.230   0.605   4.533 -0.0369 -0.4344 -0.3375
 1040TIP3    H2 3085   4.079   0.606   4.543  0.0273 -0.0622  0.7199
 1041TIP3   OH2 3086   3.140   2.817   0.852 -0.4056  0.6350  0.8393
 1041TIP3    H1 3087   3.047   2.807   0.874 -0.6116  0.1067 -0.1941
 1041TIP3    H2 3088   3.186   2.777   0.926 -1.0534 -0.5296  0.6391
 1042TIP3   OH2 3089   0.823   4.718   0.172 -0.1391  0.2783  0.5980
 1042TIP3    H1 3090   0.860   4.807   0.174  1.1047 -0.2091  0.1265
 1042TIP3    H2 3091   0.759   4.718   0.243 -1.4084  2.0613 -0.4397
 1043TIP3   OH2 3092   0.661   2.691   2.876  0.2407  0.2421  0.0509
 1043TIP3    H1 3093   0.659   2.598   2.854 -0.0361  0.0131  0.9922
 1043TIP3    H2 3094   0.683   2.735   2.794 -0.6509 -0.5691 -0.6460
 1044TIP3   OH2 3095   2.405   4.848   2.331 -0.4281  0.4082  0.1479
 1044TIP3    H1 3096   2.466   4.839   2.257  1.7922  1.8133  1.6881
 1044TIP3    H2 3097   2.383   4.757   2.354 -0.8193 -0.0789 -1.8910
 1045TIP3   OH2 3098   0.542   1.034   4.116  0.3938  0.3045 -0.1572
 1045TIP3    H1 3099   0.547   1.127   4.094 -1.4241  0.8413  1.4623
 1045TIP3    H2 3100   0.455   1.022   4.153  0.8609 -1.8931  0.3932
 1046TIP3   OH2 3101   5.504   2.682   5.300 -0.2521  0.4940  0.1206
 1046TIP3    H1 3102   5.598   2.689   5.318 -0.2352  0.3473  0.0848
 1046TIP3    H2 3103   5.487   2.588   5.295 -0.3054  0.5299 -0.3677
 1047TIP3   OH2 3104   3.323   5.863   2.342  0.1594  0.3983 -0.0943
 1047TIP3    H1 3105   3.315   5.768   2.329  1.5982  0.2089  0.2015
 1047TIP3    H2 3106   3.297   5.876   2.433 -0.3567  0.3378 -0.2303
 1048TIP3   OH2 3107   0.110   2.240   3.739  0.2891  0.2603  0.0870
 1048TIP3    H1 3108   0.073   2.152   3.738 -0.8426  0.7149 -0.7489
 1048TIP3    H2 3109   0.058   2.288   3.675  1.3081  1.3737  0.0617
 1049TIP3   OH2 3110   6.387   1.671   1.844 -0.5328  0.2014  0.0766
 1049TIP3    H1 3111   6.312   1.660   1.902 -0.6876  2.3571  0.3795
 1049TIP3    H2 3112   6.377   1.760   1.809  3.1214  1.6432  2.0666
 1050TIP3   OH2 3113   0.518   6.322   3.667 -0.2997 -0.3024  0.9168
 1050TIP3    H1 3114   0.604   6.331   3.708  0.3290  1.0352 -0.5780
 1050TIP3    H2 3115   0.469   6.399   3.697 -0.1032  0.2608 -0.1496
 1051TIP3   OH2 3116   6.501   5.446   5.004 -0.8373  0.5858  1.4186
 1051TIP3    H1 3117   6.432   5.476   4.946  0.3506 -1.5744 -1.3374
 1051TIP3    H2 3118   6.471   5.360   5.035 -0.3785  0.6180  1.9820
 1052TIP3   OH2 3119   4.663   3.696   0.294 -0.1916 -0.1687 -0.2963
 1052TIP3    H1 3120   4.679   3.719   0.203  1.5806 -0.3634 -0.0619
 1052TIP3    H2 3121   4.643   3.779   0.338 -1.5480 -0.1346 -0.9237
 1053TIP3   OH2 3122   6.053   4.153   0.562  0.0649  0.1683 -0.0570
 1053TIP3    H1 3123   6.036   4.138   0.469  0.1257  0.5829 -0.1377
 1053TIP3    H2 3124   5.967   4.176   0.598 -0.0798 -0.6333  0.1207
 1054TIP3   OH2 3125   2.323   1.770   5.585  0.5654 -0.2935 -0.1345
 1054TIP3    H1 3126   2.237   1.761   5.543  0.3630  0.4289  0.0964
 1054TIP3    H2 3127   2.304   1.763   5.678  1.0107 -1.8776 -0.1481
 1055TIP3   OH2 3128   3.482   6.427   4.960  0.3103  0.3061 -0.0125
 1055TIP3    H1 3129   3.454   6.392   5.044 -0.4860  1.2475  0.1302
 1055TIP3    H2 3130   3.552   6.368   4.931  1.1835  0.4589  1.6895
 1056TIP3   OH2 3131   4.380   3.874   3.506  0.1766 -0.1378  0.7223
 1056TIP3    H1 3132   4.423   3.820   3.573  1.6784 -0.4059 -0.4017
 1056TIP3    H2 3133   4.441   3.947   3.491 -0.9388  0.8412  0.8431
 1057TIP3   OH2 3134   1.888   3.753   5.861  0.0758  0.2258 -0.0895
 1057TIP3    H1 3135   1.937   3.685   5.815 -0.2741 -0.0571 -0.0471
 1057TIP3    H2 3136   1.808   3.710   5.890 -0.1857  0.6747 -0.1310
 1058TIP3   OH2 3137   0.075   2.165   1.375  0.1909  0.3381  0.5223
 1058TIP3    H1 3138   0.067   2.257   1.402  0.1640  0.8084 -1.0240
 1058TIP3    H2 3139   0.038   2.116   1.449 -0.8781  1.6158  0.8861
 1059TIP3   OH2 3140   1.494   5.944   3.489 -0.4798  0.6606 -0.2348
 1059TIP3    H1 3141   1.464   5.853   3.481  0.5976  0.1805  0.8849
 1059TIP3    H2 3142   1.545   5.959   3.409  1.2602 -0.5119  0.6068
 1060TIP3   OH2 3143   1.080   3.643   5.655 -0.2015  0.2413 -0.5373
 1060TIP3    H1 3144   1.105   3.620   5.565 -0.0720 -1.1111 -0.1786
 1060TIP3    H2 3145   1.062   3.559   5.697  0.4368  0.7958  0.9183
 1061TIP3   OH2 3146   5.591   3.832   2.426 -0.1879  0.2007 -0.1580
 1061TIP3    H1 3147   5.532   3.776   2.375 -0.3041  1.0676 -0.9976
 1061TIP3    H2 3148   5.678   3.796   2.409 -0.4347 -1.0078  0.9850
 1062TIP3   OH2 3149   2.608   1.048   4.684 -0.1696 -0.5944 -0.1497
 1062TIP3    H1 3150   2.611   1.144   4.691  0.0069 -0.6737  1.1201
 1062TIP3    H2 3151   2.688   1.018   4.727 -0.7739 -1.3540  0.4683
 1063TIP3   OH2 3152   6.316   4.306   0.640  0.1876  0.1195 -0.1388
 1063TIP3    H1 3153   6.244   4.249   0.668  0.6619 -0.0722  0.7126
 1063TIP3    H2 3154   6.339   4.273   0.553  0.0284 -0.5809  0.0708
 1064TIP3   OH2 3155   1.863   1.799   0.920 -0.6080  0.0094  0.1196
 1064TIP3    H1 3156   1.831   1.843   0.998  0.0198  0.1810  0.2869
 1064TIP3    H2 3157   1.787   1.795   0.862 -1.2737 -0.7725  1.0150
 1065TIP3   OH2 3158   1.991   1.477   2.964 -0.3978 -0.8931 -0.4468
 1065TIP3    H1 3159   2.023   1.550   3.017  0.6361 -1.4807 -0.2419
 1065TIP3    H2 3160   1.902   1.503   2.939  0.0824  0.6059 -0.7074
 1066TIP3   OH2 3161   5.627   2.806   2.958 -0.4980  0.4341 -0.1042
 1066TIP3    H1 3162   5.601   2.802   3.051  2.0014  0.2835  0.6664
 1066TIP3    H2 3163   5.721   2.792   2.959 -0.6259 -1.3256 -2.8801
 1067TIP3   OH2 3164   3.929   4.803   4.062  0.2189  1.2386  0.2936
 1067TIP3    H1 3165   3.963   4.766   3.981 -2.6313  3.3222 -2.0877
 1067TIP3    H2 3166   4.004   4.844   4.104  1.4319  2.0849 -2.4908
 1068TIP3   OH2 3167   1.664   3.028   0.356 -0.1201  0.2163 -0.0081
 1068TIP3    H1 3168   1.573   3.051   0.338 -0.5599 -1.5022 -0.1917
 1068TIP3    H2 3169   1.665   3.005   0.449 -0.4985 -2.2295 -0.5396
 1069TIP3   OH2 3170   4.303   3.637   5.102  0.4221  0.4680  0.5121
 1069TIP3    H1 3171   4.236   3.574   5.075  0.5201 -0.1275  1.5909
 1069TIP3    H2 3172   4.335   3.603   5.185  2.4508  0.4634 -0.2322
 1070TIP3   OH2 3173   4.896   2.801   2.526  0.1155  0.0189 -0.3336
 1070TIP3    H1 3174   4.991   2.785   2.524  0.0762 -0.2475 -0.0490
 1070TIP3    H2 3175   4.888   2.894   2.548  0.2956 -0.2107  0.7644
 1071TIP3   OH2 3176   4.950   4.911   1.699  0.3230 -0.2208  0.1868
 1071TIP3    H1 3177   4.871   4.861   1.719 -1.3032  1.1868 -2.2229
 1071TIP3    H2 3178   5.009   4.847   1.660 -0.0717 -1.0534  0.9094
 1072TIP3   OH2 3179   3.435   5.442   4.211 -0.6334 -0.0746 -0.8618
 1072TIP3    H1 3180   3.354   5.468   4.255 -0.2011  1.6328 -0.9854
 1072TIP3    H2 3181   3.491   5.409   4.281 -0.7516  0.5605 -0.4587
 1073TIP3   OH2 3182   2.444   0.711   5.350  0.4969  0.5775  0.1945
 1073TIP3    H1 3183   2.496   0.694   5.428  0.3154 -1.2149 -0.0377
 1073TIP3    H2 3184   2.354   0.713   5.381  0.2431 -1.9318 -0.1315
 1074TIP3   OH2 3185   3.931   4.557   4.618 -0.0043  0.3775 -0.2280
 1074TIP3    H1 3186   3.910   4.644   4.584  0.7155  1.0432  0.9917
 1074TIP3    H2 3187   3.889   4.554   4.704 -2.3444 -1.5129 -1.2786
 1075TIP3   OH2 3188   5.396   2.350   4.489 -0.1047 -0.4973  0.6073
 1075TIP3    H1 3189   5.387   2.414   4.559  1.0861 -1.6859  1.8996
 1075TIP3    H2 3190   5.489   2.347   4.470 -0.4572  0.2624 -1.5244
 1076TIP3   OH2 3191   3.379   3.580   3.694  0.6417  0.2316 -0.5577
 1076TIP3    H1 3192   3.440   3.544   3.631 -0.4697  1.6268 -2.5512
 1076TIP3    H2 3193   3.352   3.505   3.747  2.1355 -0.8592 -1.2751
 1077TIP3   OH2 3194   6.097   3.629   1.233 -0.4212  0.3613 -0.5679
 1077TIP3    H1 3195   6.051   3.655   1.313  0.7509  0.7517  0.0100
 1077TIP3    H2 3196   6.031   3.585   1.180 -1.1959 -0.0091  0.6655
 1078TIP3   OH2 3197   4.442   4.206   4.077  0.2634  0.3658 -0.1866
 1078TIP3    H1 3198   4.432   4.284   4.023 -0.7236 -0.3110 -1.0291
 1078TIP3    H2 3199   4.491   4.144   4.022  1.0867  0.3991  0.4923
 1079TIP3   OH2 3200   2.997   2.140   2.648 -0.2213  0.2250  0.1943
 1079TIP3    H1 3201   2.981   2.046   2.656 -0.2436  0.3958  2.7768
 1079TIP3    H2 3202   2.914   2.175   2.615 -0.9172 -0.4411  1.1870
 1080TIP3   OH2 3203   0.592   2.770   1.825  0.3834 -0.0968  0.3872
 1080TIP3    H1 3204   0.580   2.676   1.840 -1.2038  0.2762  1.8677
 1080TIP3    H2 3205   0.566   2.784   1.734 -0.5159 -0.9422  0.4974
 1081TIP3   OH2 3206   1.814   5.513   2.608  0.7447  0.3401 -0.2160
 1081TIP3    H1 3207   1.744   5.488   2.548 -0.3641  0.5000  0.9619
 1081TIP3    H2 3208   1.828   5.606   2.591 -2.7400  1.6490  2.6878
 1082TIP3   OH2 3209   1.728   3.519   5.634 -0.3701  0.1275  0.4267
 1082TIP3    H1 3210   1.737   3.589   5.569 -1.1154 -1.1219 -1.0714
 1082TIP3    H2 3211   1.639   3.487   5.622 -0.3480 -0.4656  1.7496
 1083TIP3   OH2 3212   3.640   2.390   5.226  0.2817  0.4152 -0.4851
 1083TIP3    H1 3213   3.566   2.437   5.263  1.4931 -0.5956  3.8071
 1083TIP3    H2 3214   3.705   2.458   5.209  0.4683  0.8291  1.5739
 1084TIP3   OH2 3215   4.499   6.328   2.730 -0.0380 -0.1609 -0.0623
 1084TIP3    H1 3216   4.410   6.293   2.730 -0.6153  1.2527 -0.3927
 1084TIP3    H2 3217   4.500   6.391   2.658  0.7231  1.0616  0.9733
 1085TIP3   OH2 3218   1.343   0.729   0.680  0.0527 -0.4927  0.7311
 1085TIP3    H1 3219   1.350   0.645   0.725 -1.2155 -0.3637  1.2044
 1085TIP3    H2 3220   1.377   0.793   0.742  1.3929 -0.6609  0.2238
 1086TIP3   OH2 3221   0.486   1.642   4.482 -0.4128  0.4627 -0.0249
 1086TIP3    H1 3222   0.464   1.603   4.567  0.0669  1.8631  0.7698
 1086TIP3    H2 3223   0.401   1.658   4.441 -0.6709  0.1472  0.3711
 1087TIP3   OH2 3224   1.074   6.131   5.425 -0.7855  0.2193  0.0879
 1087TIP3    H1 3225   1.127   6.175   5.358  1.1750 -0.7978  0.8780
 1087TIP3    H2 3226   1.010   6.197   5.451 -0.0531  1.4695 -1.0789
 1088TIP3   OH2 3227   0.811   2.717   2.624 -0.4195 -0.5963  0.1334
 1088TIP3    H1 3228   0.808   2.748   2.534 -1.0385  0.4399  0.5009
 1088TIP3    H2 3229   0.800   2.622   2.617  0.0876 -0.5926 -0.9109
 1089TIP3   OH2 3230   6.426   2.316   4.791  0.2109 -0.3967 -0.3963
 1089TIP3    H1 3231   6.509   2.296   4.748  0.0957 -0.9253 -0.3702
 1089TIP3    H2 3232   6.398   2.234   4.831 -0.6867 -0.4012 -1.0040
 1090TIP3   OH2 3233   6.316   3.164   4.026  0.0464  0.0837 -0.4204
 1090TIP3    H1 3234   6.261   3.109   3.970 -1.2867 -1.5171  2.2376
 1090TIP3    H2 3235   6.274   3.250   4.025 -0.6026 -0.2267 -0.9475
 1091TIP3   OH2 3236   5.438   0.317   4.115 -0.0763 -0.2061 -0.1660
 1091TIP3    H1 3237   5.407   0.275   4.035  2.9769 -1.2130 -0.9519
 1091TIP3    H2 3238   5.471   0.402   4.087  1.4652 -0.7605 -0.1415
 1092TIP3   OH2 3239   6.784   2.717   0.976  0.1559 -0.4238  0.1888
 1092TIP3    H1 3240   6.841   2.725   1.052  3.7926  1.2298 -2.4333
 1092TIP3    H2 3241   6.743   2.804   0.968 -0.4385 -0.6797  0.3496
 1093TIP3   OH2 3242   6.865   3.763   3.822  0.3285  0.6033 -0.4696
 1093TIP3    H1 3243   6.791   3.823   3.821  0.9252  1.3545 -0.6366
 1093TIP3    H2 3244   6.841   3.692   3.762 -0.1425  0.9681 -0.7100
 1094TIP3   OH2 3245   6.530   4.234   4.317 -0.3154 -0.2793 -0.1612
 1094TIP3    H1 3246   6.584   4.313   4.325  1.2853 -1.2720 -0.6266
 1094TIP3    H2 3247   6.524   4.218   4.223  0.7826 -1.6043 -0.0336
 1095TIP3   OH2 3248   2.826   3.947   4.540  0.2103  0.3778  0.0336
 1095TIP3    H1 3249   2.807   3.989   4.456  0.3068  0.2082 -0.0727
 1095TIP3    H2 3250   2.780   3.863   4.535 -1.1005  1.0280  0.7776
 1096TIP3   OH2 3251   5.468   4.403   1.485  0.8677 -0.0360  0.3399
 1096TIP3    H1 3252   5.535   4.389   1.419  0.8116 -0.7497  0.4277
 1096TIP3    H2 3253   5.513   4.390   1.568  0.5022 -1.0622  0.3849
 1097TIP3   OH2 3254   5.799   2.922   1.269 -0.1593 -0.1374  0.1077
 1097TIP3    H1 3255   5.863   2.895   1.335 -0.3401  1.6201  1.0933
 1097TIP3    H2 3256   5.783   2.844   1.216  0.2683 -1.5361  1.9343
 1098TIP3   OH2 3257   3.196   2.727   2.627  0.0832  0.5909  0.0411
 1098TIP3    H1 3258   3.175   2.819   2.640 -0.8165  0.4287 -0.1465
 1098TIP3    H2 3259   3.291   2.722   2.630  0.2109  1.7336 -1.2392
 1099TIP3   OH2 3260   0.880   0.158   2.128  0.1169 -0.9703 -0.6551
 1099TIP3    H1 3261   0.963   0.199   2.152 -0.0558 -0.0682 -1.5219
 1099TIP3    H2 3262   0.904   0.070   2.100  1.1730  0.0672 -3.3348
 1100TIP3   OH2 3263   4.469   5.926   4.235  0.6673  0.0662  1.1847
 1100TIP3    H1 3264   4.468   6.014   4.199 -2.8208 -0.6905 -1.0344
 1100TIP3    H2 3265   4.538   5.881   4.186  0.9471  0.9659  0.7320
 1101TIP3   OH2 3266   6.226   2.186   4.625  0.3924  0.0711  0.2104
 1101TIP3    H1 3267   6.317   2.212   4.641 -0.0485  0.6556  1.9458
 1101TIP3    H2 3268   6.183   2.267   4.597  0.2690 -0.0640  0.0086
 1102TIP3   OH2 3269   3.840   2.170   5.126 -0.2549  0.1681  0.1496
 1102TIP3    H1 3270   3.825   2.174   5.032  0.1677 -1.5393 -0.0217
 1102TIP3    H2 3271   3.754   2.153   5.164 -0.3134  0.1673  0.0155
 1103TIP3   OH2 3272   7.083   0.128   3.134 -0.2680 -0.4179  0.0135
 1103TIP3    H1 3273   7.008   0.172   3.173  0.3492  0.8093 -0.1471
 1103TIP3    H2 3274   7.076   0.147   3.040  1.0217  0.9527  0.1674
 1104TIP3   OH2 3275   5.158   2.966   2.339 -0.1151  0.1881  0.0887
 1104TIP3    H1 3276   5.133   2.874   2.329  0.4889 -0.1527  1.4663
 1104TIP3    H2 3277   5.245   2.971   2.300  0.1035  0.0277  0.5474
 1105TIP3   OH2 3278   5.218   2.003   0.832 -0.0648 -0.3127 -0.0786
 1105TIP3    H1 3279   5.254   2.010   0.744 -0.3013 -0.7785 -0.2134
 1105TIP3    H2 3280   5.204   1.910   0.846  1.9304 -0.4600  1.2468
 1106TIP3   OH2 3281   1.795   1.235  -0.004 -0.1577  0.4687  0.0419
 1106TIP3    H1 3282   1.727   1.241   0.063 -0.4206 -0.5798 -0.1094
 1106TIP3    H2 3283   1.798   1.322  -0.043 -1.0060  0.6945  0.4539
 1107TIP3   OH2 3284   1.784   4.091   1.699 -0.0967 -0.0684 -0.0243
 1107TIP3    H1 3285   1.819   4.122   1.615 -0.9157  0.3681 -0.2075
 1107TIP3    H2 3286   1.832   4.010   1.715 -0.0385 -0.2457 -0.9913
 1108TIP3   OH2 3287   1.792   5.748   3.897  0.0655  0.4913  0.0057
 1108TIP3    H1 3288   1.876   5.703   3.888  0.7704  1.5766  0.7675
 1108TIP3    H2 3289   1.816   5.841   3.903 -1.3036  0.9486 -1.1310
 1109TIP3   OH2 3290   0.187   1.537   1.500  0.2352 -0.1249 -0.6033
 1109TIP3    H1 3291   0.198   1.529   1.594  0.0673  1.0362 -0.4663
 1109TIP3    H2 3292   0.265   1.584   1.470 -0.3804  0.7911 -0.8179
 1110TIP3   OH2 3293   5.787   4.567   1.358  0.0782  0.6849 -0.4236
 1110TIP3    H1 3294   5.868   4.541   1.315  0.2779  0.5893  0.0012
 1110TIP3    H2 3295   5.760   4.489   1.406  1.1794  1.4926  1.6322
 1111TIP3   OH2 3296   0.729   3.977   2.093  0.6567  0.2472 -0.1025
 1111TIP3    H1 3297   0.635   3.992   2.109  0.6061  0.0075 -0.1731
 1111TIP3    H2 3298   0.771   3.996   2.177  0.4450 -0.5513  0.1879
 1112TIP3   OH2 3299   5.070   5.939   2.467 -0.3649  0.1613 -0.0719
 1112TIP3    H1 3300   5.163   5.934   2.491 -0.2500  4.1165  0.9973
 1112TIP3    H2 3301   5.071   5.970   2.376 -0.6236  0.5837  0.0695
 1113TIP3   OH2 3302   2.969   1.652   1.435  0.0388  1.2360 -0.3661
 1113TIP3    H1 3303   2.990   1.576   1.489 -0.4045  1.0988 -0.3839
 1113TIP3    H2 3304   2.964   1.617   1.346 -1.8950  0.9293 -0.1787
 1114TIP3   OH2 3305   5.495   3.468   1.416  0.1665  0.4365 -0.7870
 1114TIP3    H1 3306   5.450   3.550   1.399  1.8611  2.0515  1.8633
 1114TIP3    H2 3307   5.588   3.488   1.405  0.6070 -1.2037 -0.3643
 1115TIP3   OH2 3308   4.062   1.964   4.481 -0.1433  0.3456 -0.4783
 1115TIP3    H1 3309   4.014   1.902   4.536  1.1259  1.9473  2.6087
 1115TIP3    H2 3310   4.145   1.920   4.462 -0.3775 -0.0015 -0.7187
 1116TIP3   OH2 3311   6.867   5.079   4.737 -0.1686  0.2259 -0.5501
 1116TIP3    H1 3312   6.860   5.047   4.647  2.7047 -0.8850 -0.5002
 1116TIP3    H2 3313   6.850   5.173   4.731 -0.5292  0.0795 -2.1590
 1117TIP3   OH2 3314   3.720   2.058   1.018 -0.1576 -0.1446 -0.3441
 1117TIP3    H1 3315   3.741   2.105   1.099 -2.3444  2.1327 -0.9827
 1117TIP3    H2 3316   3.709   1.967   1.046 -1.6733  0.6919  2.1319
 1118TIP3   OH2 3317   5.761   4.135   3.352 -0.3567 -0.0846 -0.6428
 1118TIP3    H1 3318   5.728   4.132   3.442  0.3974 -0.3101 -0.3651
 1118TIP3    H2 3319   5.687   4.107   3.298 -0.1641 -2.1656  0.0908
 1119TIP3   OH2 3320   6.391   5.661   1.296  0.0354 -0.7968  0.4017
 1119TIP3    H1 3321   6.391   5.615   1.379 -0.6379 -2.8362 -0.6504
 1119TIP3    H2 3322   6.303   5.648   1.261  0.1525  0.4333 -0.4185
 1120TIP3   OH2 3323   1.790   2.394   0.308  0.0372  0.6703  0.1652
 1120TIP3    H1 3324   1.858   2.391   0.240  0.8759  0.9658  0.9794
 1120TIP3    H2 3325   1.747   2.479   0.294 -1.7075 -0.4203 -1.7730
 1121TIP3   OH2 3326   1.124   4.225   4.821 -0.6412 -0.0404  0.0766
 1121TIP3    H1 3327   1.091   4.312   4.844  0.8819  0.8059 -0.7571
 1121TIP3    H2 3328   1.186   4.204   4.891 -0.2493 -0.0032 -0.2596
 1122TIP3   OH2 3329   6.730   4.528   3.023 -0.3598 -0.0932 -0.0214
 1122TIP3    H1 3330   6.717   4.471   2.947 -1.7320  0.3310 -0.1403
 1122TIP3    H2 3331   6.823   4.519   3.045 -0.2061 -1.1284 -1.0177
 1123TIP3   OH2 3332   4.524   3.921   0.943  0.2641  0.3489 -0.0899
 1123TIP3    H1 3333   4.565   3.835   0.930 -0.9594 -0.2440 -0.2167
 1123TIP3    H2 3334   4.495   3.920   1.034 -0.1783  0.4215 -0.2261
 1124TIP3   OH2 3335   3.920   3.991   5.101 -0.3334 -0.2351 -0.6542
 1124TIP3    H1 3336   3.851   3.942   5.146  0.9717 -1.4104  0.1641
 1124TIP3    H2 3337   3.874   4.061   5.055 -1.8520  0.5612  1.8737
 1125TIP3   OH2 3338   5.221   2.209   5.612  0.4545 -1.0790 -0.5430
 1125TIP3    H1 3339   5.155   2.278   5.618  1.8276  0.5269 -2.4896
 1125TIP3    H2 3340   5.212   2.160   5.694 -0.4875  1.5274  1.0548
 1126TIP3   OH2 3341   1.751   2.434   3.085 -0.0423  0.0679 -0.0394
 1126TIP3    H1 3342   1.805   2.382   3.144  0.5501  0.1663 -0.4859
 1126TIP3    H2 3343   1.776   2.404   2.997 -1.7425 -0.9040 -0.2254
 1127TIP3   OH2 3344   3.971   5.771   0.746 -0.5580 -0.3701 -0.2338
 1127TIP3    H1 3345   3.986   5.779   0.840 -0.3070  1.3397 -0.3861
 1127TIP3    H2 3346   3.901   5.834   0.728  0.3931  0.3881 -1.4050
 1128TIP3   OH2 3347   5.219   6.603   4.870  0.0264 -0.1939 -0.3941
 1128TIP3    H1 3348   5.223   6.605   4.965  0.9994 -0.2110 -0.4228
 1128TIP3    H2 3349   5.134   6.641   4.848 -0.8941 -1.6833  0.5199
 1129TIP3   OH2 3350   3.423   0.992   3.052 -0.1016  0.3628  0.1948
 1129TIP3    H1 3351   3.510   0.972   3.085 -1.2405 -1.1718  2.5536
 1129TIP3    H2 3352   3.422   1.087   3.041  2.1449  0.3118 -0.9024
 1130TIP3   OH2 3353   2.779   3.738   5.726 -0.1448  0.4200  0.4381
 1130TIP3    H1 3354   2.693   3.711   5.694  0.2744 -2.3073  1.3743
 1130TIP3    H2 3355   2.760   3.785   5.807 -0.7602 -0.9337  1.1103
 1131TIP3   OH2 3356   5.918   1.845   2.427 -0.6470 -0.0523  0.1610
 1131TIP3    H1 3357   5.847   1.807   2.478 -0.1358 -1.0504  0.1630
 1131TIP3    H2 3358   5.882   1.854   2.339 -0.2536 -2.2859 -0.2919
 1132TIP3   OH2 3359   5.056   4.395   1.052  0.8094  0.2137  0.2409
 1132TIP3    H1 3360   5.040   4.321   0.993 -0.9818  0.8907 -0.2135
 1132TIP3    H2 3361   5.111   4.455   1.002  1.5061 -0.3991  0.2697
 1133TIP3   OH2 3362   5.614   2.368   2.546 -0.2229 -0.1373 -0.5816
 1133TIP3    H1 3363   5.681   2.325   2.494  0.6167  1.2010 -0.6489
 1133TIP3    H2 3364   5.662   2.419   2.611 -1.2042 -0.0303  0.0895
 1134TIP3   OH2 3365   0.686   4.230   3.428  0.4557 -0.0031  0.1665
 1134TIP3    H1 3366   0.719   4.316   3.456  2.1701  0.1385 -2.1042
 1134TIP3    H2 3367   0.591   4.241   3.428  0.6417  2.4393 -1.4900
 1135TIP3   OH2 3368   6.142   0.163   2.491  0.1164  0.3908  0.5728
 1135TIP3    H1 3369   6.094   0.218   2.429 -0.7256  0.0154  0.8687
 1135TIP3    H2 3370   6.075   0.130   2.551  0.6583 -0.5912  0.6743
 1136TIP3   OH2 3371   4.071   0.686   3.956 -0.0656  0.0352  0.4239
 1136TIP3    H1 3372   4.035   0.774   3.969 -0.9491 -0.1106 -0.8436
 1136TIP3    H2 3373   4.005   0.640   3.904  1.8870 -0.2884 -1.9500
 1137TIP3   OH2 3374   0.409   0.601   2.981  0.1497  0.6873  0.1405
 1137TIP3    H1 3375   0.347   0.561   2.919 -1.6600  0.9821  1.6739
 1137TIP3    H2 3376   0.456   0.666   2.928 -2.1456  1.7598 -0.7503
 1138TIP3   OH2 3377   2.452   3.774   1.904 -0.1002 -0.2294 -0.2148
 1138TIP3    H1 3378   2.389   3.844   1.890 -0.7913 -0.5203  1.2614
 1138TIP3    H2 3379   2.508   3.806   1.975  0.4794 -0.6037 -0.4893
 1139TIP3   OH2 3380   6.620   1.453   3.128 -0.3467  0.1604  0.0326
 1139TIP3    H1 3381   6.588   1.378   3.178  0.3735 -1.0321 -1.2120
 1139TIP3    H2 3382   6.716   1.447   3.134 -0.1494 -0.9350 -2.6452
 1140TIP3   OH2 3383   4.861   1.575   1.845  0.4444 -0.4717 -0.4573
 1140TIP3    H1 3384   4.937   1.570   1.902  0.7243  2.2829 -0.4346
 1140TIP3    H2 3385   4.788   1.593   1.904 -0.2573 -2.9160 -0.4964
 1141TIP3   OH2 3386   2.951   0.638   3.666  0.2087  0.2221  0.2973
 1141TIP3    H1 3387   2.995   0.584   3.600 -1.2295  0.6946 -1.0981
 1141TIP3    H2 3388   2.891   0.578   3.711 -2.1830  0.7473 -1.9720
 1142TIP3   OH2 3389   6.911   4.940   2.143 -0.0266 -0.2446 -0.0931
 1142TIP3    H1 3390   6.967   4.864   2.128 -1.3033 -0.8365 -2.2497
 1142TIP3    H2 3391   6.897   4.976   2.055 -1.5004  0.9855  0.6182
 1143TIP3   OH2 3392   6.537   6.546  -0.021  0.2633 -0.8214  0.3333
 1143TIP3    H1 3393   6.559   6.558   0.071 -0.2497  0.1443  0.3354
 1143TIP3    H2 3394   6.464   6.605  -0.037  0.3142 -1.0121 -0.6840
 1144TIP3   OH2 3395   7.164   6.357   3.375  0.4698  0.0747  0.6689
 1144TIP3    H1 3396   7.087   6.304   3.352  0.9393  0.6371 -2.6329
 1144TIP3    H2 3397   7.238   6.297   3.365  0.7131  0.3881  0.5985
 1145TIP3   OH2 3398   1.834   0.934   4.808 -0.0057 -0.3053 -0.6999
 1145TIP3    H1 3399   1.814   1.025   4.787 -1.6378  0.1604  2.3837
 1145TIP3    H2 3400   1.835   0.890   4.723 -1.6708  2.1198 -2.0916
 1146TIP3   OH2 3401   2.809   4.626   4.863  0.2607  0.1748 -0.6878
 1146TIP3    H1 3402   2.790   4.643   4.955 -0.0876  0.1147 -0.7483
 1146TIP3    H2 3403   2.809   4.531   4.856 -3.0903  0.1055 -1.4146
 1147TIP3   OH2 3404   6.100   4.807   4.097  0.1976 -0.3888  0.5473
 1147TIP3    H1 3405   6.117   4.882   4.153  0.9668 -0.4563  0.4095
 1147TIP3    H2 3406   6.006   4.791   4.107  0.2702 -0.2332  1.6036
 1148TIP3   OH2 3407   2.528   4.601   2.146 -0.3253 -0.1804 -0.1222
 1148TIP3    H1 3408   2.456   4.614   2.085  0.1235 -0.9435 -0.8256
 1148TIP3    H2 3409   2.589   4.673   2.128  0.5859 -1.2948 -1.7359
 1149TIP3   OH2 3410   4.103   2.553   5.716  0.5566 -0.0360 -0.1654
 1149TIP3    H1 3411   4.008   2.567   5.719  0.8648  2.7090 -0.2892
 1149TIP3    H2 3412   4.140   2.629   5.763  2.6873 -1.5258  0.7197
 1150TIP3   OH2 3413   0.844   3.778   2.597 -0.1320 -0.0100 -0.1227
 1150TIP3    H1 3414   0.776   3.749   2.538 -0.0559 -1.9554  0.6765
 1150TIP3    H2 3415   0.820   3.868   2.620 -0.8190  0.3420 -2.0845
 1151TIP3   OH2 3416   6.308   6.430   1.931 -0.0414  0.2457 -0.7432
 1151TIP3    H1 3417   6.397   6.456   1.905 -0.1170 -1.3374 -2.7676
 1151TIP3    H2 3418   6.254   6.450   1.855 -1.7865  2.4714  0.9111
 1152TIP3   OH2 3419   0.718   6.198   5.439 -0.4327 -0.2307  0.3891
 1152TIP3    H1 3420   0.784   6.260   5.406 -0.1615 -0.9166 -0.3737
 1152TIP3    H2 3421   0.640   6.252   5.452 -0.5640  0.0855 -1.4152
 1153TIP3   OH2 3422   0.574   0.553   3.835 -0.0531  1.0513  0.3425
 1153TIP3    H1 3423   0.659   0.586   3.862  0.2816  1.1097 -0.7494
 1153TIP3    H2 3424   0.516   0.573   3.908  1.4918 -1.8381  2.5642
 1154TIP3   OH2 3425   5.189   3.329   2.810  0.0984  0.2332  0.0608
 1154TIP3    H1 3426   5.140   3.297   2.734 -1.4913  0.0734  1.0917
 1154TIP3    H2 3427   5.207   3.421   2.791 -1.8929  0.6981  0.2296
 1155TIP3   OH2 3428   3.156   6.023   1.604 -0.6673  0.1902  0.0180
 1155TIP3    H1 3429   3.252   6.017   1.602 -0.6212  0.9783 -0.5350
 1155TIP3    H2 3430   3.138   6.082   1.677 -0.6246  1.6513 -1.1156
 1156TIP3   OH2 3431   1.471   1.950   3.844  0.3514 -0.0337 -0.3934
 1156TIP3    H1 3432   1.416   1.980   3.771  0.0927 -2.0711 -1.1131
 1156TIP3    H2 3433   1.555   1.993   3.830 -0.1080  0.6694 -1.0976
 1157TIP3   OH2 3434   2.135   5.892   1.827 -0.1865  0.0976  0.2243
 1157TIP3    H1 3435   2.090   5.943   1.895  1.2647  0.2044  1.1581
 1157TIP3    H2 3436   2.161   5.957   1.762 -2.5511 -0.1454 -1.0675
 1158TIP3   OH2 3437   4.702   0.022   0.249 -0.1605  0.5743  0.0519
 1158TIP3    H1 3438   4.611   0.003   0.228 -0.3686  1.5700 -0.0173
 1158TIP3    H2 3439   4.753  -0.023   0.182 -0.6527  0.8368 -0.5053
 1159TIP3   OH2 3440   1.451   2.268   3.134  0.0361  1.1398 -0.1776
 1159TIP3    H1 3441   1.436   2.362   3.129  1.2993  1.3793  0.2511
 1159TIP3    H2 3442   1.392   2.238   3.203  0.9875  1.9400  1.0204
 1160TIP3   OH2 3443   1.004   4.968   2.426  0.3192  0.6442  0.1505
 1160TIP3    H1 3444   0.926   4.928   2.464  0.7016 -1.0718 -0.7822
 1160TIP3    H2 3445   1.027   4.911   2.353  2.4803  1.0780  0.4277
 1161TIP3   OH2 3446   2.964   6.099   4.143  0.6795 -0.6206  0.4592
 1161TIP3    H1 3447   3.015   6.178   4.122  0.2000  0.2672  2.4532
 1161TIP3    H2 3448   3.023   6.027   4.122  1.8293  0.3152  0.3442
 1162TIP3   OH2 3449   3.701   6.117   3.728 -0.3363  0.5826 -0.4744
 1162TIP3    H1 3450   3.642   6.183   3.764  1.4345  2.0017 -0.0506
 1162TIP3    H2 3451   3.719   6.146   3.639 -1.1719 -0.5109 -1.0346
 1163TIP3   OH2 3452   5.246   5.547   2.794 -0.7573  0.4046  0.3740
 1163TIP3    H1 3453   5.263   5.641   2.783  0.0560  0.2589  0.3028
 1163TIP3    H2 3454   5.224   5.537   2.886 -0.5131  0.6276  0.4594
 1164TIP3   OH2 3455   0.051   3.588   3.502 -0.7703  0.5258 -0.4830
 1164TIP3    H1 3456   0.026   3.533   3.577  2.2776 -1.3152 -0.6435
 1164TIP3    H2 3457   0.122   3.643   3.536 -0.1052  0.4598 -1.7324
 1165TIP3   OH2 3458   3.042   4.016   4.990 -0.6457  0.1456 -0.1726
 1165TIP3    H1 3459   2.998   3.994   4.908 -0.0879  1.4507 -0.8522
 1165TIP3    H2 3460   3.135   4.000   4.973 -0.6915 -1.7454  0.9736
 1166TIP3   OH2 3461   1.269   6.358   4.291  0.6924 -0.2957 -0.2567
 1166TIP3    H1 3462   1.238   6.448   4.278  0.2659 -0.3939  0.0763
 1166TIP3    H2 3463   1.278   6.349   4.386  1.0895 -0.4904 -0.3110
 1167TIP3   OH2 3464   5.399   5.823   0.820 -0.1079  0.4457 -0.1032
 1167TIP3    H1 3465   5.364   5.908   0.845 -1.4381  0.7056 -2.5421
 1167TIP3    H2 3466   5.488   5.841   0.790  0.1701  0.6887  0.8252
 1168TIP3   OH2 3467   5.518   0.530   1.993  0.3958 -0.3810  0.2995
 1168TIP3    H1 3468   5.561   0.602   1.946  0.2866 -0.1372  0.5676
 1168TIP3    H2 3469   5.424   0.543   1.976  0.4974 -2.5517 -2.6809
 1169TIP3   OH2 3470   0.975   3.279   0.104 -0.2437  0.0773 -0.1234
 1169TIP3    H1 3471   1.014   3.196   0.134  1.0058  0.6987  0.0267
 1169TIP3    H2 3472   0.881   3.262   0.105 -0.0449 -1.1582  0.4632
 1170TIP3   OH2 3473   5.884   1.770   3.829 -0.5830 -0.2604 -0.5583
 1170TIP3    H1 3474   5.886   1.725   3.913 -1.2993  0.2878 -0.2301
 1170TIP3    H2 3475   5.923   1.708   3.767  0.8176 -0.3046  0.3259
 1171TIP3   OH2 3476   5.152   1.911   5.795 -0.1830  0.6129  0.3300
 1171TIP3    H1 3477   5.080   1.860   5.833 -1.9322  3.0596  0.5042
 1171TIP3    H2 3478   5.182   1.858   5.721 -0.7087 -1.4434  1.5025
 1172TIP3   OH2 3479   6.118   5.986   0.359 -0.4722 -0.2713 -0.1667
 1172TIP3    H1 3480   6.143   5.937   0.282  1.7113  2.0719 -1.1062
 1172TIP3    H2 3481   6.115   5.922   0.430  2.6753 -1.7381 -1.1997
 1173TIP3   OH2 3482   6.277   1.840   3.541  0.2491 -0.0786 -0.0796
 1173TIP3    H1 3483   6.343   1.896   3.502 -0.3897  0.2626 -0.7048
 1173TIP3    H2 3484   6.240   1.791   3.467 -0.8700  0.4531  0.0992
 1174TIP3   OH2 3485   4.521   2.954   5.819  0.4521  0.0240  0.2368
 1174TIP3    H1 3486   4.503   3.030   5.874  1.9466  0.3519  0.3043
 1174TIP3    H2 3487   4.477   2.974   5.736  1.1069  1.1304  0.1352
 1175TIP3   OH2 3488   1.770   1.141   2.260  0.0811  0.2066  0.3216
 1175TIP3    H1 3489   1.744   1.062   2.308  1.4034 -0.7695 -0.4862
 1175TIP3    H2 3490   1.774   1.113   2.169  0.3572  1.2730 -0.0053
 1176TIP3   OH2 3491   3.065   4.305   5.017 -0.0797 -0.6079  0.0257
 1176TIP3    H1 3492   2.982   4.321   5.063 -1.7568  0.4586 -3.0278
 1176TIP3    H2 3493   3.062   4.211   4.995 -0.3816 -0.6220  0.1189
 1177TIP3   OH2 3494   4.796   6.000   5.603  0.1916 -0.0369 -0.1391
 1177TIP3    H1 3495   4.749   5.922   5.573  0.1508 -0.1981  0.3391
 1177TIP3    H2 3496   4.762   6.071   5.549 -0.1746 -0.2579 -0.1974
 1178TIP3   OH2 3497   6.365   6.078   4.145 -0.0984 -0.3774  0.2874
 1178TIP3    H1 3498   6.374   6.030   4.227  0.9168  0.1894  0.5165
 1178TIP3    H2 3499   6.295   6.032   4.099 -1.2795 -0.1976  1.8167
 1179TIP3   OH2 3500   3.261   2.153   0.616 -0.3953  0.4530  0.2165
 1179TIP3    H1 3501   3.242   2.136   0.524 -1.4953 -2.0053  0.8066
 1179TIP3    H2 3502   3.248   2.247   0.626 -1.1644  0.6305 -1.9456
 1180TIP3   OH2 3503   6.725   4.741   3.672  0.7375  0.7330  0.0243
 1180TIP3    H1 3504   6.762   4.655   3.655 -0.4186  0.5879 -1.9978
 1180TIP3    H2 3505   6.800   4.801   3.665  1.8344 -0.1466  2.8355
 1181TIP3   OH2 3506   2.506   0.314   3.403 -0.0302 -0.0149 -0.3419
 1181TIP3    H1 3507   2.579   0.342   3.347  0.0995  0.6657  0.1583
 1181TIP3    H2 3508   2.481   0.228   3.368  0.5166  0.0807 -0.9912
 1182TIP3   OH2 3509   2.816   3.208   2.438  0.3419 -0.0358 -0.1137
 1182TIP3    H1 3510   2.745   3.232   2.498  0.1231 -1.6023  0.3124
 1182TIP3    H2 3511   2.895   3.214   2.492  0.1989 -0.9639  0.2283
 1183TIP3   OH2 3512   3.501   6.329   0.942 -0.2000 -0.2869  0.0149
 1183TIP3    H1 3513   3.516   6.297   1.032  0.3736  0.6395  0.2581
 1183TIP3    H2 3514   3.484   6.249   0.892  1.2769 -1.0064  0.5973
 1184TIP3   OH2 3515   2.879   1.312   2.746 -0.7761 -0.2397  0.7060
 1184TIP3    H1 3516   2.912   1.224   2.763  0.8790 -0.5806 -3.2540
 1184TIP3    H2 3517   2.954   1.370   2.761 -1.3291  0.3206  1.4232
 1185TIP3   OH2 3518   2.455   0.350   5.561 -0.1905  0.8884  0.9219
 1185TIP3    H1 3519   2.454   0.303   5.478 -1.1772  0.6702  1.0467
 1185TIP3    H2 3520   2.375   0.322   5.606  0.7070  0.3638  2.2952
 1186TIP3   OH2 3521   4.376   6.589   5.028 -0.2348  0.4078 -0.3694
 1186TIP3    H1 3522   4.451   6.551   4.983  1.1349  1.1182  1.2218
 1186TIP3    H2 3523   4.345   6.519   5.086  0.6559  0.8236  0.6418
 1187TIP3   OH2 3524   6.711   3.505   2.561 -0.7579  0.4973  0.6581
 1187TIP3    H1 3525   6.727   3.582   2.507 -1.3561  2.4543  3.0690
 1187TIP3    H2 3526   6.620   3.482   2.545 -0.7613  0.7052  0.3775
 1188TIP3   OH2 3527   2.718   1.413   0.652 -1.1382 -0.0672 -0.4197
 1188TIP3    H1 3528   2.689   1.479   0.716 -2.7584  0.0893 -1.2525
 1188TIP3    H2 3529   2.730   1.463   0.571  0.5091 -0.3311 -0.3597
 1189TIP3   OH2 3530   1.995   0.869   5.723  0.3191 -0.0470 -0.0885
 1189TIP3    H1 3531   1.944   0.881   5.642 -1.9518  0.4853  1.3405
 1189TIP3    H2 3532   1.946   0.917   5.789  1.4327 -1.5256  1.8989
 1190TIP3   OH2 3533   5.557   2.697   2.002 -0.7892  0.0204  0.6794
 1190TIP3    H1 3534   5.577   2.771   2.058  0.4448  0.0347  0.2718
 1190TIP3    H2 3535   5.639   2.681   1.954 -2.1674  0.9417 -2.1875
 1191TIP3   OH2 3536   2.935   0.050   2.706  0.3043  0.3104 -0.2534
 1191TIP3    H1 3537   2.992  -0.012   2.751  1.3774  0.3503 -1.5015
 1191TIP3    H2 3538   2.875   0.081   2.774  0.4990 -1.1961  0.6535
 1192TIP3   OH2 3539   2.395   4.166   1.547  0.0555  0.3325  0.6022
 1192TIP3    H1 3540   2.451   4.143   1.473  0.0557 -1.1135  1.0256
 1192TIP3    H2 3541   2.428   4.251   1.576  0.1251  0.8727 -0.9653
 1193TIP3   OH2 3542   5.911   2.282   3.703 -0.1672  0.4528  0.3645
 1193TIP3    H1 3543   5.973   2.211   3.720  0.6872  1.1945  0.4230
 1193TIP3    H2 3544   5.850   2.246   3.638 -1.7240 -1.4482  2.7009
 1194TIP3   OH2 3545   4.480   6.504   4.328  0.0848  0.2185  0.2074
 1194TIP3    H1 3546   4.403   6.533   4.278 -0.8729 -0.3144  1.3275
 1194TIP3    H2 3547   4.445   6.479   4.413  1.6286  0.7178  1.0221
 1195TIP3   OH2 3548   1.841   2.335   5.179  0.2833 -0.6627  0.8856
 1195TIP3    H1 3549   1.897   2.331   5.257 -1.5236 -2.4065  2.2037
 1195TIP3    H2 3550   1.753   2.346   5.214 -0.5719 -1.4888 -0.9096
 1196TIP3   OH2 3551   2.128   6.657   2.095  0.7716 -0.4423  0.0543
 1196TIP3    H1 3552   2.120   6.748   2.065  0.8680 -0.3180  0.3925
 1196TIP3    H2 3553   2.114   6.604   2.017 -0.7766 -0.1712  0.1198
 1197TIP3   OH2 3554   5.704   6.648   5.587 -0.3008  0.4553 -0.1923
 1197TIP3    H1 3555   5.706   6.725   5.643  2.1607 -0.0186  0.5215
 1197TIP3    H2 3556   5.698   6.574   5.647 -2.3345  0.0339 -0.8529
 1198TIP3   OH2 3557   6.371   1.381   2.008  0.2097  0.3563 -0.3070
 1198TIP3    H1 3558   6.412   1.294   2.000  1.1855  0.4550  2.4032
 1198TIP3    H2 3559   6.442   1.437   2.041 -1.2963  1.2440  1.6392
 1199TIP3   OH2 3560   6.142   0.973   3.456 -0.1533  0.0613 -0.9086
 1199TIP3    H1 3561   6.193   0.985   3.375  0.4886 -2.3512 -0.9302
 1199TIP3    H2 3562   6.196   0.916   3.510 -2.0226 -1.0836 -0.1517
 1200TIP3   OH2 3563   2.666   5.764   2.156  0.0320 -0.2294 -0.5127
 1200TIP3    H1 3564   2.692   5.775   2.065 -1.0148  2.2245 -0.6018
 1200TIP3    H2 3565   2.711   5.835   2.203  2.7994 -3.0259  1.5112
 1201TIP3   OH2 3566   3.209   3.072   0.839  0.9173 -0.3507  0.1230
 1201TIP3    H1 3567   3.184   2.981   0.819  0.3661 -0.6357  1.9077
 1201TIP3    H2 3568   3.283   3.064   0.899  0.0664  0.3139  1.3150
 1202TIP3   OH2 3569   2.748   3.670   2.514 -0.2924  0.1218 -0.4663
 1202TIP3    H1 3570   2.696   3.604   2.561 -1.2800  0.4323 -1.0925
 1202TIP3    H2 3571   2.724   3.753   2.555 -0.5194  0.3008 -0.9589
 1203TIP3   OH2 3572   1.843   6.030   4.673 -0.2518  0.7843  0.4392
 1203TIP3    H1 3573   1.919   6.085   4.653  0.7263 -0.8232 -0.4924
 1203TIP3    H2 3574   1.874   5.972   4.743 -0.9152  0.6862  0.6550
 1204TIP3   OH2 3575   1.566   6.715   5.250  0.1278 -0.1026 -0.2119
 1204TIP3    H1 3576   1.560   6.810   5.242 -0.7130 -0.1457 -0.1061
 1204TIP3    H2 3577   1.642   6.701   5.307 -1.3309  0.6240  2.0318
 1205TIP3   OH2 3578   6.883   5.231   1.760  0.1415 -0.6862  0.0948
 1205TIP3    H1 3579   6.937   5.310   1.762 -1.7236  0.6622  1.4890
 1205TIP3    H2 3580   6.794   5.264   1.749 -0.6752 -2.6189  0.5570
 1206TIP3   OH2 3581   2.477   0.879   0.905  0.2006  0.1969  0.3048
 1206TIP3    H1 3582   2.420   0.952   0.882  0.7172 -0.0536 -1.9983
 1206TIP3    H2 3583   2.563   0.920   0.920 -0.1712  0.3825  2.1831
 1207TIP3   OH2 3584   4.710   6.687   2.455  0.2765 -0.4530 -0.0961
 1207TIP3    H1 3585   4.694   6.632   2.531  1.1035 -0.2645  0.2282
 1207TIP3    H2 3586   4.624   6.701   2.416 -0.0797 -1.0184  0.4780
 1208TIP3   OH2 3587   5.475   0.449   3.582  0.7528 -0.3090 -0.0804
 1208TIP3    H1 3588   5.467   0.354   3.574  0.5350 -0.2042 -1.4018
 1208TIP3    H2 3589   5.404   0.474   3.642  0.4256 -0.9213 -0.2042
 1209TIP3   OH2 3590   0.744   5.381   1.617 -0.2348 -0.1385 -0.6517
 1209TIP3    H1 3591   0.686   5.345   1.549  0.9180 -1.0508 -1.1882
 1209TIP3    H2 3592   0.763   5.307   1.674 -0.5931  0.4533  0.2429
 1210TIP3   OH2 3593   3.631   5.683   2.108 -0.0643 -0.5373  0.2205
 1210TIP3    H1 3594   3.538   5.662   2.097 -0.0663 -0.7925  0.6695
 1210TIP3    H2 3595   3.671   5.659   2.025 -0.7642  1.7480 -0.8577
 1211TIP3   OH2 3596   3.502   5.189   1.205 -0.3197  0.1255 -0.2216
 1211TIP3    H1 3597   3.461   5.183   1.118 -2.0294  0.6749  0.4977
 1211TIP3    H2 3598   3.465   5.269   1.243  0.1091 -0.3055  1.1508
 1212TIP3   OH2 3599   6.436   5.202   5.077  0.0972  0.5535  0.1779
 1212TIP3    H1 3600   6.447   5.231   5.168 -1.0853 -0.6448  0.7383
 1212TIP3    H2 3601   6.416   5.108   5.084 -1.0476  0.6541 -1.2448
 1213TIP3   OH2 3602   1.921   1.398   2.607  0.5663 -0.2494 -0.4731
 1213TIP3    H1 3603   2.012   1.382   2.634  0.6698 -0.9472 -1.1985
 1213TIP3    H2 3604   1.872   1.323   2.640 -0.0220  0.7878  1.1152
 1214TIP3   OH2 3605   5.565   4.507   0.803  0.2745  0.3446  0.6202
 1214TIP3    H1 3606   5.628   4.485   0.872  1.5445 -1.9271 -1.1366
 1214TIP3    H2 3607   5.498   4.439   0.810 -0.6022  1.2018  0.7728
 1215TIP3   OH2 3608   4.932   1.419   1.604  0.1150 -0.5466  0.8834
 1215TIP3    H1 3609   4.874   1.425   1.680  0.5114  1.8732  1.1042
 1215TIP3    H2 3610   5.015   1.456   1.635 -0.2264  2.2006 -1.1177
 1216TIP3   OH2 3611   2.326   2.887   3.586  0.9135 -0.0585  0.0240
 1216TIP3    H1 3612   2.330   2.935   3.503  0.6266 -0.2219 -0.0860
 1216TIP3    H2 3613   2.268   2.813   3.567  0.8691 -0.1092  0.3650
 1217TIP3   OH2 3614   7.158   5.180   3.663 -0.7018  0.5574  0.1637
 1217TIP3    H1 3615   7.241   5.192   3.710 -0.8960  2.3726  0.1280
 1217TIP3    H2 3616   7.114   5.265   3.671 -1.4241  0.4477 -2.0044
 1218TIP3   OH2 3617   0.306   5.003   1.569 -0.3417 -0.1674  0.5687
 1218TIP3    H1 3618   0.244   5.010   1.641 -0.7308  1.0687  0.1371
 1218TIP3    H2 3619   0.352   5.087   1.568 -0.6843  0.0446 -0.9088
 1219TIP3   OH2 3620   4.011   3.704   1.134 -0.1871  0.4712  0.4405
 1219TIP3    H1 3621   3.996   3.699   1.040 -1.4295  1.2453  0.5798
 1219TIP3    H2 3622   3.958   3.633   1.171  0.1305  0.3026  0.5802
 1220TIP3   OH2 3623   2.833   2.392   4.240 -0.2113  0.2069 -0.3883
 1220TIP3    H1 3624   2.900   2.457   4.217  0.5413 -0.3705  0.1210
 1220TIP3    H2 3625   2.863   2.311   4.200 -2.3139  0.5934 -2.9895
 1221TIP3   OH2 3626   6.815   5.001   4.441 -0.2144 -0.1498 -0.4657
 1221TIP3    H1 3627   6.843   4.965   4.357  0.5452 -0.7265  0.0222
 1221TIP3    H2 3628   6.752   4.937   4.475 -3.4921  1.8469 -2.2431
 1222TIP3   OH2 3629   1.085   1.327   2.743 -0.1863 -0.4868 -0.7174
 1222TIP3    H1 3630   1.063   1.323   2.650 -0.5162  0.2109 -0.6716
 1222TIP3    H2 3631   1.136   1.247   2.759 -0.4257 -0.7839 -1.4154
 1223TIP3   OH2 3632   1.827   2.175   4.752  0.7692 -0.0511  0.0785
 1223TIP3    H1 3633   1.747   2.128   4.728  1.0950 -0.6570  0.1547
 1223TIP3    H2 3634   1.896   2.133   4.700  1.3077 -0.6557  1.2437
 1224TIP3   OH2 3635   5.460   1.681   3.839 -0.4458  0.6115  0.3089
 1224TIP3    H1 3636   5.416   1.714   3.918 -2.8117 -2.6338  0.5655
 1224TIP3    H2 3637   5.504   1.601   3.868  1.3120  1.0189 -1.0969
 1225TIP3   OH2 3638   6.037   3.043   0.038 -0.1496  0.3771  0.2403
 1225TIP3    H1 3639   6.077   3.106   0.099  0.5223  0.1140  0.0775
 1225TIP3    H2 3640   6.025   2.964   0.090  0.4128  0.1565  0.0362
 1226TIP3   OH2 3641   6.531   5.385   0.931 -0.0069 -0.0494  0.3522
 1226TIP3    H1 3642   6.500   5.475   0.933 -0.6284 -0.2641  1.3300
 1226TIP3    H2 3643   6.452   5.332   0.920  0.4792 -0.4446 -1.5687
 1227TIP3   OH2 3644   1.334   1.289   3.093  0.3485  0.1832 -0.1447
 1227TIP3    H1 3645   1.388   1.211   3.106  0.6468  0.5697  1.0991
 1227TIP3    H2 3646   1.244   1.257   3.093  0.5029 -0.2833 -0.7749
 1228TIP3   OH2 3647   4.830   5.694   2.113  0.4195  0.2237  0.7082
 1228TIP3    H1 3648   4.842   5.647   2.031  0.6477  0.2698  0.7148
 1228TIP3    H2 3649   4.842   5.627   2.181 -0.5723  0.0054  0.6954
 1229TIP3   OH2 3650   5.855   0.131   4.376 -0.0029  0.4662 -0.5319
 1229TIP3    H1 3651   5.896   0.086   4.303  0.0667  1.0619 -0.8653
 1229TIP3    H2 3652   5.814   0.209   4.337 -2.1886 -0.5111 -0.3611
 1230TIP3   OH2 3653   3.991   4.187   3.516 -0.1623 -0.4005  0.1436
 1230TIP3    H1 3654   3.951   4.244   3.581  0.2066  0.5405 -0.4268
 1230TIP3    H2 3655   4.050   4.245   3.467 -1.1755 -0.8254 -1.6803
 1231TIP3   OH2 3656   5.770   2.106   2.492  0.2508 -0.0149  0.5249
 1231TIP3    H1 3657   5.840   2.065   2.541  0.7096  1.1666  0.8818
 1231TIP3    H2 3658   5.813   2.141   2.413 -0.0706  0.0749  0.3864
 1232TIP3   OH2 3659   3.044   5.064   3.960  0.7358 -0.7556 -0.6339
 1232TIP3    H1 3660   3.120   5.113   3.992 -0.2439  0.5143 -0.1677
 1232TIP3    H2 3661   3.014   5.114   3.884 -0.9055  0.0085  0.4638
 1233TIP3   OH2 3662   0.779   0.288   5.503 -0.0096 -0.6772  0.2887
 1233TIP3    H1 3663   0.783   0.368   5.451  1.4294 -0.2240  1.0196
 1233TIP3    H2 3664   0.779   0.318   5.594  0.6041 -1.4941  0.5756
 1234TIP3   OH2 3665   4.749   6.197   0.565 -0.4782  0.0219  0.5890
 1234TIP3    H1 3666   4.762   6.168   0.655 -2.2328 -1.3708  0.4360
 1234TIP3    H2 3667   4.747   6.117   0.513 -0.3272  0.7494 -0.5933
 1235TIP3   OH2 3668   5.032   3.275   1.174 -0.2533 -0.1973 -0.1233
 1235TIP3    H1 3669   5.082   3.332   1.232  0.1429 -0.6020 -0.0661
 1235TIP3    H2 3670   4.960   3.242   1.227 -0.7363  0.5787 -0.2721
 1236TIP3   OH2 3671   0.076   1.699   0.864 -0.5167 -0.2690 -0.1170
 1236TIP3    H1 3672   0.067   1.757   0.789  2.5380  2.4146  1.3262
 1236TIP3    H2 3673   0.008   1.729   0.925 -1.4978 -0.9221 -0.8551
 1237TIP3   OH2 3674   4.396   6.214   3.763  0.0488 -0.3376 -0.8667
 1237TIP3    H1 3675   4.469   6.269   3.791  0.4531 -0.8697 -0.8633
 1237TIP3    H2 3676   4.374   6.246   3.676  0.3246 -0.2042 -0.8892
 1238TIP3   OH2 3677   1.288   2.061   3.001  0.0024  0.2671  0.1935
 1238TIP3    H1 3678   1.364   2.114   3.024 -0.5027  0.5031  1.3997
 1238TIP3    H2 3679   1.317   2.008   2.927  0.4020  2.5388 -1.3884
 1239TIP3   OH2 3680   5.840   1.078   0.741  0.1886 -0.0550  0.0165
 1239TIP3    H1 3681   5.904   1.040   0.681  1.2237 -0.0488  1.0843
 1239TIP3    H2 3682   5.891   1.107   0.816 -1.0096  0.4172  0.6833
 1240TIP3   OH2 3683   0.664   4.855   4.229 -0.4110  0.2164 -0.5804
 1240TIP3    H1 3684   0.703   4.785   4.176  0.3561  0.7960 -0.7962
 1240TIP3    H2 3685   0.719   4.860   4.307 -1.1781 -0.2196  0.0020
 1241TIP3   OH2 3686   4.666   3.448   3.105 -0.4025  0.3903 -0.3778
 1241TIP3    H1 3687   4.627   3.367   3.138 -0.4584 -0.5672 -2.6250
 1241TIP3    H2 3688   4.713   3.484   3.180 -1.5361 -0.9841  1.0551
 1242TIP3   OH2 3689   5.783   5.318   2.686 -0.3142 -0.0679 -0.3812
 1242TIP3    H1 3690   5.845   5.305   2.757  0.4952  2.0734 -0.6151
 1242TIP3    H2 3691   5.697   5.305   2.726  0.1825 -1.5930  0.2919
 1243TIP3   OH2 3692   1.127   1.183   5.696 -0.4031 -0.1065  0.6310
 1243TIP3    H1 3693   1.087   1.169   5.611 -0.3963 -0.4587  0.6838
 1243TIP3    H2 3694   1.144   1.277   5.700 -0.6652 -0.0485  0.3617
 1244TIP3   OH2 3695   1.760   3.854   4.053  0.3247 -0.1986  0.3859
 1244TIP3    H1 3696   1.788   3.856   3.962 -1.0183 -1.4894 -0.1157
 1244TIP3    H2 3697   1.808   3.925   4.096  0.7413  0.6340 -1.3884
 1245TIP3   OH2 3698   3.873   0.858   0.497 -0.1971 -0.2503  0.1453
 1245TIP3    H1 3699   3.894   0.766   0.512  0.1899 -0.2078 -0.1069
 1245TIP3    H2 3700   3.826   0.885   0.576 -2.1313 -1.1932 -0.6320
 1246TIP3   OH2 3701   3.154   4.565   0.498  0.2648 -0.4931  0.3419
 1246TIP3    H1 3702   3.234   4.517   0.519  0.0667 -0.9886 -0.0151
 1246TIP3    H2 3703   3.119   4.521   0.421  0.3780  0.5801 -0.3541
 1247TIP3   OH2 3704   3.202   6.791   2.058  0.5487  0.2333  0.4796
 1247TIP3    H1 3705   3.289   6.810   2.092  0.4756  1.1928  0.1723
 1247TIP3    H2 3706   3.143   6.803   2.133  0.5603  0.7767  0.4095
 1248TIP3   OH2 3707   3.568   0.701   3.291  0.7625  0.2279  0.5016
 1248TIP3    H1 3708   3.609   0.784   3.266 -1.9371  1.7252  0.5966
 1248TIP3    H2 3709   3.561   0.705   3.387 -0.0898  0.3129  0.4496
 1249TIP3   OH2 3710   2.092   6.183   5.427 -0.4228 -0.6615 -0.1092
 1249TIP3    H1 3711   2.117   6.185   5.334 -0.2743  0.8549 -0.0552
 1249TIP3    H2 3712   2.005   6.223   5.428 -0.1165 -0.0073  0.4944
 1250TIP3   OH2 3713   0.652   2.322   5.262 -0.6078  0.3224 -0.3570
 1250TIP3    H1 3714   0.584   2.256   5.253  0.2977 -0.5596 -1.0223
 1250TIP3    H2 3715   0.729   2.283   5.219  0.0759  1.6250 -0.3709
 1251TIP3   OH2 3716   2.319   4.253   4.369 -0.1558 -0.1781  0.3428
 1251TIP3    H1 3717   2.264   4.300   4.432  1.1429  0.8100  0.8040
 1251TIP3    H2 3718   2.405   4.248   4.412 -0.0551 -2.3612 -0.0181
 1252TIP3   OH2 3719   3.657   5.337   3.377  0.0644 -0.2420 -0.5576
 1252TIP3    H1 3720   3.706   5.360   3.297  0.1991  0.2781 -0.3325
 1252TIP3    H2 3721   3.675   5.410   3.437  0.3094 -0.8397  0.1024
 1253TIP3   OH2 3722   5.089   1.504   2.554 -0.1949  0.5043  0.2625
 1253TIP3    H1 3723   5.080   1.452   2.634  1.0099 -0.6051 -0.2867
 1253TIP3    H2 3724   5.138   1.582   2.582  0.0511  0.2157  0.6602
 1254TIP3   OH2 3725   4.512   4.851   1.620 -0.1351  0.4400 -0.1449
 1254TIP3    H1 3726   4.463   4.806   1.688  1.4807 -0.0856  0.7313
 1254TIP3    H2 3727   4.546   4.781   1.564  0.6459  0.7007 -0.0056
 1255TIP3   OH2 3728   4.745   1.560   0.584 -0.7718  0.6880 -0.0513
 1255TIP3    H1 3729   4.728   1.479   0.536 -2.1292  2.0918 -2.1300
 1255TIP3    H2 3730   4.660   1.587   0.617 -0.3808  1.3788  0.4172
 1256TIP3   OH2 3731   3.964   4.423   5.229  0.6350 -0.1334  0.4293
 1256TIP3    H1 3732   4.033   4.383   5.177 -0.1337  0.3697 -1.0240
 1256TIP3    H2 3733   3.906   4.351   5.253  1.5529 -0.5330  1.5284
 1257TIP3   OH2 3734   2.682   4.854   1.333  0.1452 -0.3690 -0.0661
 1257TIP3    H1 3735   2.707   4.845   1.241 -0.9243 -0.6731 -0.3391
 1257TIP3    H2 3736   2.764   4.875   1.378  0.8661 -1.2765 -0.9220
 1258TIP3   OH2 3737   6.732   5.258   4.352  0.0012 -0.2159  0.4671
 1258TIP3    H1 3738   6.757   5.173   4.388  1.0590 -0.1757 -0.1209
 1258TIP3    H2 3739   6.800   5.318   4.384 -0.9600  0.4985  1.2128
 1259TIP3   OH2 3740   7.050   3.463   0.986  0.1610 -0.4324 -0.6893
 1259TIP3    H1 3741   6.977   3.511   1.025  0.3585 -0.1426 -0.6705
 1259TIP3    H2 3742   7.120   3.529   0.979  0.3289 -0.6415 -0.9538
 1260TIP3   OH2 3743   1.434   2.702   3.514 -0.7846  0.3389 -0.5770
 1260TIP3    H1 3744   1.491   2.661   3.449  2.3284 -0.3030  2.2693
 1260TIP3    H2 3745   1.462   2.794   3.516  2.3070 -0.4492  2.5498
 1261TIP3   OH2 3746   4.120   0.348   4.187  0.2639  0.0365 -0.0605
 1261TIP3    H1 3747   4.174   0.415   4.144 -0.8018 -0.5626 -2.5440
 1261TIP3    H2 3748   4.133   0.269   4.134 -1.1553 -0.7669  0.7220
 1262TIP3   OH2 3749   5.954   0.790   3.345 -0.1371  0.2799  0.2922
 1262TIP3    H1 3750   6.003   0.869   3.371 -0.2611  0.8661 -1.1466
 1262TIP3    H2 3751   5.864   0.809   3.371 -0.2262  0.7714 -0.3419
 1263TIP3   OH2 3752   3.079   0.495   3.202  0.3547 -0.3432 -0.6863
 1263TIP3    H1 3753   3.167   0.519   3.174  0.5521 -0.1884  0.0582
 1263TIP3    H2 3754   3.058   0.417   3.150  0.1290  0.7567 -2.3185
 1264TIP3   OH2 3755   2.764   3.423   5.777  0.0547 -0.4617  0.0667
 1264TIP3    H1 3756   2.775   3.351   5.839  0.3705 -0.3747  0.1155
 1264TIP3    H2 3757   2.772   3.502   5.830 -1.5140 -0.3765  0.2201
 1265TIP3   OH2 3758   7.161   5.322   1.922 -0.1898  0.8676  0.3939
 1265TIP3    H1 3759   7.211   5.305   2.002  1.0521  1.2907 -0.2763
 1265TIP3    H2 3760   7.089   5.379   1.951 -0.9504 -0.5964  1.5580
 1266TIP3   OH2 3761   0.150   3.535   3.239 -0.4635 -0.6317  0.1378
 1266TIP3    H1 3762   0.090   3.492   3.177 -0.7629 -2.1802  1.4504
 1266TIP3    H2 3763   0.097   3.549   3.317  0.3791 -0.2342  0.6478
 1267TIP3   OH2 3764   0.151   4.068   2.735 -0.1420  0.6155 -0.2329
 1267TIP3    H1 3765   0.199   4.005   2.789  1.2523  1.2859 -0.6679
 1267TIP3    H2 3766   0.188   4.058   2.648  0.0817  2.0287 -0.3097
 1268TIP3   OH2 3767   4.268   5.110   3.344 -0.0954  0.0535  0.5210
 1268TIP3    H1 3768   4.343   5.170   3.346 -1.0759  1.3141  1.4469
 1268TIP3    H2 3769   4.249   5.093   3.436 -1.9047  1.0625  0.3855
 1269TIP3   OH2 3770   5.384   5.025   4.386 -0.0430  0.6738 -0.3233
 1269TIP3    H1 3771   5.376   4.989   4.474 -0.1474 -1.4996 -1.1620
 1269TIP3    H2 3772   5.377   4.949   4.328  1.3625  1.8467 -2.1605
 1270TIP3   OH2 3773   3.750   5.497   0.880  0.1479 -0.8546 -0.1873
 1270TIP3    H1 3774   3.773   5.474   0.790 -0.1454  1.3711 -0.9171
 1270TIP3    H2 3775   3.688   5.570   0.870  1.3475  0.5492  1.8160
 1271TIP3   OH2 3776   6.057   6.812   2.031  0.2819  0.8262  0.1650
 1271TIP3    H1 3777   6.099   6.763   2.102 -0.2508  2.3568  1.5947
 1271TIP3    H2 3778   5.990   6.753   1.997  0.2700  0.2125  1.2240
 1272TIP3   OH2 3779   1.728   2.742   1.354 -0.1510  0.6348  0.3166
 1272TIP3    H1 3780   1.768   2.662   1.322 -1.3742  0.4171 -0.7660
 1272TIP3    H2 3781   1.767   2.812   1.301  0.3736  0.6862  0.7591
 1273TIP3   OH2 3782   2.354   5.478   5.387 -0.4280 -0.2114 -0.2438
 1273TIP3    H1 3783   2.269   5.491   5.430  0.1299  1.2086  0.4726
 1273TIP3    H2 3784   2.360   5.552   5.326  0.2519 -0.3658 -0.3610
 1274TIP3   OH2 3785   2.569   4.195   0.617 -0.0743  0.3486  0.0398
 1274TIP3    H1 3786   2.526   4.228   0.696 -1.7929  0.0573 -0.7242
 1274TIP3    H2 3787   2.572   4.100   0.629 -3.0948 -0.0628 -1.4250
 1275TIP3   OH2 3788   3.647   0.556   2.484 -0.1371  0.2697 -0.1161
 1275TIP3    H1 3789   3.725   0.502   2.474  0.7736  1.3327  0.8912
 1275TIP3    H2 3790   3.668   0.636   2.435 -0.4345  0.7016  0.4476
 1276TIP3   OH2 3791   4.343   4.163   2.367 -0.2694 -0.4215 -0.4379
 1276TIP3    H1 3792   4.342   4.196   2.277  0.6699  1.2860  0.1439
 1276TIP3    H2 3793   4.289   4.224   2.416 -0.7775 -1.3393  0.1837
 1277TIP3   OH2 3794   1.341   3.432   5.431 -0.5237  0.1336  0.4364
 1277TIP3    H1 3795   1.341   3.528   5.435 -2.0574  0.1744 -0.0959
 1277TIP3    H2 3796   1.305   3.412   5.344 -1.0960 -0.9310  0.9062
 1278TIP3   OH2 3797   5.315   2.895   3.220 -0.0019  0.2906 -0.3060
 1278TIP3    H1 3798   5.261   2.864   3.293 -0.0514  0.8450 -0.0990
 1278TIP3    H2 3799   5.256   2.953   3.171  0.7499  1.9056  0.6279
 1279TIP3   OH2 3800   2.414   2.098   4.404 -0.4662  0.3565  0.9844
 1279TIP3    H1 3801   2.390   2.028   4.343 -0.0298  1.9570 -1.1462
 1279TIP3    H2 3802   2.334   2.114   4.453 -1.0302 -0.5847  0.4132
 1280TIP3   OH2 3803   3.901   6.599   1.988  0.1153  0.2971  0.0569
 1280TIP3    H1 3804   3.859   6.612   1.903 -0.2692  0.1518  0.2226
 1280TIP3    H2 3805   3.829   6.577   2.048  0.5907 -1.4619  0.0324
 1281TIP3   OH2 3806   2.097   6.431   0.114  0.7399  0.0688  0.0879
 1281TIP3    H1 3807   2.111   6.338   0.095  0.1818 -0.0690  0.3027
 1281TIP3    H2 3808   2.102   6.437   0.209 -1.9466 -0.2651  0.3375
 1282TIP3   OH2 3809   1.188   3.720   2.873 -0.0051 -0.3424  0.1777
 1282TIP3    H1 3810   1.147   3.747   2.791  1.2918  0.7651 -0.1317
 1282TIP3    H2 3811   1.230   3.636   2.851 -0.3736 -0.4731 -0.0502
 1283TIP3   OH2 3812   0.548   6.696   0.591 -0.3441 -0.0374 -0.2279
 1283TIP3    H1 3813   0.601   6.650   0.657 -0.6901  1.8056  1.4064
 1283TIP3    H2 3814   0.460   6.661   0.603 -0.5387  0.7734  0.7691
 1284TIP3   OH2 3815   6.728   2.574   5.100 -0.5615 -0.0231 -0.4347
 1284TIP3    H1 3816   6.746   2.512   5.030  0.0246  1.1828 -1.4018
 1284TIP3    H2 3817   6.795   2.642   5.089 -0.4423  0.2006  1.3128
 1285TIP3   OH2 3818   4.012   1.704   1.475  0.0565  0.0823 -0.1923
 1285TIP3    H1 3819   4.080   1.676   1.537 -0.2326 -2.4694 -0.9153
 1285TIP3    H2 3820   3.930   1.685   1.519 -0.1605 -0.4521 -0.8256
 1286TIP3   OH2 3821   2.059   5.780   1.105  0.2273  0.0019 -0.2311
 1286TIP3    H1 3822   2.047   5.720   1.179  3.1050 -0.7276 -0.2555
 1286TIP3    H2 3823   2.105   5.855   1.143 -1.3006  1.1996 -0.6644
 1287TIP3   OH2 3824   1.303   0.577   0.953 -0.4064 -0.2990 -0.3582
 1287TIP3    H1 3825   1.271   0.536   1.034 -0.2757 -0.2014 -0.2584
 1287TIP3    H2 3826   1.289   0.509   0.886  3.5655 -2.1816  0.4461
 1288TIP3   OH2 3827   5.096   0.230   2.690 -0.4154 -0.1397 -0.1456
 1288TIP3    H1 3828   5.172   0.257   2.639 -1.0835  1.4094 -0.3639
 1288TIP3    H2 3829   5.022   0.278   2.652 -1.1000  0.2632  1.6076
 1289TIP3   OH2 3830   2.760   4.071   0.486  0.0534  0.4044  0.0957
 1289TIP3    H1 3831   2.702   4.142   0.514 -1.5317 -0.3546 -1.0782
 1289TIP3    H2 3832   2.846   4.112   0.477 -0.3718  1.6813  1.4468
 1290TIP3   OH2 3833   5.919   5.963   0.853  0.5093 -0.6141 -0.2261
 1290TIP3    H1 3834   5.897   5.875   0.885 -0.8739 -0.5577 -0.9758
 1290TIP3    H2 3835   6.004   5.982   0.894  0.0609 -1.6194  1.2533
 1291TIP3   OH2 3836   0.916   6.602   2.510 -0.1981  0.5017  0.4639
 1291TIP3    H1 3837   0.917   6.687   2.467  0.8640  1.0924  1.6228
 1291TIP3    H2 3838   0.988   6.554   2.468 -1.6502 -0.3757 -1.1696
 1292TIP3   OH2 3839   4.910   5.387   0.327 -0.0734  0.2208  0.2707
 1292TIP3    H1 3840   4.840   5.451   0.325 -0.6041 -0.3466  0.4250
 1292TIP3    H2 3841   4.925   5.368   0.419  0.5334  0.6008  0.2587
 1293TIP3   OH2 3842   5.637   0.838   0.184  0.0986  0.0617 -0.0965
 1293TIP3    H1 3843   5.606   0.848   0.274  0.6566  0.0947  0.0959
 1293TIP3    H2 3844   5.632   0.926   0.147 -0.4327 -0.0095 -0.1998
 1294TIP3   OH2 3845   2.038   6.138   2.685  0.3863 -0.1690  0.2626
 1294TIP3    H1 3846   1.946   6.120   2.667  0.3820  0.0294  0.0769
 1294TIP3    H2 3847   2.065   6.197   2.615  0.7947 -0.6339  0.0198
 1295TIP3   OH2 3848   2.804   5.534   5.555 -0.4928 -0.0694 -0.1235
 1295TIP3    H1 3849   2.747   5.563   5.625 -1.3910 -1.3108 -0.3162
 1295TIP3    H2 3850   2.784   5.441   5.544  1.9858 -0.7220  0.2050
 1296TIP3   OH2 3851   6.951   2.990   2.800 -0.6354  0.1172 -0.5020
 1296TIP3    H1 3852   6.908   3.011   2.884  2.5232 -0.2485  1.3436
 1296TIP3    H2 3853   6.991   3.073   2.773  1.4101 -0.5312  0.3392
 1297TIP3   OH2 3854   1.873   3.867   2.729 -0.0091 -0.2234  0.3295
 1297TIP3    H1 3855   1.925   3.856   2.809  1.4674 -0.3654 -0.5982
 1297TIP3    H2 3856   1.782   3.869   2.759  0.4722 -0.8681  1.9445
 1298TIP3   OH2 3857   4.493   1.943   4.603  0.2737 -0.0672  0.1038
 1298TIP3    H1 3858   4.527   1.853   4.602  0.2934 -0.0667 -1.5032
 1298TIP3    H2 3859   4.421   1.940   4.666 -0.7214 -1.5883 -1.0365
 1299TIP3   OH2 3860   2.545   5.970   5.341 -0.1159  0.7360 -0.2233
 1299TIP3    H1 3861   2.606   5.989   5.412 -0.1633  0.2599 -0.0507
 1299TIP3    H2 3862   2.472   6.030   5.356  0.7880  2.1083 -1.0772
 1300TIP3   OH2 3863   6.924   4.295   1.947 -0.0736  0.2128  0.0098
 1300TIP3    H1 3864   6.917   4.369   1.887 -0.4210 -0.9446 -1.4467
 1300TIP3    H2 3865   6.957   4.223   1.893 -0.0515 -0.7869  1.2952
 1301TIP3   OH2 3866   6.112   4.668   0.079  0.1931 -0.1720  0.0850
 1301TIP3    H1 3867   6.023   4.652   0.111  0.1749 -0.6516 -0.1913
 1301TIP3    H2 3868   6.160   4.589   0.103 -0.0591 -1.0132 -1.9223
 1302TIP3   OH2 3869   6.311   3.434   3.952 -0.3072  0.2963 -0.4371
 1302TIP3    H1 3870   6.305   3.518   3.905  0.3066  1.3388  1.2554
 1302TIP3    H2 3871   6.383   3.447   4.014 -0.7741 -1.1840  0.4541
 1303TIP3   OH2 3872   4.885   5.457   2.240 -0.0190  0.4697 -0.7289
 1303TIP3    H1 3873   4.816   5.421   2.296  1.3168 -0.3600  0.4327
 1303TIP3    H2 3874   4.897   5.390   2.172 -0.8198  0.9439 -1.3652
 1304TIP3   OH2 3875   6.886   0.938   1.957 -0.2543 -0.3284  0.0963
 1304TIP3    H1 3876   6.917   0.873   1.893 -0.8045  0.3897 -0.9186
 1304TIP3    H2 3877   6.952   0.935   2.026  1.2366 -0.0081 -1.2368
 1305TIP3   OH2 3878   2.555   6.377   2.133 -0.8239 -0.0929 -0.3708
 1305TIP3    H1 3879   2.583   6.374   2.041 -1.1549 -2.5485 -0.4773
 1305TIP3    H2 3880   2.565   6.468   2.159  0.2271  0.4752 -2.5542
 1306TIP3   OH2 3881   3.217   2.600   3.717  0.0464 -0.0008  0.2680
 1306TIP3    H1 3882   3.162   2.569   3.646  0.4361  0.2121 -0.1277
 1306TIP3    H2 3883   3.260   2.521   3.750 -0.3659 -0.1448  0.4739
 1307TIP3   OH2 3884   1.942   6.661   4.835 -0.2943 -0.0853  0.2798
 1307TIP3    H1 3885   1.937   6.668   4.931  3.0290 -2.7565  0.8483
 1307TIP3    H2 3886   1.963   6.749   4.805  0.7020  0.4211  2.2987
 1308TIP3   OH2 3887   4.957   2.194   3.673  0.0710 -0.5132 -0.0621
 1308TIP3    H1 3888   4.983   2.285   3.659 -2.4266 -0.0865 -3.0252
 1308TIP3    H2 3889   5.007   2.145   3.608 -0.2887 -0.9084 -0.0458
 1309TIP3   OH2 3890   6.232   1.237   1.456 -0.1100 -0.4329  0.3704
 1309TIP3    H1 3891   6.320   1.198   1.457  0.3352  0.5260  2.4156
 1309TIP3    H2 3892   6.205   1.238   1.547 -2.0245 -0.1342 -0.1604
 1310TIP3   OH2 3893   1.336   1.516   2.062 -0.1102 -0.3265 -0.4058
 1310TIP3    H1 3894   1.302   1.439   2.108  1.0464 -0.3338  0.4840
 1310TIP3    H2 3895   1.429   1.499   2.052 -0.0594  0.4086 -1.3324
 1311TIP3   OH2 3896   2.930   5.591   0.398  0.9278  0.1247  0.0448
 1311TIP3    H1 3897   2.932   5.663   0.335  3.1167  1.3395  1.3719
 1311TIP3    H2 3898   2.993   5.617   0.466 -0.7200 -1.4778  2.3378
 1312TIP3   OH2 3899   3.866   3.629   2.424  0.0491 -0.1650  0.3575
 1312TIP3    H1 3900   3.924   3.634   2.501  1.3273 -0.0943 -0.5766
 1312TIP3    H2 3901   3.821   3.713   2.423 -1.0412 -0.6832  1.8026
 1313TIP3   OH2 3902   3.886   5.649   2.233  0.5825 -0.4564 -0.0930
 1313TIP3    H1 3903   3.907   5.573   2.179  1.7781 -1.3783  1.5567
 1313TIP3    H2 3904   3.793   5.663   2.220  0.3681 -2.1271 -0.5546
 1314TIP3   OH2 3905   4.422   4.115   3.158  0.1397  0.0790 -0.3815
 1314TIP3    H1 3906   4.471   4.169   3.097 -0.7388 -0.5155 -1.6502
 1314TIP3    H2 3907   4.360   4.066   3.104 -2.0257  0.9463  1.1300
 1315TIP3   OH2 3908   5.630   3.048   2.775 -0.5243 -0.6167 -0.0366
 1315TIP3    H1 3909   5.702   3.060   2.836 -1.3263  2.2978  0.4808
 1315TIP3    H2 3910   5.553   3.036   2.830 -1.1826  1.5537 -0.3713
 1316TIP3   OH2 3911   3.642   2.545   1.454 -0.3556 -0.0803  0.2629
 1316TIP3    H1 3912   3.690   2.518   1.376 -2.5557 -0.8016 -0.9187
 1316TIP3    H2 3913   3.627   2.463   1.502 -0.9192  0.0451  0.3084
 1317TIP3   OH2 3914   1.779   4.601   3.057  0.2790  0.3203  0.0370
 1317TIP3    H1 3915   1.737   4.687   3.058  0.9576  0.6654  1.3181
 1317TIP3    H2 3916   1.724   4.548   2.999 -1.5224  0.9402  1.0859
 1318TIP3   OH2 3917   5.579   1.750   1.041 -0.2616 -0.0520 -0.3203
 1318TIP3    H1 3918   5.552   1.769   0.952  1.1297 -1.1957 -1.0481
 1318TIP3    H2 3919   5.666   1.791   1.049  1.0825 -2.6053 -0.6628
 1319TIP3   OH2 3920   4.470   3.661   3.065 -0.4742  0.3130 -0.2380
 1319TIP3    H1 3921   4.472   3.726   3.135 -1.6485  0.7967 -0.6310
 1319TIP3    H2 3922   4.527   3.591   3.096 -0.3717  0.8564  0.8571
 1320TIP3   OH2 3923   3.487   2.024   3.116 -0.3504  0.2766  1.3817
 1320TIP3    H1 3924   3.413   2.034   3.057  0.4734 -1.2055  0.0048
 1320TIP3    H2 3925   3.554   1.981   3.063  0.7067 -0.4314  3.1995
 1321TIP3   OH2 3926   2.611   3.232   2.644  0.2729 -0.8752  0.2297
 1321TIP3    H1 3927   2.532   3.178   2.639 -1.1972  1.0779  0.9505
 1321TIP3    H2 3928   2.658   3.197   2.720  0.1911 -2.1271 -0.2618
 1322TIP3   OH2 3929   2.603   5.644   3.650 -0.4407  0.2067 -0.5962
 1322TIP3    H1 3930   2.644   5.564   3.614  0.0483  0.5627 -0.8511
 1322TIP3    H2 3931   2.552   5.613   3.725  0.6905 -0.2063  0.0344
 1323TIP3   OH2 3932   6.425   3.745   4.429  0.3851  0.0276 -0.2981
 1323TIP3    H1 3933   6.502   3.727   4.375 -0.7361  0.2891 -2.0589
 1323TIP3    H2 3934   6.415   3.840   4.425  1.0458  0.2248  1.5369
 1324TIP3   OH2 3935   3.638   4.634   3.312 -0.1306 -0.1434 -0.1714
 1324TIP3    H1 3936   3.698   4.618   3.385  0.9186 -1.1712 -1.2068
 1324TIP3    H2 3937   3.551   4.630   3.351  0.4095 -0.5578  1.0449
 1325TIP3   OH2 3938   6.906   2.133   0.288  0.0883  0.2268  0.4390
 1325TIP3    H1 3939   6.970   2.067   0.262  0.0350 -0.6140  2.3198
 1325TIP3    H2 3940   6.842   2.132   0.216  1.0445 -0.4331 -0.4495
 1326TIP3   OH2 3941   5.404   2.825   5.074 -0.2006 -0.5873  0.1804
 1326TIP3    H1 3942   5.484   2.824   5.021 -0.2253 -1.4808  0.1590
 1326TIP3    H2 3943   5.427   2.777   5.153  0.1033  1.4540  1.4121
 1327TIP3   OH2 3944   5.767   6.082   1.168  0.0040  0.7203 -0.0969
 1327TIP3    H1 3945   5.816   6.023   1.225 -0.6126 -0.0017 -0.2944
 1327TIP3    H2 3946   5.833   6.137   1.128  0.3869  2.1383  2.2617
 1328TIP3   OH2 3947   2.750   1.369   1.425 -0.0006 -0.2242  0.1971
 1328TIP3    H1 3948   2.839   1.343   1.401  1.0216  2.6716  0.5036
 1328TIP3    H2 3949   2.744   1.350   1.518  0.5180  0.1092  0.3010
 1329TIP3   OH2 3950   4.945   5.048   4.020 -0.4262  0.1514  0.5160
 1329TIP3    H1 3951   4.893   5.042   3.939  0.4033  0.0933 -0.0170
 1329TIP3    H2 3952   5.034   5.066   3.990  0.3117 -1.8809  1.2919
 1330TIP3   OH2 3953   5.478   6.104   4.619  0.3558  0.1587  0.4610
 1330TIP3    H1 3954   5.458   6.195   4.641 -0.7535 -0.0328  0.2800
 1330TIP3    H2 3955   5.407   6.077   4.561  0.2110 -1.0771  1.1834
 1331TIP3   OH2 3956   4.354   6.644   3.601  0.0370 -0.3113 -0.0841
 1331TIP3    H1 3957   4.414   6.640   3.676  3.2131 -2.4802 -2.4756
 1331TIP3    H2 3958   4.393   6.710   3.543 -0.7237 -0.6912 -1.0556
 1332TIP3   OH2 3959   6.426   6.458   1.204  0.4062 -0.2063 -0.5595
 1332TIP3    H1 3960   6.469   6.531   1.249 -0.2456  0.0729 -0.3876
 1332TIP3    H2 3961   6.336   6.487   1.190  0.0368 -1.1146 -0.1586
 1333TIP3   OH2 3962   5.118   5.045   5.628  0.3072  1.0892  0.1830
 1333TIP3    H1 3963   5.032   5.008   5.604  1.3104  0.0633 -2.1568
 1333TIP3    H2 3964   5.125   5.125   5.575  0.9586  0.9330  0.0249
 1334TIP3   OH2 3965   5.826   4.942   5.612 -0.3939  0.8115 -0.1132
 1334TIP3    H1 3966   5.901   4.904   5.656 -0.6722  0.8558  0.4056
 1334TIP3    H2 3967   5.763   4.871   5.605 -0.7129  1.0355  0.3985
 1335TIP3   OH2 3968   5.500   2.590   1.024  0.4012  0.0749 -0.0760
 1335TIP3    H1 3969   5.411   2.556   1.038  0.8692 -1.3624 -0.3564
 1335TIP3    H2 3970   5.492   2.648   0.948 -0.4444  0.6243  0.4223
 1336TIP3   OH2 3971   5.245   2.294   3.574 -0.8909 -0.4124  0.2318
 1336TIP3    H1 3972   5.171   2.348   3.548 -1.5585 -0.7384  1.4191
 1336TIP3    H2 3973   5.322   2.345   3.546 -1.5047  1.0405  1.0665
 1337TIP3   OH2 3974   6.119   4.902   5.230  0.7437 -0.7304 -0.0219
 1337TIP3    H1 3975   6.107   4.832   5.295  1.2340 -0.8238 -0.0328
 1337TIP3    H2 3976   6.075   4.869   5.152 -0.8145 -0.1556  0.5742
 1338TIP3   OH2 3977   2.232   2.200   4.104  0.0391 -0.1249  0.2845
 1338TIP3    H1 3978   2.323   2.177   4.086 -0.2573 -0.7073 -0.5823
 1338TIP3    H2 3979   2.235   2.288   4.140  1.0329 -0.5749  1.3529
 1339TIP3   OH2 3980   0.821   6.617   5.269  0.8538 -0.2145  0.4740
 1339TIP3    H1 3981   0.744   6.607   5.214 -0.4070 -3.8435  2.5400
 1339TIP3    H2 3982   0.799   6.687   5.330 -1.0271 -1.3144  1.1557
 1340TIP3   OH2 3983   6.837   0.260   1.930  0.1252 -0.0345 -0.1663
 1340TIP3    H1 3984   6.854   0.168   1.911 -0.0357 -0.7511  2.7441
 1340TIP3    H2 3985   6.763   0.260   1.990 -1.5289  2.2120 -1.9930
 1341TIP3   OH2 3986   6.787   5.123   2.309 -0.1193 -0.0482 -0.0091
 1341TIP3    H1 3987   6.801   5.083   2.395 -1.8020 -0.4194  0.1212
 1341TIP3    H2 3988   6.822   5.060   2.247 -0.9277 -0.8357  0.3069
 1342TIP3   OH2 3989   2.683   4.155   2.872  0.1987  0.2574 -0.2583
 1342TIP3    H1 3990   2.612   4.101   2.836  1.9268 -0.6715 -2.4990
 1342TIP3    H2 3991   2.651   4.245   2.862 -1.2676 -0.1731  0.2012
 1343TIP3   OH2 3992   3.394   4.066   2.132 -0.2395 -0.3217  0.0309
 1343TIP3    H1 3993   3.382   4.157   2.159  0.6029  0.1465 -1.0642
 1343TIP3    H2 3994   3.468   4.035   2.183 -0.1720 -0.2046  0.0054
 1344TIP3   OH2 3995   7.162   3.138   1.028  0.0979  0.4937  0.3266
 1344TIP3    H1 3996   7.146   3.232   1.028 -0.1564  0.4519  0.5584
 1344TIP3    H2 3997   7.092   3.101   0.974  1.7093  0.6664 -2.0640
 1345TIP3   OH2 3998   3.137   3.388   3.142 -0.1392 -0.0192 -0.2505
 1345TIP3    H1 3999   3.212   3.388   3.083 -0.5086  1.2796 -0.7485
 1345TIP3    H2 4000   3.085   3.464   3.115  0.2883  1.3725  2.4975
 1346TIP3   OH2 4001   0.795   1.900   3.411  0.0989  0.6758 -0.4234
 1346TIP3    H1 4002   0.705   1.928   3.426 -0.5717 -1.9004  0.9291
 1346TIP3    H2 4003   0.832   1.891   3.499  0.3533 -2.1494 -0.7479
 1347TIP3   OH2 4004   6.193   5.140   5.328  0.1115 -0.0777 -0.1882
 1347TIP3    H1 4005   6.182   5.052   5.293 -1.9918  0.9822 -2.5801
 1347TIP3    H2 4006   6.183   5.130   5.422  0.2759 -2.4249 -0.3611
 1348TIP3   OH2 4007   0.660   1.520   3.225  0.1719 -0.7138 -0.8187
 1348TIP3    H1 4008   0.682   1.478   3.142  0.0130 -0.9199 -0.7570
 1348TIP3    H2 4009   0.582   1.572   3.204 -0.6030 -1.7278 -0.5117
 1349TIP3   OH2 4010   5.666   5.690   3.258  0.1610  0.2304 -0.1255
 1349TIP3    H1 4011   5.736   5.735   3.305  1.1507 -1.5254  0.1464
 1349TIP3    H2 4012   5.635   5.623   3.319 -0.7664  0.0348 -0.7930
 1350TIP3   OH2 4013   3.161   1.732   2.522 -0.1443 -0.0933 -0.5889
 1350TIP3    H1 4014   3.188   1.782   2.600  0.2568  0.7435 -1.2404
 1350TIP3    H2 4015   3.119   1.654   2.557 -1.1781  0.9054  0.4808
 1351TIP3   OH2 4016   4.443   0.948   4.897 -0.1885 -0.0216 -0.1994
 1351TIP3    H1 4017   4.441   0.949   4.801 -0.0840 -0.0912 -0.2017
 1351TIP3    H2 4018   4.528   0.912   4.919 -1.0943 -2.2790 -0.0898
 1352TIP3   OH2 4019   6.986   4.536   3.123  0.2859  0.0181  0.0555
 1352TIP3    H1 4020   7.037   4.514   3.045  1.7880  2.0917  0.3554
 1352TIP3    H2 4021   7.052   4.551   3.191 -0.6020  2.8334  0.4621
 1353TIP3   OH2 4022   5.356   3.702   1.387 -0.1972 -0.0813  0.2250
 1353TIP3    H1 4023   5.294   3.768   1.419 -1.0272  0.1449 -1.6827
 1353TIP3    H2 4024   5.404   3.747   1.317  1.0078 -0.7585  0.5881
 1354TIP3   OH2 4025   7.033   4.610   3.744  0.1562  0.2286 -0.2263
 1354TIP3    H1 4026   6.972   4.599   3.817 -0.5791  0.7631 -0.7442
 1354TIP3    H2 4027   7.104   4.549   3.762 -0.3804 -0.1713  0.5570
 1355TIP3   OH2 4028   0.369   1.165   1.174  0.1091  0.6257 -0.2987
 1355TIP3    H1 4029   0.436   1.227   1.201 -1.2018  2.2138 -0.5409
 1355TIP3    H2 4030   0.411   1.079   1.182  0.9292  1.1829  3.4451
 1356TIP3   OH2 4031   0.285   6.632   2.193  0.1230  0.2005  0.0407
 1356TIP3    H1 4032   0.235   6.667   2.120 -1.8406  0.9766  1.6623
 1356TIP3    H2 4033   0.376   6.654   2.172 -0.4269  0.7839 -1.9358
 1357TIP3   OH2 4034   2.312   6.360   3.294  0.0465 -0.1623 -0.0123
 1357TIP3    H1 4035   2.385   6.298   3.294  0.4872  0.3399  0.9336
 1357TIP3    H2 4036   2.235   6.306   3.313  0.1519 -0.7012 -1.0528
 1358TIP3   OH2 4037   3.675   1.261   3.179  0.2353 -0.2270 -0.2581
 1358TIP3    H1 4038   3.753   1.308   3.207 -0.0080  1.3353 -2.0137
 1358TIP3    H2 4039   3.687   1.247   3.085 -0.5939 -2.0053 -0.1476
 1359TIP3   OH2 4040   3.949   1.335   0.620 -0.1781 -0.1322  0.3241
 1359TIP3    H1 4041   3.906   1.387   0.552 -0.5506 -0.4359  0.3231
 1359TIP3    H2 4042   3.921   1.375   0.702 -1.8567 -1.3361  0.4017
 1360TIP3   OH2 4043   7.183   3.538   1.651  0.1528  0.8860 -0.1400
 1360TIP3    H1 4044   7.151   3.455   1.687  1.5036  0.8465  1.0666
 1360TIP3    H2 4045   7.269   3.550   1.692  1.5099  1.1943 -2.8798
 1361TIP3   OH2 4046   0.771   6.051   1.514  0.1759  0.3681  0.0663
 1361TIP3    H1 4047   0.865   6.042   1.496  0.5325 -0.1388  1.9476
 1361TIP3    H2 4048   0.748   6.138   1.482  1.2418  0.4193 -0.6039
 1362TIP3   OH2 4049   3.409   5.677   3.316 -0.0204  0.0939  0.5146
 1362TIP3    H1 4050   3.482   5.655   3.259 -0.7315 -0.8610 -0.0483
 1362TIP3    H2 4051   3.332   5.672   3.260 -0.6719 -0.2665  1.4108
 1363TIP3   OH2 4052   2.331   3.544   2.319  0.4031 -0.5419 -0.4559
 1363TIP3    H1 4053   2.270   3.473   2.338 -0.7592  0.3158 -0.8228
 1363TIP3    H2 4054   2.284   3.623   2.345  1.2817  0.1624 -0.9582
 1364TIP3   OH2 4055   1.148   0.300   5.738 -0.5060  0.1629  0.5383
 1364TIP3    H1 4056   1.138   0.365   5.807 -0.7499 -0.2242  0.8705
 1364TIP3    H2 4057   1.135   0.349   5.656  1.0981  0.9006  0.6805
 1365TIP3   OH2 4058   1.472   5.174   1.673 -0.0399 -0.0388  0.2905
 1365TIP3    H1 4059   1.446   5.115   1.743 -0.2323 -0.3053 -0.0023
 1365TIP3    H2 4060   1.465   5.261   1.711  0.1820 -0.1995  0.7063
 1366TIP3   OH2 4061   6.559   3.310   0.642 -0.4501  0.2635 -0.2511
 1366TIP3    H1 4062   6.648   3.342   0.649 -0.4779  0.2009  0.4219
 1366TIP3    H2 4063   6.512   3.378   0.593 -0.1450  0.5141 -0.1952
 1367TIP3   OH2 4064   6.909   5.873   5.277  0.6028 -0.6112  0.7222
 1367TIP3    H1 4065   6.932   5.930   5.351 -0.0438 -0.1675  0.5926
 1367TIP3    H2 4066   6.817   5.851   5.291  0.0115  0.7297 -0.7329
 1368TIP3   OH2 4067   2.841   2.803   0.229  0.1548  0.5234 -0.4601
 1368TIP3    H1 4068   2.884   2.718   0.235 -0.4549  0.2616  0.5312
 1368TIP3    H2 4069   2.912   2.867   0.227  0.6462  0.1429  1.7362
 1369TIP3   OH2 4070   2.564   5.895   3.751 -0.1703 -0.1442 -0.2392
 1369TIP3    H1 4071   2.581   5.806   3.720 -2.2664 -1.0829  1.0995
 1369TIP3    H2 4072   2.477   5.916   3.718 -0.8147  0.3461  1.6457
 1370TIP3   OH2 4073   1.791   0.700   2.761  0.0103  0.1610 -0.0916
 1370TIP3    H1 4074   1.734   0.638   2.716 -0.0009 -0.7057  1.0703
 1370TIP3    H2 4075   1.788   0.779   2.707 -1.3030 -0.2830 -0.7161
 1371TIP3   OH2 4076   5.640   6.101   0.210  0.5022 -0.0355  0.3909
 1371TIP3    H1 4077   5.675   6.153   0.282  1.6371  0.6372 -0.6228
 1371TIP3    H2 4078   5.710   6.098   0.145  0.0077 -1.7698 -0.1364
 1372TIP3   OH2 4079   3.915   1.276   5.387 -0.0023  0.0929 -0.0172
 1372TIP3    H1 4080   3.904   1.340   5.458 -0.5032 -0.5373  0.4766
 1372TIP3    H2 4081   3.830   1.273   5.343 -0.2321 -0.8495  0.4821
 1373TIP3   OH2 4082   2.792   1.948   1.657  0.1145 -0.2900  0.1257
 1373TIP3    H1 4083   2.706   1.937   1.697  0.3748  0.4520  0.9260
 1373TIP3    H2 4084   2.851   1.898   1.712  0.1004 -1.4365 -0.8661
 1374TIP3   OH2 4085   0.238   3.170   5.450  0.1646  0.0218 -0.0682
 1374TIP3    H1 4086   0.321   3.130   5.473 -0.6924 -2.6679 -1.2958
 1374TIP3    H2 4087   0.262   3.254   5.409  2.1762 -0.2803  0.4198
 1375TIP3   OH2 4088   4.675   4.642   5.672  0.1398  0.3788 -0.4516
 1375TIP3    H1 4089   4.637   4.561   5.707  1.9234 -0.3643 -0.1197
 1375TIP3    H2 4090   4.750   4.612   5.621  0.4292  1.7949 -0.8827
 1376TIP3   OH2 4091   1.821   0.495   2.971 -0.2315 -0.0438  0.7561
 1376TIP3    H1 4092   1.897   0.518   3.024  1.1504 -1.4319 -0.5378
 1376TIP3    H2 4093   1.814   0.564   2.906  0.5243 -0.4189  0.2750
 1377TIP3   OH2 4094   3.362   4.339   0.095  0.1505 -0.1040 -0.1048
 1377TIP3    H1 4095   3.438   4.328   0.154  1.1902  1.1325 -1.1643
 1377TIP3    H2 4096   3.359   4.432   0.077 -0.3208 -0.4272 -1.7978
 1378TIP3   OH2 4097   3.273   3.123   5.287  0.1076  0.0941 -0.1313
 1378TIP3    H1 4098   3.260   3.077   5.204  3.6202  0.4897 -1.0758
 1378TIP3    H2 4099   3.271   3.055   5.354 -0.8675 -0.5134 -0.7645
 1379TIP3   OH2 4100   3.331   4.351   2.417 -0.2241  0.3144 -0.5090
 1379TIP3    H1 4101   3.365   4.432   2.453  1.1498  0.2912 -1.6819
 1379TIP3    H2 4102   3.257   4.377   2.363 -0.1995  0.7076 -0.3510
 1380TIP3   OH2 4103   3.237   6.644   5.139 -0.2595  0.4551  0.1290
 1380TIP3    H1 4104   3.262   6.647   5.047  0.0848 -0.6267  0.1771
 1380TIP3    H2 4105   3.229   6.736   5.165  0.0101  0.7698 -0.8723
 1381TIP3   OH2 4106   0.125   3.769   1.163  0.0252  0.4214 -0.3630
 1381TIP3    H1 4107   0.036   3.785   1.192 -0.1747  2.2063 -1.7653
 1381TIP3    H2 4108   0.180   3.801   1.234 -0.4609  1.2807 -0.3566
 1382TIP3   OH2 4109   1.740   0.240   2.950  0.1812 -0.4181 -0.6558
 1382TIP3    H1 4110   1.757   0.334   2.952  0.3172 -0.4110 -1.6835
 1382TIP3    H2 4111   1.807   0.202   3.008  0.4461  0.0726 -0.6372
 1383TIP3   OH2 4112   2.765   6.027   4.593 -0.0155  0.5095  0.0328
 1383TIP3    H1 4113   2.806   5.943   4.612  0.6659  0.8504  0.0837
 1383TIP3    H2 4114   2.816   6.063   4.520 -2.4834 -0.7170 -2.5232
 1384TIP3   OH2 4115   0.566   0.833   2.900  0.3681 -0.1888  0.4864
 1384TIP3    H1 4116   0.628   0.767   2.930  0.1373 -0.1697  1.0211
 1384TIP3    H2 4117   0.594   0.854   2.810  0.0853 -1.4524  0.0807
 1385TIP3   OH2 4118   3.003   4.462   4.698  0.0568  0.4267  0.2249
 1385TIP3    H1 4119   2.947   4.407   4.754  2.0085 -2.0864 -0.1048
 1385TIP3    H2 4120   2.948   4.537   4.676 -2.7189 -1.2275  0.9761
 1386TIP3   OH2 4121   3.863   5.947   2.787 -0.3969 -0.3865  0.0782
 1386TIP3    H1 4122   3.816   6.001   2.850 -1.6711 -1.5674  0.1879
 1386TIP3    H2 4123   3.812   5.952   2.707  0.7581  0.4321 -0.6333
 1387TIP3   OH2 4124   6.284   3.934   3.507 -0.0859  0.0262 -0.3313
 1387TIP3    H1 4125   6.202   3.963   3.466 -0.7439 -2.7964 -1.2463
 1387TIP3    H2 4126   6.257   3.862   3.565  1.4403  0.9082  1.6184
 1388TIP3   OH2 4127   7.032   3.304   2.797  0.1282 -0.2659  0.6594
 1388TIP3    H1 4128   6.940   3.328   2.797  0.3171  0.4885  0.3580
 1388TIP3    H2 4129   7.053   3.288   2.704  0.0564 -1.4455  0.8262
 1389TIP3   OH2 4130   1.572   0.580   2.649  0.1132 -0.0638 -0.2115
 1389TIP3    H1 4131   1.538   0.495   2.622  0.3461  0.1016 -1.0449
 1389TIP3    H2 4132   1.563   0.636   2.571 -0.1492  0.7123  0.3574
 1390TIP3   OH2 4133   1.785   1.901   4.405  0.1605  0.9753  0.2225
 1390TIP3    H1 4134   1.691   1.893   4.390 -0.1144  3.0633  0.5054
 1390TIP3    H2 4135   1.824   1.884   4.319 -0.4313 -0.1668  0.1584
 1391TIP3   OH2 4136   0.826   6.391   0.175 -0.2351 -0.2432  0.0881
 1391TIP3    H1 4137   0.789   6.383   0.262  2.5707 -0.9039  1.3439
 1391TIP3    H2 4138   0.867   6.478   0.174  1.2329 -0.8981  0.1347
 1392TIP3   OH2 4139   0.242   5.964   2.328  0.1248  0.2314 -0.3353
 1392TIP3    H1 4140   0.282   5.917   2.255  0.2314 -0.1216 -0.0494
 1392TIP3    H2 4141   0.149   5.971   2.304 -0.0380 -0.7679 -0.0492
 1393TIP3   OH2 4142   0.397   1.057   4.572 -0.0918  0.1747 -0.1682
 1393TIP3    H1 4143   0.388   1.140   4.526 -2.3028 -0.0637 -0.2803
 1393TIP3    H2 4144   0.323   1.056   4.633  1.6685 -0.3488  2.1035
 1394TIP3   OH2 4145   5.125   3.759   2.203 -0.2426 -0.2981  0.1686
 1394TIP3    H1 4146   5.049   3.723   2.158 -0.7059 -2.1827  2.2589
 1394TIP3    H2 4147   5.109   3.741   2.296  2.7462 -0.8102  0.6964
 1395TIP3   OH2 4148   5.267   6.207   1.152 -0.4168 -0.4949 -0.6025
 1395TIP3    H1 4149   5.359   6.187   1.163 -0.2088  1.3107  1.7940
 1395TIP3    H2 4150   5.222   6.154   1.218 -0.6796  0.9150  0.4157
 1396TIP3   OH2 4151   5.866   4.038   4.356 -0.1347 -0.3017  0.0115
 1396TIP3    H1 4152   5.780   4.006   4.329  0.1497 -1.8066  0.8042
 1396TIP3    H2 4153   5.923   4.020   4.281  0.4628 -3.6603  1.1034
 1397TIP3   OH2 4154   6.998   4.241   0.579 -0.0312 -0.2346  0.5168
 1397TIP3    H1 4155   7.008   4.249   0.674  1.6732 -1.0950  0.4521
 1397TIP3    H2 4156   6.984   4.147   0.564  1.4140 -0.3556 -0.1891
 1398TIP3   OH2 4157   3.835   5.009   5.393  0.3209  0.4533  0.4632
 1398TIP3    H1 4158   3.803   4.938   5.338  1.8832  0.6022 -0.6964
 1398TIP3    H2 4159   3.833   4.973   5.482 -0.5404 -0.4075  0.1211
 1399TIP3   OH2 4160   1.836   3.642   0.158 -0.8148 -0.5090  0.3609
 1399TIP3    H1 4161   1.830   3.735   0.180  0.8493  0.1586 -1.6910
 1399TIP3    H2 4162   1.924   3.632   0.122 -1.4414 -2.6071 -0.7182
 1400TIP3   OH2 4163   0.407   6.179   2.398  0.6573 -0.1950 -0.1820
 1400TIP3    H1 4164   0.440   6.139   2.479 -0.4607 -1.1010 -0.1617
 1400TIP3    H2 4165   0.361   6.109   2.353  0.9004  0.4083 -1.4218
 1401TIP3   OH2 4166   4.989   0.233   2.021  0.4922 -0.4782  0.4274
 1401TIP3    H1 4167   4.936   0.210   1.945 -1.0123  1.2550  0.8571
 1401TIP3    H2 4168   5.027   0.318   1.999 -1.6656  1.1048  2.3011
 1402TIP3   OH2 4169   6.685   2.928   2.715  0.3416 -0.0135  0.0691
 1402TIP3    H1 4170   6.629   3.000   2.743  1.5729  0.9729  0.0985
 1402TIP3    H2 4171   6.770   2.969   2.700  0.6450 -1.1640 -1.5849
 1403TIP3   OH2 4172   2.539   5.000   0.554 -0.4194 -0.4890 -0.0528
 1403TIP3    H1 4173   2.446   5.019   0.544 -0.3369 -0.8726 -1.8771
 1403TIP3    H2 4174   2.580   5.033   0.474  0.8489 -1.3393  0.2036
 1404TIP3   OH2 4175   4.124   1.229   1.003 -0.2840  0.0472 -0.2046
 1404TIP3    H1 4176   4.105   1.249   1.095  0.3105 -0.7700  0.1075
 1404TIP3    H2 4177   4.068   1.155   0.982  2.1164 -2.1470  0.6184
 1405TIP3   OH2 4178   4.538   2.020   0.052 -0.2653 -0.1616  0.0604
 1405TIP3    H1 4179   4.523   1.949   0.114  0.6155  1.2207  1.9529
 1405TIP3    H2 4180   4.484   2.092   0.084  0.0148  0.5155 -0.9430
 1406TIP3   OH2 4181   5.209   3.028   1.827 -0.0017 -0.1459  0.3143
 1406TIP3    H1 4182   5.142   3.082   1.785  1.9965  2.0482 -0.3107
 1406TIP3    H2 4183   5.272   3.010   1.758  1.1509 -0.2448  1.3543
 1407TIP3   OH2 4184   5.304   3.816   4.263  0.0264  0.2895 -0.1458
 1407TIP3    H1 4185   5.257   3.837   4.344 -0.7071 -1.5071 -0.0535
 1407TIP3    H2 4186   5.268   3.875   4.198  0.0802  1.2455  0.6697
 1408TIP3   OH2 4187   4.763   1.517   5.165 -0.1731 -0.6438 -0.3834
 1408TIP3    H1 4188   4.780   1.474   5.081  1.0328 -0.2049 -0.3798
 1408TIP3    H2 4189   4.816   1.597   5.163 -0.7941 -0.1852  0.4515
 1409TIP3   OH2 4190   6.466   3.395   4.351  0.2516  0.4010 -0.0443
 1409TIP3    H1 4191   6.543   3.434   4.392  0.2592  0.3440 -0.0048
 1409TIP3    H2 4192   6.484   3.401   4.257 -0.0600  1.1178 -0.0590
 1410TIP3   OH2 4193   2.536   3.714   4.016  0.1822 -0.4176 -0.1203
 1410TIP3    H1 4194   2.538   3.709   3.921 -0.9157 -0.7847 -0.1374
 1410TIP3    H2 4195   2.475   3.646   4.043 -0.2115  0.2661  0.7931
 1411TIP3   OH2 4196   6.373   4.230   2.491  0.0012 -0.6221  0.1332
 1411TIP3    H1 4197   6.435   4.229   2.564  1.1555 -4.3323 -0.6684
 1411TIP3    H2 4198   6.407   4.297   2.432  0.1575  1.0754  2.0509
 1412TIP3   OH2 4199   5.809   5.717   2.992 -0.6554 -0.0175 -0.1485
 1412TIP3    H1 4200   5.861   5.763   3.058 -0.6393 -0.1239 -0.0857
 1412TIP3    H2 4201   5.774   5.640   3.039 -0.1287 -0.4310 -0.4332
 1413TIP3   OH2 4202   5.835   4.001   4.629  0.1906 -0.4550  1.1675
 1413TIP3    H1 4203   5.846   4.009   4.534  0.7342  2.7981  1.3888
 1413TIP3    H2 4204   5.909   3.947   4.657  0.2588 -1.1132 -0.2036
 1414TIP3   OH2 4205   4.224   5.212   1.648  0.5015  0.0875  0.0693
 1414TIP3    H1 4206   4.161   5.238   1.581 -0.3445 -0.1818  0.7428
 1414TIP3    H2 4207   4.304   5.261   1.627 -0.7471  2.5611  0.7761
 1415TIP3   OH2 4208   2.725   1.005   0.913  1.0333  0.0139  0.2501
 1415TIP3    H1 4209   2.778   1.071   0.957  0.9651  0.4191 -0.2661
 1415TIP3    H2 4210   2.680   1.053   0.844  0.2843 -0.4014  0.4394
 1416TIP3   OH2 4211   5.643   0.356   4.616 -0.0359 -0.0446 -0.1825
 1416TIP3    H1 4212   5.604   0.435   4.655 -0.8032  0.3909 -1.7707
 1416TIP3    H2 4213   5.625   0.364   4.523  1.7433 -1.0740 -0.6507
 1417TIP3   OH2 4214   7.029   5.475   4.951 -0.0810  0.4957 -0.1151
 1417TIP3    H1 4215   7.112   5.476   4.902  0.7019  2.4640  1.1313
 1417TIP3    H2 4216   7.013   5.382   4.969  1.3329 -0.0046 -1.2018
 1418TIP3   OH2 4217   0.228   1.656   2.689 -0.4601  0.2561 -0.3490
 1418TIP3    H1 4218   0.219   1.725   2.756 -1.7294 -1.0948  0.9465
 1418TIP3    H2 4219   0.164   1.680   2.622 -0.9763  0.3054  0.1488
 1419TIP3   OH2 4220   0.572   4.116   5.214  0.3741 -0.0120 -0.4032
 1419TIP3    H1 4221   0.626   4.189   5.184  1.4816 -0.3549  0.6842
 1419TIP3    H2 4222   0.618   4.082   5.290 -1.1535 -0.6177  0.2808
 1420TIP3   OH2 4223   5.291   3.575   0.790 -1.0082  0.6069 -0.6921
 1420TIP3    H1 4224   5.235   3.630   0.735 -0.3908  0.9084 -1.0393
 1420TIP3    H2 4225   5.233   3.541   0.858 -1.1099  3.1148  0.6112
 1421TIP3   OH2 4226   3.545   1.464   1.785  0.2410  0.0210 -0.8330
 1421TIP3    H1 4227   3.543   1.422   1.871 -0.8746  0.2497 -0.7273
 1421TIP3    H2 4228   3.495   1.405   1.729 -2.9999  1.9540 -0.2744
 1422TIP3   OH2 4229   2.375   3.274   2.027  0.6057  0.6039 -0.0574
 1422TIP3    H1 4230   2.384   3.369   2.022  1.0307  0.5530 -0.2729
 1422TIP3    H2 4231   2.408   3.252   2.114  1.9430  0.4988 -0.5667
 1423TIP3   OH2 4232   0.936   4.233   1.402 -0.1213  0.3645 -0.0615
 1423TIP3    H1 4233   0.924   4.320   1.363  0.3584 -0.2641 -1.6956
 1423TIP3    H2 4234   0.863   4.181   1.368 -1.3941  0.5192  2.2582
 1424TIP3   OH2 4235   3.607   2.043   2.023 -0.3145 -0.3643  0.3103
 1424TIP3    H1 4236   3.541   2.108   2.044 -0.3139 -0.4480  0.5781
 1424TIP3    H2 4237   3.558   1.970   1.985 -0.1382  0.5238 -1.7799
 1425TIP3   OH2 4238   4.897   4.142   0.014 -0.1257 -0.3167 -0.7153
 1425TIP3    H1 4239   4.919   4.048   0.015 -0.7154 -0.4648  0.5716
 1425TIP3    H2 4240   4.843   4.154   0.092 -1.2419  0.8298 -1.6446
 1426TIP3   OH2 4241   3.572   1.173   0.646  0.2619 -0.0751 -0.1313
 1426TIP3    H1 4242   3.505   1.173   0.714  1.0429 -0.4389  0.6588
 1426TIP3    H2 4243   3.622   1.093   0.661 -0.5679 -1.0446 -2.1782
 1427TIP3   OH2 4244   3.731   3.875   2.423 -0.3952 -0.3278  0.0599
 1427TIP3    H1 4245   3.636   3.880   2.432 -0.4124 -0.2465 -0.1797
 1427TIP3    H2 4246   3.760   3.965   2.414 -0.1660 -0.2449  1.4486
 1428TIP3   OH2 4247   4.506   4.121   3.428 -0.4222 -0.3241  0.0346
 1428TIP3    H1 4248   4.479   4.117   3.336 -0.9958 -1.4807  0.2453
 1428TIP3    H2 4249   4.509   4.215   3.447 -2.9283 -0.0822 -0.4150
 1429TIP3   OH2 4250   3.815   0.854   4.937 -0.0683 -0.1383  0.0482
 1429TIP3    H1 4251   3.899   0.894   4.914 -0.9953  1.0410 -1.5079
 1429TIP3    H2 4252   3.755   0.881   4.867 -1.2397 -2.7848 -0.1132
 1430TIP3   OH2 4253   2.699   0.479   3.239 -0.4459 -0.6778 -0.0032
 1430TIP3    H1 4254   2.709   0.447   3.150 -0.0473  0.8465 -0.5191
 1430TIP3    H2 4255   2.625   0.540   3.235 -0.6622 -0.8634  0.7937
 1431TIP3   OH2 4256   1.817   0.351   0.388 -0.2361  0.1699  0.0315
 1431TIP3    H1 4257   1.820   0.283   0.321 -0.1366 -0.3817  0.5858
 1431TIP3    H2 4258   1.803   0.433   0.340  1.3039 -0.0210 -0.7958
 1432TIP3   OH2 4259   6.536   1.148   2.608  0.3559 -1.0578 -0.2949
 1432TIP3    H1 4260   6.605   1.184   2.552 -0.9054  0.3475 -1.0182
 1432TIP3    H2 4261   6.457   1.153   2.554 -0.6546 -0.8745  1.1591
 1433TIP3   OH2 4262   5.270   4.438   4.043  0.8096  0.8258 -0.0279
 1433TIP3    H1 4263   5.346   4.495   4.056  1.4317  0.0492 -0.1746
 1433TIP3    H2 4264   5.306   4.361   3.998  0.0813  0.0972  0.6227
 1434TIP3   OH2 4265   6.567   2.836   4.721  0.4783 -0.3844 -0.1733
 1434TIP3    H1 4266   6.630   2.798   4.659  0.9999  0.1473  0.0203
 1434TIP3    H2 4267   6.530   2.911   4.675 -1.5673 -1.8550 -1.0897
 1435TIP3   OH2 4268   4.740   2.432   5.191 -0.2835  0.1891  0.5553
 1435TIP3    H1 4269   4.714   2.342   5.171  0.3133 -0.2429  1.6321
 1435TIP3    H2 4270   4.673   2.464   5.250 -2.0249  1.4518 -1.9332
 1436TIP3   OH2 4271   4.814   5.122   1.939  0.2141  0.1064 -0.5547
 1436TIP3    H1 4272   4.742   5.066   1.913  0.8507 -1.0789  0.1547
 1436TIP3    H2 4273   4.850   5.156   1.857 -1.2015  0.8228 -0.9129
 1437TIP3   OH2 4274   1.288   2.163   2.246 -0.0020  0.2520  0.4302
 1437TIP3    H1 4275   1.367   2.171   2.192 -1.3606  1.2068 -1.5178
 1437TIP3    H2 4276   1.295   2.234   2.309 -0.5031  2.0384 -1.4269
 1438TIP3   OH2 4277   1.541   5.184   4.490 -0.0096  0.0803 -0.0164
 1438TIP3    H1 4278   1.514   5.119   4.556 -1.2917  1.4525  0.8708
 1438TIP3    H2 4279   1.635   5.196   4.506 -0.4363  0.9709  2.1415
 1439TIP3   OH2 4280   4.339   3.272   3.138 -0.0571  0.0502 -0.1619
 1439TIP3    H1 4281   4.280   3.204   3.172 -0.5012 -0.5658 -2.0832
 1439TIP3    H2 4282   4.303   3.354   3.172  0.0556 -0.5815  1.5818
 1440TIP3   OH2 4283   0.353   5.066   5.077  0.0069  0.6137 -0.4149
 1440TIP3    H1 4284   0.390   5.147   5.113  0.8672  0.1488 -0.2143
 1440TIP3    H2 4285   0.389   4.996   5.132  0.5929 -0.0378 -1.5737
 1441TIP3   OH2 4286   1.740   6.032   2.787  0.0954 -0.8178 -0.1162
 1441TIP3    H1 4287   1.713   5.982   2.711 -1.4189 -0.7848  0.3543
 1441TIP3    H2 4288   1.736   6.124   2.759  0.1745 -0.8373 -0.1896
 1442TIP3   OH2 4289   2.085   3.765   4.362  0.6059  0.0308  0.2201
 1442TIP3    H1 4290   2.090   3.737   4.271 -0.3666  0.3194  0.0638
 1442TIP3    H2 4291   1.991   3.768   4.381  0.7228  1.6850  0.6826
 1443TIP3   OH2 4292   6.494   6.812   5.773 -0.2555  0.5488  0.3583
 1443TIP3    H1 4293   6.584   6.779   5.781 -0.7432 -0.6734  1.0592
 1443TIP3    H2 4294   6.446   6.767   5.843 -2.0637 -1.0167 -1.7765
 1444TIP3   OH2 4295   3.453   6.048   5.864  0.4647 -0.2584 -0.1679
 1444TIP3    H1 4296   3.393   6.107   5.818 -0.0582 -1.9192 -1.7150
 1444TIP3    H2 4297   3.436   5.962   5.826  1.4397 -1.3793  1.7808
 1445TIP3   OH2 4298   3.029   2.856   1.807  0.1150 -0.2329 -0.4361
 1445TIP3    H1 4299   2.953   2.902   1.772 -0.6974 -1.1509  0.0861
 1445TIP3    H2 4300   2.994   2.801   1.877  1.3839 -0.0454  0.3837
 1446TIP3   OH2 4301   2.043   6.275   5.799 -0.1846  0.1977  0.2018
 1446TIP3    H1 4302   1.963   6.260   5.748  0.5096 -1.2774 -0.5377
 1446TIP3    H2 4303   2.018   6.258   5.889 -0.6870 -0.4228 -0.0438
 1447TIP3   OH2 4304   1.657   5.586   4.990 -0.6795 -0.2003 -0.0380
 1447TIP3    H1 4305   1.709   5.507   4.976  1.3641  0.8688  1.0664
 1447TIP3    H2 4306   1.568   5.561   4.966 -0.1424 -2.8988  0.4869
 1448TIP3   OH2 4307   7.208   3.398   2.091 -0.2766 -0.0001  0.0471
 1448TIP3    H1 4308   7.123   3.437   2.075  0.0062  0.6177  0.0441
 1448TIP3    H2 4309   7.192   3.333   2.160 -0.5260  0.9529  0.9120
 1449TIP3   OH2 4310   3.416   3.066   1.857 -0.5203 -0.5668  0.8895
 1449TIP3    H1 4311   3.403   3.081   1.951  0.1812  2.2876  0.6248
 1449TIP3    H2 4312   3.327   3.063   1.821 -0.7836 -0.1584  1.4773
 1450TIP3   OH2 4313   6.237   5.990   3.603 -0.1629  0.4168 -0.5449
 1450TIP3    H1 4314   6.328   5.961   3.608  0.1360  1.3531 -0.3231
 1450TIP3    H2 4315   6.226   6.020   3.513 -0.6774 -0.9754 -0.9812
 1451TIP3   OH2 4316   3.495   5.330   5.047  0.0355 -0.6295  0.3169
 1451TIP3    H1 4317   3.490   5.348   4.953  0.3180 -1.2369  0.1824
 1451TIP3    H2 4318   3.586   5.306   5.062 -0.1076 -0.9643  0.6689
 1452TIP3   OH2 4319   2.613   0.298   4.845 -0.1705 -0.0180  0.0311
 1452TIP3    H1 4320   2.682   0.361   4.865 -0.6428  0.3359  0.6040
 1452TIP3    H2 4321   2.549   0.348   4.793  1.1934 -1.0104 -2.7858
 1453TIP3   OH2 4322   6.875   5.801   3.331  0.2074  0.3540 -0.3438
 1453TIP3    H1 4323   6.950   5.749   3.358 -0.4968 -0.7514 -0.4440
 1453TIP3    H2 4324   6.912   5.884   3.299  1.3135  0.0857  0.2244
 1454TIP3   OH2 4325   5.316   1.809   0.250  0.7381 -0.3172 -0.4565
 1454TIP3    H1 4326   5.307   1.860   0.331  2.4751 -0.5168 -0.1152
 1454TIP3    H2 4327   5.309   1.875   0.180 -0.2489 -0.0727 -0.1421
 1455TIP3   OH2 4328   3.460   6.182   3.460  0.0524  0.4314 -0.2364
 1455TIP3    H1 4329   3.440   6.110   3.519 -0.9188  1.3790  0.6346
 1455TIP3    H2 4330   3.554   6.174   3.443  0.1835 -0.3415  0.7735
 1456TIP3   OH2 4331   6.992   2.871   1.925  0.1006 -0.6395  0.3283
 1456TIP3    H1 4332   6.969   2.782   1.951 -0.8483 -0.9818 -1.5138
 1456TIP3    H2 4333   6.910   2.908   1.891  1.3590 -0.5838 -2.9230
 1457TIP3   OH2 4334   2.551   1.353   4.451  0.7265 -0.1870 -0.0113
 1457TIP3    H1 4335   2.593   1.333   4.535  1.9513 -0.5235 -0.6855
 1457TIP3    H2 4336   2.622   1.387   4.397  0.3908 -1.7374 -1.5205
 1458TIP3   OH2 4337   0.347   3.881   2.229  0.3522  0.3485 -0.2776
 1458TIP3    H1 4338   0.400   3.912   2.303 -0.5715 -1.6461  1.3015
 1458TIP3    H2 4339   0.258   3.878   2.263 -0.2902  0.5442 -1.8795
 1459TIP3   OH2 4340   4.959   4.273   2.925  0.0679 -0.2430  0.0626
 1459TIP3    H1 4341   4.981   4.324   2.847 -2.9362  2.0747  0.5784
 1459TIP3    H2 4342   4.930   4.188   2.890  1.3860 -0.2575 -1.0832
 1460TIP3   OH2 4343   5.753   4.217   0.126 -0.6366 -0.0820 -0.0195
 1460TIP3    H1 4344   5.757   4.284   0.057  0.8316 -0.4602 -0.3388
 1460TIP3    H2 4345   5.738   4.135   0.079 -0.7865 -0.1923  0.2193
 1461TIP3   OH2 4346   1.080   5.735   1.979  0.1449 -0.3202  0.3953
 1461TIP3    H1 4347   1.076   5.823   1.942 -2.2978 -0.1674  0.8236
 1461TIP3    H2 4348   1.167   5.729   2.018  1.0552  1.1982 -1.2558
 1462TIP3   OH2 4349   5.693   5.754   2.197  0.3284  0.6635 -0.2328
 1462TIP3    H1 4350   5.748   5.793   2.265  0.3522  1.0756 -0.4833
 1462TIP3    H2 4351   5.604   5.764   2.230  0.2397  2.0595 -0.8442
 1463TIP3   OH2 4352   0.110   2.667   2.917  0.3745 -0.0375 -0.5980
 1463TIP3    H1 4353   0.057   2.617   2.978 -0.2921  0.6246 -0.6195
 1463TIP3    H2 4354   0.070   2.754   2.915  2.1048  0.8320  0.2260
 1464TIP3   OH2 4355   1.320   2.291   2.509 -0.8719 -0.3578  0.0873
 1464TIP3    H1 4356   1.398   2.238   2.519 -0.9234 -0.4174  0.1788
 1464TIP3    H2 4357   1.315   2.342   2.590 -1.4830 -1.0953  0.5371
 1465TIP3   OH2 4358   0.300   2.245   3.938 -0.4653 -0.0060  0.4787
 1465TIP3    H1 4359   0.310   2.161   3.984  0.6484 -0.6823 -0.9051
 1465TIP3    H2 4360   0.235   2.228   3.870  0.5979 -0.1393 -0.5568
 1466TIP3   OH2 4361   0.236   3.496   4.914  0.2240  0.1593 -0.0837
 1466TIP3    H1 4362   0.309   3.475   4.856 -0.4654 -1.7528 -0.3412
 1466TIP3    H2 4363   0.267   3.570   4.966  2.1504 -0.2614 -0.5437
 1467TIP3   OH2 4364   2.184   4.014   4.217  0.0803 -0.3275  0.0612
 1467TIP3    H1 4365   2.251   4.059   4.268  0.8762 -1.2785 -0.1141
 1467TIP3    H2 4366   2.176   3.927   4.258 -1.1179 -0.2015  0.1346
 1468TIP3   OH2 4367   3.096   5.116   2.667 -0.0983  0.5435  0.1547
 1468TIP3    H1 4368   3.126   5.025   2.661 -0.3253  0.1469  3.4034
 1468TIP3    H2 4369   3.063   5.136   2.579  0.8201 -2.1699 -0.9114
 1469TIP3   OH2 4370   4.887   3.955   5.016 -0.3467  0.0739 -0.5563
 1469TIP3    H1 4371   4.854   3.988   5.100 -0.9462  3.3076 -1.9006
 1469TIP3    H2 4372   4.980   3.977   5.017 -0.4696  0.6435 -0.9176
 1470TIP3   OH2 4373   1.525   2.306   0.260  0.2919 -0.1305 -0.7761
 1470TIP3    H1 4374   1.618   2.325   0.265  0.4938 -0.7426 -1.8732
 1470TIP3    H2 4375   1.484   2.391   0.245  0.6461  0.1719 -0.0646
 1471TIP3   OH2 4376   4.710   2.602   3.141  0.0014 -0.2780  0.1819
 1471TIP3    H1 4377   4.738   2.612   3.049 -1.1928  0.9571 -0.0835
 1471TIP3    H2 4378   4.752   2.675   3.186 -1.7998  0.9310 -0.0063
 1472TIP3   OH2 4379   2.229   4.331   4.640 -0.0286 -0.2891 -0.0150
 1472TIP3    H1 4380   2.281   4.283   4.705  1.4081  1.2471  0.0584
 1472TIP3    H2 4381   2.141   4.332   4.676  0.5747 -0.1373  1.5879
 1473TIP3   OH2 4382   0.405   4.308   0.159 -0.2168 -0.2502  0.1173
 1473TIP3    H1 4383   0.373   4.374   0.220  1.6983 -0.8905  1.9434
 1473TIP3    H2 4384   0.326   4.266   0.125 -1.3697  0.8267  1.3484
 1474TIP3   OH2 4385   3.322   4.438   1.787  0.1485 -0.3496  0.1040
 1474TIP3    H1 4386   3.308   4.435   1.693  1.0128 -1.2626 -0.0104
 1474TIP3    H2 4387   3.272   4.514   1.816 -0.2084 -0.1143 -1.0717
 1475TIP3   OH2 4388   1.507   4.879   5.479 -0.7604  0.1867  0.1506
 1475TIP3    H1 4389   1.578   4.924   5.525 -2.1458  0.5384  2.0890
 1475TIP3    H2 4390   1.523   4.897   5.386  1.9660 -0.2380  0.4600
 1476TIP3   OH2 4391   2.087   2.620   0.419  0.0444  0.5215 -0.1511
 1476TIP3    H1 4392   2.104   2.670   0.338 -1.7791 -1.2850 -1.7585
 1476TIP3    H2 4393   1.998   2.644   0.444 -1.0297 -1.9646 -1.1633
 1477TIP3   OH2 4394   2.422   4.427   3.475 -1.0711 -0.3005  0.0635
 1477TIP3    H1 4395   2.420   4.358   3.541 -0.3517 -0.0199  0.3970
 1477TIP3    H2 4396   2.487   4.489   3.508 -1.7259  0.5501 -0.2173
 1478TIP3   OH2 4397   4.217   1.774   0.018 -0.3822 -0.0398 -0.3130
 1478TIP3    H1 4398   4.164   1.765   0.097  0.3017  3.2498  0.6832
 1478TIP3    H2 4399   4.166   1.832  -0.039  0.7456  0.5988 -0.7024
 1479TIP3   OH2 4400   7.004   3.306   1.257 -0.1740 -0.1927 -0.1171
 1479TIP3    H1 4401   6.962   3.337   1.177  0.8368 -2.8802 -1.8243
 1479TIP3    H2 4402   7.050   3.382   1.291 -0.9898  1.1425 -1.8585
 1480TIP3   OH2 4403   0.104   5.738   3.919  0.2673  0.1511 -0.5612
 1480TIP3    H1 4404   0.161   5.711   3.991 -0.1822  0.1372 -0.2039
 1480TIP3    H2 4405   0.130   5.683   3.845 -0.4689 -1.1327  0.0886
 1481TIP3   OH2 4406   5.450   3.138   1.969  0.3968 -0.3268 -0.0381
 1481TIP3    H1 4407   5.541   3.111   1.953  0.2396 -0.4591 -0.7554
 1481TIP3    H2 4408   5.400   3.096   1.899 -0.2201 -0.2387  0.3398
 1482TIP3   OH2 4409   6.331   5.983   4.720  0.5817  0.6135  0.5519
 1482TIP3    H1 4410   6.251   5.947   4.759  0.8186 -0.8865 -0.2822
 1482TIP3    H2 4411   6.321   6.077   4.729 -0.9415  0.4300  1.1274
 1483TIP3   OH2 4412   4.384   1.419   2.009  0.1872 -0.0512 -0.3537
 1483TIP3    H1 4413   4.453   1.398   2.072 -0.8834  0.4687  1.0478
 1483TIP3    H2 4414   4.312   1.361   2.032 -0.7342  1.1335 -0.1477
 1484TIP3   OH2 4415   3.736   0.896   1.896  0.0717 -0.2500  0.3794
 1484TIP3    H1 4416   3.648   0.888   1.933 -0.7635  2.6728 -0.6598
 1484TIP3    H2 4417   3.754   0.811   1.857 -1.9773 -1.1643  1.3017
 1485TIP3   OH2 4418   3.671   3.147   4.623  0.1016  0.2426 -0.0174
 1485TIP3    H1 4419   3.655   3.153   4.718 -0.8433  0.4535 -0.1812
 1485TIP3    H2 4420   3.603   3.088   4.591  1.7040 -1.5449 -0.2822
 1486TIP3   OH2 4421   1.542   5.854   0.467 -0.1636  0.3291 -0.0024
 1486TIP3    H1 4422   1.589   5.785   0.513 -1.3340  0.0562  0.8509
 1486TIP3    H2 4423   1.502   5.906   0.536  0.0544  1.3956 -0.6618
 1487TIP3   OH2 4424   1.928   0.929   0.120  0.1668  0.6971  0.1712
 1487TIP3    H1 4425   1.982   1.004   0.095  0.8810  0.0724 -0.2191
 1487TIP3    H2 4426   1.952   0.910   0.210  1.7219 -0.4809 -0.4463
 1488TIP3   OH2 4427   6.528   2.203   3.906  0.2157  0.3400  0.6476
 1488TIP3    H1 4428   6.572   2.147   3.841 -0.8830  1.5749 -1.2559
 1488TIP3    H2 4429   6.597   2.257   3.942  0.8912 -0.5547  0.7383
 1489TIP3   OH2 4430   5.536   4.764   4.576 -0.3048  1.4068 -0.1533
 1489TIP3    H1 4431   5.510   4.686   4.626  0.6264  1.7665  0.9566
 1489TIP3    H2 4432   5.466   4.827   4.593 -0.4194  1.2392  0.0076
 1490TIP3   OH2 4433   4.814   5.106   4.278  0.6168 -0.1315 -0.0815
 1490TIP3    H1 4434   4.865   5.031   4.310  2.2741  1.4467  1.1895
 1490TIP3    H2 4435   4.834   5.111   4.185  1.4977 -0.5580  0.0684
 1491TIP3   OH2 4436   3.033   4.158   4.234 -0.3445  0.5579  0.0676
 1491TIP3    H1 4437   3.062   4.080   4.282  0.4555  0.4014 -0.6446
 1491TIP3    H2 4438   3.002   4.124   4.151  0.4197  1.0333 -0.4245
 1492TIP3   OH2 4439   6.660   3.030   4.315 -0.2053 -0.1549 -0.0220
 1492TIP3    H1 4440   6.708   3.088   4.374  1.7544 -1.7454  0.0465
 1492TIP3    H2 4441   6.666   2.944   4.355 -1.2488 -0.7910 -1.1517
 1493TIP3   OH2 4442   3.147   2.023   1.933  0.6577 -0.1202  0.1284
 1493TIP3    H1 4443   3.169   1.980   1.850 -0.5402  1.0301 -0.8304
 1493TIP3    H2 4444   3.086   1.963   1.975  1.8398 -1.0650  0.5732
 1494TIP3   OH2 4445   3.783   6.573   1.224  0.0267  0.8134 -0.5358
 1494TIP3    H1 4446   3.794   6.660   1.185  0.2431  1.5838  1.1270
 1494TIP3    H2 4447   3.871   6.536   1.225 -0.1114  0.4270 -1.5193
 1495TIP3   OH2 4448   1.562   4.924   3.815  0.1022 -0.2783 -0.0800
 1495TIP3    H1 4449   1.584   4.999   3.869 -0.8608 -0.5631  0.7357
 1495TIP3    H2 4450   1.500   4.873   3.868  0.8225 -1.7135 -0.5536
 1496TIP3   OH2 4451   3.026   6.384   0.644 -0.5583  0.4439  0.1087
 1496TIP3    H1 4452   3.098   6.424   0.691 -1.0953  1.1547  0.3431
 1496TIP3    H2 4453   2.958   6.370   0.710 -1.1794  1.1173 -0.3800
 1497TIP3   OH2 4454   2.184   1.714   1.239  0.3751  0.3062  0.3309
 1497TIP3    H1 4455   2.209   1.700   1.147 -0.6617 -0.1007  0.0904
 1497TIP3    H2 4456   2.088   1.711   1.238  0.3497  0.2922  1.4316
 1498TIP3   OH2 4457   3.314   4.984   4.554  0.7563 -0.7422  0.3031
 1498TIP3    H1 4458   3.391   4.932   4.579  0.3801 -1.2037  0.5227
 1498TIP3    H2 4459   3.292   5.033   4.633  0.9527 -0.4472  0.1752
 1499TIP3   OH2 4460   6.452   4.860   5.730 -0.3917 -0.2737 -0.0232
 1499TIP3    H1 4461   6.458   4.925   5.660 -0.5773  0.6886  0.8170
 1499TIP3    H2 4462   6.409   4.907   5.802 -3.2859 -2.1434 -0.3506
 1500TIP3   OH2 4463   4.486   5.335   0.988  0.0422  0.2453 -0.1063
 1500TIP3    H1 4464   4.408   5.388   1.006 -0.3465 -0.8208  1.6508
 1500TIP3    H2 4465   4.549   5.362   1.055  0.6994  0.1352 -0.6672
 1501TIP3   OH2 4466   1.681   4.636   1.952  0.0987 -0.0839  0.1746
 1501TIP3    H1 4467   1.773   4.611   1.945 -0.1935 -0.9952 -0.7314
 1501TIP3    H2 4468   1.656   4.611   2.041  1.2560  2.1604  1.2134
 1502TIP3   OH2 4469   0.210   6.021   1.024 -0.0104 -0.2229 -0.0436
 1502TIP3    H1 4470   0.200   5.967   1.102  0.9264 -1.2658 -0.6209
 1502TIP3    H2 4471   0.128   6.069   1.017 -1.0705 -1.9257  0.2248
 1503TIP3   OH2 4472   2.797   0.554   4.628 -0.1700  0.4362  0.2103
 1503TIP3    H1 4473   2.872   0.538   4.571 -0.1798  2.7076 -0.5195
 1503TIP3    H2 4474   2.827   0.530   4.716  0.9106 -0.0426 -0.2850
 1504TIP3   OH2 4475   1.254   5.055   2.462  0.1192  0.1459  0.4289
 1504TIP3    H1 4476   1.171   5.070   2.417  0.5923  0.0734 -0.4937
 1504TIP3    H2 4477   1.243   5.098   2.547 -0.1872  1.8031 -0.4093
 1505TIP3   OH2 4478   4.618   0.285   1.689 -0.3603 -0.4989  0.0995
 1505TIP3    H1 4479   4.656   0.347   1.751 -0.0724 -1.7875  1.2597
 1505TIP3    H2 4480   4.524   0.302   1.693 -0.2749 -0.0802  0.3547
 1506TIP3   OH2 4481   0.122   5.972   2.594 -0.3962  0.3008 -0.1284
 1506TIP3    H1 4482   0.110   6.046   2.654 -1.1407 -0.5015  0.7495
 1506TIP3    H2 4483   0.202   5.992   2.547 -0.3590  1.4635  0.3925
 1507TIP3   OH2 4484   0.037   3.310   4.903  0.6787  0.2323 -0.6376
 1507TIP3    H1 4485  -0.046   3.354   4.923  0.9163  0.5032 -0.2348
 1507TIP3    H2 4486   0.103   3.378   4.917  0.9362  0.1287 -1.3442
 1508TIP3   OH2 4487   1.150   2.509   0.272 -0.7504 -0.4893  0.4451
 1508TIP3    H1 4488   1.156   2.456   0.192 -2.0937  1.4174 -1.0430
 1508TIP3    H2 4489   1.241   2.524   0.298 -0.2376 -0.5248 -1.2092
 1509TIP3   OH2 4490   1.118   4.956   4.611 -0.5929 -0.5963  1.1457
 1509TIP3    H1 4491   1.156   5.024   4.556 -1.9755  0.7279  1.7854
 1509TIP3    H2 4492   1.145   4.979   4.700  0.7421 -2.1355  1.1953
 1510TIP3   OH2 4493   4.180   1.898   2.980  0.1551 -0.2635 -0.7168
 1510TIP3    H1 4494   4.198   1.928   2.891 -1.5675 -1.1102 -1.3989
 1510TIP3    H2 4495   4.088   1.920   2.995  0.1868 -0.8897  0.5446
 1511TIP3   OH2 4496   4.232   1.446   0.703 -0.0456  0.2849  0.5565
 1511TIP3    H1 4497   4.151   1.459   0.654  0.6327  0.7496 -0.4672
 1511TIP3    H2 4498   4.211   1.479   0.791 -1.2067 -0.3640  0.5461
 1512TIP3   OH2 4499   5.553   6.658   1.623  0.6309 -0.0625  0.0109
 1512TIP3    H1 4500   5.589   6.574   1.652 -0.6783 -0.1494  1.4852
 1512TIP3    H2 4501   5.600   6.724   1.673 -0.7371 -0.1476  1.5051
 1513TIP3   OH2 4502   4.221   6.240   1.362  0.6063 -0.3814  0.8039
 1513TIP3    H1 4503   4.175   6.233   1.446  0.4211 -1.6179  0.6206
 1513TIP3    H2 4504   4.294   6.179   1.370  0.6086 -0.4760  0.0842
 1514TIP3   OH2 4505   2.976   4.875   4.964  0.6686 -0.2091 -0.1743
 1514TIP3    H1 4506   3.072   4.880   4.962  0.6223  0.5759 -1.2541
 1514TIP3    H2 4507   2.953   4.818   4.891  0.3144 -0.3963  0.0838
 1515TIP3   OH2 4508   4.795   1.813   0.943 -0.0289  0.7220  0.2457
 1515TIP3    H1 4509   4.708   1.773   0.937 -0.3608  1.0775  1.9873
 1515TIP3    H2 4510   4.795   1.857   1.028  3.0262 -2.1554  1.9615
 1516TIP3   OH2 4511   4.225   5.946   3.900  0.7341 -0.6070 -0.0295
 1516TIP3    H1 4512   4.241   5.916   3.989  0.7097  0.5328  0.3777
 1516TIP3    H2 4513   4.185   6.033   3.910  2.2174  0.2535 -1.1666
 1517TIP3   OH2 4514   0.204   0.277   5.609  0.5152  0.4058  0.2676
 1517TIP3    H1 4515   0.114   0.267   5.577 -0.4925  1.9478  2.3903
 1517TIP3    H2 4516   0.226   0.191   5.646  0.7143 -0.5779 -1.9771
 1518TIP3   OH2 4517   2.817   2.596   0.948  0.4026 -0.0588  0.4876
 1518TIP3    H1 4518   2.817   2.652   0.870 -1.8355  1.7719  1.6808
 1518TIP3    H2 4519   2.750   2.530   0.931 -0.1827  0.4233  0.8914
 1519TIP3   OH2 4520   3.176   5.500   1.094  0.6381  0.7747 -0.2402
 1519TIP3    H1 4521   3.111   5.558   1.135  0.7766 -0.9184  2.6583
 1519TIP3    H2 4522   3.260   5.533   1.124  0.8020  0.0066  0.1599
 1520TIP3   OH2 4523   0.327   0.018   5.366 -0.0163 -0.1820 -0.2838
 1520TIP3    H1 4524   0.401   0.056   5.318  0.6280 -2.0719 -0.8834
 1520TIP3    H2 4525   0.260   0.005   5.299 -0.8867  1.3395  0.2219
 1521TIP3   OH2 4526   1.024   6.036   1.203 -0.1386 -0.0171 -0.2586
 1521TIP3    H1 4527   1.042   6.123   1.238 -0.0190  0.3699 -1.2619
 1521TIP3    H2 4528   1.031   5.978   1.279 -1.2470  0.9684  0.6415
 1522TIP3   OH2 4529   4.850   0.076   4.028 -0.4170 -0.2099 -0.1153
 1522TIP3    H1 4530   4.801   0.158   4.040  1.1512  1.1911 -2.3570
 1522TIP3    H2 4531   4.802   0.030   3.959  0.4348  0.4012 -1.1538
 1523TIP3   OH2 4532   6.334   5.660   0.616 -0.0388  0.0157  0.6523
 1523TIP3    H1 4533   6.351   5.579   0.568  1.5310  1.4118 -1.2762
 1523TIP3    H2 4534   6.401   5.660   0.686  0.7779  0.2168 -0.1112
 1524TIP3   OH2 4535   3.290   6.145   1.846 -0.4507  0.2093  0.4639
 1524TIP3    H1 4536   3.365   6.175   1.796 -0.2085  0.4246  0.9472
 1524TIP3    H2 4537   3.282   6.208   1.918  1.0673 -1.7398  2.4690
 1525TIP3   OH2 4538   4.616   6.738   4.187 -0.1092  0.0339  0.2095
 1525TIP3    H1 4539   4.689   6.677   4.196  1.4489  1.8164  0.1394
 1525TIP3    H2 4540   4.540   6.682   4.170  1.2633 -1.8538  0.0200
 1526TIP3   OH2 4541   2.680   6.098   0.988  0.1907 -0.1026 -0.0439
 1526TIP3    H1 4542   2.634   6.158   0.929 -0.2313  0.8989  1.2521
 1526TIP3    H2 4543   2.719   6.154   1.054  1.9630 -1.0791 -0.2055
 1527TIP3   OH2 4544   5.667   6.672   0.410  0.6634  0.1439 -0.2476
 1527TIP3    H1 4545   5.636   6.671   0.501 -1.6683 -0.0563 -0.9701
 1527TIP3    H2 4546   5.619   6.601   0.368  2.5239 -0.4798 -1.4293
 1528TIP3   OH2 4547   1.361   1.695   1.392  0.4579  0.0920  0.0391
 1528TIP3    H1 4548   1.385   1.786   1.412  0.0224 -0.0824  1.5055
 1528TIP3    H2 4549   1.279   1.681   1.440  0.0526 -0.8124 -0.8927
 1529TIP3   OH2 4550   1.960   4.462   2.267 -0.3785  0.6711 -0.2924
 1529TIP3    H1 4551   1.913   4.450   2.349 -1.1682 -0.1865 -0.8497
 1529TIP3    H2 4552   1.979   4.373   2.237  2.2401  0.9607  0.2417
 1530TIP3   OH2 4553   2.748   1.728   4.402  0.0064  0.4101 -0.0141
 1530TIP3    H1 4554   2.824   1.743   4.459  0.6133  2.2662 -1.2122
 1530TIP3    H2 4555   2.678   1.780   4.441 -0.1159  0.1552  0.1014
 1531TIP3   OH2 4556   0.523   5.633   2.832  0.0912 -0.4632 -0.1848
 1531TIP3    H1 4557   0.534   5.596   2.744  2.0663  1.7387 -0.9520
 1531TIP3    H2 4558   0.572   5.573   2.889 -0.2157 -1.2658 -0.7399
 1532TIP3   OH2 4559   3.289   2.940   5.510  0.1950  0.0318  0.4405
 1532TIP3    H1 4560   3.274   2.864   5.566 -1.2314  0.9269  1.3473
 1532TIP3    H2 4561   3.363   2.985   5.550 -0.0516  0.0197  0.9276
 1533TIP3   OH2 4562   3.779   2.579   2.415 -0.3154  0.0799 -0.2978
 1533TIP3    H1 4563   3.788   2.518   2.488  1.5716  0.3140 -0.2809
 1533TIP3    H2 4564   3.809   2.663   2.450 -1.1386  0.6120 -0.8339
 1534TIP3   OH2 4565   6.527   6.394   3.194  0.1010  0.8368 -0.0903
 1534TIP3    H1 4566   6.461   6.413   3.127 -1.5899 -0.6335  1.0803
 1534TIP3    H2 4567   6.478   6.387   3.276  1.6758 -0.3978  0.8144
 1535TIP3   OH2 4568   6.682   0.431   4.345 -0.7232  0.4103 -0.2914
 1535TIP3    H1 4569   6.623   0.446   4.271  1.8468  2.6187 -2.0554
 1535TIP3    H2 4570   6.743   0.364   4.313 -0.7766 -0.0851  0.6146
 1536TIP3   OH2 4571   0.703   3.052   5.625  0.2273  0.0406 -0.5700
 1536TIP3    H1 4572   0.645   2.980   5.648 -1.4541  0.6146 -2.6674
 1536TIP3    H2 4573   0.787   3.011   5.608  0.3625 -0.8936  1.9571
 1537TIP3   OH2 4574   6.844   5.537   5.465  0.2122 -0.5872 -0.0901
 1537TIP3    H1 4575   6.755   5.569   5.475  0.1838 -0.5451 -0.4876
 1537TIP3    H2 4576   6.854   5.471   5.534 -0.1203 -0.5877 -0.0437
 1538TIP3   OH2 4577   6.594   4.708   0.788  0.2455 -0.5991 -1.0373
 1538TIP3    H1 4578   6.652   4.741   0.857 -0.9490  0.3623 -0.4620
 1538TIP3    H2 4579   6.538   4.644   0.833 -2.8639  2.4241 -0.1313
 1539TIP3   OH2 4580   3.086   2.401   3.503 -0.0353 -0.0535  0.2911
 1539TIP3    H1 4581   3.035   2.392   3.583 -1.8196 -0.9507 -0.8634
 1539TIP3    H2 4582   3.048   2.337   3.443  2.1851 -0.4444 -0.8292
 1540TIP3   OH2 4583   3.216   4.435   3.193 -0.0915 -0.4797 -0.3897
 1540TIP3    H1 4584   3.207   4.445   3.288  0.4122  0.6649 -0.4544
 1540TIP3    H2 4585   3.308   4.454   3.175 -0.0896 -1.0940 -1.0643
 1541TIP3   OH2 4586   6.198   1.998   4.147  0.2142  0.3548 -0.5803
 1541TIP3    H1 4587   6.271   1.957   4.192 -2.0635 -2.7753  0.6202
 1541TIP3    H2 4588   6.205   1.966   4.057  1.5039  1.9675 -1.1218
 1542TIP3   OH2 4589   3.718   2.597   2.075 -0.3260  0.2632 -0.1517
 1542TIP3    H1 4590   3.709   2.535   2.148 -1.0047  0.8778  0.3060
 1542TIP3    H2 4591   3.788   2.657   2.103  0.3179 -0.2777 -0.5862
 1543TIP3   OH2 4592   5.939   5.254   0.952  0.1795 -0.5492  0.4327
 1543TIP3    H1 4593   5.906   5.172   0.990  0.0469 -0.4758  0.4788
 1543TIP3    H2 4594   5.972   5.304   1.027  0.0703 -0.4748  0.4332
 1544TIP3   OH2 4595   0.860   5.235   1.996  0.3029  0.2143 -0.4729
 1544TIP3    H1 4596   0.862   5.175   2.071  1.3618  2.8227  1.7850
 1544TIP3    H2 4597   0.812   5.312   2.029  0.0366  1.1122 -2.7993
 1545TIP3   OH2 4598   4.859   3.179   3.117  0.2908 -0.5858 -0.5154
 1545TIP3    H1 4599   4.895   3.267   3.113  0.4287 -0.6572 -0.9793
 1545TIP3    H2 4600   4.767   3.191   3.141  0.3004 -0.3135 -0.6123
 1546TIP3   OH2 4601   5.332   2.276   3.872  0.2855 -0.0997 -0.5105
 1546TIP3    H1 4602   5.324   2.187   3.905 -1.7989 -0.4624 -1.7674
 1546TIP3    H2 4603   5.403   2.272   3.808 -0.4528 -1.1646 -1.3111
 1547TIP3   OH2 4604   0.145   3.287   3.776 -0.4967 -0.4438 -0.2721
 1547TIP3    H1 4605   0.203   3.316   3.705  0.6810  0.4291  0.9908
 1547TIP3    H2 4606   0.076   3.238   3.732 -0.2173  0.7094 -2.1012
 1548TIP3   OH2 4607   1.290   5.393   1.104  0.7275  0.2024  0.3818
 1548TIP3    H1 4608   1.310   5.301   1.119 -1.3460 -0.2015  1.0491
 1548TIP3    H2 4609   1.282   5.401   1.009  1.1736 -0.2275  0.3037
 1549TIP3   OH2 4610   4.768   5.931   2.003  0.0486  0.2462 -0.4987
 1549TIP3    H1 4611   4.788   5.843   2.035 -1.4481 -0.1868 -0.6903
 1549TIP3    H2 4612   4.673   5.931   1.989 -0.2712  2.4562  1.2088
 1550TIP3   OH2 4613   5.086   0.617   1.377 -0.2481  0.0747 -0.5393
 1550TIP3    H1 4614   5.071   0.708   1.348 -0.5061  0.5113  0.9097
 1550TIP3    H2 4615   5.149   0.583   1.313 -0.2318  1.2297 -1.1874
 1551TIP3   OH2 4616   5.218   1.367   1.930  0.0566 -0.7839  0.6565
 1551TIP3    H1 4617   5.235   1.342   2.021  1.6671 -1.4226  0.2200
 1551TIP3    H2 4618   5.170   1.294   1.892  1.0826 -1.4039  0.5055
 1552TIP3   OH2 4619   1.564   1.682   4.120 -0.1138  0.0982  0.8587
 1552TIP3    H1 4620   1.516   1.709   4.199  0.7567 -1.3206  1.9282
 1552TIP3    H2 4621   1.623   1.613   4.151 -1.6402 -2.4723 -1.4991
 1553TIP3   OH2 4622   5.192   0.058   4.735 -0.4963  0.0827 -0.2996
 1553TIP3    H1 4623   5.228  -0.019   4.691 -2.1784  0.0265 -1.6780
 1553TIP3    H2 4624   5.160   0.024   4.819 -2.1823 -1.0104 -1.3206
 1554TIP3   OH2 4625   1.721   0.555   4.072 -0.0700  0.6352 -0.5461
 1554TIP3    H1 4626   1.696   0.580   4.161  1.7241 -0.3328  0.2842
 1554TIP3    H2 4627   1.764   0.633   4.037  1.1485  0.3367  0.2424
 1555TIP3   OH2 4628   4.178   1.799   1.200 -0.1002  0.3020  0.1163
 1555TIP3    H1 4629   4.101   1.764   1.245  0.5166 -0.8128  0.3239
 1555TIP3    H2 4630   4.204   1.874   1.253 -0.7225  0.3662  0.3410
 1556TIP3   OH2 4631   0.512   6.034   2.610  0.2364 -0.4797  0.3910
 1556TIP3    H1 4632   0.489   5.980   2.686  1.8193 -1.0779  0.4853
 1556TIP3    H2 4633   0.539   6.117   2.647 -1.0566 -0.0023  0.3183
 1557TIP3   OH2 4634   3.512   5.120   2.729 -0.0595  0.0897 -0.4165
 1557TIP3    H1 4635   3.594   5.075   2.710 -0.5411 -0.4486 -1.2899
 1557TIP3    H2 4636   3.479   5.076   2.808 -0.2039 -0.6840 -0.8889
 1558TIP3   OH2 4637   4.955   3.440   2.599 -0.2168 -0.2560 -0.4187
 1558TIP3    H1 4638   4.919   3.361   2.558 -1.4324  0.1692 -0.2150
 1558TIP3    H2 4639   4.894   3.460   2.671  0.1328  0.7926 -0.3944
 1559TIP3   OH2 4640   4.502   1.599   4.338 -0.7355 -0.3333 -0.1877
 1559TIP3    H1 4641   4.499   1.504   4.323  1.2385 -0.1750 -2.0587
 1559TIP3    H2 4642   4.494   1.608   4.433 -0.6455 -2.3985  0.0709
 1560TIP3   OH2 4643   4.338   1.860   5.665 -0.3656 -0.5549 -0.3275
 1560TIP3    H1 4644   4.321   1.870   5.758 -1.4209 -0.1283 -0.5604
 1560TIP3    H2 4645   4.253   1.836   5.627 -0.0596 -0.2075 -1.2547
 1561TIP3   OH2 4646   5.561   4.234   1.676 -0.1531  0.0316  0.0862
 1561TIP3    H1 4647   5.622   4.204   1.608  1.6445 -0.2586  1.7439
 1561TIP3    H2 4648   5.498   4.162   1.685 -0.3796  0.0448 -1.1816
 1562TIP3   OH2 4649   0.649   2.513   2.110 -0.1803 -0.0032  0.0465
 1562TIP3    H1 4650   0.635   2.460   2.188 -0.2153  0.6758  0.5110
 1562TIP3    H2 4651   0.574   2.494   2.054  0.9324 -2.1800 -0.8191
 1563TIP3   OH2 4652   3.257   0.486   0.333  0.4697  0.1287 -0.4483
 1563TIP3    H1 4653   3.344   0.487   0.294 -0.2629 -0.9604 -2.2177
 1563TIP3    H2 4654   3.209   0.556   0.287 -0.3435 -1.0401 -1.4386
 1564TIP3   OH2 4655   4.743   2.211   1.025  0.4293  0.8241  0.4878
 1564TIP3    H1 4656   4.789   2.221   0.942  0.1694  1.4111  0.4089
 1564TIP3    H2 4657   4.802   2.159   1.079  0.3432 -0.0779 -0.2666
 1565TIP3   OH2 4658   0.317   5.838   5.656 -0.7347 -0.2442 -0.1450
 1565TIP3    H1 4659   0.411   5.846   5.637 -0.6060  0.2981  0.6946
 1565TIP3    H2 4660   0.282   5.927   5.643 -1.1157 -0.4219 -0.3569
 1566TIP3   OH2 4661   4.568   3.283   4.731  0.0481 -0.5368  0.7783
 1566TIP3    H1 4662   4.559   3.326   4.646  1.3099 -3.1258 -0.7925
 1566TIP3    H2 4663   4.478   3.276   4.764 -0.3831  1.2572  0.1164
 1567TIP3   OH2 4664   2.346   0.934   4.559 -0.3040  0.0305 -0.0217
 1567TIP3    H1 4665   2.296   1.015   4.549  2.4747  2.1929  2.1592
 1567TIP3    H2 4666   2.287   0.876   4.608 -1.3813  1.8231  0.9162
 1568TIP3   OH2 4667   4.810   5.439   3.842 -0.3167 -0.2058  0.0936
 1568TIP3    H1 4668   4.715   5.438   3.849 -0.2300 -1.3458  1.4444
 1568TIP3    H2 4669   4.829   5.520   3.793 -1.9066  0.6400  0.7923
 1569TIP3   OH2 4670   5.523   2.387   1.930 -0.1682  0.1569 -0.0757
 1569TIP3    H1 4671   5.466   2.456   1.897 -1.2111  0.2091  1.7557
 1569TIP3    H2 4672   5.487   2.363   2.015  0.6387 -2.0803 -0.2735
 1570TIP3   OH2 4673   1.823   5.518   3.479  0.0218 -0.0248  0.2014
 1570TIP3    H1 4674   1.839   5.427   3.457 -1.4783 -0.4945  0.9675
 1570TIP3    H2 4675   1.747   5.543   3.427  0.5352  0.8611 -0.1500
 1571TIP3   OH2 4676   2.417   2.636   3.187  0.3496  0.0017  0.4828
 1571TIP3    H1 4677   2.401   2.646   3.094  1.6129  1.3679  0.3686
 1571TIP3    H2 4678   2.453   2.721   3.215  0.6204 -0.5863  2.0611
 1572TIP3   OH2 4679   1.749   3.376   5.238  0.2245 -0.2105 -0.9615
 1572TIP3    H1 4680   1.737   3.467   5.265  0.5313 -0.5294  0.2878
 1572TIP3    H2 4681   1.706   3.371   5.152 -3.4704  0.1619  0.6449
 1573TIP3   OH2 4682   4.604   3.989   4.964 -0.3710  0.0479 -0.4439
 1573TIP3    H1 4683   4.628   4.043   5.039 -1.2831  1.1947 -0.9409
 1573TIP3    H2 4684   4.682   3.935   4.948 -0.6952 -1.3758  2.2461
 1574TIP3   OH2 4685   2.311   3.285   4.523  0.0367  0.3470  0.0111
 1574TIP3    H1 4686   2.393   3.242   4.498  0.8895  1.4934  0.7490
 1574TIP3    H2 4687   2.320   3.374   4.489  0.0048  1.0948  1.8587
 1575TIP3   OH2 4688   6.507   6.637   2.928  0.9837  0.3695 -0.1579
 1575TIP3    H1 4689   6.539   6.671   3.012  1.1932  0.2728 -0.1976
 1575TIP3    H2 4690   6.435   6.695   2.905  1.8542  1.3133 -0.6222
 1576TIP3   OH2 4691   2.773   5.479   1.256  0.1383 -0.2756  0.6011
 1576TIP3    H1 4692   2.681   5.451   1.249  0.0540  0.2580 -0.5438
 1576TIP3    H2 4693   2.768   5.574   1.269  0.5126 -0.3813  1.6274
 1577TIP3   OH2 4694   1.407   3.763   3.368  0.7151  0.4545  0.1883
 1577TIP3    H1 4695   1.331   3.741   3.315  1.2222  0.0504 -0.3789
 1577TIP3    H2 4696   1.411   3.859   3.366  0.5706  0.4514 -0.2740
 1578TIP3   OH2 4697   4.293   6.277   0.534  0.4495  0.0019 -0.6590
 1578TIP3    H1 4698   4.328   6.289   0.622  0.4765 -2.4317 -0.2763
 1578TIP3    H2 4699   4.360   6.316   0.477  0.4054  1.6512  0.3524
 1579TIP3   OH2 4700   1.946   6.663   4.482  0.4156  0.1902 -0.6493
 1579TIP3    H1 4701   1.920   6.574   4.509  2.3211 -0.3356 -0.3962
 1579TIP3    H2 4702   2.011   6.649   4.414  1.9419  1.3244  0.5111
 1580TIP3   OH2 4703   0.383   0.289   0.499  0.1051 -0.6387 -0.3028
 1580TIP3    H1 4704   0.440   0.352   0.454 -0.7938  1.6637  1.5800
 1580TIP3    H2 4705   0.295   0.309   0.466 -0.2251 -0.6820  0.5416
 1581TIP3   OH2 4706   4.510   6.588   2.266 -0.2697  0.1153 -0.3225
 1581TIP3    H1 4707   4.593   6.557   2.229 -0.7982  0.0371 -1.4870
 1581TIP3    H2 4708   4.450   6.591   2.191 -0.8006  2.0061  0.1338
 1582TIP3   OH2 4709   6.825   4.961   1.411 -0.0390  0.2397  0.0942
 1582TIP3    H1 4710   6.882   4.943   1.485  0.4146 -1.8693 -0.7240
 1582TIP3    H2 4711   6.758   5.020   1.446  0.1212 -0.7713  2.2053
 1583TIP3   OH2 4712   7.110   4.977   5.141  0.0380 -0.1581  0.0389
 1583TIP3    H1 4713   7.063   4.895   5.156  1.3372 -0.8506  0.4547
 1583TIP3    H2 4714   7.102   5.025   5.224  0.7169 -0.6286  0.3894
 1584TIP3   OH2 4715   4.836   1.164   2.872  0.0155  0.1909 -0.6208
 1584TIP3    H1 4716   4.862   1.128   2.957  1.6740 -0.1914 -1.2565
 1584TIP3    H2 4717   4.806   1.253   2.892 -2.1343 -0.7475  0.6900
 1585TIP3   OH2 4718   0.461   3.173   1.349 -0.6710 -0.2331  0.4057
 1585TIP3    H1 4719   0.504   3.099   1.392 -0.9091 -0.7051 -0.1615
 1585TIP3    H2 4720   0.412   3.215   1.420 -0.2380 -0.3946  0.8102
 1586TIP3   OH2 4721   5.907   5.531   2.527  0.3330  0.6238 -0.3181
 1586TIP3    H1 4722   5.988   5.501   2.485  1.4650 -0.3752  2.3840
 1586TIP3    H2 4723   5.895   5.473   2.602 -2.0190  1.7927  0.3227
 1587TIP3   OH2 4724   5.539   2.307   1.293  0.4985 -0.4933  0.1831
 1587TIP3    H1 4725   5.634   2.323   1.292  0.3874  0.5815 -2.5713
 1587TIP3    H2 4726   5.502   2.381   1.341  0.9433  0.2793 -0.6297
 1588TIP3   OH2 4727   3.544   6.331   2.236  0.2486  0.1505 -0.2077
 1588TIP3    H1 4728   3.531   6.368   2.323 -0.4326  0.1964 -0.3261
 1588TIP3    H2 4729   3.616   6.268   2.248  0.6430  0.6710  0.2314
 1589TIP3   OH2 4730   6.878   4.920   2.982  0.2651 -0.1350  0.7407
 1589TIP3    H1 4731   6.950   4.963   2.936 -0.3033 -1.5841 -1.6666
 1589TIP3    H2 4732   6.803   4.977   2.967 -0.0795 -0.9514 -0.8590
 1590TIP3   OH2 4733   2.690   3.055   1.024  0.4801  0.2386 -0.3807
 1590TIP3    H1 4734   2.716   3.024   0.937 -0.3709  0.0943 -0.5947
 1590TIP3    H2 4735   2.716   2.984   1.083  1.0354  0.3230 -0.5211
 1591TIP3   OH2 4736   0.625   5.970   4.402  0.0850  0.2851 -0.1892
 1591TIP3    H1 4737   0.645   6.020   4.323 -0.9405  0.9982 -0.0135
 1591TIP3    H2 4738   0.626   5.879   4.373 -0.0096  0.5205 -0.9626
 1592TIP3   OH2 4739   2.447   2.532   4.662  0.1403 -0.3725  0.1433
 1592TIP3    H1 4740   2.453   2.456   4.605  1.2500  0.1633 -0.4893
 1592TIP3    H2 4741   2.370   2.580   4.631  1.0460  0.2009 -1.3074
 1593TIP3   OH2 4742   0.867   3.447   5.501  0.1475 -0.1268  0.6407
 1593TIP3    H1 4743   0.865   3.377   5.435 -2.1014  0.8087 -0.4008
 1593TIP3    H2 4744   0.906   3.522   5.456 -0.6673  0.2867  0.6060
 1594TIP3   OH2 4745   3.565   3.140   3.244  0.1500 -0.3435  0.2471
 1594TIP3    H1 4746   3.519   3.152   3.327  1.1751  0.7489  0.6911
 1594TIP3    H2 4747   3.656   3.160   3.265  0.6933 -1.6400 -0.7926
 1595TIP3   OH2 4748   6.915   1.968   3.752 -0.2552 -0.3790  0.5083
 1595TIP3    H1 4749   7.000   1.927   3.770  1.1260  1.0856 -2.1351
 1595TIP3    H2 4750   6.932   2.062   3.759 -1.3276 -0.0154 -1.1636
 1596TIP3   OH2 4751   2.854   3.058   1.460  0.1893  0.5533  0.2851
 1596TIP3    H1 4752   2.778   3.115   1.473 -0.0928 -0.1597  2.1900
 1596TIP3    H2 4753   2.826   2.973   1.494  1.6813  0.1529  0.5985
 1597TIP3   OH2 4754   0.791   5.093   1.403  0.0131 -0.1714 -0.2181
 1597TIP3    H1 4755   0.715   5.151   1.409 -0.9263 -1.1937 -1.6043
 1597TIP3    H2 4756   0.810   5.069   1.494 -1.3863  0.0250  0.1528
 1598TIP3   OH2 4757   3.207   4.740   0.765 -0.4892  0.4601 -0.3067
 1598TIP3    H1 4758   3.211   4.815   0.823 -1.0343 -1.3846  2.3324
 1598TIP3    H2 4759   3.292   4.697   0.774 -0.7858 -0.1668 -0.3860
 1599TIP3   OH2 4760   0.261   0.449   4.248 -0.2257 -0.0067  0.2805
 1599TIP3    H1 4761   0.191   0.403   4.294 -0.7062 -0.8672 -1.2553
 1599TIP3    H2 4762   0.333   0.451   4.311 -1.7588  1.3854  2.1038
 1600TIP3   OH2 4763   2.797   1.212   1.085  0.2719  0.0097  0.0004
 1600TIP3    H1 4764   2.868   1.170   1.134 -0.6586 -0.8680  0.6597
 1600TIP3    H2 4765   2.837   1.288   1.043  2.3017 -2.0521 -2.0700
 1601TIP3   OH2 4766   5.112   0.955   0.506 -0.4089 -0.5620 -0.3351
 1601TIP3    H1 4767   5.047   0.974   0.574  0.4473 -2.0505  0.9662
 1601TIP3    H2 4768   5.118   0.859   0.505  0.1985 -0.5318 -1.9645
 1602TIP3   OH2 4769   3.629   0.343   1.912  0.3704 -0.5037  0.3063
 1602TIP3    H1 4770   3.647   0.411   1.847 -0.0513 -2.4653 -2.0234
 1602TIP3    H2 4771   3.546   0.304   1.884 -0.3264 -0.8363  2.6192
 1603TIP3   OH2 4772   0.399   2.545   1.979 -0.8238 -0.4555  0.4338
 1603TIP3    H1 4773   0.442   2.508   1.902  0.9250  0.3676  0.9643
 1603TIP3    H2 4774   0.311   2.570   1.948  0.7864  2.7990 -2.2474
 1604TIP3   OH2 4775   7.161   0.229   5.488 -0.4674  0.4210 -0.4352
 1604TIP3    H1 4776   7.092   0.207   5.551 -1.5474  1.3084 -1.2524
 1604TIP3    H2 4777   7.114   0.273   5.417  0.8861  0.5431 -1.2805
 1605TIP3   OH2 4778   1.905   2.293   3.290 -0.0103 -0.8805 -0.0185
 1605TIP3    H1 4779   1.979   2.233   3.299  0.2378 -0.5569  0.1160
 1605TIP3    H2 4780   1.843   2.265   3.357  0.2851 -0.7265  0.3216
 1606TIP3   OH2 4781   0.977   5.467   1.269 -0.0319  0.5348 -0.0447
 1606TIP3    H1 4782   1.019   5.526   1.206 -0.0573  0.9326  0.3064
 1606TIP3    H2 4783   0.961   5.386   1.219 -0.0956  0.8581 -0.5596
 1607TIP3   OH2 4784   1.827   1.404   2.340 -0.1965  0.1813 -0.1209
 1607TIP3    H1 4785   1.856   1.377   2.427  0.8615 -1.2241 -0.8709
 1607TIP3    H2 4786   1.785   1.325   2.304 -0.5739  0.7307 -0.9094
 1608TIP3   OH2 4787   1.468   4.925   1.090  0.5799 -0.5733 -0.2479
 1608TIP3    H1 4788   1.421   5.008   1.105  0.1841 -0.5910 -1.2747
 1608TIP3    H2 4789   1.402   4.858   1.106  0.3847 -0.6169 -1.1850
 1609TIP3   OH2 4790   2.292   3.453   4.738  0.5502 -0.0755 -0.3909
 1609TIP3    H1 4791   2.277   3.376   4.683 -1.6348  0.9286 -1.3382
 1609TIP3    H2 4792   2.233   3.519   4.703  1.3064  1.5903  1.3015
 1610TIP3   OH2 4793   2.308   1.443   5.661 -0.5864 -0.7953 -0.2264
 1610TIP3    H1 4794   2.344   1.503   5.727 -1.4978  0.1954 -0.6021
 1610TIP3    H2 4795   2.310   1.358   5.703 -0.9453 -0.2151  1.0296
 1611TIP3   OH2 4796   3.133   5.402   4.068 -0.1934 -0.1476 -0.3770
 1611TIP3    H1 4797   3.153   5.355   4.148 -0.1046  2.2147  1.0743
 1611TIP3    H2 4798   3.218   5.420   4.028 -0.1114  0.3793  0.0341
 1612TIP3   OH2 4799   5.274   6.287   5.056  0.2909  0.7620 -0.2428
 1612TIP3    H1 4800   5.190   6.289   5.011  0.2060 -1.1843 -0.2609
 1612TIP3    H2 4801   5.308   6.198   5.040  2.1492  1.3561  0.1186
 1613TIP3   OH2 4802   2.464   3.476   0.735  0.0670 -0.3619  0.8778
 1613TIP3    H1 4803   2.530   3.435   0.792  0.4669 -2.3913 -0.9062
 1613TIP3    H2 4804   2.388   3.418   0.740 -0.6073  0.4917  0.8156
 1614TIP3   OH2 4805   1.817   3.159   0.959 -0.1259 -0.3064  0.3472
 1614TIP3    H1 4806   1.784   3.249   0.955  1.4553  0.3242  0.6548
 1614TIP3    H2 4807   1.742   3.105   0.937 -0.9629  1.1263 -0.4704
 1615TIP3   OH2 4808   6.854   1.811   0.820  0.6099  0.6527 -0.0726
 1615TIP3    H1 4809   6.890   1.801   0.731 -1.0646  1.7624 -0.9262
 1615TIP3    H2 4810   6.849   1.906   0.832  1.1161  0.5190  1.3695
 1616TIP3   OH2 4811   3.336   5.383   0.137 -0.4036  0.0491 -0.1928
 1616TIP3    H1 4812   3.258   5.347   0.179 -1.4172  1.8423 -0.4459
 1616TIP3    H2 4813   3.352   5.325   0.063 -1.0115 -0.8106  0.3298
 1617TIP3   OH2 4814   3.616   5.062   2.030 -0.3897 -0.9452 -0.2174
 1617TIP3    H1 4815   3.679   5.059   1.958  0.7027 -0.7671  0.6908
 1617TIP3    H2 4816   3.537   5.022   1.995 -0.1811 -0.0706 -1.7819
 1618TIP3   OH2 4817   1.452   4.038   3.275  0.1919  0.7930 -0.2861
 1618TIP3    H1 4818   1.449   4.066   3.367  0.8979 -1.2973  0.4184
 1618TIP3    H2 4819   1.532   3.986   3.268 -1.4816 -1.8805 -1.1944
 1619TIP3   OH2 4820   1.304   4.468   0.156 -0.0192 -0.8185 -0.5491
 1619TIP3    H1 4821   1.390   4.498   0.185  0.3322 -2.2476  0.0136
 1619TIP3    H2 4822   1.242   4.532   0.192  0.7167 -0.5267  0.2263
 1620TIP3   OH2 4823   6.783   1.726   2.854  0.2815  0.3997  0.1580
 1620TIP3    H1 4824   6.841   1.757   2.785 -1.1438  0.8089 -0.8989
 1620TIP3    H2 4825   6.751   1.641   2.823 -0.2374  0.5083  0.3835
 1621TIP3   OH2 4826   3.325   6.594   5.658  1.0273 -0.1007  0.2755
 1621TIP3    H1 4827   3.256   6.600   5.591  1.6811 -0.4091 -0.4471
 1621TIP3    H2 4828   3.281   6.561   5.736  0.6793 -2.1007 -0.7075
 1622TIP3   OH2 4829   3.917   1.330   2.524 -0.0644  0.1373  0.0264
 1622TIP3    H1 4830   3.830   1.297   2.545 -0.3415  0.1143 -1.0778
 1622TIP3    H2 4831   3.976   1.257   2.544 -0.1457  0.5249  1.8301
 1623TIP3   OH2 4832   0.987   5.751   2.457 -0.8327 -0.0114 -0.0986
 1623TIP3    H1 4833   1.065   5.806   2.455 -0.8284  0.0183  0.6509
 1623TIP3    H2 4834   0.947   5.769   2.543 -0.7381 -1.3170  0.2324
 1624TIP3   OH2 4835   6.898   6.128   1.474  0.6338 -0.2367  0.3497
 1624TIP3    H1 4836   6.988   6.106   1.451 -0.3756 -3.5983 -0.9168
 1624TIP3    H2 4837   6.881   6.210   1.427  2.4301 -0.5626 -0.9797
 1625TIP3   OH2 4838   4.420   1.192   5.366 -0.3374 -0.3112 -0.3273
 1625TIP3    H1 4839   4.350   1.128   5.377 -0.6755 -0.1165 -1.1966
 1625TIP3    H2 4840   4.385   1.272   5.405  0.2895 -0.7683  1.2211
 1626TIP3   OH2 4841   5.331   3.662   3.813  0.4668  0.3298 -0.4330
 1626TIP3    H1 4842   5.402   3.629   3.758 -0.1470 -1.2324 -0.3238
 1626TIP3    H2 4843   5.302   3.742   3.769  1.4107  0.2730 -1.1887
 1627TIP3   OH2 4844   6.020   3.945   0.016  0.5343 -0.4470  0.0413
 1627TIP3    H1 4845   6.029   4.029  -0.029 -0.1355  0.0874  0.8967
 1627TIP3    H2 4846   6.109   3.923   0.044  0.5941  0.3786  0.5242
 1628TIP3   OH2 4847   2.061   2.705   1.019  0.0650 -0.3570 -0.2811
 1628TIP3    H1 4848   2.125   2.635   1.006 -3.3514 -3.4199 -2.6433
 1628TIP3    H2 4849   2.041   2.736   0.930  0.1060  2.4252  0.5854
 1629TIP3   OH2 4850   5.591   0.781   2.204  0.1565  0.6734  0.2478
 1629TIP3    H1 4851   5.527   0.728   2.250  0.9640 -0.4738  0.0945
 1629TIP3    H2 4852   5.672   0.770   2.255  0.7149  0.4998 -0.6595
 1630TIP3   OH2 4853   5.041   2.194   2.196  0.3456 -0.4155  0.2275
 1630TIP3    H1 4854   5.029   2.121   2.256 -1.2785 -0.5954 -0.2761
 1630TIP3    H2 4855   4.982   2.262   2.227 -0.7889 -0.6389 -1.3246
 1631TIP3   OH2 4856   0.400   1.598   3.161  0.5275 -0.2005  0.2060
 1631TIP3    H1 4857   0.354   1.547   3.094 -0.8239 -0.5303  1.3125
 1631TIP3    H2 4858   0.372   1.558   3.244  1.6207  0.6092  0.9918
 1632TIP3   OH2 4859   5.933   3.949   1.967 -0.0076  0.2410  0.5397
 1632TIP3    H1 4860   5.927   4.038   2.002 -1.6198  0.5396 -0.3934
 1632TIP3    H2 4861   5.845   3.931   1.933  0.1385 -1.9082  1.1549
 1633TIP3   OH2 4862   6.850   2.317   1.352 -0.1318  0.1850 -0.7150
 1633TIP3    H1 4863   6.766   2.272   1.341 -0.2370  0.2321 -0.0959
 1633TIP3    H2 4864   6.916   2.249   1.341 -0.2880 -0.1074  0.1298
 1634TIP3   OH2 4865   2.791   6.433   3.860 -0.0313 -0.4769 -0.1048
 1634TIP3    H1 4866   2.835   6.415   3.777  0.6087 -0.2334  0.1762
 1634TIP3    H2 4867   2.707   6.387   3.853 -0.7556  0.9825 -1.5852
 1635TIP3   OH2 4868   4.534   0.686   1.295  0.4137  0.4710  0.5010
 1635TIP3    H1 4869   4.587   0.613   1.262 -0.6322  0.1353 -0.5249
 1635TIP3    H2 4870   4.533   0.749   1.223 -0.5921  0.4518  0.4851
 1636TIP3   OH2 4871   4.573   0.722   0.694 -0.3935  0.1443  0.0926
 1636TIP3    H1 4872   4.495   0.667   0.700  1.3033 -2.2375  2.5622
 1636TIP3    H2 4873   4.549   0.803   0.739 -1.4622 -0.5749  0.8590
 1637TIP3   OH2 4874   1.275   0.855   1.242 -0.2602 -0.0230  0.2493
 1637TIP3    H1 4875   1.229   0.928   1.284 -0.2693 -0.7047  1.4658
 1637TIP3    H2 4876   1.367   0.867   1.267 -0.2300 -0.3129  0.2737
 1638TIP3   OH2 4877   6.278   1.141   0.611 -0.1419 -0.0826 -0.3842
 1638TIP3    H1 4878   6.321   1.106   0.689 -1.2595  1.4156  0.9745
 1638TIP3    H2 4879   6.348   1.149   0.546  0.8707 -1.1075  0.5370
 1639TIP3   OH2 4880   0.415   1.990   4.709 -0.1962  0.6668  0.1476
 1639TIP3    H1 4881   0.411   2.016   4.617  1.5117 -0.1730 -0.1927
 1639TIP3    H2 4882   0.492   1.934   4.715 -2.0530 -1.9218  1.4530
 1640TIP3   OH2 4883   4.183   6.029   4.691  0.2633  0.0757 -0.2735
 1640TIP3    H1 4884   4.096   5.990   4.693  0.1470  0.2669 -1.1047
 1640TIP3    H2 4885   4.241   5.956   4.669  0.4430 -0.2416  1.1733
 1641TIP3   OH2 4886   2.308   2.667   3.820  0.3878  0.1910  0.8075
 1641TIP3    H1 4887   2.255   2.706   3.889  1.5006  0.1832  1.7055
 1641TIP3    H2 4888   2.356   2.597   3.864  0.3789 -0.4783 -0.2055
 1642TIP3   OH2 4889   5.504   2.091   0.765  0.0941 -0.0852  0.2814
 1642TIP3    H1 4890   5.451   2.060   0.691  1.2242  0.6005 -0.8756
 1642TIP3    H2 4891   5.449   2.077   0.842 -1.5408  0.0960 -0.7975
 1643TIP3   OH2 4892   6.469   5.911   1.606  0.3182 -0.2042 -0.0974
 1643TIP3    H1 4893   6.551   5.926   1.653 -0.3651  0.4189  0.9430
 1643TIP3    H2 4894   6.434   5.999   1.590 -0.7321 -0.4779  0.5579
 1644TIP3   OH2 4895   5.799   3.786   1.658  0.0961 -0.0437 -0.1547
 1644TIP3    H1 4896   5.711   3.777   1.622  0.5830 -1.0036 -1.1817
 1644TIP3    H2 4897   5.790   3.852   1.727 -1.1978  0.7278 -1.0061
 1645TIP3   OH2 4898   6.439   0.357   0.102 -0.4236 -0.1070  0.1759
 1645TIP3    H1 4899   6.361   0.396   0.140  0.3703  1.0095  0.7089
 1645TIP3    H2 4900   6.495   0.336   0.178 -0.6183 -1.8647 -0.1202
 1646TIP3   OH2 4901   4.438   5.781   0.419  0.5595  0.4190 -0.1611
 1646TIP3    H1 4902   4.448   5.747   0.331  1.8880 -1.0929  0.5327
 1646TIP3    H2 4903   4.431   5.876   0.407 -0.6625  0.1540 -1.9527
 1647TIP3   OH2 4904   2.057   3.624   5.492 -0.4836  0.2214 -0.2476
 1647TIP3    H1 4905   2.148   3.654   5.493 -0.4185  0.0838  1.7901
 1647TIP3    H2 4906   2.020   3.665   5.413  1.3643  0.1151 -1.2372
 1648TIP3   OH2 4907   4.179   6.496   3.472  0.2674 -0.2552 -0.0033
 1648TIP3    H1 4908   4.223   6.497   3.387  2.1694 -0.6445  0.9196
 1648TIP3    H2 4909   4.241   6.539   3.532 -1.0847  0.1459  1.1624
 1649TIP3   OH2 4910   2.183   1.899   4.914  0.2849 -0.4624 -0.2327
 1649TIP3    H1 4911   2.118   1.850   4.864 -0.8265  1.2095 -0.5127
 1649TIP3    H2 4912   2.149   1.899   5.004 -1.0742  1.7950 -0.6597
 1650TIP3   OH2 4913   6.854   0.050   1.268 -0.9485 -0.1430  0.3184
 1650TIP3    H1 4914   6.936   0.084   1.303 -0.5817 -0.6826 -0.0013
 1650TIP3    H2 4915   6.831  -0.023   1.326 -0.7316 -0.5574 -0.1020
 1651TIP3   OH2 4916   2.699   2.784   1.153 -0.1729  0.4583 -0.1373
 1651TIP3    H1 4917   2.764   2.791   1.223  0.9713  2.5394 -1.3253
 1651TIP3    H2 4918   2.737   2.719   1.093  0.9562  1.7935 -0.9156
 1652TIP3   OH2 4919   4.602   0.937   3.919  0.1459 -0.0302 -0.0795
 1652TIP3    H1 4920   4.527   0.930   3.978  0.7308  0.6443  0.7604
 1652TIP3    H2 4921   4.582   1.012   3.864  0.1364  0.0557  0.0420
 1653TIP3   OH2 4922   0.145   1.373   4.330 -0.4984 -0.0185 -0.2508
 1653TIP3    H1 4923   0.079   1.306   4.348  0.0215 -0.3161  0.6617
 1653TIP3    H2 4924   0.227   1.334   4.362 -0.0071  0.6377 -0.6810
 1654TIP3   OH2 4925   2.303   4.350   3.734 -0.7515 -0.6386  0.2714
 1654TIP3    H1 4926   2.249   4.413   3.687 -1.7433 -1.2553  0.5489
 1654TIP3    H2 4927   2.320   4.391   3.818  0.9589  0.4335 -0.5601
 1655TIP3   OH2 4928   5.456   1.143   3.934  0.1877  0.1684 -0.6338
 1655TIP3    H1 4929   5.525   1.207   3.948 -0.0745  1.0327 -2.8215
 1655TIP3    H2 4930   5.452   1.093   4.015  4.4254 -0.9343 -0.8622
 1656TIP3   OH2 4931   6.864   5.867   0.988  0.1386  0.3481 -0.1194
 1656TIP3    H1 4932   6.804   5.884   1.061  0.0664 -0.5160  0.0281
 1656TIP3    H2 4933   6.951   5.878   1.026  0.0946  0.3403 -0.0153
 1657TIP3   OH2 4934   4.212   6.035   5.686 -0.2211  0.3469  0.1543
 1657TIP3    H1 4935   4.253   6.116   5.715 -0.8655  0.1271  1.7624
 1657TIP3    H2 4936   4.132   6.063   5.641 -0.5551  0.6216  0.8934
 1658TIP3   OH2 4937   1.364   4.616   4.682  0.0765 -0.1299 -0.3905
 1658TIP3    H1 4938   1.397   4.545   4.628  1.5942  0.0587  0.2518
 1658TIP3    H2 4939   1.361   4.692   4.623  1.9926  0.1453 -0.1826
 1659TIP3   OH2 4940   1.698   3.632   3.253 -0.2037  0.4773  0.3160
 1659TIP3    H1 4941   1.731   3.722   3.261 -0.0489  0.5665 -1.0954
 1659TIP3    H2 4942   1.644   3.634   3.175 -0.5037 -0.5815  0.4901
 1660TIP3   OH2 4943   0.252   5.753   0.892  0.5204  0.1927  0.3143
 1660TIP3    H1 4944   0.164   5.765   0.855  0.7334 -0.6366 -0.4896
 1660TIP3    H2 4945   0.243   5.782   0.983 -0.8893 -0.9900  0.5904
 1661TIP3   OH2 4946   5.881   3.418   3.248  0.1325  0.3645 -0.0151
 1661TIP3    H1 4947   5.801   3.380   3.284  0.0030 -1.0000 -1.6248
 1661TIP3    H2 4948   5.859   3.439   3.157  1.7281 -0.5285 -0.6482
 1662TIP3   OH2 4949   6.593   3.927   3.835 -0.2340 -1.2271  0.4382
 1662TIP3    H1 4950   6.498   3.941   3.842 -0.0316  2.1536 -1.4919
 1662TIP3    H2 4951   6.611   3.925   3.741  1.6849 -1.3326  0.7605
 1663TIP3   OH2 4952   2.201   3.002   3.058  0.0858 -0.4613 -0.7189
 1663TIP3    H1 4953   2.190   2.940   3.129 -1.1645  0.9577  0.3911
 1663TIP3    H2 4954   2.117   3.003   3.013  0.6757 -0.8997 -1.8898
 1664TIP3   OH2 4955   3.322   2.216   5.294 -0.0754  0.1710  0.4029
 1664TIP3    H1 4956   3.335   2.310   5.288 -2.7915  0.6075  0.4739
 1664TIP3    H2 4957   3.266   2.204   5.370 -1.1768 -1.3207 -0.5870
 1665TIP3   OH2 4958   0.800   3.300   2.389 -0.4920 -0.1157  0.3403
 1665TIP3    H1 4959   0.776   3.385   2.352 -0.4025  0.1369  0.8501
 1665TIP3    H2 4960   0.755   3.236   2.334  0.4513  0.2011 -0.8362
 1666TIP3   OH2 4961   1.089   1.113   4.799  0.1601  0.1056 -0.0063
 1666TIP3    H1 4962   1.031   1.100   4.723 -1.1271  2.0636  0.5743
 1666TIP3    H2 4963   1.073   1.037   4.855 -0.4762 -0.2863 -0.7031
 1667TIP3   OH2 4964   6.527   5.923   0.729 -0.0115 -0.0720  0.0300
 1667TIP3    H1 4965   6.458   5.952   0.670  0.4788  0.4593 -0.2943
 1667TIP3    H2 4966   6.608   5.956   0.690  0.4088 -0.4998  0.5166
 1668TIP3   OH2 4967   4.312   4.081   2.705 -0.1938  0.0892  0.5867
 1668TIP3    H1 4968   4.359   3.998   2.703 -0.2565  0.0638 -0.0658
 1668TIP3    H2 4969   4.335   4.124   2.624  0.3430  1.0058  1.2091
 1669TIP3   OH2 4970   2.181   0.125   5.221 -0.0753 -0.1287  0.5615
 1669TIP3    H1 4971   2.226   0.047   5.190  2.1276  1.4119 -0.3962
 1669TIP3    H2 4972   2.122   0.149   5.149 -0.0610 -0.3961  0.4609
 1670TIP3   OH2 4973   5.502   3.562   4.029  0.0242 -0.1817  0.3826
 1670TIP3    H1 4974   5.486   3.472   4.003 -0.7698  0.0968 -0.1366
 1670TIP3    H2 4975   5.460   3.615   3.961  4.9184  0.7225 -2.3627
 1671TIP3   OH2 4976   3.339   1.205   3.881 -0.1654  0.0827 -0.5435
 1671TIP3    H1 4977   3.299   1.177   3.963  1.5117 -0.3067  0.1698
 1671TIP3    H2 4978   3.296   1.153   3.814 -0.2953 -0.8952  0.2847
 1672TIP3   OH2 4979   5.730   0.341   4.237  0.2399  0.5257  0.8129
 1672TIP3    H1 4980   5.748   0.435   4.244  4.0025  0.0931 -0.7379
 1672TIP3    H2 4981   5.710   0.328   4.144  1.7731 -0.4211  0.5895
 1673TIP3   OH2 4982   0.385   2.856   3.482 -0.3876  0.0035  0.0015
 1673TIP3    H1 4983   0.435   2.855   3.400 -2.7184  0.8780 -1.5344
 1673TIP3    H2 4984   0.371   2.764   3.503 -0.1674 -0.2337 -0.8479
 1674TIP3   OH2 4985   3.302   6.025   4.922  0.0058 -0.0840  0.0964
 1674TIP3    H1 4986   3.287   6.106   4.972  0.7612  0.0476  0.1137
 1674TIP3    H2 4987   3.389   5.997   4.948 -0.4505 -1.1913  0.4722
 1675TIP3   OH2 4988   6.644   1.445   4.321  0.0680  0.7455 -0.5055
 1675TIP3    H1 4989   6.589   1.397   4.259  0.6295  0.3897 -0.7347
 1675TIP3    H2 4990   6.595   1.442   4.403  0.3908 -0.8055 -0.3443
 1676TIP3   OH2 4991   0.439   5.398   0.140 -0.1051 -0.0708  0.3735
 1676TIP3    H1 4992   0.530   5.407   0.110 -0.1976 -1.4539 -0.4184
 1676TIP3    H2 4993   0.392   5.364   0.063 -0.8955 -1.1672  1.3037
 1677TIP3   OH2 4994   2.106   2.961   0.509 -0.4813 -0.4417  0.1764
 1677TIP3    H1 4995   2.051   2.908   0.567  0.0462 -1.3580 -0.1426
 1677TIP3    H2 4996   2.043   3.012   0.457 -0.9699 -0.1036  1.0792
 1678TIP3   OH2 4997   3.159   1.919   4.313 -0.0928  0.0683 -0.3053
 1678TIP3    H1 4998   3.159   2.001   4.264 -0.5526 -0.8838 -1.9399
 1678TIP3    H2 4999   3.191   1.944   4.400 -1.1415  2.1352 -0.4616
 1679TIP3   OH2 5000   3.813   6.388   5.032  0.1053 -0.2580 -0.4653
 1679TIP3    H1 5001   3.811   6.434   5.116 -0.9110 -1.2903  0.1111
 1679TIP3    H2 5002   3.903   6.398   5.001  0.1680  1.2237  0.1130
 1680TIP3   OH2 5003   0.304   1.285   2.217 -0.3207  0.1151  0.0507
 1680TIP3    H1 5004   0.396   1.267   2.235  0.1214  0.4647 -1.6952
 1680TIP3    H2 5005   0.283   1.227   2.143 -1.1726  0.8761 -0.3137
 1681TIP3   OH2 5006   3.376   1.709   2.329  0.3024  0.5970 -0.0741
 1681TIP3    H1 5007   3.407   1.674   2.413  0.8085 -1.9794 -1.2397
 1681TIP3    H2 5008   3.284   1.732   2.346  1.0222  2.4305  1.7722
 1682TIP3   OH2 5009   2.418   0.274   0.400  0.1506 -0.4422 -0.1411
 1682TIP3    H1 5010   2.329   0.244   0.419  0.8777 -1.6443  1.6682
 1682TIP3    H2 5011   2.418   0.366   0.425 -0.4731 -0.5553  0.3198
 1683TIP3   OH2 5012   3.214   4.878   2.593 -0.0162 -0.2438 -0.8810
 1683TIP3    H1 5013   3.222   4.812   2.662 -1.8339  0.4089  0.0307
 1683TIP3    H2 5014   3.199   4.827   2.513  0.1515 -0.9617 -0.4665
 1684TIP3   OH2 5015   7.096   5.308   3.288  0.1947 -0.6348 -0.3855
 1684TIP3    H1 5016   7.177   5.260   3.305  1.5387  1.4631 -0.5101
 1684TIP3    H2 5017   7.099   5.327   3.194 -0.7108 -0.9494 -0.4909
 1685TIP3   OH2 5018   1.460   0.671   4.296  0.3519 -0.0460 -0.3981
 1685TIP3    H1 5019   1.547   0.683   4.335 -0.5114  2.7774  0.9301
 1685TIP3    H2 5020   1.421   0.758   4.296 -1.2789 -0.5857 -4.0998
 1686TIP3   OH2 5021   5.200   3.297   0.932  0.0436 -0.3475 -0.1545
 1686TIP3    H1 5022   5.117   3.295   0.980 -0.3147  0.3233 -0.7192
 1686TIP3    H2 5023   5.262   3.251   0.988  0.1231  2.0129  1.8950
 1687TIP3   OH2 5024   0.398   2.174   5.460  0.0129 -0.4885  0.0245
 1687TIP3    H1 5025   0.344   2.190   5.538  1.1531  0.3404  0.6680
 1687TIP3    H2 5026   0.353   2.223   5.391 -0.4949 -0.4593  0.3626
 1688TIP3   OH2 5027   2.788   5.160   3.973 -0.0958  0.0502 -0.5796
 1688TIP3    H1 5028   2.880   5.133   3.985 -0.4684 -1.4426 -0.8813
 1688TIP3    H2 5029   2.764   5.200   4.057  0.7864  0.3367 -0.4481
 1689TIP3   OH2 5030   3.678   1.219   2.545 -0.4284 -0.0494 -0.2944
 1689TIP3    H1 5031   3.619   1.203   2.619  0.5023 -2.1233  0.0824
 1689TIP3    H2 5032   3.707   1.131   2.519  0.6459  0.7666 -1.9896
 1690TIP3   OH2 5033   2.222   4.106   3.609 -0.0105 -0.1630  0.2140
 1690TIP3    H1 5034   2.185   4.059   3.683  0.0632 -1.6584 -0.6594
 1690TIP3    H2 5035   2.232   4.196   3.640  0.0920 -0.7671  2.0314
 1691TIP3   OH2 5036   6.904   3.724   0.328  0.5849  0.0218  0.0325
 1691TIP3    H1 5037   6.948   3.796   0.282 -1.4098  1.4583  0.2408
 1691TIP3    H2 5038   6.843   3.689   0.263  0.5314 -0.5553  0.3894
 1692TIP3   OH2 5039   6.673   3.285   0.952  0.4375  0.0300 -0.1347
 1692TIP3    H1 5040   6.688   3.352   1.020  1.9129 -0.0120 -0.3867
 1692TIP3    H2 5041   6.735   3.307   0.883 -0.5648 -0.3478 -1.1916
 1693TIP3   OH2 5042   6.268   3.148   4.353  0.0490  0.5067  0.2195
 1693TIP3    H1 5043   6.330   3.222   4.350 -1.6727  2.0809  1.3193
 1693TIP3    H2 5044   6.270   3.112   4.264  1.9618  0.9533  0.0225
 1694TIP3   OH2 5045   6.965   3.457   2.319 -0.2759 -0.4902 -0.4933
 1694TIP3    H1 5046   6.934   3.401   2.390  0.2507 -0.3017 -0.1037
 1694TIP3    H2 5047   6.886   3.491   2.278 -0.7345  2.4605  2.3943
 1695TIP3   OH2 5048   4.152   6.728   0.377 -0.6776 -0.1820 -0.3456
 1695TIP3    H1 5049   4.093   6.654   0.388 -0.3324 -0.3623  0.3439
 1695TIP3    H2 5050   4.094   6.803   0.360 -1.0096 -0.6601 -1.4312
 1696TIP3   OH2 5051   2.455   3.071   3.919  0.0529  0.2074 -0.1289
 1696TIP3    H1 5052   2.391   3.091   3.850  0.0466 -1.2074 -0.5739
 1696TIP3    H2 5053   2.510   3.003   3.880  1.5930  1.1259  0.3892
 1697TIP3   OH2 5054   4.956   0.547   0.656 -0.2803 -0.0517 -0.0982
 1697TIP3    H1 5055   4.905   0.627   0.637 -0.3178 -0.0008  0.2219
 1697TIP3    H2 5056   4.963   0.503   0.571  0.8502  0.9301 -0.5426
 1698TIP3   OH2 5057   2.282   2.730   5.234 -0.5159 -0.0339  0.1764
 1698TIP3    H1 5058   2.211   2.678   5.197 -0.0781 -0.4136 -0.1370
 1698TIP3    H2 5059   2.316   2.780   5.160  0.0312 -0.4161  0.1656
 1699TIP3   OH2 5060   4.838   3.568   1.340 -0.2692 -0.1922  0.0202
 1699TIP3    H1 5061   4.876   3.612   1.416 -0.2871 -0.3592  0.1275
 1699TIP3    H2 5062   4.834   3.476   1.366  0.9615 -0.4648 -0.6707
 1700TIP3   OH2 5063   1.197   3.668   4.684  0.3588  0.1312 -0.8527
 1700TIP3    H1 5064   1.118   3.626   4.650 -0.0386  0.3433 -0.1997
 1700TIP3    H2 5065   1.165   3.737   4.741  1.0179  0.2013 -0.5629
 1701TIP3   OH2 5066   3.269   1.288   1.120  0.1505  0.0171  0.5150
 1701TIP3    H1 5067   3.202   1.275   1.053 -0.2249  0.8998  0.6961
 1701TIP3    H2 5068   3.299   1.378   1.107 -0.7869  0.6421  2.2512
 1702TIP3   OH2 5069   6.248   4.009   2.664  0.4173 -0.1559 -0.2914
 1702TIP3    H1 5070   6.188   4.073   2.703  1.1214 -0.0579  0.6547
 1702TIP3    H2 5071   6.300   4.060   2.602  0.1175 -0.0729 -0.4795
 1703TIP3   OH2 5072   2.896   6.623   1.888 -0.0230 -0.1389  0.0674
 1703TIP3    H1 5073   2.857   6.662   1.810 -1.5726 -1.0288  0.3609
 1703TIP3    H2 5074   2.899   6.695   1.952 -1.8184 -0.1809  0.2438
 1704TIP3   OH2 5075   2.597   1.142   0.712 -0.1426 -0.5289  0.0193
 1704TIP3    H1 5076   2.634   1.205   0.650  0.8700  0.1454  1.2668
 1704TIP3    H2 5077   2.509   1.174   0.730 -0.6512 -1.0249 -1.4401
 1705TIP3   OH2 5078   5.876   1.549   0.043 -0.3534 -0.5426  0.2067
 1705TIP3    H1 5079   5.924   1.544   0.125 -0.1953  3.5055  0.5422
 1705TIP3    H2 5080   5.934   1.508  -0.021  1.4245 -0.0707  1.4381
 1706TIP3   OH2 5081   7.096   1.524   2.354 -0.1078 -0.0822 -0.3674
 1706TIP3    H1 5082   7.016   1.513   2.302  0.0902 -0.7419 -0.5484
 1706TIP3    H2 5083   7.132   1.435   2.360  0.4416  0.1628 -0.0173
 1707TIP3   OH2 5084   4.879   3.494   1.065  0.4266 -0.3820 -0.3316
 1707TIP3    H1 5085   4.901   3.402   1.083  0.3297 -0.0847  1.4550
 1707TIP3    H2 5086   4.862   3.532   1.151  1.3327  1.5523 -0.9501
 1708TIP3   OH2 5087   6.033   0.730   1.932  0.0911  0.0714 -0.4106
 1708TIP3    H1 5088   6.038   0.784   2.011  2.6096 -1.7351  0.7874
 1708TIP3    H2 5089   5.947   0.690   1.936 -0.7493  1.8238  0.1095
 1709TIP3   OH2 5090   7.157   4.097   1.568  0.5084 -0.0943 -0.1663
 1709TIP3    H1 5091   7.233   4.154   1.563 -0.2293  0.7884 -2.4476
 1709TIP3    H2 5092   7.111   4.124   1.647  0.8052  1.6794 -0.5714
 1710TIP3   OH2 5093   2.267   3.808   0.192 -0.5337  0.3653 -0.8039
 1710TIP3    H1 5094   2.225   3.894   0.189 -0.7095  0.3998  1.2285
 1710TIP3    H2 5095   2.194   3.746   0.197 -0.3954  0.1790 -1.1151
 1711TIP3   OH2 5096   1.164   3.757   3.673  0.3306 -0.4502 -0.4406
 1711TIP3    H1 5097   1.110   3.715   3.606  0.6206  0.2285 -1.1160
 1711TIP3    H2 5098   1.121   3.841   3.688  1.4588  0.3115 -1.3476
 1712TIP3   OH2 5099   3.841   1.145   3.861 -0.3991 -0.6863  0.1041
 1712TIP3    H1 5100   3.810   1.188   3.782  1.8030  1.2255  0.1748
 1712TIP3    H2 5101   3.806   1.199   3.933 -0.0081 -0.7280  0.3256
 1713TIP3   OH2 5102   4.002   3.190   4.882  0.0451  0.6154 -0.8049
 1713TIP3    H1 5103   4.020   3.212   4.974 -0.0787  0.2798 -0.6978
 1713TIP3    H2 5104   3.906   3.184   4.878  0.0868 -0.1111 -0.7814
 1714TIP3   OH2 5105   6.824   5.072   2.600  0.4291 -0.7372  0.2498
 1714TIP3    H1 5106   6.895   5.060   2.662 -1.1522  0.1809  2.3750
 1714TIP3    H2 5107   6.744   5.056   2.651 -0.9720 -0.0966 -1.5947
 1715TIP3   OH2 5108   3.547   6.172   1.358  0.1576 -0.2077 -0.1445
 1715TIP3    H1 5109   3.610   6.101   1.342  0.4721  0.2605 -1.0381
 1715TIP3    H2 5110   3.590   6.227   1.424  0.1763 -0.5226  0.1086
 1716TIP3   OH2 5111   1.786   3.090   2.064  0.6757  0.0824 -0.4691
 1716TIP3    H1 5112   1.728   3.165   2.075  0.4766  0.1922 -2.0273
 1716TIP3    H2 5113   1.862   3.124   2.017  1.1081 -0.4647 -0.1838
 1717TIP3   OH2 5114   2.186   1.131   1.072  0.0336  0.3941  0.2214
 1717TIP3    H1 5115   2.173   1.072   1.147  0.1121  1.3524  0.9973
 1717TIP3    H2 5116   2.134   1.091   1.001 -1.3662  0.3313  1.2339
 1718TIP3   OH2 5117   0.448   4.964   3.321  0.4640  0.0652 -0.2387
 1718TIP3    H1 5118   0.495   4.990   3.401  0.3144 -1.3095  0.3174
 1718TIP3    H2 5119   0.505   4.900   3.279  0.6642  0.9764 -1.4032
 1719TIP3   OH2 5120   5.768   3.487   1.778  0.0877 -0.4074  0.1338
 1719TIP3    H1 5121   5.730   3.541   1.709 -0.0245 -0.7489 -0.0744
 1719TIP3    H2 5122   5.858   3.520   1.787 -0.2844  0.4858  0.7228
 1720TIP3   OH2 5123   5.371   2.378   5.452 -0.3500 -0.2260 -0.2066
 1720TIP3    H1 5124   5.324   2.327   5.517 -0.4481  1.1701  0.8631
 1720TIP3    H2 5125   5.458   2.338   5.448 -0.4773 -0.5776  0.4716
 1721TIP3   OH2 5126   1.144   5.864   3.329  0.2069  0.3190 -0.3916
 1721TIP3    H1 5127   1.070   5.923   3.335  0.2420  0.3301 -0.0358
 1721TIP3    H2 5128   1.149   5.840   3.237 -0.2095  0.3542 -0.4241
 1722TIP3   OH2 5129   0.400   4.953   5.593 -0.6662  0.4078 -0.3237
 1722TIP3    H1 5130   0.344   4.976   5.667 -0.2277 -2.6164  1.0918
 1722TIP3    H2 5131   0.474   5.014   5.599 -0.8025  0.4456  1.5557
 1723TIP3   OH2 5132   7.050   1.999   4.780 -0.2042 -0.1620  0.4052
 1723TIP3    H1 5133   7.039   1.942   4.857  0.5648  0.8309  1.2736
 1723TIP3    H2 5134   7.058   2.087   4.816 -1.7307  0.5781 -0.9389
 1724TIP3   OH2 5135   6.917   2.376   0.383  0.2653 -0.1881 -0.1523
 1724TIP3    H1 5136   6.907   2.283   0.362 -0.2281 -0.2584  0.3651
 1724TIP3    H2 5137   6.948   2.378   0.473  2.2316  0.1188 -0.7877
 1725TIP3   OH2 5138   0.753   0.297   0.453  0.1036  0.0687  0.0634
 1725TIP3    H1 5139   0.711   0.291   0.538 -0.9552  0.1673 -0.4444
 1725TIP3    H2 5140   0.694   0.350   0.400  0.4794 -0.4476 -0.8928
 1726TIP3   OH2 5141   4.573   1.180   0.592 -0.0835 -0.0679  0.1861
 1726TIP3    H1 5142   4.641   1.148   0.533 -0.5248  0.5336 -0.6894
 1726TIP3    H2 5143   4.506   1.216   0.533  0.0380  1.7209  1.0626
 1727TIP3   OH2 5144   4.164   6.552   2.520  0.0339  0.0641 -0.2773
 1727TIP3    H1 5145   4.123   6.479   2.474  0.0006  0.0454 -0.2191
 1727TIP3    H2 5146   4.095   6.584   2.579  0.1939 -0.1529  0.0329
 1728TIP3   OH2 5147   6.541   0.555   1.246 -0.1645 -0.0305 -0.8018
 1728TIP3    H1 5148   6.529   0.460   1.238 -0.0795 -0.1984  0.7163
 1728TIP3    H2 5149   6.457   0.592   1.219 -1.3496 -0.7464  1.6141
 1729TIP3   OH2 5150   1.537   1.102   2.819 -0.0789  1.0473  0.0594
 1729TIP3    H1 5151   1.609   1.098   2.757 -0.6659  0.3491 -0.5986
 1729TIP3    H2 5152   1.578   1.088   2.905  0.3682 -1.2277 -0.4669
 1730TIP3   OH2 5153   0.133   2.471   5.560  0.0400  0.2830 -0.2469
 1730TIP3    H1 5154   0.092   2.475   5.647  0.5024 -0.8159  0.0296
 1730TIP3    H2 5155   0.088   2.539   5.510 -0.4112  0.7615  0.7735
 1731TIP3   OH2 5156   0.099   4.244   3.521  0.3030 -0.0947 -0.6512
 1731TIP3    H1 5157   0.106   4.262   3.615  0.9746 -0.1587 -0.6842
 1731TIP3    H2 5158   0.024   4.184   3.513 -0.3755  0.6741 -0.2689
 1732TIP3   OH2 5159   6.632   6.517   2.114 -0.5869  0.1886 -0.0182
 1732TIP3    H1 5160   6.603   6.538   2.025 -0.9308  0.6240  0.1943
 1732TIP3    H2 5161   6.719   6.478   2.101 -0.9688 -0.4877 -0.5983
 1733TIP3   OH2 5162   1.472   1.665   0.501 -0.6909  0.4355 -0.2954
 1733TIP3    H1 5163   1.454   1.694   0.590 -0.6744  1.1949 -0.5327
 1733TIP3    H2 5164   1.389   1.630   0.469 -0.5160 -0.5115  0.2618
 1734TIP3   OH2 5165   1.723   4.852   4.424  0.3244  0.0359 -0.3193
 1734TIP3    H1 5166   1.767   4.767   4.415 -2.4907 -1.5065 -0.7630
 1734TIP3    H2 5167   1.735   4.894   4.338  2.8687  0.7661  0.3236
 1735TIP3   OH2 5168   5.726   0.672   5.900 -0.3102  0.0348 -0.3606
 1735TIP3    H1 5169   5.781   0.650   5.824  0.0290 -0.8367  0.1155
 1735TIP3    H2 5170   5.709   0.587   5.942  0.4406  0.6093  1.1614
 1736TIP3   OH2 5171   1.601   3.241   2.313 -0.4093  0.1044  0.1862
 1736TIP3    H1 5172   1.539   3.264   2.383  0.2674  1.7574  0.2989
 1736TIP3    H2 5173   1.545   3.215   2.240 -1.1897  0.0783  0.7728
 1737TIP3   OH2 5174   1.201   4.372   1.122 -0.1023  0.2639  0.0804
 1737TIP3    H1 5175   1.181   4.293   1.172  0.9146 -0.0319  0.0287
 1737TIP3    H2 5176   1.178   4.444   1.181  1.4865 -0.0849  1.1505
 1738TIP3   OH2 5177   1.363   6.160   2.006  0.6329  0.4348 -0.4082
 1738TIP3    H1 5178   1.449   6.202   2.000  0.5960  0.4010 -1.2458
 1738TIP3    H2 5179   1.304   6.229   2.035  0.6806  0.8124 -1.2119
 1739TIP3   OH2 5180   6.950   1.710   4.013 -0.2697  0.6672 -0.4788
 1739TIP3    H1 5181   6.869   1.737   3.969  0.0245 -0.9996 -2.1740
 1739TIP3    H2 5182   6.934   1.727   4.105 -2.9719 -0.5144 -0.6411
 1740TIP3   OH2 5183   3.103   0.828   3.440 -0.0454 -0.4565 -0.1060
 1740TIP3    H1 5184   3.008   0.836   3.446  0.0289  1.6833 -0.8992
 1740TIP3    H2 5185   3.124   0.860   3.353  1.2829 -2.7316 -0.6993
 1741TIP3   OH2 5186   0.034   0.732   2.027  0.2273 -0.1090 -0.0739
 1741TIP3    H1 5187   0.014   0.643   2.055  1.1700 -0.2489  0.1986
 1741TIP3    H2 5188  -0.034   0.786   2.067  0.0103 -0.6325  0.2771
 1742TIP3   OH2 5189   1.386   3.623   2.344 -0.4147  0.0495  0.8273
 1742TIP3    H1 5190   1.442   3.635   2.268  2.0808 -0.4328  2.4417
 1742TIP3    H2 5191   1.316   3.566   2.314 -0.0935  0.7005 -1.3181
 1743TIP3   OH2 5192   2.425   4.490   1.077 -0.6603 -0.4089 -0.2964
 1743TIP3    H1 5193   2.421   4.546   1.000 -0.2605  0.3700  0.2335
 1743TIP3    H2 5194   2.372   4.536   1.143 -0.0879 -0.4956  0.2343
 1744TIP3   OH2 5195   5.239   4.835   3.495  0.0448 -0.2298 -0.5272
 1744TIP3    H1 5196   5.266   4.757   3.544 -1.4795 -0.6628 -0.3127
 1744TIP3    H2 5197   5.264   4.908   3.552  3.0587 -0.3867 -1.4852
 1745TIP3   OH2 5198   2.590   6.538   5.845 -0.1580  0.2515 -0.1565
 1745TIP3    H1 5199   2.550   6.613   5.888 -0.3072  0.2224 -0.2433
 1745TIP3    H2 5200   2.673   6.525   5.891 -0.1955  0.3832 -0.0518
 1746TIP3   OH2 5201   0.768   5.545   0.375  0.2322 -0.0020  0.3980
 1746TIP3    H1 5202   0.762   5.544   0.280 -0.6688  0.9922  0.4288
 1746TIP3    H2 5203   0.800   5.632   0.396 -0.3855  0.0818  1.0354
 1747TIP3   OH2 5204   5.759   0.911   3.941  0.2061 -0.4398  0.2005
 1747TIP3    H1 5205   5.826   0.843   3.928 -0.4283 -0.7354 -1.7578
 1747TIP3    H2 5206   5.684   0.881   3.891 -0.3707  1.3338 -0.0610
 1748TIP3   OH2 5207   1.934   1.594   4.625 -0.7133  0.3903 -0.1392
 1748TIP3    H1 5208   1.938   1.675   4.677  1.3719  1.4083 -1.7327
 1748TIP3    H2 5209   2.007   1.541   4.658 -1.4331 -0.4302  0.1845
 1749TIP3   OH2 5210   6.360   2.687   1.274  0.2326 -0.0893 -0.1522
 1749TIP3    H1 5211   6.290   2.722   1.329  0.2685  0.3072 -0.3565
 1749TIP3    H2 5212   6.362   2.745   1.198  2.1779  1.1789  0.8025
 1750TIP3   OH2 5213   0.329   3.848   0.481 -0.3710  0.1913 -0.0902
 1750TIP3    H1 5214   0.414   3.804   0.484 -0.0716  0.6560 -1.1239
 1750TIP3    H2 5215   0.298   3.848   0.572  1.5023  1.5083  0.6057
 1751TIP3   OH2 5216   6.801   0.877   5.693 -0.1578 -0.3019 -0.0825
 1751TIP3    H1 5217   6.805   0.843   5.782  1.0967 -1.2659 -0.4789
 1751TIP3    H2 5218   6.890   0.868   5.659  0.0732  2.6827 -0.5237
 1752TIP3   OH2 5219   0.454   4.509   4.374  0.2030 -0.0900 -0.0317
 1752TIP3    H1 5220   0.424   4.549   4.292 -0.5608 -1.3064 -0.3645
 1752TIP3    H2 5221   0.373   4.486   4.420  0.6308 -0.0874  0.7408
 1753TIP3   OH2 5222   4.732   0.120   3.383 -0.2355  0.3999 -0.2798
 1753TIP3    H1 5223   4.657   0.086   3.333  0.5110 -0.2692 -0.9666
 1753TIP3    H2 5224   4.755   0.202   3.340 -1.1868  1.1362  0.5527
 1754TIP3   OH2 5225   4.031   5.128   3.949  0.2745 -0.1902 -0.2052
 1754TIP3    H1 5226   4.105   5.175   3.909 -0.1161  1.1239  0.5662
 1754TIP3    H2 5227   4.069   5.045   3.978  1.0911 -0.1851 -1.1774
 1755TIP3   OH2 5228   5.921   2.866   1.515 -0.1049  0.3240 -0.1467
 1755TIP3    H1 5229   5.863   2.822   1.577  0.0481  0.0184 -0.2178
 1755TIP3    H2 5230   5.985   2.799   1.491  0.4140  0.7260  0.1028
 1756TIP3   OH2 5231   0.921   1.400   3.689  0.0934  0.4626 -0.2878
 1756TIP3    H1 5232   0.992   1.405   3.753 -1.0285 -1.2774  1.2279
 1756TIP3    H2 5233   0.927   1.311   3.655 -0.6122  0.6979 -1.0417
 1757TIP3   OH2 5234   3.168   0.666   0.659 -0.5671 -0.4606 -0.4203
 1757TIP3    H1 5235   3.255   0.632   0.637 -0.9052 -1.3385 -0.4447
 1757TIP3    H2 5236   3.112   0.588   0.661 -1.2597  0.0440  0.0510
 1758TIP3   OH2 5237   5.702   0.336   3.970 -0.6609 -0.3035  0.3065
 1758TIP3    H1 5238   5.699   0.251   3.927  0.3620 -0.8586  1.2773
 1758TIP3    H2 5239   5.784   0.376   3.940 -1.4226  0.6239 -0.6227
 1759TIP3   OH2 5240   1.027   0.220   0.583 -0.2438  0.0126 -0.6753
 1759TIP3    H1 5241   0.978   0.177   0.653  0.7538  0.1218  0.1100
 1759TIP3    H2 5242   1.079   0.149   0.543  1.1218  0.3749  0.3798
 1760TIP3   OH2 5243   0.756   0.438   0.885  0.4569  0.1367  0.1132
 1760TIP3    H1 5244   0.703   0.449   0.807 -1.0118 -0.5009  0.9814
 1760TIP3    H2 5245   0.809   0.518   0.890  0.4926  0.2297 -1.4399
 1761TIP3   OH2 5246   0.345   4.241   2.920  0.5438  0.7710 -0.3783
 1761TIP3    H1 5247   0.425   4.264   2.968  0.6638  1.7412 -1.0115
 1761TIP3    H2 5248   0.274   4.272   2.976  0.5727 -0.6326  0.4675
 1762TIP3   OH2 5249   6.347   0.291   2.126 -0.0791  0.7231  0.1278
 1762TIP3    H1 5250   6.328   0.335   2.209  2.3468  0.5085  0.8625
 1762TIP3    H2 5251   6.320   0.354   2.059 -2.0610  0.9147  1.0278
 1763TIP3   OH2 5252   3.971   4.669   5.331 -0.8600 -0.0605  0.1562
 1763TIP3    H1 5253   3.974   4.588   5.280  0.0181  0.1482 -0.1441
 1763TIP3    H2 5254   3.891   4.662   5.381 -0.6342 -1.2846  0.3948
 1764TIP3   OH2 5255   6.203   3.209   2.848 -0.0416  0.0580 -0.0824
 1764TIP3    H1 5256   6.254   3.281   2.884 -1.2000  1.0667 -0.3858
 1764TIP3    H2 5257   6.190   3.149   2.921  2.1909 -0.6168 -0.1818
 1765TIP3   OH2 5258   4.056   5.348   2.815  0.2509 -0.2155 -0.1118
 1765TIP3    H1 5259   4.018   5.307   2.737 -1.7457 -0.1144  0.7624
 1765TIP3    H2 5260   4.060   5.277   2.879 -0.7296  0.3267  0.5643
 1766TIP3   OH2 5261   7.167   3.886   5.495 -0.4317  0.7397 -0.1374
 1766TIP3    H1 5262   7.136   3.969   5.457 -2.0718 -0.4083 -1.4389
 1766TIP3    H2 5263   7.150   3.896   5.589 -0.9311  1.7502 -0.3161
 1767TIP3   OH2 5264   5.772   5.598   1.510  0.1099  1.0319  0.3840
 1767TIP3    H1 5265   5.781   5.661   1.437 -0.0822  1.0404  0.3662
 1767TIP3    H2 5266   5.756   5.653   1.587  0.9155  1.0549  0.5415
 1768TIP3   OH2 5267   0.841   3.710   2.093  1.0326 -0.3784 -0.1361
 1768TIP3    H1 5268   0.814   3.785   2.041 -0.6343 -1.4223 -0.8610
 1768TIP3    H2 5269   0.927   3.686   2.059  0.6337 -0.1015 -1.3833
 1769TIP3   OH2 5270   6.700   5.355   5.677 -0.2682  0.0785  0.2360
 1769TIP3    H1 5271   6.795   5.348   5.690 -0.2009  0.5154  0.0049
 1769TIP3    H2 5272   6.686   5.332   5.585 -0.4944 -0.8769  0.5015
 1770TIP3   OH2 5273   0.952   1.792   5.815 -0.1828 -0.3559  0.3132
 1770TIP3    H1 5274   0.866   1.768   5.779  0.8365 -1.3254 -1.6518
 1770TIP3    H2 5275   1.010   1.722   5.785  1.5645  0.9810  0.4381
 1771TIP3   OH2 5276   2.152   0.581   0.416 -0.0625 -0.2273  0.0465
 1771TIP3    H1 5277   2.159   0.599   0.510 -0.0879  0.3724 -0.0590
 1771TIP3    H2 5278   2.062   0.603   0.394 -0.2946 -1.1745  0.0410
 1772TIP3   OH2 5279   0.553   4.633   1.811  0.0332 -0.3454 -0.3955
 1772TIP3    H1 5280   0.504   4.566   1.763 -0.9206 -0.8550  1.2258
 1772TIP3    H2 5281   0.640   4.632   1.770  0.2923 -3.0825  0.0080
 1773TIP3   OH2 5282   3.891   1.184   3.527  0.2628 -0.4276  0.1611
 1773TIP3    H1 5283   3.805   1.216   3.501 -0.0265 -0.6916  0.7817
 1773TIP3    H2 5284   3.926   1.143   3.447  0.6542  1.4007 -0.6574
 1774TIP3   OH2 5285   0.180   3.619   4.500 -0.1014  0.5813 -0.2395
 1774TIP3    H1 5286   0.141   3.537   4.532 -1.0937  0.1556 -2.3810
 1774TIP3    H2 5287   0.187   3.674   4.578  1.4515 -1.8276  1.4379
 1775TIP3   OH2 5288   1.148   3.539   0.907  0.2710  0.2149 -0.2250
 1775TIP3    H1 5289   1.238   3.562   0.928 -0.1923  0.1150  2.2188
 1775TIP3    H2 5290   1.095   3.598   0.960 -1.0117 -2.2139  1.3991
 1776TIP3   OH2 5291   4.471   5.693   5.751  0.1314  0.1088  0.5885
 1776TIP3    H1 5292   4.436   5.604   5.754 -2.1197  0.9583  1.7905
 1776TIP3    H2 5293   4.526   5.699   5.829 -1.4925  0.3933  1.7626
 1777TIP3   OH2 5294   3.391   5.122   4.789 -0.6314  0.6731 -0.1536
 1777TIP3    H1 5295   3.442   5.062   4.842 -0.9928 -1.0726 -1.6892
 1777TIP3    H2 5296   3.326   5.158   4.849  0.9215  1.2411  1.2954
 1778TIP3   OH2 5297   5.396   1.571   0.143  0.2032  0.3819 -0.2049
 1778TIP3    H1 5298   5.329   1.524   0.193  0.4257 -0.7624 -0.9323
 1778TIP3    H2 5299   5.373   1.663   0.153 -0.7746  0.0817  0.5501
 1779TIP3   OH2 5300   6.433   0.501   4.197 -0.8875 -0.2174  0.3852
 1779TIP3    H1 5301   6.455   0.512   4.104 -1.9740 -0.3713  0.0933
 1779TIP3    H2 5302   6.374   0.426   4.199 -1.6085  0.3397  1.0751
 1780TIP3   OH2 5303   2.336   4.755   3.610  0.3232 -0.2242  0.3921
 1780TIP3    H1 5304   2.423   4.725   3.586  0.5469  0.5130  0.2595
 1780TIP3    H2 5305   2.281   4.676   3.607  0.8648 -0.5872 -0.0685
 1781TIP3   OH2 5306   4.712   2.980   0.325 -0.4710  0.3608 -0.0045
 1781TIP3    H1 5307   4.778   2.913   0.311  1.8848  1.7844  3.1461
 1781TIP3    H2 5308   4.651   2.941   0.388 -0.9187  0.1172 -0.5801
 1782TIP3   OH2 5309   1.362  -0.022   0.504 -0.4910  0.5253 -0.5898
 1782TIP3    H1 5310   1.272  -0.032   0.535 -0.2134  0.8687  0.3592
 1782TIP3    H2 5311   1.365   0.065   0.464 -0.2468  1.0856  0.6112
 1783TIP3   OH2 5312   2.571   3.169   4.765 -0.3428 -0.6774  0.0973
 1783TIP3    H1 5313   2.536   3.249   4.805  2.2652 -0.1913  1.6411
 1783TIP3    H2 5314   2.557   3.181   4.671  1.8887  2.7288 -0.0080
 1784TIP3   OH2 5315   3.581   1.666   0.824 -0.1433 -0.2680  0.0847
 1784TIP3    H1 5316   3.620   1.628   0.903  3.0429  1.9764 -0.2189
 1784TIP3    H2 5317   3.596   1.601   0.756  3.1845  0.3747  0.0295
 1785TIP3   OH2 5318   2.735   4.921   5.572 -0.3339  0.1639 -0.4582
 1785TIP3    H1 5319   2.643   4.917   5.546 -0.6177 -0.6810  0.5751
 1785TIP3    H2 5320   2.732   4.944   5.665  0.4508 -0.7477 -0.1965
 1786TIP3   OH2 5321   5.136   6.808   2.848  0.0575 -0.2531  0.0050
 1786TIP3    H1 5322   5.118   6.819   2.941  1.3261  0.0011  0.2388
 1786TIP3    H2 5323   5.200   6.737   2.844 -0.8933 -1.1041 -0.7811
 1787TIP3   OH2 5324   1.995   2.053   3.003 -0.2560 -0.4063 -0.2977
 1787TIP3    H1 5325   2.049   2.071   3.080 -0.2654  0.0210 -0.3897
 1787TIP3    H2 5326   1.989   2.137   2.958 -1.4968 -0.3117  0.0268
 1788TIP3   OH2 5327   1.770   2.092   0.073 -0.1231  0.4439 -0.3662
 1788TIP3    H1 5328   1.856   2.070   0.037 -0.5787  0.6149 -1.6144
 1788TIP3    H2 5329   1.725   2.135   0.001 -1.2127  0.4809  0.3208
 1789TIP3   OH2 5330   0.652   6.070   2.121 -0.2596  0.1894 -0.3923
 1789TIP3    H1 5331   0.677   6.080   2.030 -0.0404  0.3971 -0.3100
 1789TIP3    H2 5332   0.735   6.068   2.169 -0.3538 -0.4456 -0.2473
 1790TIP3   OH2 5333   4.321   3.978   1.959 -0.0937  0.2371 -0.2708
 1790TIP3    H1 5334   4.238   3.947   1.921 -0.1938  0.4491 -0.2283
 1790TIP3    H2 5335   4.362   4.028   1.888 -1.6238  3.1639  0.6956
 1791TIP3   OH2 5336   6.667   1.039   3.349  0.6469  0.2568  0.7981
 1791TIP3    H1 5337   6.660   0.945   3.331 -2.4534  0.9899 -3.2590
 1791TIP3    H2 5338   6.603   1.055   3.419 -0.6394 -0.4194 -0.1744
 1792TIP3   OH2 5339   1.190   3.418   2.484 -0.1017  0.3614 -0.1373
 1792TIP3    H1 5340   1.174   3.504   2.522  0.8542 -0.6452  2.8196
 1792TIP3    H2 5341   1.169   3.357   2.555  0.0984 -1.8125 -1.8598
 1793TIP3   OH2 5342   0.768   3.903   1.014 -0.2668  0.2000  0.1360
 1793TIP3    H1 5343   0.772   3.891   0.919 -0.6521  1.4360 -0.0510
 1793TIP3    H2 5344   0.859   3.905   1.042 -0.1392 -1.8488  0.0533
 1794TIP3   OH2 5345   3.422   3.830   3.784  0.1714 -0.2278  0.6371
 1794TIP3    H1 5346   3.382   3.752   3.746 -1.9114  1.9239 -2.0275
 1794TIP3    H2 5347   3.350   3.874   3.828  0.6161  1.5186 -0.3012
 1795TIP3   OH2 5348   4.228   5.603   3.992 -0.2148 -0.0211 -0.0507
 1795TIP3    H1 5349   4.199   5.677   4.046  0.6951  0.2078  0.1386
 1795TIP3    H2 5350   4.147   5.570   3.952 -1.4559 -1.9928  3.5740
 1796TIP3   OH2 5351   6.187   1.751   5.606  0.6394 -0.3135  0.5319
 1796TIP3    H1 5352   6.150   1.686   5.546 -0.3993 -0.8190  1.6433
 1796TIP3    H2 5353   6.263   1.708   5.644  1.3718  0.0564 -0.4897
 1797TIP3   OH2 5354   1.643   1.947   3.098  0.0482 -0.1997 -0.4461
 1797TIP3    H1 5355   1.712   1.892   3.136 -0.3670 -1.1769 -1.0779
 1797TIP3    H2 5356   1.605   1.894   3.029 -1.9780 -0.0497  0.4960
 1798TIP3   OH2 5357   4.007   5.450   1.531 -0.1210  0.2979  0.7236
 1798TIP3    H1 5358   3.912   5.458   1.533 -0.2210  0.2186 -1.3500
 1798TIP3    H2 5359   4.023   5.361   1.499  0.5829  0.9124 -0.7255
 1799TIP3   OH2 5360   2.051   4.705   3.033  0.1817 -0.4887 -0.3353
 1799TIP3    H1 5361   2.035   4.796   3.009  0.4479 -0.8057 -1.8004
 1799TIP3    H2 5362   1.964   4.666   3.039  0.0199  0.0552  1.1829
 1800TIP3   OH2 5363   2.768   3.033   4.395  0.3744 -0.1521  0.2707
 1800TIP3    H1 5364   2.792   2.978   4.321 -1.7175 -0.5960 -0.1389
 1800TIP3    H2 5365   2.849   3.078   4.419  1.5004 -1.3359 -1.1342
 1801TIP3   OH2 5366   1.623   5.654   2.033 -0.0201  0.5817  0.2232
 1801TIP3    H1 5367   1.617   5.559   2.030 -0.2742  0.6153 -1.0067
 1801TIP3    H2 5368   1.538   5.684   1.999  0.4258  1.2304 -0.3382
 1802TIP3   OH2 5369   6.763   6.596   1.260 -0.7811 -0.0825  0.4402
 1802TIP3    H1 5370   6.672   6.601   1.290 -0.5835  1.7152  0.8952
 1802TIP3    H2 5371   6.759   6.619   1.167 -0.7237  0.9873  0.6837
 1803TIP3   OH2 5372   0.591   6.738   2.141 -0.1561  0.3844 -0.1728
 1803TIP3    H1 5373   0.600   6.645   2.121 -0.9073  0.1323  0.6133
 1803TIP3    H2 5374   0.644   6.782   2.075  0.2584 -0.6043 -0.5158
 1804TIP3   OH2 5375   0.065   3.574   0.421 -0.4936 -0.3188 -0.3062
 1804TIP3    H1 5376   0.074   3.517   0.498  0.2894  0.2833  0.0646
 1804TIP3    H2 5377   0.065   3.663   0.457  0.2168 -0.0150 -1.0181
 1805TIP3   OH2 5378   6.243   0.403   3.396  0.2392  0.0595 -0.0193
 1805TIP3    H1 5379   6.193   0.415   3.315 -0.0941 -1.5229 -0.0682
 1805TIP3    H2 5380   6.180   0.417   3.466 -0.1287 -1.2474 -0.0742
 1806TIP3   OH2 5381   7.113   5.679   3.363  0.3568  0.0650  0.4068
 1806TIP3    H1 5382   7.164   5.751   3.400  0.9089  0.0272 -0.2646
 1806TIP3    H2 5383   7.159   5.656   3.283 -0.1066 -0.6978  0.3513
 1807TIP3   OH2 5384   6.709   2.736   2.516 -0.2415  0.0413  0.4076
 1807TIP3    H1 5385   6.703   2.822   2.558  0.7815  0.7178 -0.7557
 1807TIP3    H2 5386   6.704   2.674   2.589  1.6492  1.1759  1.6015
 1808TIP3   OH2 5387   4.704   4.079   1.219 -0.2724 -0.7990 -1.1590
 1808TIP3    H1 5388   4.622   4.062   1.264  0.8479 -1.7118  0.6575
 1808TIP3    H2 5389   4.679   4.099   1.129 -2.7847  2.8274  0.1069
 1809TIP3   OH2 5390   0.435   2.411   3.750 -0.0856  0.3733 -0.4230
 1809TIP3    H1 5391   0.395   2.345   3.807 -0.4143  1.1601  0.2681
 1809TIP3    H2 5392   0.493   2.460   3.807 -0.5122  1.2550 -0.7357
 1810TIP3   OH2 5393   0.431   6.140   3.312  0.4750 -0.4096 -0.0097
 1810TIP3    H1 5394   0.428   6.099   3.398  0.6572  2.2281  1.3207
 1810TIP3    H2 5395   0.476   6.075   3.257  0.1430 -2.2569  1.7585
 1811TIP3   OH2 5396   6.606   3.523   1.910 -0.1810  0.1040 -0.0351
 1811TIP3    H1 5397   6.516   3.550   1.891 -0.5211 -1.6632 -1.1903
 1811TIP3    H2 5398   6.657   3.558   1.838 -0.1568  0.0746 -0.0323
 1812TIP3   OH2 5399   1.480   6.358   0.515  0.0867 -0.3681  0.4859
 1812TIP3    H1 5400   1.572   6.383   0.510  0.6969 -2.5551 -0.7634
 1812TIP3    H2 5401   1.441   6.393   0.435 -0.2684  0.8049  1.1522
 1813TIP3   OH2 5402   2.545   3.395   3.657  0.2456  0.1816  0.4003
 1813TIP3    H1 5403   2.517   3.305   3.673  0.0072  0.1133 -0.3543
 1813TIP3    H2 5404   2.546   3.403   3.561 -1.2140  1.4403  0.4675
 1814TIP3   OH2 5405   4.189   0.263   0.629  0.0426 -0.1237 -0.1064
 1814TIP3    H1 5406   4.246   0.198   0.587 -1.2059 -0.4049 -1.4464
 1814TIP3    H2 5407   4.197   0.244   0.723  1.9368 -0.3076 -0.2581
 1815TIP3   OH2 5408   4.708   3.780   2.887 -0.0402 -0.1368  0.0446
 1815TIP3    H1 5409   4.645   3.750   2.953 -1.9420 -0.4107 -1.7914
 1815TIP3    H2 5410   4.739   3.864   2.920 -2.4978  0.7322  0.3793
 1816TIP3   OH2 5411   6.742   3.522   5.850  0.2351  1.0135 -0.2306
 1816TIP3    H1 5412   6.665   3.480   5.812  0.5173  0.6488 -0.4078
 1816TIP3    H2 5413   6.816   3.488   5.799  0.5547  1.0028  0.2292
 1817TIP3   OH2 5414   6.263   1.384   3.772 -0.4977 -0.9117  0.4928
 1817TIP3    H1 5415   6.290   1.475   3.755  1.8795 -1.0533  2.9448
 1817TIP3    H2 5416   6.274   1.340   3.688  4.6302 -0.2725  0.4948
 1818TIP3   OH2 5417   3.624   5.727   2.611 -0.5996 -0.1592 -0.2457
 1818TIP3    H1 5418   3.648   5.686   2.694  2.8817  0.0703 -1.0010
 1818TIP3    H2 5419   3.606   5.818   2.633 -1.5633 -0.5152  0.4813
 1819TIP3   OH2 5420   2.449   1.270   2.347 -0.1448  0.4307  0.3706
 1819TIP3    H1 5421   2.404   1.277   2.263  0.6565 -1.4403 -0.2868
 1819TIP3    H2 5422   2.541   1.255   2.323  0.4661  1.9644  1.6307
 1820TIP3   OH2 5423   4.764   1.376   5.695 -0.4582 -0.0881  0.4077
 1820TIP3    H1 5424   4.847   1.329   5.691  0.6307  1.7559  0.1529
 1820TIP3    H2 5425   4.752   1.412   5.607 -1.9417 -0.9381  0.2227
 1821TIP3   OH2 5426   5.868   4.253   2.871  0.1108  0.1740 -0.0127
 1821TIP3    H1 5427   5.851   4.161   2.848 -0.6002  0.0058  1.0897
 1821TIP3    H2 5428   5.893   4.250   2.963 -0.7814  1.1665  0.2779
 1822TIP3   OH2 5429   3.702   6.775   0.374  0.2315 -1.1139 -0.5265
 1822TIP3    H1 5430   3.706   6.805   0.284  0.9366  0.9481  0.1475
 1822TIP3    H2 5431   3.608   6.768   0.393 -0.0040  1.1649 -0.6065
 1823TIP3   OH2 5432   3.202   5.313   4.924  0.0461  0.0905  0.1210
 1823TIP3    H1 5433   3.225   5.386   4.981  2.1885  0.1131 -0.7134
 1823TIP3    H2 5434   3.155   5.354   4.851  0.3538  0.5056  0.1512
 1824TIP3   OH2 5435   2.529   2.481   5.900  0.4709  0.0161 -0.4306
 1824TIP3    H1 5436   2.483   2.419   5.843 -0.7655  2.0453 -1.8072
 1824TIP3    H2 5437   2.583   2.533   5.840  1.6264  0.1582  0.6976
 1825TIP3   OH2 5438   3.106   3.707   3.642  0.0327  0.2490 -0.6787
 1825TIP3    H1 5439   3.200   3.711   3.624  0.3333 -0.5201  0.5830
 1825TIP3    H2 5440   3.080   3.619   3.615 -0.1543  0.1802 -0.2770
 1826TIP3   OH2 5441   5.511   6.438   1.037 -0.4583  0.0785 -0.3945
 1826TIP3    H1 5442   5.572   6.366   1.016 -1.5430 -0.6062 -1.3003
 1826TIP3    H2 5443   5.477   6.416   1.123 -0.6751 -0.4250 -0.6049
 1827TIP3   OH2 5444   6.520   5.075   3.051 -0.3520 -0.8094  0.7935
 1827TIP3    H1 5445   6.496   5.033   3.134 -1.8309 -3.0789 -0.6669
 1827TIP3    H2 5446   6.452   5.048   2.990  1.3506 -0.2618 -1.4806
 1828TIP3   OH2 5447   2.830   3.828   0.335  0.4440  0.0252 -0.1120
 1828TIP3    H1 5448   2.812   3.898   0.397 -1.0345 -0.5708  0.1802
 1828TIP3    H2 5449   2.760   3.764   0.350 -0.0151 -0.1188 -2.4113
 1829TIP3   OH2 5450   0.732   0.554   1.941 -0.1505  0.4303  0.1478
 1829TIP3    H1 5451   0.676   0.627   1.915  0.9521  0.5766 -2.1257
 1829TIP3    H2 5452   0.677   0.498   1.996 -1.4490  2.2276  0.7354
 1830TIP3   OH2 5453   2.966   3.711   2.305  0.2068 -0.2731 -0.1051
 1830TIP3    H1 5454   2.914   3.689   2.382  1.6115 -0.9229  0.6928
 1830TIP3    H2 5455   2.969   3.630   2.254  1.0157 -0.4642  0.2233
 1831TIP3   OH2 5456   3.319   6.418   0.710 -0.1076  0.5518  0.6085
 1831TIP3    H1 5457   3.415   6.425   0.715 -0.1730  1.0788  1.2917
 1831TIP3    H2 5458   3.303   6.349   0.646  0.6897  2.6268 -2.0008
 1832TIP3   OH2 5459   2.537   1.264   0.381  0.2888  0.3057  0.6338
 1832TIP3    H1 5460   2.601   1.289   0.314 -1.4288 -0.6391 -1.4996
 1832TIP3    H2 5461   2.523   1.343   0.432  1.8790  0.9861  0.0860
 1833TIP3   OH2 5462   0.403   2.569   4.961  0.0988  0.6162  0.0850
 1833TIP3    H1 5463   0.484   2.521   4.946 -0.1170  0.2683  0.0178
 1833TIP3    H2 5464   0.406   2.641   4.899 -1.1227 -1.2166 -2.2344
 1834TIP3   OH2 5465   5.710   3.986   5.233 -0.2971  0.5208 -0.1299
 1834TIP3    H1 5466   5.708   3.924   5.160 -0.0817  2.0116 -1.4470
 1834TIP3    H2 5467   5.735   4.070   5.193 -1.1049  1.5927  1.5076
 1835TIP3   OH2 5468   1.287   1.452   5.734 -0.1820  0.0706  0.1679
 1835TIP3    H1 5469   1.367   1.448   5.683 -0.7149  0.9237 -0.7700
 1835TIP3    H2 5470   1.314   1.484   5.820  0.7650 -1.6398  0.5388
 1836TIP3   OH2 5471   6.803   5.519   1.056 -0.1744  0.2148 -0.2131
 1836TIP3    H1 5472   6.729   5.543   1.000  0.7061 -0.1005 -1.5343
 1836TIP3    H2 5473   6.799   5.582   1.128 -3.3012 -1.3829  1.2105
 1837TIP3   OH2 5474   1.971   3.527   5.727  0.1415  0.0813 -0.1871
 1837TIP3    H1 5475   2.002   3.547   5.638  0.9599 -1.9808 -0.4064
 1837TIP3    H2 5476   1.878   3.507   5.715 -0.0108  0.8794 -0.3951
 1838TIP3   OH2 5477   3.999   4.371   0.749  0.0212  0.2362 -0.1159
 1838TIP3    H1 5478   4.013   4.343   0.659 -0.5858  0.1884 -0.2024
 1838TIP3    H2 5479   4.045   4.454   0.756  1.4299 -0.5281  0.0019
 1839TIP3   OH2 5480   0.546   1.572   1.008 -0.1202  0.1980  0.0183
 1839TIP3    H1 5481   0.624   1.526   0.977  1.7352  3.0554  0.0227
 1839TIP3    H2 5482   0.493   1.585   0.929 -0.6686 -1.7696  0.0156
 1840TIP3   OH2 5483   3.649   5.192   3.928  0.7525  0.0199  0.0047
 1840TIP3    H1 5484   3.689   5.222   3.846 -0.2072 -0.3965 -0.6233
 1840TIP3    H2 5485   3.570   5.245   3.937  0.4710 -0.4440  0.2888
 1841TIP3   OH2 5486   6.555   2.836   1.626 -0.5696 -0.3405  0.3330
 1841TIP3    H1 5487   6.480   2.896   1.627 -0.5624 -0.2739 -1.0634
 1841TIP3    H2 5488   6.564   2.810   1.535 -1.1131 -3.2015  1.0033
 1842TIP3   OH2 5489   6.736   0.797   4.829 -0.0848  0.2430  0.4296
 1842TIP3    H1 5490   6.643   0.783   4.815 -0.0113 -0.2164  0.3808
 1842TIP3    H2 5491   6.758   0.872   4.773 -0.5079  0.6289  0.7686
 1843TIP3   OH2 5492   2.657   6.273   5.741  0.0209 -0.2067  0.0240
 1843TIP3    H1 5493   2.651   6.310   5.829 -1.1768 -0.7085  0.1856
 1843TIP3    H2 5494   2.566   6.250   5.719  0.1347  0.8611 -1.7667
 1844TIP3   OH2 5495   1.019   3.790   2.400  0.4675 -0.0592 -0.1525
 1844TIP3    H1 5496   1.033   3.705   2.357 -0.8668 -0.2071 -0.3246
 1844TIP3    H2 5497   0.964   3.771   2.475  0.4955  0.5997  0.0435
 1845TIP3   OH2 5498   6.043   3.494   1.851  0.5108  0.1287  0.2996
 1845TIP3    H1 5499   6.089   3.430   1.797  1.2565  0.1678  0.8750
 1845TIP3    H2 5500   6.084   3.486   1.937  0.9868  1.7639  0.2500
 1846TIP3   OH2 5501   6.994   4.843   3.975  0.1530  0.1411  0.1397
 1846TIP3    H1 5502   7.054   4.863   3.903 -0.4108  0.6541 -0.1957
 1846TIP3    H2 5503   6.954   4.760   3.951 -0.1407  0.3821 -0.2158
 1847TIP3   OH2 5504   4.920   5.433   2.619  0.4691  0.4848 -0.1160
 1847TIP3    H1 5505   4.965   5.367   2.567  2.0683  1.4906 -0.0786
 1847TIP3    H2 5506   4.966   5.515   2.600 -1.3196  1.5790 -0.0056
 1848TIP3   OH2 5507   5.640   6.385   5.180 -0.2521  0.0198 -1.2177
 1848TIP3    H1 5508   5.671   6.401   5.269 -0.4779 -1.2424 -0.8943
 1848TIP3    H2 5509   5.596   6.300   5.185 -1.2304  0.4427 -2.2960
 1849TIP3   OH2 5510   6.190   5.920   3.085  0.2442  0.5170 -0.0821
 1849TIP3    H1 5511   6.186   5.954   3.174  0.6476 -0.3057  0.2581
 1849TIP3    H2 5512   6.221   5.830   3.095  2.9981  1.2402 -1.2683
 1850TIP3   OH2 5513   2.731   5.805   4.938  0.3885 -0.5592  0.5861
 1850TIP3    H1 5514   2.666   5.872   4.961  0.6782 -0.0585 -0.0313
 1850TIP3    H2 5515   2.684   5.722   4.948 -0.6374 -0.1693 -0.7637
 1851TIP3   OH2 5516   1.351   5.935   3.041 -0.2359 -0.1148 -0.0209
 1851TIP3    H1 5517   1.266   5.891   3.036  0.2898 -1.0406 -1.2466
 1851TIP3    H2 5518   1.415   5.866   3.020  0.8452  0.5251  1.0079
 1852TIP3   OH2 5519   0.699   3.050   1.150 -0.6722 -0.4298 -0.4475
 1852TIP3    H1 5520   0.610   3.031   1.120 -0.5388 -2.2158  0.1888
 1852TIP3    H2 5521   0.755   2.997   1.094  0.0051  0.4498 -0.6388
 1853TIP3   OH2 5522   2.854   4.098   3.997 -0.1540 -0.0247  0.7376
 1853TIP3    H1 5523   2.773   4.072   3.954  0.1721 -0.3821  0.3292
 1853TIP3    H2 5524   2.836   4.186   4.032 -0.9591 -0.4129  1.3227
 1854TIP3   OH2 5525   1.711   0.601   5.707  0.0290 -0.9091  0.9339
 1854TIP3    H1 5526   1.707   0.513   5.670 -2.5770 -0.8066  0.8423
 1854TIP3    H2 5527   1.666   0.656   5.643  2.3282  0.7047  0.5834
 1855TIP3   OH2 5528   2.296   6.773   3.811 -0.1751 -0.0030 -0.4389
 1855TIP3    H1 5529   2.201   6.761   3.806 -0.1424 -1.3199  1.2277
 1855TIP3    H2 5530   2.331   6.684   3.804  0.7572  0.1434  1.6671
 1856TIP3   OH2 5531   3.833   0.616   2.088  0.2468  0.0035 -0.1568
 1856TIP3    H1 5532   3.742   0.638   2.066 -0.0468 -1.2536 -0.2780
 1856TIP3    H2 5533   3.876   0.606   2.003  0.4196  0.3040 -0.1031
 1857TIP3   OH2 5534   6.871  -0.025   4.782  0.1848  0.0566  0.2514
 1857TIP3    H1 5535   6.850   0.041   4.716 -0.8840 -1.1640 -0.6757
 1857TIP3    H2 5536   6.893   0.025   4.860  2.0517  1.5692 -1.1491
 1858TIP3   OH2 5537   5.053   1.156   1.806  0.1283  0.6948  0.1414
 1858TIP3    H1 5538   4.980   1.208   1.840 -0.5783 -1.1526  1.6420
 1858TIP3    H2 5539   5.020   1.118   1.725  0.4654  2.1071 -0.6837
 1859TIP3   OH2 5540   5.882   5.051   1.888  0.3214  0.3564 -0.2441
 1859TIP3    H1 5541   5.817   4.992   1.848 -0.2818  1.6694 -1.2701
 1859TIP3    H2 5542   5.860   5.050   1.981  0.5766 -1.3253 -0.1641
 1860TIP3   OH2 5543   3.749   4.833   1.292  0.0614  0.3278  0.4586
 1860TIP3    H1 5544   3.723   4.750   1.252  0.6747  0.8631 -1.1668
 1860TIP3    H2 5545   3.815   4.868   1.232 -0.0926  1.9239  1.1759
 1861TIP3   OH2 5546   2.612   3.477   2.940 -0.3359 -0.0753 -0.0225
 1861TIP3    H1 5547   2.532   3.487   2.993  0.0454 -0.9132  0.7405
 1861TIP3    H2 5548   2.666   3.417   2.991 -0.3783 -1.7664 -1.8676
 1862TIP3   OH2 5549   4.858   1.397   0.162  0.2437  0.1484 -0.0629
 1862TIP3    H1 5550   4.811   1.380   0.244 -0.5986  1.0234 -0.3372
 1862TIP3    H2 5551   4.860   1.493   0.156  0.9904  0.0975 -0.6784
 1863TIP3   OH2 5552   4.548   6.254   3.213 -0.6029 -0.0981 -0.1447
 1863TIP3    H1 5553   4.545   6.164   3.182  0.1913  0.6467 -2.6849
 1863TIP3    H2 5554   4.638   6.267   3.242 -0.1431  0.3668 -1.6618
 1864TIP3   OH2 5555   6.531   2.450   1.138  0.6503 -0.0655  0.3477
 1864TIP3    H1 5556   6.477   2.376   1.112  1.1841 -0.3270 -0.0233
 1864TIP3    H2 5557   6.476   2.499   1.200  0.0634 -0.4279  0.1206
 1865TIP3   OH2 5558   1.283   2.302   2.808 -0.1153  0.8026  0.6118
 1865TIP3    H1 5559   1.201   2.261   2.836  0.3779  0.3410  1.4107
 1865TIP3    H2 5560   1.349   2.235   2.821  0.3118  0.9323 -0.6904
 1866TIP3   OH2 5561   5.282   1.300   2.174 -0.3954 -0.5107  0.1490
 1866TIP3    H1 5562   5.357   1.359   2.180 -0.4734 -0.2190 -1.3324
 1866TIP3    H2 5563   5.265   1.273   2.265 -1.1417  2.7048  1.0888
 1867TIP3   OH2 5564   0.606   5.956   0.312  0.0891  0.3556  0.3224
 1867TIP3    H1 5565   0.657   6.005   0.247  2.9474 -2.2111  0.3654
 1867TIP3    H2 5566   0.533   5.919   0.262  1.0175  0.1709 -0.9539
 1868TIP3   OH2 5567   5.953   4.403   0.868 -0.0822  0.1857 -0.0558
 1868TIP3    H1 5568   5.985   4.493   0.862  1.2324 -0.1936  0.7667
 1868TIP3    H2 5569   5.907   4.387   0.786 -1.3235  1.9593  0.2431
 1869TIP3   OH2 5570   3.440   2.440   2.576 -0.3276  0.1564 -0.4122
 1869TIP3    H1 5571   3.370   2.413   2.636  0.6322 -1.1427  0.1774
 1869TIP3    H2 5572   3.520   2.412   2.620  0.5781  1.6464 -1.0548
 1870TIP3   OH2 5573   3.172   2.241   2.238 -0.1467 -0.7067 -0.5393
 1870TIP3    H1 5574   3.078   2.228   2.253  0.1019 -0.5415  1.3168
 1870TIP3    H2 5575   3.202   2.159   2.198 -0.8417 -1.2666  0.0640
 1871TIP3   OH2 5576   2.210   3.789   3.059 -0.0364  0.2250 -0.6094
 1871TIP3    H1 5577   2.220   3.826   2.971  1.4892  0.2719 -0.4508
 1871TIP3    H2 5578   2.118   3.803   3.081  0.0148  2.1188 -1.3728
 1872TIP3   OH2 5579   0.899   3.856   1.304  0.1448 -0.2212 -0.5547
 1872TIP3    H1 5580   0.921   3.920   1.372  0.0433 -2.5529  1.8568
 1872TIP3    H2 5581   0.811   3.880   1.276 -0.2883  0.1617  1.0145
 1873TIP3   OH2 5582   5.210   5.148   3.399  0.7050 -0.0870 -0.1101
 1873TIP3    H1 5583   5.229   5.105   3.316 -1.6321 -0.7713 -0.3709
 1873TIP3    H2 5584   5.184   5.237   3.375  1.4051  0.1581  0.0306
 1874TIP3   OH2 5585   5.263   2.823   2.035 -0.2608 -0.0462 -0.1057
 1874TIP3    H1 5586   5.278   2.895   1.974  2.0695  1.8804  2.4830
 1874TIP3    H2 5587   5.335   2.762   2.017 -1.1533 -0.8634 -1.0330
 1875TIP3   OH2 5588   5.516   2.072   2.597 -0.4358 -0.1785 -0.0840
 1875TIP3    H1 5589   5.608   2.093   2.607 -0.3109 -0.6201 -0.2790
 1875TIP3    H2 5590   5.470   2.138   2.649  0.0548 -0.7314  1.1029
 1876TIP3   OH2 5591   5.050   3.248   0.267 -0.4842 -0.5098 -0.2373
 1876TIP3    H1 5592   5.085   3.232   0.179 -1.0396 -0.6375 -0.4412
 1876TIP3    H2 5593   4.962   3.209   0.265 -2.4462  3.3934 -1.1186
 1877TIP3   OH2 5594   5.014   3.039   3.457 -0.1470 -0.6104 -0.1016
 1877TIP3    H1 5595   5.106   3.018   3.473  0.1764  1.2593  0.6957
 1877TIP3    H2 5596   5.002   3.021   3.364  0.8591 -1.3811 -0.1081
 1878TIP3   OH2 5597   6.953   0.169   0.392  0.4585  0.4757 -0.5110
 1878TIP3    H1 5598   6.959   0.077   0.369 -1.8767  0.2088 -0.3645
 1878TIP3    H2 5599   6.972   0.172   0.486 -0.2884 -0.0207 -0.3319
 1879TIP3   OH2 5600   5.575   2.402   5.163  0.8909  0.2740 -0.2891
 1879TIP3    H1 5601   5.615   2.428   5.246 -1.5864  0.2066  1.0398
 1879TIP3    H2 5602   5.617   2.319   5.141  0.1938 -0.7864  2.0473
 1880TIP3   OH2 5603   2.672   6.768   3.719  0.1455  0.3575 -0.8912
 1880TIP3    H1 5604   2.677   6.777   3.624  3.0095 -1.1423 -0.9852
 1880TIP3    H2 5605   2.609   6.697   3.733 -2.3402  2.3173 -1.4208
 1881TIP3   OH2 5606   7.208   0.522   2.632 -0.5919 -0.1243 -0.0728
 1881TIP3    H1 5607   7.168   0.560   2.554 -0.5580  0.1648  0.0491
 1881TIP3    H2 5608   7.133   0.490   2.684 -0.5842 -0.8702 -0.4988
 1882TIP3   OH2 5609   3.709   4.595   1.162  0.5623 -0.0408 -0.1541
 1882TIP3    H1 5610   3.644   4.525   1.170  0.7747 -0.1469  0.7483
 1882TIP3    H2 5611   3.688   4.637   1.078 -1.0460  0.3039  0.3738
 1883TIP3   OH2 5612   4.532   0.024   2.716 -0.1774  0.7999 -0.0556
 1883TIP3    H1 5613   4.556   0.112   2.686 -0.6047  0.9967  0.1665
 1883TIP3    H2 5614   4.531   0.031   2.811  2.2175 -0.0921  0.1010
 1884TIP3   OH2 5615   2.685   0.436   1.209 -0.1469  0.0410 -0.1354
 1884TIP3    H1 5616   2.738   0.480   1.142  0.9889 -0.8744  0.1298
 1884TIP3    H2 5617   2.679   0.499   1.280 -0.8398  0.7894 -0.8376
 1885TIP3   OH2 5618   1.367   4.784   3.934 -0.5001  0.3433  0.1023
 1885TIP3    H1 5619   1.283   4.740   3.933 -0.4429  0.1971  0.9306
 1885TIP3    H2 5620   1.404   4.765   4.020  0.4577  0.2586 -0.3042
 1886TIP3   OH2 5621   2.874   4.391   2.895  0.1306  0.1762  0.1895
 1886TIP3    H1 5622   2.841   4.439   2.972 -0.1307  0.7906 -0.2941
 1886TIP3    H2 5623   2.968   4.384   2.911  0.0392  0.0286  0.7082
 1887TIP3   OH2 5624   6.909   0.794   0.687  0.1612  0.3375 -0.2996
 1887TIP3    H1 5625   6.849   0.816   0.616 -0.4159 -0.2592 -0.0003
 1887TIP3    H2 5626   6.859   0.809   0.767  0.0436 -1.1779 -0.0617
 1888TIP3   OH2 5627   4.773   2.372   2.824  0.3074 -0.2028 -0.0172
 1888TIP3    H1 5628   4.811   2.450   2.864 -0.3855  0.0379  0.1835
 1888TIP3    H2 5629   4.725   2.406   2.748  0.0146 -0.4422  0.0627
 1889TIP3   OH2 5630   1.066   4.096   0.766 -0.5036  0.1064 -0.3501
 1889TIP3    H1 5631   1.027   4.063   0.685  0.4732 -0.1660 -0.7246
 1889TIP3    H2 5632   1.161   4.096   0.748 -0.3141  0.4616  0.6347
 1890TIP3   OH2 5633   3.048   4.113   0.484 -0.1410 -0.1430  0.1687
 1890TIP3    H1 5634   3.054   4.166   0.563  1.8481 -0.3176  0.1942
 1890TIP3    H2 5635   3.136   4.116   0.447 -0.7350 -1.0447 -1.3973
 1891TIP3   OH2 5636   1.387   4.552   1.828  0.2330 -0.4953 -0.1709
 1891TIP3    H1 5637   1.465   4.604   1.848 -0.1244  0.9356 -2.1762
 1891TIP3    H2 5638   1.412   4.498   1.753 -1.0899  1.2165 -1.9698
 1892TIP3   OH2 5639   2.166   1.570   4.332 -0.6264 -0.5645  0.5109
 1892TIP3    H1 5640   2.203   1.486   4.357 -1.2246 -1.0147 -0.0829
 1892TIP3    H2 5641   2.076   1.567   4.365 -2.1514 -1.9975 -3.2193
 1893TIP3   OH2 5642   6.166   3.423   0.577  0.2043 -0.5393  0.3058
 1893TIP3    H1 5643   6.098   3.402   0.641 -0.8101 -1.0219 -0.8916
 1893TIP3    H2 5644   6.117   3.445   0.497  1.4706 -1.1234 -0.6493
 1894TIP3   OH2 5645   6.306   6.069   2.184 -0.0947  0.2426 -0.4329
 1894TIP3    H1 5646   6.269   6.102   2.266  0.5863  1.0328 -0.4269
 1894TIP3    H2 5647   6.395   6.044   2.207 -0.3244 -0.7958 -0.6461
 1895TIP3   OH2 5648   0.216   4.398   0.567 -0.2330  0.0111 -0.4957
 1895TIP3    H1 5649   0.201   4.306   0.547 -1.0635 -0.0700  0.4446
 1895TIP3    H2 5650   0.133   4.441   0.550 -0.4869  0.2141  1.0792
 1896TIP3   OH2 5651   1.883   4.896   3.281 -0.4597  0.0633 -0.3855
 1896TIP3    H1 5652   1.884   4.801   3.283 -1.1238  0.0473 -0.6829
 1896TIP3    H2 5653   1.866   4.918   3.189 -1.1384  0.4544 -0.1717
 1897TIP3   OH2 5654   0.067   6.401   5.287 -0.3734 -0.0929 -0.4715
 1897TIP3    H1 5655   0.037   6.347   5.214  0.5475 -0.8268 -0.3128
 1897TIP3    H2 5656   0.157   6.374   5.303 -0.1597  0.9106  0.1586
 1898TIP3   OH2 5657   6.947   3.013   1.307  0.0277 -0.4566  0.0181
 1898TIP3    H1 5658   6.853   3.026   1.294 -0.1516 -0.5200  1.1913
 1898TIP3    H2 5659   6.981   3.100   1.327  0.1635 -0.4888 -0.0745
 1899TIP3   OH2 5660   6.038   2.366   1.571 -0.3346 -0.3816  0.0445
 1899TIP3    H1 5661   6.025   2.303   1.643 -0.1785  0.2663  0.6445
 1899TIP3    H2 5662   5.992   2.326   1.497 -1.1825 -0.6779  0.7143
 1900TIP3   OH2 5663   2.890   0.689   3.308 -0.5998 -0.2168 -0.0600
 1900TIP3    H1 5664   2.825   0.622   3.291 -0.4585 -0.1250 -0.9818
 1900TIP3    H2 5665   2.974   0.648   3.289 -0.5755  0.5401 -1.7848
 1901TIP3   OH2 5666   5.151   1.957   1.964  0.2420 -0.5381 -0.0641
 1901TIP3    H1 5667   5.088   2.024   1.940  1.7179  0.4757 -1.3337
 1901TIP3    H2 5668   5.142   1.891   1.895  1.2375  0.1064 -0.8375
 1902TIP3   OH2 5669   4.789   5.112   4.642  0.7262 -0.4523 -0.2871
 1902TIP3    H1 5670   4.744   5.028   4.654  0.3153 -0.3104 -0.8131
 1902TIP3    H2 5671   4.867   5.090   4.591  1.4020 -0.7362  0.8307
 1903TIP3   OH2 5672   5.994   5.262   4.716  0.2396 -0.0967  0.1030
 1903TIP3    H1 5673   6.004   5.217   4.799  0.2038  0.3080  0.3276
 1903TIP3    H2 5674   5.957   5.196   4.657  0.4166 -0.4259  0.3646
 1904TIP3   OH2 5675   1.645   1.072   4.118  0.2129  0.4216  0.3861
 1904TIP3    H1 5676   1.616   1.164   4.115 -0.9250  0.1074  1.1498
 1904TIP3    H2 5677   1.567   1.022   4.094  0.8387 -0.3587 -0.0609
 1905TIP3   OH2 5678   4.133   5.828   3.081 -0.3844  0.4462 -0.2524
 1905TIP3    H1 5679   4.133   5.908   3.029 -0.5635  0.0737 -0.8457
 1905TIP3    H2 5680   4.220   5.790   3.065 -0.2216  0.6290  0.1971
 1906TIP3   OH2 5681   0.470   4.085   2.060  0.2865 -0.7049 -0.5036
 1906TIP3    H1 5682   0.426   4.008   2.095 -2.0327  0.7707  0.0411
 1906TIP3    H2 5683   0.409   4.157   2.076  2.7401  1.4377 -0.1202
 1907TIP3   OH2 5684   0.978   3.558   4.561 -0.3546 -0.5675 -0.4990
 1907TIP3    H1 5685   0.977   3.513   4.645 -1.1504 -0.4460 -0.4391
 1907TIP3    H2 5686   0.982   3.488   4.496  0.0660 -0.6676 -0.3686
 1908TIP3   OH2 5687   4.903   1.857   5.567  0.2716  0.3221 -0.0768
 1908TIP3    H1 5688   4.917   1.801   5.643 -0.0540  0.0777 -0.1940
 1908TIP3    H2 5689   4.991   1.871   5.531  0.4403  0.5663  0.4311
 1909TIP3   OH2 5690   3.458   4.971   5.245 -0.2243 -0.0104  0.6281
 1909TIP3    H1 5691   3.427   5.061   5.257 -0.3162  0.0841 -0.2255
 1909TIP3    H2 5692   3.402   4.918   5.303  0.9878  0.6593  2.4932
 1910TIP3   OH2 5693   4.407   1.738   2.137 -0.1267 -0.1819  0.1239
 1910TIP3    H1 5694   4.404   1.763   2.229  1.3666 -0.7905  0.3826
 1910TIP3    H2 5695   4.338   1.673   2.127 -0.6206  0.2502  0.6918
 1911TIP3   OH2 5696   1.664   2.562   4.982 -0.3406  0.4963  0.3895
 1911TIP3    H1 5697   1.580   2.524   5.008 -0.2990 -1.0508 -1.4674
 1911TIP3    H2 5698   1.703   2.593   5.063 -2.1452  0.0900  1.4605
 1912TIP3   OH2 5699   5.297   3.119   4.756  0.2170 -0.5626 -0.0419
 1912TIP3    H1 5700   5.219   3.153   4.800 -0.8410 -1.7824 -0.8669
 1912TIP3    H2 5701   5.368   3.133   4.818 -0.8499 -0.3753  1.1882
 1913TIP3   OH2 5702   6.091   1.462   2.335 -0.6004 -0.2264 -0.7348
 1913TIP3    H1 5703   6.109   1.463   2.429  2.2624  0.3518 -1.2020
 1913TIP3    H2 5704   6.113   1.372   2.308 -0.2343 -0.0491 -1.0328
 1914TIP3   OH2 5705   0.879   5.413   2.508  0.1265  0.2612 -0.3190
 1914TIP3    H1 5706   0.823   5.340   2.533 -0.0561  0.1796 -0.9383
 1914TIP3    H2 5707   0.831   5.458   2.438  0.4662  0.6733 -0.2953
 1915TIP3   OH2 5708   1.374   0.407   4.301  0.5790 -0.5319  0.0101
 1915TIP3    H1 5709   1.395   0.499   4.315  0.1295 -0.4222  0.0061
 1915TIP3    H2 5710   1.446   0.372   4.248  1.8547 -0.7202  1.7770
 1916TIP3   OH2 5711   1.747   1.305   1.976 -0.2750  0.2441 -0.0093
 1916TIP3    H1 5712   1.734   1.212   1.996  0.9778  0.1443  0.3965
 1916TIP3    H2 5713   1.692   1.351   2.038 -0.4271 -0.2115  0.1986
 1917TIP3   OH2 5714   1.904   3.421   3.242 -0.1744  0.1881 -0.2796
 1917TIP3    H1 5715   1.825   3.475   3.229  0.0611  0.3885 -0.9563
 1917TIP3    H2 5716   1.873   3.345   3.291 -0.8758  0.0839 -0.8606
 1918TIP3   OH2 5717   2.329   4.486   3.962 -0.4382 -0.3979  0.0595
 1918TIP3    H1 5718   2.353   4.575   3.935 -0.0422 -0.5573 -0.1200
 1918TIP3    H2 5719   2.376   4.473   4.044 -1.0446 -0.1922  0.4485
 1919TIP3   OH2 5720   1.134   6.501   3.171  0.1450 -0.6306 -0.0052
 1919TIP3    H1 5721   1.188   6.520   3.095 -0.8745 -1.7683 -1.0477
 1919TIP3    H2 5722   1.135   6.406   3.179 -1.6018 -0.6865 -0.0183
 1920TIP3   OH2 5723   2.102   5.173   1.536 -0.0605 -0.3911  0.3215
 1920TIP3    H1 5724   2.067   5.163   1.448 -1.0320 -0.5930  0.7101
 1920TIP3    H2 5725   2.108   5.268   1.549  0.3543 -0.3641 -0.0610
 1921TIP3   OH2 5726   6.226   3.931   0.644  0.2316  0.2149 -0.6273
 1921TIP3    H1 5727   6.178   3.911   0.724  2.1666  0.6603  0.7281
 1921TIP3    H2 5728   6.194   4.017   0.618 -0.0131  0.3209 -0.0017
 1922TIP3   OH2 5729   3.421   3.296   5.059  0.0990 -0.0553 -0.1561
 1922TIP3    H1 5730   3.486   3.260   5.119 -0.2971 -0.6345 -0.0684
 1922TIP3    H2 5731   3.391   3.221   5.008 -0.2270  0.2720 -0.4531
 1923TIP3   OH2 5732   1.391   1.375   1.207  0.6170 -0.0042  0.1534
 1923TIP3    H1 5733   1.319   1.314   1.189 -0.0253  1.1204 -1.3266
 1923TIP3    H2 5734   1.411   1.362   1.300 -0.7169 -1.1641  0.3164
 1924TIP3   OH2 5735   7.124   5.456   4.123 -0.1478 -0.5054  0.1012
 1924TIP3    H1 5736   7.206   5.492   4.156 -0.1295  1.5002 -1.9243
 1924TIP3    H2 5737   7.059   5.524   4.140 -1.4564 -2.0174  1.5732
 1925TIP3   OH2 5738   4.589   0.811   3.146 -0.1025 -0.1574 -0.5462
 1925TIP3    H1 5739   4.591   0.786   3.054 -1.8916 -0.1069 -0.6508
 1925TIP3    H2 5740   4.496   0.828   3.163  0.2146 -0.0588  1.2385
 1926TIP3   OH2 5741   5.929   0.922   4.925 -0.4239  0.2799 -0.6283
 1926TIP3    H1 5742   5.869   0.979   4.877 -0.9443 -0.5326 -0.9768
 1926TIP3    H2 5743   5.908   0.834   4.893  0.4206 -0.0966 -0.1742
 1927TIP3   OH2 5744   4.442   1.378   5.695  0.1200 -0.3900 -0.6178
 1927TIP3    H1 5745   4.402   1.387   5.609  1.3498 -0.4801 -1.2042
 1927TIP3    H2 5746   4.534   1.401   5.683  0.1460  0.4539  0.8444
 1928TIP3   OH2 5747   5.159   6.042   1.364 -0.2358  0.1901 -0.2190
 1928TIP3    H1 5748   5.224   6.026   1.432  0.2513  1.2554 -0.4134
 1928TIP3    H2 5749   5.132   5.955   1.335 -0.8597 -0.2963  1.7034
 1929TIP3   OH2 5750   6.845   5.940   0.179 -0.6512 -0.2720  0.2790
 1929TIP3    H1 5751   6.854   5.944   0.084 -1.1907  2.6680  0.2334
 1929TIP3    H2 5752   6.797   5.859   0.196 -0.1638 -1.0859 -1.8914
 1930TIP3   OH2 5753   3.104   1.902   4.813  0.0689 -0.0713 -0.6027
 1930TIP3    H1 5754   3.193   1.934   4.804  0.1825 -0.4823 -1.0003
 1930TIP3    H2 5755   3.072   1.941   4.894  0.5648  0.1771 -0.5237
 1931TIP3   OH2 5756   1.375   0.673   0.041  0.4128  0.1890 -0.2002
 1931TIP3    H1 5757   1.458   0.717   0.060  1.1332 -0.0411 -2.5489
 1931TIP3    H2 5758   1.359   0.617   0.117  1.2246  1.8988  1.3076
 1932TIP3   OH2 5759   1.738   3.164   3.554  0.3114  0.0909  0.2552
 1932TIP3    H1 5760   1.808   3.225   3.578  2.0166 -0.8326 -1.9481
 1932TIP3    H2 5761   1.699   3.203   3.475 -0.2044 -0.4718  0.2276
 1933TIP3   OH2 5762   0.859   5.839   1.686  0.5395 -0.7803 -0.1525
 1933TIP3    H1 5763   0.802   5.895   1.634 -2.2447 -1.6287  1.7557
 1933TIP3    H2 5764   0.945   5.881   1.681 -0.5820  1.5242 -1.8210
 1934TIP3   OH2 5765   2.012   2.510   3.151 -0.3046 -0.2462  0.1143
 1934TIP3    H1 5766   2.020   2.434   3.209  1.1173 -0.6336 -0.5473
 1934TIP3    H2 5767   1.939   2.561   3.188 -0.9126 -1.6262  0.9009
 1935TIP3   OH2 5768   2.747   6.218   2.257 -0.1165 -0.0578 -0.0038
 1935TIP3    H1 5769   2.702   6.262   2.185  0.6688 -0.5790 -0.8243
 1935TIP3    H2 5770   2.696   6.137   2.271  0.3568 -0.4877 -0.7134
 1936TIP3   OH2 5771   3.900   6.235   2.885  0.1945  0.3075  0.1593
 1936TIP3    H1 5772   3.806   6.233   2.864  0.2246  2.3408 -0.4407
 1936TIP3    H2 5773   3.938   6.289   2.816  1.8341 -0.5159  0.3855
 1937TIP3   OH2 5774   0.641   5.841   2.442 -0.3648  0.2599  0.1915
 1937TIP3    H1 5775   0.604   5.922   2.479  1.6178  0.5431  1.7291
 1937TIP3    H2 5776   0.657   5.785   2.518 -0.0152 -0.8419 -0.6764
 1938TIP3   OH2 5777  -0.010   5.986   1.780 -0.0236  0.1104 -0.1639
 1938TIP3    H1 5778   0.053   5.915   1.763 -1.0543 -0.4045 -2.1517
 1938TIP3    H2 5779   0.029   6.036   1.851  1.8956 -1.0648 -0.3201
 1939TIP3   OH2 5780   4.174   1.775   5.319  0.1801 -0.0600  0.1161
 1939TIP3    H1 5781   4.266   1.802   5.317  0.5683 -1.3505 -0.1686
 1939TIP3    H2 5782   4.138   1.806   5.236  0.3644  0.4080  0.2104
 1940TIP3   OH2 5783   0.129   2.620   4.112  0.0089 -0.3763  0.4934
 1940TIP3    H1 5784   0.221   2.595   4.123  0.3400 -0.4732 -1.9914
 1940TIP3    H2 5785   0.104   2.585   4.027 -2.1406  0.2744  0.7932
 1941TIP3   OH2 5786   5.803   1.470   0.845 -0.0910  0.0274  0.4052
 1941TIP3    H1 5787   5.733   1.476   0.911 -0.1955  0.5088  0.2543
 1941TIP3    H2 5788   5.757   1.456   0.762 -0.0083  0.3881  0.2995
 1942TIP3   OH2 5789   5.124   5.488   4.049  0.4294 -0.3015 -0.2543
 1942TIP3    H1 5790   5.103   5.435   3.972  0.0645  1.6685 -1.5662
 1942TIP3    H2 5791   5.195   5.545   4.020 -0.9972  1.8266  0.2017
 1943TIP3   OH2 5792   0.668   4.621   0.856  0.3380  0.4294 -0.2538
 1943TIP3    H1 5793   0.610   4.560   0.810  1.0507 -0.8436  0.4687
 1943TIP3    H2 5794   0.611   4.693   0.883 -0.8712 -0.6676  0.2103
 1944TIP3   OH2 5795   2.601  -0.012   1.011  0.4847 -0.0462  0.3510
 1944TIP3    H1 5796   2.602  -0.043   1.102  0.6820  0.9217  0.6880
 1944TIP3    H2 5797   2.543   0.064   1.012  0.5298  0.0042 -0.3331
 1945TIP3   OH2 5798   6.811   0.640   2.413 -0.3542  0.8420  0.0470
 1945TIP3    H1 5799   6.773   0.728   2.412  0.7957  1.4031  1.6458
 1945TIP3    H2 5800   6.781   0.602   2.495 -1.3155 -0.5151 -0.8969
 1946TIP3   OH2 5801   0.000   2.005   3.739 -0.1860 -0.1677 -0.0760
 1946TIP3    H1 5802   0.022   1.959   3.657 -0.9938 -0.6642 -0.0220
 1946TIP3    H2 5803   0.075   1.989   3.796 -0.3403 -1.2308 -0.1479
 1947TIP3   OH2 5804   0.438   6.421   2.919 -0.3200 -0.0250 -0.4045
 1947TIP3    H1 5805   0.400   6.369   2.990  0.2006 -1.2446 -0.9877
 1947TIP3    H2 5806   0.519   6.455   2.955  0.7056 -1.8799 -0.8378
 1948TIP3   OH2 5807   5.007   1.544   0.430 -0.1536  0.4144  0.5841
 1948TIP3    H1 5808   4.926   1.528   0.478  0.3765 -0.4285  1.2349
 1948TIP3    H2 5809   5.059   1.597   0.490  1.2171 -2.0826  1.7925
 1949TIP3   OH2 5810   4.063   3.380   4.704  0.3818  0.4813 -0.5350
 1949TIP3    H1 5811   4.049   3.357   4.612  0.4134  0.4507 -0.5324
 1949TIP3    H2 5812   4.059   3.296   4.750  0.8162  0.4402 -0.5645
 1950TIP3   OH2 5813   0.572   6.747   4.196 -0.6694  0.0394 -0.3871
 1950TIP3    H1 5814   0.532   6.661   4.188  0.5166 -0.6795  1.0834
 1950TIP3    H2 5815   0.515   6.804   4.144 -1.5513 -1.5791 -1.2801
 1951TIP3   OH2 5816   6.951   3.010   0.908  0.2206 -0.3329  0.0254
 1951TIP3    H1 5817   6.866   3.009   0.952  0.1440 -0.2073 -0.1178
 1951TIP3    H2 5818   6.937   2.964   0.826  0.7191 -1.8477  0.7613
 1952TIP3   OH2 5819   6.939   2.457   4.157 -0.4637  0.4312  0.0240
 1952TIP3    H1 5820   6.899   2.369   4.153 -0.9411  0.5912  1.0439
 1952TIP3    H2 5821   6.880   2.511   4.105 -0.5663  0.2946 -0.0038
 1953TIP3   OH2 5822   3.808   1.200   2.955 -0.0646  0.3833 -0.3219
 1953TIP3    H1 5823   3.892   1.234   2.922 -0.5226  1.7154 -0.1781
 1953TIP3    H2 5824   3.817   1.105   2.949  1.7361  0.4756  0.3940
 1954TIP3   OH2 5825   6.025   4.653   0.841  0.5377  0.7066  0.4307
 1954TIP3    H1 5826   6.118   4.634   0.852  0.5371  0.5340  0.1328
 1954TIP3    H2 5827   6.024   4.742   0.804  0.6978 -0.3323 -2.2627
 1955TIP3   OH2 5828   6.796   0.486   1.432  0.0252  0.3638  0.4693
 1955TIP3    H1 5829   6.846   0.414   1.470  0.2995  0.6591  0.6773
 1955TIP3    H2 5830   6.781   0.546   1.505 -0.5242  0.3409  0.3805
 1956TIP3   OH2 5831   3.937   1.185   5.711 -0.4659 -0.3924 -0.3969
 1956TIP3    H1 5832   3.894   1.270   5.705 -0.2780 -0.1612  1.2441
 1956TIP3    H2 5833   4.020   1.203   5.756 -1.6430 -1.8013  2.5570
 1957TIP3   OH2 5834   0.281   1.135   5.464 -0.7549  0.2379 -0.2490
 1957TIP3    H1 5835   0.262   1.101   5.551  0.1899  0.7426  0.1764
 1957TIP3    H2 5836   0.199   1.127   5.416 -1.0412 -0.8723  0.4098
 1958TIP3   OH2 5837   2.863   3.849   1.674  0.2656 -0.2904 -0.4354
 1958TIP3    H1 5838   2.804   3.916   1.639 -0.5465 -0.3613  0.7472
 1958TIP3    H2 5839   2.816   3.813   1.750  1.6210 -0.6958  0.2387
 1959TIP3   OH2 5840   2.208   5.399   5.086 -0.1354  0.2412  0.1016
 1959TIP3    H1 5841   2.250   5.462   5.028 -0.8469  0.1950 -0.4635
 1959TIP3    H2 5842   2.170   5.333   5.028 -1.2453  0.4310  0.5914
 1960TIP3   OH2 5843   7.021   4.003   4.143  0.0917  0.0742 -0.7591
 1960TIP3    H1 5844   7.007   4.097   4.158 -0.3611 -0.2922  1.6390
 1960TIP3    H2 5845   7.052   3.970   4.228 -1.2811 -2.1969 -1.0447
 1961TIP3   OH2 5846   3.453   2.688   2.034  0.6027 -0.3033  0.1061
 1961TIP3    H1 5847   3.412   2.702   2.119 -0.1881 -1.3700 -0.0821
 1961TIP3    H2 5848   3.541   2.655   2.055  1.0400  1.0666  0.5015
 1962TIP3   OH2 5849   4.407   0.839   4.611 -0.0721 -0.1324  0.1103
 1962TIP3    H1 5850   4.440   0.881   4.532 -1.4377 -0.0130 -0.4155
 1962TIP3    H2 5851   4.387   0.750   4.585  0.9735 -0.5736  0.7398
 1963TIP3   OH2 5852   2.417   2.268   0.343  0.8409  0.4170 -0.4536
 1963TIP3    H1 5853   2.414   2.307   0.430  2.2383  1.4914 -0.8541
 1963TIP3    H2 5854   2.419   2.342   0.283 -1.7061 -0.2760 -1.5448
 1964TIP3   OH2 5855   1.218   0.087   1.674 -0.5448  0.4980 -0.2473
 1964TIP3    H1 5856   1.258   0.171   1.696 -0.1409  0.1935  0.2240
 1964TIP3    H2 5857   1.125   0.106   1.662 -0.4511  1.0124 -0.1630
 1965TIP3   OH2 5858   4.736   6.105   4.348  0.0924  0.4250 -0.1524
 1965TIP3    H1 5859   4.643   6.125   4.343  0.0944  0.3881 -0.3826
 1965TIP3    H2 5860   4.740   6.019   4.390 -0.0739 -0.2476 -1.4440
 1966TIP3   OH2 5861   5.143   6.355   0.201  0.6997 -0.4632  0.3747
 1966TIP3    H1 5862   5.233   6.364   0.171 -0.2030  0.2490 -2.3698
 1966TIP3    H2 5863   5.120   6.264   0.182  0.5025 -0.3422  0.0270
 1967TIP3   OH2 5864   1.038   6.254   3.481 -0.1769 -0.0450 -0.1020
 1967TIP3    H1 5865   1.066   6.345   3.484 -0.0750  0.0707 -2.7208
 1967TIP3    H2 5866   1.116   6.204   3.504  0.2523  0.4739 -0.4096
 1968TIP3   OH2 5867   0.511   0.694   3.620 -0.7620 -0.2327 -0.3261
 1968TIP3    H1 5868   0.431   0.724   3.664 -1.2276 -1.3553 -0.3630
 1968TIP3    H2 5869   0.549   0.630   3.680 -1.0229 -1.2585 -1.2158
 1969TIP3   OH2 5870   5.493   1.452   5.030  0.1339 -0.0329 -0.3541
 1969TIP3    H1 5871   5.553   1.518   4.996  0.5018 -0.2889 -0.2116
 1969TIP3    H2 5872   5.547   1.374   5.041 -0.4102 -0.5116 -0.9992
 1970TIP3   OH2 5873   1.343   6.601   0.620 -0.3293  0.5117  0.1426
 1970TIP3    H1 5874   1.256   6.562   0.612 -0.5775  1.0082  0.3956
 1970TIP3    H2 5875   1.403   6.530   0.595 -0.7034 -0.4312  1.7524
 1971TIP3   OH2 5876   3.226   2.573   1.168 -0.4904  0.1676 -0.4799
 1971TIP3    H1 5877   3.141   2.545   1.201 -0.0380  1.1356  1.7660
 1971TIP3    H2 5878   3.287   2.551   1.239  0.7814  1.3229 -1.1680
 1972TIP3   OH2 5879   6.426   5.633   0.894 -0.2246  0.7133  0.0563
 1972TIP3    H1 5880   6.510   5.662   0.858  0.6456  0.6818  1.9245
 1972TIP3    H2 5881   6.398   5.705   0.951  0.5782 -0.8135  2.5588
 1973TIP3   OH2 5882   6.917   1.183   2.786 -0.0440 -0.1136 -0.3195
 1973TIP3    H1 5883   6.952   1.224   2.706  0.7030 -1.9566 -0.9784
 1973TIP3    H2 5884   6.993   1.144   2.828 -0.7603 -1.0846  0.1130
 1974TIP3   OH2 5885   1.943   3.127   0.402  0.0678  0.5272 -0.1208
 1974TIP3    H1 5886   1.877   3.163   0.343  0.5450  0.4663 -0.7109
 1974TIP3    H2 5887   2.025   3.135   0.353  0.3178 -0.5108  0.0931
 1975TIP3   OH2 5888   1.797   2.563   1.904  0.7485 -0.3475  0.4610
 1975TIP3    H1 5889   1.836   2.493   1.955  1.7531 -0.3551 -0.2941
 1975TIP3    H2 5890   1.744   2.518   1.838  0.5508 -0.3619  0.6263
 1976TIP3   OH2 5891   0.985   6.651   4.136 -0.2285 -0.2917 -0.1706
 1976TIP3    H1 5892   1.068   6.639   4.184  1.0766  0.1300 -2.1971
 1976TIP3    H2 5893   0.980   6.574   4.079 -0.8032  0.0955 -0.6499
 1977TIP3   OH2 5894   5.459   0.008   4.016 -0.1191 -0.2415  0.2715
 1977TIP3    H1 5895   5.494   0.097   4.019 -2.1776  0.6082  0.9042
 1977TIP3    H2 5896   5.429  -0.004   3.926 -0.8568  0.1475  0.4580
 1978TIP3   OH2 5897   2.757   0.189   0.803  0.8020 -0.2234 -0.1826
 1978TIP3    H1 5898   2.803   0.178   0.720 -1.5799  0.3620 -1.6772
 1978TIP3    H2 5899   2.741   0.284   0.809 -1.1401 -0.5000 -0.3107
 1979TIP3   OH2 5900   2.809   2.290   2.511  0.2728  0.3099 -0.5218
 1979TIP3    H1 5901   2.720   2.315   2.486 -0.5616 -2.1144 -0.2542
 1979TIP3    H2 5902   2.854   2.373   2.526 -1.3368  1.6741 -2.6308
 1980TIP3   OH2 5903   6.301   2.874   0.683 -0.2063 -0.5700 -0.3443
 1980TIP3    H1 5904   6.247   2.870   0.762  0.4668 -2.2816  0.0721
 1980TIP3    H2 5905   6.306   2.967   0.662  0.6046  0.0923  2.3386
 1981TIP3   OH2 5906   3.943   4.219   2.610 -0.0249  0.0245  0.5747
 1981TIP3    H1 5907   3.862   4.221   2.662  0.1771 -0.8038  0.9393
 1981TIP3    H2 5908   4.012   4.201   2.673  0.5783  1.5004  0.3921
 1982TIP3   OH2 5909   5.595   4.391   1.924 -0.4393 -0.4051  0.5032
 1982TIP3    H1 5910   5.680   4.385   1.881 -0.2469 -1.9240  1.0369
 1982TIP3    H2 5911   5.538   4.333   1.874 -0.9345 -0.0802  0.6758
 1983TIP3   OH2 5912   6.831   4.595   4.040 -0.0562 -0.3111  0.8378
 1983TIP3    H1 5913   6.801   4.535   4.109 -0.3513 -0.5102  0.5406
 1983TIP3    H2 5914   6.750   4.625   3.999  0.1593 -1.9791 -0.9468
 1984TIP3   OH2 5915   3.374   2.376   3.809 -0.3431 -0.0607 -0.0209
 1984TIP3    H1 5916   3.450   2.357   3.865 -1.1241 -2.2904  0.3793
 1984TIP3    H2 5917   3.366   2.299   3.753 -0.1935  1.6862 -2.5940
 1985TIP3   OH2 5918   0.923   6.369   0.974  0.3378  0.4566  0.5094
 1985TIP3    H1 5919   0.988   6.363   1.043  0.5629  1.0860  0.3613
 1985TIP3    H2 5920   0.856   6.428   1.010  0.2249  0.4167  0.3657
 1986TIP3   OH2 5921   0.293   6.087   0.775 -0.3224  0.4659  0.3538
 1986TIP3    H1 5922   0.285   6.079   0.870 -0.5749  2.6893  0.5638
 1986TIP3    H2 5923   0.386   6.074   0.757  0.1326  2.3140  1.2043
 1987TIP3   OH2 5924   5.666   2.155   5.098 -0.5000 -0.0734  0.3943
 1987TIP3    H1 5925   5.662   2.099   5.020  0.2252 -1.3098  1.2133
 1987TIP3    H2 5926   5.759   2.162   5.118 -0.6882  0.0847  1.2506
 1988TIP3   OH2 5927   0.223   3.650   1.453 -0.3255  0.0057 -0.3735
 1988TIP3    H1 5928   0.218   3.647   1.357 -1.1418  2.2131 -0.4660
 1988TIP3    H2 5929   0.134   3.670   1.481  0.0998  0.3823  0.7580
 1989TIP3   OH2 5930   0.199   5.803   1.208 -0.3777  0.0463  0.3375
 1989TIP3    H1 5931   0.170   5.855   1.283  0.0016 -1.1687  1.3481
 1989TIP3    H2 5932   0.269   5.748   1.242  0.6926  0.3588 -1.2234
 1990TIP3   OH2 5933   0.421   0.098   2.407  0.1311 -0.2173 -0.3584
 1990TIP3    H1 5934   0.351   0.162   2.394 -0.6981 -0.6528  1.5337
 1990TIP3    H2 5935   0.490   0.124   2.346 -1.3676  0.6805 -1.7487
 1991TIP3   OH2 5936   1.165   6.788   5.645 -0.1466  0.3116 -0.1165
 1991TIP3    H1 5937   1.198   6.766   5.732 -0.2161 -2.2728 -0.6537
 1991TIP3    H2 5938   1.226   6.745   5.584 -0.5952  1.3214 -1.3305
 1992TIP3   OH2 5939   1.079   5.855   3.047 -0.2500  0.2464  0.1091
 1992TIP3    H1 5940   1.020   5.781   3.031  0.9709 -0.7628  0.0853
 1992TIP3    H2 5941   1.040   5.928   3.000 -2.2380 -0.0076  1.2718
 1993TIP3   OH2 5942   2.949   0.253   1.556  0.1804 -0.2380  0.0206
 1993TIP3    H1 5943   2.973   0.345   1.569  0.6283  0.0697 -2.4655
 1993TIP3    H2 5944   3.023   0.215   1.508 -0.5549 -1.5512 -0.1381
 1994TIP3   OH2 5945   5.348   3.697   1.801 -0.1044  0.2893  0.2496
 1994TIP3    H1 5946   5.283   3.627   1.805  0.1151  0.0318 -0.5278
 1994TIP3    H2 5947   5.419   3.668   1.858 -0.5687  0.4755  0.9369
 1995TIP3   OH2 5948   6.274   4.791   2.677  0.3915 -0.0370  0.1221
 1995TIP3    H1 5949   6.184   4.784   2.709  0.7723  0.4262  1.3397
 1995TIP3    H2 5950   6.301   4.700   2.662  0.1470 -0.2587  0.9895
 1996TIP3   OH2 5951   6.275   5.422   3.562  0.4986 -0.3365  0.0092
 1996TIP3    H1 5952   6.254   5.376   3.480  0.4816  1.3628 -0.9829
 1996TIP3    H2 5953   6.313   5.505   3.534  1.5300 -0.1690  1.7575
 1997TIP3   OH2 5954   6.341   0.711   5.587 -0.5390 -0.1599  0.1667
 1997TIP3    H1 5955   6.386   0.629   5.606  1.2480  0.3252 -1.5764
 1997TIP3    H2 5956   6.374   0.773   5.652  1.4275  0.1857 -1.0797
 1998TIP3   OH2 5957   0.884   4.494   3.117  0.2880  0.3075 -1.2506
 1998TIP3    H1 5958   0.854   4.576   3.077  0.1519  0.4399 -0.8766
 1998TIP3    H2 5959   0.838   4.490   3.201  0.6633  0.0863 -1.0540
 1999TIP3   OH2 5960   5.303   2.248   2.129  0.5019 -0.3442 -0.1704
 1999TIP3    H1 5961   5.355   2.201   2.195  0.4753 -4.0226 -2.4497
 1999TIP3    H2 5962   5.213   2.221   2.147  0.0933  1.1310  0.0979
 2000TIP3   OH2 5963   5.690   3.058   1.810 -0.0103 -0.4085 -0.2544
 2000TIP3    H1 5964   5.781   3.041   1.837  0.3606  0.1726 -1.0816
 2000TIP3    H2 5965   5.694   3.142   1.763 -0.5657 -1.3962 -2.1844
 2001TIP3   OH2 5966   6.109   5.831   4.782  0.1738 -0.4175 -0.1415
 2001TIP3    H1 5967   6.015   5.836   4.770  0.2155 -0.8789 -0.6497
 2001TIP3    H2 5968   6.138   5.761   4.724  0.7317 -0.7868  0.5603
 2002TIP3   OH2 5969   5.005   5.648   1.612  0.0196  0.0799 -0.2047
 2002TIP3    H1 5970   4.942   5.710   1.648  1.8613  1.8210  0.1832
 2002TIP3    H2 5971   4.996   5.571   1.668 -0.5748  0.9338  0.9172
 2003TIP3   OH2 5972   6.670   0.587   3.748  0.4565  0.2006 -0.1157
 2003TIP3    H1 5973   6.587   0.571   3.703  0.8102 -0.0592 -0.6818
 2003TIP3    H2 5974   6.675   0.682   3.757  0.4179  0.2596 -0.6961
 2004TIP3   OH2 5975   6.103   5.257   3.014 -0.2328  0.4430  0.6018
 2004TIP3    H1 5976   6.197   5.247   3.028 -0.1590  1.0004  0.5166
 2004TIP3    H2 5977   6.081   5.191   2.948 -0.0385 -0.1706  1.1331
 2005TIP3   OH2 5978   0.752   2.226   1.272  0.5595 -0.0172 -0.0050
 2005TIP3    H1 5979   0.829   2.249   1.324  1.0701 -1.5533 -0.0531
 2005TIP3    H2 5980   0.779   2.151   1.220 -0.1120  1.1084 -2.1215
 2006TIP3   OH2 5981   0.070   0.490   1.436  0.6153 -0.1834 -0.1681
 2006TIP3    H1 5982   0.041   0.415   1.487  0.8995 -0.1452  0.0484
 2006TIP3    H2 5983  -0.006   0.549   1.434  0.7086 -0.0363  0.4810
 2007TIP3   OH2 5984   4.338   2.230   0.567  0.0424 -0.6286  0.4852
 2007TIP3    H1 5985   4.257   2.279   0.576 -0.2994 -0.8196 -1.1107
 2007TIP3    H2 5986   4.353   2.191   0.653 -2.4173 -1.8550  0.4664
 2008TIP3   OH2 5987   6.497   4.746   0.222  0.3949 -0.4868  0.7590
 2008TIP3    H1 5988   6.515   4.659   0.185  0.4832  0.4323 -1.5266
 2008TIP3    H2 5989   6.440   4.728   0.297 -0.4320 -2.4755 -0.2584
 2009TIP3   OH2 5990   0.289   0.381   1.660  0.8194 -0.2066 -0.1386
 2009TIP3    H1 5991   0.367   0.334   1.630  0.8496 -0.5712  0.4768
 2009TIP3    H2 5992   0.220   0.315   1.664  0.3148  0.2330 -1.2348
 2010TIP3   OH2 5993   1.405   4.106   3.537  0.0915 -0.2450 -0.0607
 2010TIP3    H1 5994   1.319   4.115   3.579 -0.3319  0.0691 -0.9775
 2010TIP3    H2 5995   1.466   4.095   3.610 -0.4652  1.5852  0.7203
 2011TIP3   OH2 5996   1.196   2.922   4.210  0.3763 -0.1914  0.4067
 2011TIP3    H1 5997   1.209   2.975   4.131  0.1062 -2.6115 -1.3549
 2011TIP3    H2 5998   1.282   2.885   4.228  0.7674  1.4429  2.1530
 2012TIP3   OH2 5999   0.711   3.332   0.249  0.5516  0.4461 -0.0545
 2012TIP3    H1 6000   0.721   3.279   0.329 -2.0769 -0.5883 -0.3288
 2012TIP3    H2 6001   0.630   3.380   0.262 -1.4432 -1.7732 -3.1227
 2013TIP3   OH2 6002   3.365   3.640   4.703 -0.1143  0.0383  0.3180
 2013TIP3    H1 6003   3.459   3.659   4.695 -0.1826 -0.0731 -0.8909
 2013TIP3    H2 6004   3.349   3.572   4.639 -0.9989 -0.0734  0.6544
 2014TIP3   OH2 6005   4.907   6.221   2.026  0.0427  0.2193 -0.0287
 2014TIP3    H1 6006   4.868   6.136   2.004  0.6056  0.1278 -0.6966
 2014TIP3    H2 6007   4.970   6.201   2.095 -1.6475  0.4912  1.6660
 2015TIP3   OH2 6008   5.531   4.239   4.930  0.1010 -0.5204  0.5659
 2015TIP3    H1 6009   5.547   4.331   4.947  1.3472 -0.5507 -0.2718
 2015TIP3    H2 6010   5.616   4.204   4.903 -0.6305 -1.5966 -0.4951
 2016TIP3   OH2 6011   3.061   1.232   4.641 -0.6101 -0.0929 -0.2712
 2016TIP3    H1 6012   3.039   1.250   4.732  1.6552  1.0111  0.1344
 2016TIP3    H2 6013   3.148   1.194   4.644 -0.4286  0.0907 -1.9865
 2017TIP3   OH2 6014   4.626   3.118   3.780  0.6869  0.0105 -0.5874
 2017TIP3    H1 6015   4.619   3.145   3.688 -0.5501  0.5203 -0.3659
 2017TIP3    H2 6016   4.598   3.026   3.780  0.8236 -0.0330 -0.7296
 2018TIP3   OH2 6017   1.070   3.646   0.545  0.3772  0.6064 -0.5906
 2018TIP3    H1 6018   1.090   3.672   0.455  0.4404  1.2114 -0.4095
 2018TIP3    H2 6019   1.134   3.694   0.598 -0.5800  1.3821 -0.1158
 2019TIP3   OH2 6020   6.118   1.132   1.200  0.4902  0.2852  0.1509
 2019TIP3    H1 6021   6.117   1.043   1.236 -0.1435  0.4934  0.6561
 2019TIP3    H2 6022   6.157   1.185   1.270 -1.5878  0.8484  0.9348
 2020TIP3   OH2 6023   5.038   1.636   3.301  0.4108 -0.5899 -1.0052
 2020TIP3    H1 6024   5.071   1.699   3.237  0.8146 -0.9936 -1.2000
 2020TIP3    H2 6025   5.014   1.690   3.377  1.0143 -0.2248 -1.0629
 2021TIP3   OH2 6026   4.335   4.336   2.090  0.3507 -0.8126 -0.5813
 2021TIP3    H1 6027   4.289   4.333   2.006 -0.7721 -0.4423 -0.0089
 2021TIP3    H2 6028   4.298   4.412   2.135  2.0338 -0.0873 -0.3482
 2022TIP3   OH2 6029   4.531   5.061   4.300 -0.1244  0.3400  0.0417
 2022TIP3    H1 6030   4.608   5.116   4.316 -0.2819  0.0682  1.9323
 2022TIP3    H2 6031   4.563   4.990   4.245  0.4242  1.4774 -1.1653
 2023TIP3   OH2 6032   6.814   1.134   2.130  0.2083 -0.0149  0.6066
 2023TIP3    H1 6033   6.837   1.084   2.052 -0.1570 -2.0436  1.7233
 2023TIP3    H2 6034   6.785   1.068   2.193 -0.4096  1.6436  2.1453
 2024TIP3   OH2 6035   3.393   1.828   5.319 -0.0719  0.2663  0.5482
 2024TIP3    H1 6036   3.475   1.861   5.283 -1.1709  1.7956 -0.6864
 2024TIP3    H2 6037   3.391   1.736   5.295  0.6510  0.5429 -0.6296
 2025TIP3   OH2 6038   0.211   2.715   0.799 -0.3476 -0.0333 -0.7934
 2025TIP3    H1 6039   0.245   2.737   0.713 -2.9768  1.1603 -1.5946
 2025TIP3    H2 6040   0.129   2.763   0.807 -0.9913 -1.3472  1.7552
 2026TIP3   OH2 6041   3.299   0.062   3.968  0.2126  0.1104 -0.4396
 2026TIP3    H1 6042   3.345  -0.001   4.024  1.0604  0.2515 -0.9495
 2026TIP3    H2 6043   3.339   0.146   3.989 -2.2022  0.8632  1.6292
 2027TIP3   OH2 6044   6.528   2.189   0.566 -0.5552 -0.7527 -0.2177
 2027TIP3    H1 6045   6.539   2.275   0.606 -0.1351 -1.3409  0.9899
 2027TIP3    H2 6046   6.433   2.175   0.562 -0.6671  0.1879 -1.4136
 2028TIP3   OH2 6047   1.502   3.441   1.293 -0.6798  0.2291 -0.5525
 2028TIP3    H1 6048   1.597   3.433   1.305 -0.8283 -0.9755 -0.0169
 2028TIP3    H2 6049   1.472   3.491   1.369 -0.5279  0.2247 -0.4897
 2029TIP3   OH2 6050   6.044   5.721   5.359 -0.1911 -0.2250  0.2241
 2029TIP3    H1 6051   6.132   5.684   5.363 -0.7056 -1.6141 -0.4900
 2029TIP3    H2 6052   6.028   5.736   5.266 -0.3059  1.0985  0.4368
 2030TIP3   OH2 6053   4.366   1.649   3.431 -0.3925  0.5218 -0.2190
 2030TIP3    H1 6054   4.349   1.616   3.519 -1.1986 -1.0165 -0.8952
 2030TIP3    H2 6055   4.458   1.677   3.433 -0.0590 -0.5567  0.8004
 2031TIP3   OH2 6056   1.356   0.241   4.642 -0.3935  0.4963 -0.3960
 2031TIP3    H1 6057   1.356   0.197   4.727 -0.6476 -0.1371 -0.7103
 2031TIP3    H2 6058   1.263   0.260   4.625 -0.5085 -0.5794 -1.1132
 2032TIP3   OH2 6059   5.057   5.048   4.583 -0.1557 -0.2175  0.1220
 2032TIP3    H1 6060   5.109   4.974   4.552  0.5122 -0.0932  0.9196
 2032TIP3    H2 6061   5.114   5.124   4.570 -0.6086  0.0867 -0.1281
 2033TIP3   OH2 6062   6.255   2.528   4.855  0.1102  0.0999  0.6218
 2033TIP3    H1 6063   6.208   2.502   4.934 -0.1062  0.8137  0.7302
 2033TIP3    H2 6064   6.286   2.445   4.818  0.0701 -0.2550  1.3581
 2034TIP3   OH2 6065   0.706   4.479   4.844  0.4174  0.8041  0.0901
 2034TIP3    H1 6066   0.621   4.495   4.884  1.9140  1.4871  3.2550
 2034TIP3    H2 6067   0.695   4.396   4.798 -1.3630 -0.3824  2.4495
 2035TIP3   OH2 6068   2.814   5.720   3.358 -0.2294 -0.3226  0.2548
 2035TIP3    H1 6069   2.825   5.656   3.287 -0.4751  1.0123 -1.0172
 2035TIP3    H2 6070   2.732   5.695   3.401 -1.4398  0.3434 -1.5611
 2036TIP3   OH2 6071   7.188   6.564   0.665 -0.6107 -0.1648 -0.2060
 2036TIP3    H1 6072   7.166   6.625   0.595 -1.4690 -2.2561 -1.8938
 2036TIP3    H2 6073   7.184   6.477   0.623  2.6929 -1.3011  1.5056
 2037TIP3   OH2 6074   6.023   3.080   1.623 -0.4917 -0.2335  0.3942
 2037TIP3    H1 6075   5.985   3.017   1.563 -1.9223  1.1901 -0.2393
 2037TIP3    H2 6076   5.987   3.056   1.709  1.6910 -2.3732  0.8213
 2038TIP3   OH2 6077   4.490   5.644   3.957 -0.6916 -0.3913 -0.0878
 2038TIP3    H1 6078   4.399   5.618   3.974 -0.2233 -1.0149  1.6093
 2038TIP3    H2 6079   4.535   5.630   4.040  0.8787  0.3145 -0.7874
 2039TIP3   OH2 6080   6.245   0.652   2.187 -0.2425  0.1262  0.2664
 2039TIP3    H1 6081   6.238   0.629   2.280 -0.8492  0.3267  0.2746
 2039TIP3    H2 6082   6.181   0.597   2.143 -0.3788  0.4542  0.0444
 2040TIP3   OH2 6083   5.587   3.289   5.674 -0.0354  0.1624  0.0543
 2040TIP3    H1 6084   5.526   3.223   5.706  1.4663 -0.7219  1.2487
 2040TIP3    H2 6085   5.652   3.240   5.624  0.5231  0.8699  0.0692
 2041TIP3   OH2 6086   2.639   0.640   4.868  0.4372 -0.0619  0.3882
 2041TIP3    H1 6087   2.678   0.727   4.858  1.0042 -0.4195 -0.6140
 2041TIP3    H2 6088   2.598   0.643   4.955 -0.9300  1.7294 -0.2661
 2042TIP3   OH2 6089   2.851   5.597   0.992 -0.0931  0.1124  0.2144
 2042TIP3    H1 6090   2.785   5.550   0.941  1.2745  0.5209 -2.0337
 2042TIP3    H2 6091   2.849   5.554   1.078 -1.3632 -1.6774 -0.6445
 2043TIP3   OH2 6092   4.465   4.444   3.947  0.2091 -0.4150 -0.2726
 2043TIP3    H1 6093   4.489   4.516   3.888 -0.0810 -0.3649 -0.3272
 2043TIP3    H2 6094   4.539   4.439   4.009 -0.9194  1.6922  1.3936
 2044TIP3   OH2 6095   3.557   6.686   2.269  0.7796 -0.5207  0.2564
 2044TIP3    H1 6096   3.605   6.765   2.245  0.0242 -0.7200 -2.1316
 2044TIP3    H2 6097   3.579   6.622   2.202  0.8596 -2.1729  1.7793
 2045TIP3   OH2 6098   0.382   3.979   4.339 -0.5698 -0.2553 -0.2902
 2045TIP3    H1 6099   0.350   3.927   4.265 -0.7819  0.9550 -1.0714
 2045TIP3    H2 6100   0.323   3.957   4.411 -0.8372 -0.8724 -0.6934
 2046TIP3   OH2 6101   2.840   3.206   3.611  0.4883  0.5580  0.1052
 2046TIP3    H1 6102   2.840   3.118   3.574  1.5066 -0.1687  1.6900
 2046TIP3    H2 6103   2.796   3.261   3.546  0.1533 -1.0531 -1.0648
 2047TIP3   OH2 6104   2.821   2.554   3.267  0.0638  0.0146  0.1069
 2047TIP3    H1 6105   2.832   2.564   3.361  2.6327  0.3677 -0.1545
 2047TIP3    H2 6106   2.831   2.460   3.251  1.5562  0.1533  0.0481
 2048TIP3   OH2 6107   5.647   2.852   4.913  0.1982 -0.8356 -0.3613
 2048TIP3    H1 6108   5.684   2.902   4.841 -0.3670 -0.0498 -0.1132
 2048TIP3    H2 6109   5.673   2.761   4.895  0.2094 -0.6261 -1.4519
 2049TIP3   OH2 6110   1.479   4.037   1.812  0.2355  0.1956 -0.0369
 2049TIP3    H1 6111   1.474   3.984   1.732  0.8512  2.2302 -1.5299
 2049TIP3    H2 6112   1.388   4.055   1.834  0.0428 -0.8165  0.0420
 2050TIP3   OH2 6113   0.943   0.105   0.317  0.4640  0.2013  0.5814
 2050TIP3    H1 6114   0.910   0.019   0.342  1.5660 -0.4380 -0.0875
 2050TIP3    H2 6115   0.881   0.167   0.355  0.1153 -0.8558  1.7937
 2051TIP3   OH2 6116   6.435   3.201   4.625  0.7728 -0.4451 -0.6141
 2051TIP3    H1 6117   6.449   3.116   4.583  1.3116 -0.7115  0.0983
 2051TIP3    H2 6118   6.340   3.216   4.617  0.6778 -1.1013 -0.7487
 2052TIP3   OH2 6119   2.823   4.687   2.892 -0.3554 -0.4589 -0.1106
 2052TIP3    H1 6120   2.872   4.722   2.967  0.0167  2.0697 -1.4317
 2052TIP3    H2 6121   2.890   4.649   2.836 -0.5311 -1.5063  0.3633
 2053TIP3   OH2 6122   7.007   2.360   2.129 -0.1264 -0.0147  0.1533
 2053TIP3    H1 6123   6.981   2.446   2.098  0.4248  0.2333  0.3638
 2053TIP3    H2 6124   7.089   2.375   2.177 -0.9929 -0.3459  1.8371
 2054TIP3   OH2 6125   6.484   1.579   5.159  0.3366  0.5339 -0.5850
 2054TIP3    H1 6126   6.516   1.543   5.076  0.7324 -0.4607 -0.0148
 2054TIP3    H2 6127   6.535   1.534   5.226 -0.1234  1.1757  0.2177
 2055TIP3   OH2 6128   4.738   6.620   5.181  0.4401  0.6604 -0.2783
 2055TIP3    H1 6129   4.717   6.667   5.262  1.2561 -0.4679  0.6150
 2055TIP3    H2 6130   4.666   6.557   5.170  0.3931  0.7292 -0.3709
 2056TIP3   OH2 6131   0.172   4.585   2.138 -0.0515 -0.2545  0.1637
 2056TIP3    H1 6132   0.228   4.583   2.216  1.9149 -0.1467 -1.1842
 2056TIP3    H2 6133   0.107   4.652   2.157  0.1242 -0.5277  1.8722
 2057TIP3   OH2 6134   0.923   5.857   4.686 -0.0508  0.0039  0.0900
 2057TIP3    H1 6135   0.966   5.782   4.727 -0.8078 -0.6631 -0.2998
 2057TIP3    H2 6136   0.878   5.820   4.610  2.1239  1.3516 -1.9936
 2058TIP3   OH2 6137   2.972   5.916   5.256  0.1650 -0.4055  0.4121
 2058TIP3    H1 6138   3.043   5.870   5.212 -0.5790 -1.7945  0.6018
 2058TIP3    H2 6139   2.922   5.846   5.299 -1.6094  0.4643 -0.1473
 2059TIP3   OH2 6140   2.710   6.518   0.385  0.1131 -0.2465  0.1596
 2059TIP3    H1 6141   2.762   6.476   0.316 -1.2452 -0.9290 -0.4796
 2059TIP3    H2 6142   2.706   6.454   0.455 -0.4183 -0.4641 -0.0661
 2060TIP3   OH2 6143   6.892   6.630   0.727 -0.3943  0.4141 -0.0712
 2060TIP3    H1 6144   6.856   6.715   0.754 -0.8689  0.0625  0.4077
 2060TIP3    H2 6145   6.986   6.647   0.716 -0.3600  0.8211  0.7675
 2061TIP3   OH2 6146   5.922   4.268   0.315  0.4332  0.2657 -0.1778
 2061TIP3    H1 6147   5.902   4.259   0.222  0.7021 -0.0987 -0.2029
 2061TIP3    H2 6148   5.870   4.343   0.343 -0.8324 -0.5487 -0.2707
 2062TIP3   OH2 6149   6.013   3.403   0.311 -0.1072  0.3281 -0.1758
 2062TIP3    H1 6150   5.930   3.387   0.267  0.3701 -0.6297 -0.7664
 2062TIP3    H2 6151   6.043   3.487   0.276 -1.5688  1.5160  1.2564
 2063TIP3   OH2 6152   1.960   4.127   3.283 -0.6255  0.2516 -0.0214
 2063TIP3    H1 6153   2.015   4.162   3.352 -0.7435  1.6005 -0.5776
 2063TIP3    H2 6154   1.904   4.201   3.257 -0.1034 -0.0045 -2.0177
 2064TIP3   OH2 6155   2.162   0.710   0.830  0.1684  0.2022  0.4380
 2064TIP3    H1 6156   2.160   0.624   0.790  0.0376  0.9325 -1.2175
 2064TIP3    H2 6157   2.228   0.704   0.899 -0.5651 -1.4804  1.0403
 2065TIP3   OH2 6158   2.795   6.760   1.671 -0.4306 -0.3525 -0.6103
 2065TIP3    H1 6159   2.704   6.786   1.659 -0.1626  0.0385 -1.9809
 2065TIP3    H2 6160   2.821   6.724   1.586  1.1440  1.0119 -0.7498
 2066TIP3   OH2 6161   6.394   0.033   2.357  0.0083  0.1652 -0.9349
 2066TIP3    H1 6162   6.300   0.047   2.369  0.3017  1.5344 -0.0018
 2066TIP3    H2 6163   6.400  -0.015   2.274 -1.4593  0.9030 -1.5189
 2067TIP3   OH2 6164   5.301   6.381   2.799 -0.4783  0.2341  0.5569
 2067TIP3    H1 6165   5.361   6.307   2.804  0.7750  1.2362  0.8705
 2067TIP3    H2 6166   5.289   6.408   2.890  0.9530  1.8353  0.3256
 2068TIP3   OH2 6167   2.204   1.693   2.617 -0.0183 -0.5342  0.7269
 2068TIP3    H1 6168   2.218   1.625   2.682  0.4640  1.1192  2.4490
 2068TIP3    H2 6169   2.109   1.702   2.612 -0.1274 -1.9780 -0.2716
 2069TIP3   OH2 6170   0.621   4.335   1.920  0.7989  0.4701 -0.4649
 2069TIP3    H1 6171   0.614   4.292   2.005 -0.4042 -0.1007 -0.8343
 2069TIP3    H2 6172   0.690   4.287   1.874 -0.6913 -1.2927 -0.9625
 2070TIP3   OH2 6173   6.960   2.337   0.689  0.0017 -0.5872  0.8126
 2070TIP3    H1 6174   6.927   2.419   0.726 -0.3897 -0.6508  0.6099
 2070TIP3    H2 6175   7.046   2.325   0.729  0.3719  0.2875  0.3155
 2071TIP3   OH2 6176   4.390   0.320   3.933  0.1712 -0.0007  0.1547
 2071TIP3    H1 6177   4.424   0.324   3.844  0.8228 -0.7063  0.3607
 2071TIP3    H2 6178   4.346   0.404   3.946  1.0367  0.5601 -0.4459
 2072TIP3   OH2 6179   4.702   3.521   5.512 -0.5131 -0.0643 -0.2001
 2072TIP3    H1 6180   4.737   3.476   5.436 -0.1929 -0.5832  0.2492
 2072TIP3    H2 6181   4.620   3.561   5.481 -0.1529  0.1127 -0.9242
 2073TIP3   OH2 6182   4.584   2.506   0.515 -0.5435  0.6491  0.3896
 2073TIP3    H1 6183   4.666   2.462   0.540 -1.1783 -0.6392  0.3023
 2073TIP3    H2 6184   4.607   2.598   0.509  0.1321  0.8297  3.7993
 2074TIP3   OH2 6185   4.656   2.425   3.709  0.0831 -0.0631 -0.2569
 2074TIP3    H1 6186   4.649   2.436   3.614  0.3887  0.7561 -0.1941
 2074TIP3    H2 6187   4.710   2.498   3.737 -0.1919 -0.1741  0.5831
 2075TIP3   OH2 6188   2.219   0.373   4.691  0.1138 -0.3814 -0.1906
 2075TIP3    H1 6189   2.215   0.426   4.771 -2.5560 -1.0905  0.2271
 2075TIP3    H2 6190   2.305   0.393   4.654  0.4625  1.8311  1.5744
 2076TIP3   OH2 6191   2.192   0.941   3.617 -0.0761  0.6574  0.7925
 2076TIP3    H1 6192   2.224   0.857   3.585  0.9662  0.5774  1.9611
 2076TIP3    H2 6193   2.123   0.919   3.679 -0.1950  0.6890  0.6716
 2077TIP3   OH2 6194   4.280   2.015   1.805  1.0490 -0.2588  0.6234
 2077TIP3    H1 6195   4.201   2.048   1.848 -0.6553 -1.0771 -1.6578
 2077TIP3    H2 6196   4.305   2.084   1.744  1.4553 -0.4416  0.5802
 2078TIP3   OH2 6197   0.476   5.554   2.260  0.0620 -0.2320  0.4689
 2078TIP3    H1 6198   0.381   5.541   2.267 -0.5893  2.6121 -1.1937
 2078TIP3    H2 6199   0.485   5.633   2.207  3.4612 -1.5803 -1.2583
 2079TIP3   OH2 6200   3.894   0.933   2.965 -0.4934 -0.0286  0.1443
 2079TIP3    H1 6201   3.853   0.847   2.960 -0.9624  0.2510 -1.3069
 2079TIP3    H2 6202   3.987   0.915   2.976 -0.7594 -0.6831  1.5728
 2080TIP3   OH2 6203   5.610   1.779   0.231 -0.4875  0.3836  0.1221
 2080TIP3    H1 6204   5.514   1.775   0.234 -0.4460 -0.3365  0.9241
 2080TIP3    H2 6205   5.638   1.717   0.298  0.5600 -0.6851 -1.2528
 2081TIP3   OH2 6206   4.358   0.057   0.575  0.4148  0.1201 -0.2388
 2081TIP3    H1 6207   4.383   0.093   0.490  0.5969  0.6094  0.0175
 2081TIP3    H2 6208   4.441   0.040   0.619  0.3600  2.4043  0.8889
 2082TIP3   OH2 6209   5.717   4.772   0.773 -0.0706 -0.1438 -0.1120
 2082TIP3    H1 6210   5.682   4.683   0.775  0.9507 -0.5747 -0.4782
 2082TIP3    H2 6211   5.709   4.804   0.863  1.9315 -1.5888  0.6501
 2083TIP3   OH2 6212   4.205   6.470   2.938 -0.1393  0.4396 -0.4592
 2083TIP3    H1 6213   4.266   6.522   2.989 -0.8091  0.2154  0.5983
 2083TIP3    H2 6214   4.251   6.388   2.920 -0.3139  0.0197  0.8632
 2084TIP3   OH2 6215   4.068   6.460   5.631 -0.8576 -0.2282 -0.1154
 2084TIP3    H1 6216   4.065   6.446   5.537 -0.9683 -0.0646 -0.1365
 2084TIP3    H2 6217   4.012   6.537   5.646  0.1671  0.5332 -0.0670
 2085TIP3   OH2 6218   1.535   6.566   4.492  0.3782 -0.1165 -0.1046
 2085TIP3    H1 6219   1.479   6.635   4.457 -1.1125 -0.8434  0.7864
 2085TIP3    H2 6220   1.576   6.605   4.570  1.2723  0.4596 -0.8363
 2086TIP3   OH2 6221   2.637   5.703   0.103  0.0721  0.0423 -0.0472
 2086TIP3    H1 6222   2.596   5.759   0.036  0.2212  1.2991  0.8698
 2086TIP3    H2 6223   2.730   5.706   0.082 -0.0766 -1.3391 -1.0472
 2087TIP3   OH2 6224   3.308   3.057   2.105 -0.1132  0.6045 -0.5608
 2087TIP3    H1 6225   3.339   3.086   2.191  0.1147 -2.0110  0.3247
 2087TIP3    H2 6226   3.217   3.030   2.121  0.1112 -0.4462 -0.9615
 2088TIP3   OH2 6227   5.568   0.236   0.588 -0.5169 -0.1740  0.2897
 2088TIP3    H1 6228   5.581   0.276   0.674  0.8444  0.0215  0.0177
 2088TIP3    H2 6229   5.502   0.169   0.603 -1.0417  0.5387  1.2688
 2089TIP3   OH2 6230   0.699   5.490   1.294 -0.1587  0.2603 -0.5741
 2089TIP3    H1 6231   0.793   5.493   1.313 -0.3875  0.3567  0.5967
 2089TIP3    H2 6232   0.671   5.581   1.296 -0.2110  0.2739 -1.3672
 2090TIP3   OH2 6233   2.761   2.254   0.646  0.0393  0.0750 -0.2139
 2090TIP3    H1 6234   2.766   2.259   0.741  0.4235 -0.0639 -0.2257
 2090TIP3    H2 6235   2.687   2.195   0.629 -0.2803  0.4131 -0.0088
 2091TIP3   OH2 6236   1.450   6.639   0.977  0.2138 -0.4250  0.2515
 2091TIP3    H1 6237   1.438   6.559   0.925 -1.3511  1.0049 -1.7705
 2091TIP3    H2 6238   1.543   6.658   0.968  0.3491 -1.2851 -0.4228
 2092TIP3   OH2 6239   1.344   5.507   3.870 -0.3331  0.0131  0.0857
 2092TIP3    H1 6240   1.404   5.506   3.796 -1.0189 -0.2132 -0.4739
 2092TIP3    H2 6241   1.344   5.598   3.899  0.7875 -0.0990  0.5335
 2093TIP3   OH2 6242   0.660   5.716   5.821 -0.2620  0.2056 -0.2172
 2093TIP3    H1 6243   0.633   5.691   5.732  0.4584  1.0322 -0.6846
 2093TIP3    H2 6244   0.755   5.702   5.821  0.1798  2.7620 -0.4837
 2094TIP3   OH2 6245   2.518   0.223   1.105  0.7068  0.4484 -0.0189
 2094TIP3    H1 6246   2.461   0.190   1.175 -1.0624  0.6417 -1.2852
 2094TIP3    H2 6247   2.549   0.308   1.137  0.9052  0.0056  1.0067
 2095TIP3   OH2 6248   6.167   1.675   5.067  0.1667 -0.6983  0.5623
 2095TIP3    H1 6249   6.202   1.736   5.132 -1.2203  0.1142  0.5857
 2095TIP3    H2 6250   6.136   1.601   5.118 -0.1030 -0.4566  0.7540
 2096TIP3   OH2 6251   5.550   0.734   2.595  0.1941 -0.1663 -0.1163
 2096TIP3    H1 6252   5.455   0.726   2.583 -0.0120  0.9561  0.5138
 2096TIP3    H2 6253   5.570   0.677   2.669 -0.0380 -0.2452 -0.1140
 2097TIP3   OH2 6254   4.935   0.842   5.611 -0.2819  0.6761 -0.4107
 2097TIP3    H1 6255   4.997   0.906   5.645 -0.4580  0.4740  0.3200
 2097TIP3    H2 6256   4.874   0.893   5.558 -1.1991  1.3494  1.2080
 2098TIP3   OH2 6257   3.239   2.013   3.305  0.5104 -0.7492 -0.0287
 2098TIP3    H1 6258   3.257   2.073   3.377  1.5338 -1.8833  0.7188
 2098TIP3    H2 6259   3.325   1.996   3.266  0.1541 -1.2216 -0.6357
 2099TIP3   OH2 6260   0.043   4.661   0.124 -0.5695  0.9083 -0.0800
 2099TIP3    H1 6261   0.054   4.569   0.147 -0.2044  1.0741  0.4268
 2099TIP3    H2 6262  -0.030   4.662   0.062  0.4583  0.1013 -1.3235
 2100TIP3   OH2 6263   6.795   1.836   2.093  0.7620  0.5050  0.0870
 2100TIP3    H1 6264   6.709   1.838   2.136  0.4149  2.4259 -0.5640
 2100TIP3    H2 6265   6.849   1.894   2.147  0.8675  1.3973 -0.9371
 2101TIP3   OH2 6266   0.586   2.229   5.698 -0.6588 -0.2484  0.1484
 2101TIP3    H1 6267   0.551   2.248   5.611 -0.9372 -0.9001  0.1094
 2101TIP3    H2 6268   0.680   2.217   5.684 -0.1431  2.7442  0.4470
 2102TIP3   OH2 6269   3.123   1.586   4.120  0.1536 -0.1947  0.5238
 2102TIP3    H1 6270   3.217   1.575   4.107  0.1794 -0.0874  0.6149
 2102TIP3    H2 6271   3.111   1.586   4.215  0.1025  0.1067  0.5185
 2103TIP3   OH2 6272   4.410   0.428   4.974 -0.1279 -0.8003  0.1321
 2103TIP3    H1 6273   4.486   0.468   4.932  0.3535 -2.1666 -0.3477
 2103TIP3    H2 6274   4.401   0.475   5.057 -0.5721  1.3518 -1.0637
 2104TIP3   OH2 6275   5.162   4.263   0.009  0.0788  0.1036  0.1961
 2104TIP3    H1 6276   5.085   4.207   0.017 -0.5724  0.8740 -0.5436
 2104TIP3    H2 6277   5.196   4.270   0.098 -1.3674  0.6766  0.7341
 2105TIP3   OH2 6278   5.296   4.586   1.401 -0.3895 -0.1934 -0.2462
 2105TIP3    H1 6279   5.319   4.664   1.451  0.1746  0.3136 -1.2677
 2105TIP3    H2 6280   5.359   4.520   1.428 -1.4595 -0.6374  1.3469
 2106TIP3   OH2 6281   5.167   3.626   1.117  0.1717 -0.2426 -0.3211
 2106TIP3    H1 6282   5.084   3.637   1.070 -0.3491  3.1250  1.1088
 2106TIP3    H2 6283   5.144   3.578   1.196 -0.8404  2.0181  0.8356
 2107TIP3   OH2 6284   4.135   0.106   1.498  0.1672  0.2574  0.8864
 2107TIP3    H1 6285   4.212   0.111   1.442 -0.5528  1.3290 -0.0545
 2107TIP3    H2 6286   4.142   0.021   1.542  1.6184  0.1384  0.4566
 2108TIP3   OH2 6287   5.849   5.197   5.657 -0.5833 -0.5580  0.2305
 2108TIP3    H1 6288   5.817   5.107   5.647 -3.3886  0.3762 -0.2091
 2108TIP3    H2 6289   5.842   5.215   5.750 -0.8744 -0.5205  0.2019
 2109TIP3   OH2 6290   5.410   5.132   2.985  0.1298 -0.8434  0.0610
 2109TIP3    H1 6291   5.336   5.185   3.013  0.6549  0.1170 -0.3141
 2109TIP3    H2 6292   5.375   5.073   2.919 -0.5470 -1.2581  0.7717
 2110TIP3   OH2 6293   6.092   5.237   5.863 -0.3959  0.1736  0.2352
 2110TIP3    H1 6294   6.087   5.272   5.952 -1.9212  1.1443 -0.1896
 2110TIP3    H2 6295   6.001   5.234   5.833  0.0507 -0.5168 -1.1520
 2111TIP3   OH2 6296   5.686   4.120   4.014 -0.4502 -0.0508  0.1233
 2111TIP3    H1 6297   5.654   4.099   3.926  0.0590  0.7288 -0.2649
 2111TIP3    H2 6298   5.722   4.208   4.005 -1.3331  0.4552  1.3716
 2112TIP3   OH2 6299   2.486   3.199   0.865 -0.5305 -0.3519  0.1654
 2112TIP3    H1 6300   2.570   3.181   0.908  0.2680  2.2617 -0.0869
 2112TIP3    H2 6301   2.500   3.173   0.774 -0.7037 -1.7250  0.5052
 2113TIP3   OH2 6302   4.866   3.017   4.128 -0.2368  0.1230  0.1688
 2113TIP3    H1 6303   4.910   2.973   4.200 -1.1318  0.0701  0.7025
 2113TIP3    H2 6304   4.927   3.010   4.054  0.6684  0.1223  0.8944
 2114TIP3   OH2 6305   5.131   6.202   3.327 -0.1870  0.3581  0.6767
 2114TIP3    H1 6306   5.055   6.162   3.369 -1.2470  1.5000 -0.0684
 2114TIP3    H2 6307   5.135   6.290   3.363  0.7435  0.3407  0.6389
 2115TIP3   OH2 6308   3.697   0.392   2.820 -0.0424  0.4063 -0.0760
 2115TIP3    H1 6309   3.726   0.480   2.844 -2.5501  1.7304 -1.5187
 2115TIP3    H2 6310   3.749   0.370   2.743  0.3705  0.7215  0.1025
 2116TIP3   OH2 6311   0.690   1.285   1.804  0.5940  0.2293  0.1114
 2116TIP3    H1 6312   0.596   1.287   1.825  0.9771  0.7754  2.0166
 2116TIP3    H2 6313   0.724   1.211   1.853  1.1063 -0.2248 -0.9118
 2117TIP3   OH2 6314   0.945   6.793   0.991  0.1663  0.3114  0.2773
 2117TIP3    H1 6315   0.923   6.700   0.982  0.8847  0.0546  1.0500
 2117TIP3    H2 6316   1.038   6.793   1.014  0.0256  1.1938  0.8946
 2118TIP3   OH2 6317   0.145   5.879   1.468  0.0608  0.3498 -0.0550
 2118TIP3    H1 6318   0.199   5.955   1.447 -1.5172  1.6269  0.2391
 2118TIP3    H2 6319   0.193   5.833   1.537  1.8912  0.0657 -1.4620
 2119TIP3   OH2 6320   1.164   1.376   0.896 -0.4678  0.0519 -0.0429
 2119TIP3    H1 6321   1.189   1.291   0.933 -0.0383 -0.3637 -1.2487
 2119TIP3    H2 6322   1.227   1.391   0.826  1.0192  2.5382  1.6965
 2120TIP3   OH2 6323   4.614   5.839   1.407 -0.3853 -0.7631  0.0735
 2120TIP3    H1 6324   4.584   5.822   1.496 -1.1023 -2.3363 -0.4341
 2120TIP3    H2 6325   4.590   5.760   1.358 -0.9289  0.4653 -1.7473
 2121TIP3   OH2 6326   1.210   4.079   0.251  0.2256 -0.5641  0.7410
 2121TIP3    H1 6327   1.294   4.049   0.286  0.6352 -0.8456 -0.4452
 2121TIP3    H2 6328   1.233   4.139   0.180 -0.5823 -0.8205  0.2459
 2122TIP3   OH2 6329   4.049   5.199   3.164 -0.9232 -0.5934 -0.2786
 2122TIP3    H1 6330   3.987   5.271   3.177 -2.1214 -1.4961 -0.7208
 2122TIP3    H2 6331   4.091   5.188   3.249 -0.2617  1.0112 -0.3647
 2123TIP3   OH2 6332   3.783   5.277   4.565  0.4516 -0.4526  0.2058
 2123TIP3    H1 6333   3.847   5.341   4.595 -0.8835 -0.1449  2.6055
 2123TIP3    H2 6334   3.741   5.318   4.489  2.1919 -0.1515 -0.6321
 2124TIP3   OH2 6335   2.973   1.061   2.823  0.0681  0.0691  0.0493
 2124TIP3    H1 6336   3.062   1.037   2.799  0.9263  1.4438  1.6142
 2124TIP3    H2 6337   2.926   0.978   2.830  2.0225 -0.9491  2.1017
 2125TIP3   OH2 6338   1.014   4.005   0.526  0.1879 -0.1625  0.0190
 2125TIP3    H1 6339   0.932   3.962   0.503 -0.9937  1.8237  0.2192
 2125TIP3    H2 6340   1.029   4.066   0.453  0.8631  0.2867  0.5245
 2126TIP3   OH2 6341   2.621   0.364   3.003 -0.4965 -0.7387 -0.4953
 2126TIP3    H1 6342   2.666   0.285   3.033  0.6651  0.7973  2.1587
 2126TIP3    H2 6343   2.657   0.381   2.916  4.4871  0.4876  1.4740
 2127TIP3   OH2 6344   1.597   2.425   1.438 -0.0241 -0.0686  0.4344
 2127TIP3    H1 6345   1.610   2.485   1.364 -0.2778 -1.1092 -0.4689
 2127TIP3    H2 6346   1.516   2.457   1.480  0.3670  0.8006  0.5640
 2128TIP3   OH2 6347   6.764   1.684   4.812 -0.7153  0.0396 -0.6235
 2128TIP3    H1 6348   6.691   1.631   4.845 -0.5681 -0.4282 -1.0374
 2128TIP3    H2 6349   6.767   1.664   4.718  0.6983 -0.8692 -0.4080
 2129TIP3   OH2 6350   5.450   5.885   3.606 -0.1948 -0.8107 -0.2398
 2129TIP3    H1 6351   5.363   5.921   3.589 -0.0433  0.0357  0.6509
 2129TIP3    H2 6352   5.448   5.797   3.569 -1.3186 -0.6771 -0.5232
 2130TIP3   OH2 6353   3.045   3.749   5.117 -0.1030  0.1100  0.1619
 2130TIP3    H1 6354   3.106   3.816   5.148  0.1237 -0.9889  2.2162
 2130TIP3    H2 6355   3.100   3.682   5.077 -0.2371  0.5408 -0.7737
 2131TIP3   OH2 6356   0.376   2.747   1.037 -0.1574  0.4432  0.1800
 2131TIP3    H1 6357   0.305   2.725   0.976  0.8725 -0.9779 -0.5487
 2131TIP3    H2 6358   0.347   2.829   1.078 -2.3736 -0.2652  0.1597
 2132TIP3   OH2 6359   4.144   3.971   5.678 -0.5064 -0.1838  0.2056
 2132TIP3    H1 6360   4.066   4.011   5.641 -0.5951  0.0282  0.6189
 2132TIP3    H2 6361   4.112   3.893   5.724 -0.3110 -0.8544 -0.7666
 2133TIP3   OH2 6362   4.124   6.260   3.613 -0.0366 -0.2299  0.7407
 2133TIP3    H1 6363   4.127   6.332   3.550  3.1131 -0.7427  0.1633
 2133TIP3    H2 6364   4.138   6.181   3.560 -1.7572 -1.1735  1.5827
 2134TIP3   OH2 6365   6.539   1.363   1.050  0.0480 -0.0105  0.3027
 2134TIP3    H1 6366   6.592   1.442   1.034  0.1956 -0.3605 -1.0670
 2134TIP3    H2 6367   6.544   1.314   0.968 -2.7889  0.1621 -0.0586
 2135TIP3   OH2 6368   0.613   2.816   0.478 -0.1258  0.2159 -0.3891
 2135TIP3    H1 6369   0.706   2.819   0.502 -0.1606 -1.7104  0.1531
 2135TIP3    H2 6370   0.582   2.732   0.513 -2.0519  0.7705 -0.6563
 2136TIP3   OH2 6371   7.064   5.074   1.149  0.0037  0.1827  0.1208
 2136TIP3    H1 6372   7.038   5.157   1.189  1.1679  0.4608  0.3353
 2136TIP3    H2 6373   7.024   5.007   1.204 -0.4081  0.5897  0.3278
 2137TIP3   OH2 6374   0.730   1.385   0.890 -0.0454 -0.0890 -0.0648
 2137TIP3    H1 6375   0.803   1.412   0.833 -0.1932 -0.7245 -0.5582
 2137TIP3    H2 6376   0.705   1.299   0.858 -0.4049 -0.2760  0.7090
 2138TIP3   OH2 6377   3.001   1.467   3.079 -0.4310 -0.6686 -0.2092
 2138TIP3    H1 6378   2.921   1.415   3.069 -0.3179 -0.9838  0.4560
 2138TIP3    H2 6379   2.978   1.533   3.144  0.5123 -2.1966  1.7718
 2139TIP3   OH2 6380   1.847   1.232   3.760  0.1993 -0.7201  0.6498
 2139TIP3    H1 6381   1.808   1.313   3.792 -1.2006 -1.1260  0.0620
 2139TIP3    H2 6382   1.872   1.250   3.670 -3.1485 -1.7755 -0.6660
 2140TIP3   OH2 6383   6.254   2.293   5.312  0.6036  0.0130 -0.3655
 2140TIP3    H1 6384   6.284   2.380   5.339 -1.7615  1.4241 -1.9046
 2140TIP3    H2 6385   6.329   2.256   5.264  1.5151  1.3661 -0.0521
 2141TIP3   OH2 6386   3.101   2.435   3.038  0.1115 -0.1457 -0.3343
 2141TIP3    H1 6387   3.070   2.475   2.956  0.9367  0.1865 -0.4959
 2141TIP3    H2 6388   3.119   2.509   3.096 -3.0157 -0.4099  1.1711
 2142TIP3   OH2 6389   2.675   2.348   3.813 -0.5037 -0.3126  0.0112
 2142TIP3    H1 6390   2.611   2.288   3.775 -0.8786  1.8390 -3.1103
 2142TIP3    H2 6391   2.624   2.400   3.875 -1.0807 -0.5722 -0.2313
 2143TIP3   OH2 6392   1.969   6.600   0.762  0.4669  0.2985  0.0711
 2143TIP3    H1 6393   1.915   6.650   0.701 -1.2821 -1.0674  0.4120
 2143TIP3    H2 6394   2.049   6.653   0.773  0.3085  1.1736 -2.4011
 2144TIP3   OH2 6395   1.113   4.972   2.037 -0.6228 -0.0160 -0.3306
 2144TIP3    H1 6396   1.064   4.994   1.957 -0.6677 -1.1758 -0.6462
 2144TIP3    H2 6397   1.057   4.909   2.082  0.6232 -1.4892 -0.7660
 2145TIP3   OH2 6398   1.678   2.706   3.086  0.6857  0.2425  0.0409
 2145TIP3    H1 6399   1.698   2.617   3.059 -0.9208  0.6837 -3.1253
 2145TIP3    H2 6400   1.584   2.706   3.103  0.5923  1.3610 -0.3390
 2146TIP3   OH2 6401   0.738   2.440   1.112 -0.0426 -0.3676  0.1095
 2146TIP3    H1 6402   0.718   2.369   1.173 -1.2834  0.2365  0.4385
 2146TIP3    H2 6403   0.757   2.395   1.029  1.0256 -1.1589  0.7499
 2147TIP3   OH2 6404   3.466   0.061   2.197  0.0392  0.5272 -0.1660
 2147TIP3    H1 6405   3.554   0.025   2.205 -0.3275 -0.1705  0.9295
 2147TIP3    H2 6406   3.432   0.064   2.286 -1.0003  0.9211 -0.5489
 2148TIP3   OH2 6407   3.645   4.127   4.518  0.6050 -0.1940 -0.1521
 2148TIP3    H1 6408   3.675   4.158   4.432 -1.5171 -0.7976 -1.1751
 2148TIP3    H2 6409   3.640   4.206   4.572  2.2110  0.1555 -0.4833
 2149TIP3   OH2 6410   1.775   5.569   5.739  0.7119  0.3776 -0.1977
 2149TIP3    H1 6411   1.798   5.660   5.716 -0.6688  0.6183 -0.6922
 2149TIP3    H2 6412   1.763   5.526   5.654 -1.0285  0.3752  0.0221
 2150TIP3   OH2 6413   2.900   2.592   2.265 -0.0716  0.0963 -0.6786
 2150TIP3    H1 6414   2.857   2.605   2.349  0.7778  1.5583 -0.4317
 2150TIP3    H2 6415   2.981   2.546   2.285 -1.0248 -1.8510 -1.0394
 2151TIP3   OH2 6416   4.343   3.742   4.426 -0.2441  0.2203 -0.4718
 2151TIP3    H1 6417   4.376   3.666   4.473  1.4094  0.0831 -1.7435
 2151TIP3    H2 6418   4.320   3.708   4.339 -3.9907  0.2963  0.3261
 2152TIP3   OH2 6419   1.893   2.786   5.707  0.5399  0.4805  0.4800
 2152TIP3    H1 6420   1.891   2.697   5.741  1.6009  0.1915 -0.1806
 2152TIP3    H2 6421   1.816   2.792   5.651 -0.7312  0.6803  2.1924
 2153TIP3   OH2 6422   4.641   6.305   5.754  0.4473 -0.2778  0.6031
 2153TIP3    H1 6423   4.620   6.326   5.845  1.6826  1.8776  0.4559
 2153TIP3    H2 6424   4.729   6.340   5.740  1.4315 -2.9500 -0.6986
 2154TIP3   OH2 6425   4.057   5.336   0.360 -0.1095  0.2851  0.0975
 2154TIP3    H1 6426   4.113   5.320   0.284 -1.1554  0.9699 -0.8385
 2154TIP3    H2 6427   4.104   5.403   0.410  0.8413 -0.5442  0.3612
 2155TIP3   OH2 6428   0.024   2.280   2.872 -0.2078 -0.2623  0.2962
 2155TIP3    H1 6429   0.070   2.216   2.818 -1.8626 -1.6779  0.4970
 2155TIP3    H2 6430   0.094   2.328   2.917  1.1302 -0.3787 -1.5677
 2156TIP3   OH2 6431   6.792   1.327   5.858 -0.2712 -0.4002 -0.1477
 2156TIP3    H1 6432   6.835   1.407   5.827 -0.4740 -0.1913  0.1070
 2156TIP3    H2 6433   6.859   1.282   5.910  0.0409 -0.7039 -0.7963
 2157TIP3   OH2 6434   3.719   5.475   1.516 -0.0295 -0.1215  0.1083
 2157TIP3    H1 6435   3.712   5.407   1.584 -0.6341  0.7162  0.9066
 2157TIP3    H2 6436   3.642   5.462   1.461  1.6659 -2.3683 -1.9757
 2158TIP3   OH2 6437   2.772   3.575   4.078 -0.4636  0.2980  0.2015
 2158TIP3    H1 6438   2.788   3.637   4.150 -0.0079 -0.2494  0.5847
 2158TIP3    H2 6439   2.683   3.595   4.049 -0.0785  1.6079 -0.1610
 2159TIP3   OH2 6440   5.814   4.942   2.971  0.0647 -0.0263 -0.2018
 2159TIP3    H1 6441   5.900   4.951   2.931  0.4480 -0.6973  0.4515
 2159TIP3    H2 6442   5.760   4.903   2.902  0.2384  0.5492 -0.6663
 2160TIP3   OH2 6443   5.638   5.528   1.092 -0.3928 -0.6159 -0.3849
 2160TIP3    H1 6444   5.619   5.620   1.075  0.7462  0.4227  3.1471
 2160TIP3    H2 6445   5.585   5.506   1.169  0.0997 -2.6467 -0.5624
 2161TIP3   OH2 6446   5.147   5.553   2.057  0.3586 -0.1996 -0.0843
 2161TIP3    H1 6447   5.148   5.543   2.152  0.1912  2.1278  0.2028
 2161TIP3    H2 6448   5.080   5.492   2.027 -2.3000  1.6553  1.6881
 2162TIP3   OH2 6449   3.970   0.506   4.413 -0.1683  0.2190 -0.1259
 2162TIP3    H1 6450   3.898   0.444   4.422 -0.8703  0.8637 -1.0387
 2162TIP3    H2 6451   4.035   0.460   4.360 -0.0732 -0.2214  0.3634
 2163TIP3   OH2 6452   3.956   4.813   0.679 -0.1703 -0.0845  0.0527
 2163TIP3    H1 6453   3.920   4.898   0.707  0.2267 -0.1253  0.7035
 2163TIP3    H2 6454   4.019   4.790   0.747 -0.4650 -1.0344  0.0168
 2164TIP3   OH2 6455   0.914   1.389   5.843  0.1891  0.5418 -0.2393
 2164TIP3    H1 6456   0.957   1.445   5.779 -0.3242  0.1120 -0.9720
 2164TIP3    H2 6457   0.862   1.328   5.791 -0.0863  0.0602  0.5796
 2165TIP3   OH2 6458   7.204   2.437   5.797 -0.6855 -0.3061  0.6844
 2165TIP3    H1 6459   7.219   2.479   5.882 -1.5355 -1.8672  1.6603
 2165TIP3    H2 6460   7.147   2.362   5.817  0.5932 -1.8040 -0.9814
 2166TIP3   OH2 6461   3.269   0.247   1.008 -0.2585 -0.1041 -0.2378
 2166TIP3    H1 6462   3.287   0.153   1.002  0.5615  0.0331 -0.0080
 2166TIP3    H2 6463   3.174   0.252   1.018 -0.2910 -0.9230 -0.0205
 2167TIP3   OH2 6464   5.042   4.835   5.120  0.2244  0.4440 -0.0949
 2167TIP3    H1 6465   5.132   4.854   5.147  0.7866  0.7762 -2.0596
 2167TIP3    H2 6466   5.020   4.905   5.059 -1.0864 -0.1020 -0.2913
 2168TIP3   OH2 6467   4.893   3.869   5.653  0.7990 -0.0164  0.0126
 2168TIP3    H1 6468   4.969   3.884   5.709 -0.0684  0.0194  1.2023
 2168TIP3    H2 6469   4.849   3.793   5.690 -0.7203  1.0176  0.4379
 2169TIP3   OH2 6470   1.649   1.725   2.635  0.2529 -0.1776 -0.6267
 2169TIP3    H1 6471   1.657   1.821   2.638  1.9164 -0.3166  1.0356
 2169TIP3    H2 6472   1.660   1.703   2.543 -0.0336  1.2291 -1.0203
 2170TIP3   OH2 6473   4.404   4.629   3.389 -0.2491 -0.1703 -0.2108
 2170TIP3    H1 6474   4.385   4.719   3.416 -1.0864  0.3970 -2.4197
 2170TIP3    H2 6475   4.442   4.638   3.302  0.0439 -1.9445 -0.3039
 2171TIP3   OH2 6476   2.696   1.845   5.824 -0.5707  0.1996 -0.1827
 2171TIP3    H1 6477   2.777   1.894   5.820 -0.6839  0.4839  0.7651
 2171TIP3    H2 6478   2.690   1.814   5.914 -0.9221 -0.8410 -0.5425
 2172TIP3   OH2 6479   3.814   5.386   3.109  0.0849 -0.1031  0.4644
 2172TIP3    H1 6480   3.788   5.383   3.017 -2.1474 -0.7944  1.0678
 2172TIP3    H2 6481   3.869   5.464   3.115 -1.1502  0.9579 -1.1246
 2173TIP3   OH2 6482   4.750   5.360   5.109  0.2881 -1.1299 -0.4723
 2173TIP3    H1 6483   4.727   5.352   5.016  0.2890 -0.2205 -0.5612
 2173TIP3    H2 6484   4.833   5.407   5.109 -0.0644 -0.4969  0.0172
 2174TIP3   OH2 6485   5.339   5.941   2.494  0.3933 -0.0178  0.3029
 2174TIP3    H1 6486   5.365   6.022   2.451  1.2072  0.0764  0.9463
 2174TIP3    H2 6487   5.383   5.872   2.444  0.7572  0.0389  0.5405
 2175TIP3   OH2 6488   6.827   0.342   3.630 -0.9814 -0.0459  0.2921
 2175TIP3    H1 6489   6.917   0.356   3.602 -0.7289 -0.2953  0.9627
 2175TIP3    H2 6490   6.776   0.401   3.574 -0.1351  2.1918  1.7250
 2176TIP3   OH2 6491   1.037   3.179   1.569  0.1955 -0.2781  0.0055
 2176TIP3    H1 6492   1.130   3.166   1.549  1.0701  2.4577  1.7517
 2176TIP3    H2 6493   1.009   3.251   1.513 -0.4804 -0.1350  0.5104
 2177TIP3   OH2 6494   2.821   6.560   2.672  0.0341  0.2511  0.2363
 2177TIP3    H1 6495   2.746   6.550   2.613  1.2668 -3.6564 -0.9651
 2177TIP3    H2 6496   2.873   6.629   2.632 -1.8763  1.6405 -0.0120
 2178TIP3   OH2 6497   2.704   5.914   2.403 -0.1193 -0.0211 -0.4351
 2178TIP3    H1 6498   2.709   5.832   2.452  0.6045 -0.5462 -1.3571
 2178TIP3    H2 6499   2.655   5.973   2.461 -0.5329 -1.0475  0.3019
 2179TIP3   OH2 6500   4.075   6.342   0.958 -0.0479  0.0720  0.2425
 2179TIP3    H1 6501   4.089   6.393   0.878 -0.2348 -3.1932 -2.0264
 2179TIP3    H2 6502   4.009   6.277   0.934 -0.2480 -0.9486  3.1573
 2180TIP3   OH2 6503   5.206   4.246   1.597 -0.0477  0.0835 -0.3893
 2180TIP3    H1 6504   5.277   4.244   1.532 -0.6455 -1.4521 -1.0554
 2180TIP3    H2 6505   5.127   4.231   1.546 -0.8601  1.5580  0.3806
 2181TIP3   OH2 6506   4.714   2.943   1.817 -0.2676 -0.1706 -0.0353
 2181TIP3    H1 6507   4.632   2.957   1.864  0.3035 -0.0941  0.9651
 2181TIP3    H2 6508   4.781   2.946   1.885  0.6064  0.1985 -0.8993
 2182TIP3   OH2 6509   6.086   0.175   5.206 -0.0867  0.2469  0.0340
 2182TIP3    H1 6510   6.148   0.207   5.141 -0.4399 -0.8554 -0.8728
 2182TIP3    H2 6511   6.134   0.109   5.255 -0.2955 -0.0409 -0.1463
 2183TIP3   OH2 6512   3.439   6.031   1.591  0.4639  0.3639  0.2977
 2183TIP3    H1 6513   3.434   6.086   1.512  0.4821  0.8614  0.6374
 2183TIP3    H2 6514   3.458   5.943   1.558  0.9162  0.6495 -0.2310
 2184TIP3   OH2 6515   2.672   6.026   0.658 -0.9022  0.0182  0.4973
 2184TIP3    H1 6516   2.708   5.938   0.644 -1.8027 -0.3585  0.4965
 2184TIP3    H2 6517   2.580   6.018   0.636 -1.0286  0.9348  0.6501
 2185TIP3   OH2 6518   2.874   2.857   3.769 -0.0112  0.3211  0.5534
 2185TIP3    H1 6519   2.786   2.835   3.803 -0.2561  0.5234  0.0540
 2185TIP3    H2 6520   2.857   2.915   3.695  0.3899 -1.9683 -1.4548
 2186TIP3   OH2 6521   1.601   2.020   1.742  0.0859 -0.1603 -0.1561
 2186TIP3    H1 6522   1.551   2.101   1.735  0.6734  0.1025 -1.6742
 2186TIP3    H2 6523   1.534   1.951   1.745 -0.4172  0.2231 -1.5392
 2187TIP3   OH2 6524   6.349   3.140   5.170  0.4055 -0.5912  0.1075
 2187TIP3    H1 6525   6.301   3.222   5.186  0.2909 -0.6091 -0.1407
 2187TIP3    H2 6526   6.436   3.169   5.142  0.5094 -0.5580  0.4651
 2188TIP3   OH2 6527   1.738   1.326   3.165 -0.1079 -0.2001 -0.0900
 2188TIP3    H1 6528   1.710   1.310   3.255 -0.8067 -2.0055 -0.5901
 2188TIP3    H2 6529   1.825   1.365   3.174 -0.7497  1.0161  1.3751
 2189TIP3   OH2 6530   5.187   1.826   5.528  0.2009 -0.0118 -0.0949
 2189TIP3    H1 6531   5.253   1.885   5.490 -1.1341  1.1653 -0.6773
 2189TIP3    H2 6532   5.196   1.745   5.478  1.7115 -0.1677  0.3594
 2190TIP3   OH2 6533   6.551   0.144   1.930 -0.3788 -0.8297  0.0275
 2190TIP3    H1 6534   6.549   0.077   1.998 -1.7806 -1.3999 -0.5427
 2190TIP3    H2 6535   6.462   0.181   1.930  0.1505  0.5019 -0.1913
 2191TIP3   OH2 6536   3.342   1.082   1.475  0.5289 -0.1027 -0.5845
 2191TIP3    H1 6537   3.414   1.047   1.422  1.0357  0.0268  0.0073
 2191TIP3    H2 6538   3.314   1.160   1.428 -1.8399 -2.1847 -2.9308
 2192TIP3   OH2 6539   6.875   1.445   1.651  0.1760  0.3731 -0.0736
 2192TIP3    H1 6540   6.876   1.358   1.689  0.5209  0.3174 -0.1998
 2192TIP3    H2 6541   6.958   1.451   1.603 -1.1987 -0.4120 -2.7405
 2193TIP3   OH2 6542   0.883   6.113   3.301  0.0490 -0.0353  0.2784
 2193TIP3    H1 6543   0.947   6.146   3.364  1.0872 -2.2879  0.5103
 2193TIP3    H2 6544   0.799   6.122   3.345  0.3194  1.8141  0.4828
 2194TIP3   OH2 6545   7.054   5.002   5.416 -0.1319  0.2357 -0.3794
 2194TIP3    H1 6546   7.065   4.917   5.458  0.5419  0.5619  0.1137
 2194TIP3    H2 6547   6.961   5.022   5.428 -0.3741 -0.5746 -0.7980
 2195TIP3   OH2 6548   0.397   0.021   2.124  0.5124  0.0587  0.2358
 2195TIP3    H1 6549   0.484   0.002   2.088  0.9710 -0.1790  1.4200
 2195TIP3    H2 6550   0.407   0.009   2.218 -0.6999  0.4721  0.4358
 2196TIP3   OH2 6551   1.910   4.485   1.691  0.2356  0.0727 -0.0927
 2196TIP3    H1 6552   1.839   4.421   1.687 -0.6800  1.1103 -0.8767
 2196TIP3    H2 6553   1.910   4.514   1.782 -0.1679 -0.1181 -0.0303
 2197TIP3   OH2 6554   1.601   1.711   3.859  0.0006 -0.8254  0.4084
 2197TIP3    H1 6555   1.554   1.793   3.844  0.6873 -0.6307 -0.7591
 2197TIP3    H2 6556   1.592   1.695   3.953 -2.0136 -0.5653  0.3040
 2198TIP3   OH2 6557   7.109   0.495   2.132  0.2841 -0.3703  0.9229
 2198TIP3    H1 6558   7.019   0.503   2.166 -0.3588 -1.5092 -0.4134
 2198TIP3    H2 6559   7.113   0.406   2.097  1.7835 -0.1552  0.5031
 2199TIP3   OH2 6560   1.985   1.171   1.624  0.1092 -0.1544 -0.7536
 2199TIP3    H1 6561   2.061   1.128   1.665  0.1284 -0.1989 -0.8353
 2199TIP3    H2 6562   2.023   1.245   1.577  0.0216  0.2582 -0.1942
 2200TIP3   OH2 6563   2.230   3.982   1.673 -0.4284  0.4759 -0.8211
 2200TIP3    H1 6564   2.269   4.054   1.624  0.6955  0.2776 -0.2429
 2200TIP3    H2 6565   2.255   3.998   1.764  0.8306 -1.2474 -0.8098
 2201TIP3   OH2 6566   0.044   1.792   0.568 -0.1516 -0.5257 -0.2983
 2201TIP3    H1 6567  -0.010   1.863   0.602 -0.3585 -1.1721  0.7561
 2201TIP3    H2 6568   0.016   1.782   0.477  0.5094  1.3280 -0.7636
 2202TIP3   OH2 6569   4.064   1.842   1.812 -0.6194 -1.0337 -0.1955
 2202TIP3    H1 6570   4.068   1.748   1.830 -0.0714 -0.7488  1.3515
 2202TIP3    H2 6571   4.155   1.867   1.795 -0.7269 -0.7455 -0.3589
 2203TIP3   OH2 6572   1.710   6.039   5.683 -0.1401  0.8761 -0.1589
 2203TIP3    H1 6573   1.778   5.976   5.657 -0.6062  1.1023 -2.0986
 2203TIP3    H2 6574   1.758   6.115   5.715  0.4555  0.1089  0.8123
 2204TIP3   OH2 6575   4.790   2.118   5.584  0.6025  0.3616  0.0441
 2204TIP3    H1 6576   4.714   2.106   5.641  1.1968  0.0587  0.7934
 2204TIP3    H2 6577   4.829   2.031   5.577  0.5355  0.3912 -0.8463
 2205TIP3   OH2 6578   4.888   1.619   2.712  0.8048 -0.2825  0.2439
 2205TIP3    H1 6579   4.865   1.685   2.648 -1.4593 -0.0688  1.1765
 2205TIP3    H2 6580   4.947   1.559   2.666  0.0859  0.4361 -1.6799
 2206TIP3   OH2 6581   3.917   3.223   1.589 -0.1380 -0.3374  0.0852
 2206TIP3    H1 6582   3.866   3.301   1.611  1.3121  0.1042  2.1634
 2206TIP3    H2 6583   3.983   3.217   1.658 -0.3233 -3.5483  0.1535
 2207TIP3   OH2 6584   1.216   2.592   2.408 -0.5337  0.1589  0.2001
 2207TIP3    H1 6585   1.295   2.546   2.437 -0.2828 -0.0694 -0.8096
 2207TIP3    H2 6586   1.175   2.622   2.489 -0.7753 -1.9587  0.9293
 2208TIP3   OH2 6587   6.719   0.563   0.172  0.3545  0.3094 -0.3391
 2208TIP3    H1 6588   6.717   0.486   0.114  0.8424 -0.1594  0.2476
 2208TIP3    H2 6589   6.781   0.539   0.241  2.0314  2.0058 -1.2060
 2209TIP3   OH2 6590   2.314   6.267   5.716 -0.2980  0.3809  0.6162
 2209TIP3    H1 6591   2.219   6.252   5.719 -0.1792 -0.4662  0.2408
 2209TIP3    H2 6592   2.340   6.269   5.808 -0.7626  1.2287  0.7471
 2210TIP3   OH2 6593   5.792   2.143   4.073 -0.4891  0.1301 -0.0940
 2210TIP3    H1 6594   5.873   2.148   4.125  0.0133 -0.3532 -0.8149
 2210TIP3    H2 6595   5.788   2.227   4.028  0.0187 -0.1312 -0.6389
 2211TIP3   OH2 6596   6.040   3.731   5.173 -0.0824  0.3219  0.0580
 2211TIP3    H1 6597   6.029   3.822   5.200 -0.1644 -0.1839  1.8750
 2211TIP3    H2 6598   6.134   3.722   5.157  0.0720  0.5029  0.8076
 2212TIP3   OH2 6599   7.205   4.693   0.913  0.3589  0.0021  0.6292
 2212TIP3    H1 6600   7.139   4.762   0.919  0.2828  0.0328 -0.2984
 2212TIP3    H2 6601   7.250   4.695   0.997 -0.7646  0.0280  1.2555
 2213TIP3   OH2 6602   5.954   3.077   1.905  0.1736 -0.7217  0.4431
 2213TIP3    H1 6603   5.977   3.155   1.956 -0.6780 -0.7383  0.8679
 2213TIP3    H2 6604   6.008   3.008   1.943  0.5769 -0.4448  0.3856
 2214TIP3   OH2 6605   5.479   6.720   0.149 -0.3808  0.9208 -0.1944
 2214TIP3    H1 6606   5.409   6.768   0.193 -2.2939  0.2611 -2.3326
 2214TIP3    H2 6607   5.445   6.631   0.141  1.5646  0.0693  0.4085
 2215TIP3   OH2 6608   1.020   5.233   0.431  0.1702  0.1498 -0.7548
 2215TIP3    H1 6609   1.070   5.183   0.367 -1.9904  0.0004 -2.4591
 2215TIP3    H2 6610   1.078   5.305   0.456  0.4572  1.4501 -4.5134
 2216TIP3   OH2 6611   0.588   3.632   4.553  0.2173  0.1405  0.1524
 2216TIP3    H1 6612   0.539   3.665   4.629  1.0752  0.4654  0.5774
 2216TIP3    H2 6613   0.635   3.555   4.585 -0.4679 -0.5292 -0.4100
 2217TIP3   OH2 6614   1.170   5.566   4.518 -0.1805  0.5239  0.7804
 2217TIP3    H1 6615   1.188   5.645   4.567  0.8425  1.1660 -0.5810
 2217TIP3    H2 6616   1.256   5.529   4.498 -0.6098 -0.2980  0.3869
 2218TIP3   OH2 6617   5.135   2.998   1.162  0.0361 -0.4177  0.3894
 2218TIP3    H1 6618   5.102   3.085   1.183 -1.1740 -0.9777  0.9128
 2218TIP3    H2 6619   5.172   2.965   1.244 -0.0888 -0.6380  0.3584
 2219TIP3   OH2 6620   3.756   6.754   5.380 -0.5199 -0.2399 -0.4894
 2219TIP3    H1 6621   3.765   6.691   5.309 -0.9402  0.4044 -1.1315
 2219TIP3    H2 6622   3.666   6.741   5.412  0.3532 -2.0955  1.4803
 2220TIP3   OH2 6623   6.776   4.979   5.466 -0.3955  0.1232  0.4129
 2220TIP3    H1 6624   6.749   4.887   5.459 -1.5839  0.5744 -1.9191
 2220TIP3    H2 6625   6.777   4.996   5.560  2.2954 -2.9055  1.1339
 2221TIP3   OH2 6626   5.892   6.578   4.427 -0.1810  0.0100 -0.0681
 2221TIP3    H1 6627   5.946   6.546   4.500  1.2631  1.3331 -0.5142
 2221TIP3    H2 6628   5.812   6.611   4.469 -0.2264 -1.0151  0.7047
 2222TIP3   OH2 6629   4.362   6.681   0.741  0.1468  0.0874  0.1319
 2222TIP3    H1 6630   4.358   6.655   0.833  1.0443  1.0490  0.4662
 2222TIP3    H2 6631   4.280   6.727   0.726  0.0085 -0.0451  0.4713
 2223TIP3   OH2 6632   1.757   1.010   0.763 -0.0163  0.0740 -0.3119
 2223TIP3    H1 6633   1.815   0.980   0.832  1.6802  1.8433 -0.8491
 2223TIP3    H2 6634   1.816   1.051   0.699 -1.8351  1.9491 -0.9098
 2224TIP3   OH2 6635   2.462   6.686   0.757 -0.6133  0.2841  0.0644
 2224TIP3    H1 6636   2.456   6.671   0.663  0.8657  0.0803 -0.0189
 2224TIP3    H2 6637   2.528   6.753   0.767 -0.1180 -0.3184  0.9963
 2225TIP3   OH2 6638   3.514   2.875   3.053  0.2632  0.3043  0.4518
 2225TIP3    H1 6639   3.551   2.833   3.130 -1.5461 -0.3874  1.0046
 2225TIP3    H2 6640   3.527   2.812   2.982  2.0135  0.9806  0.1246
 2226TIP3   OH2 6641   0.447   6.511   4.172  0.3626 -0.6308  0.1187
 2226TIP3    H1 6642   0.415   6.441   4.230  0.2378  0.2225  1.1074
 2226TIP3    H2 6643   0.514   6.468   4.118  0.9959 -1.2978  1.3797
 2227TIP3   OH2 6644   5.903   5.702   1.021 -0.0863 -0.1287  0.3269
 2227TIP3    H1 6645   5.815   5.714   1.057  0.0748  0.2393  0.6050
 2227TIP3    H2 6646   5.894   5.631   0.958 -0.5410 -0.2315  0.5066
 2228TIP3   OH2 6647   4.585   5.466   1.835 -0.3368 -0.0103 -0.5222
 2228TIP3    H1 6648   4.559   5.501   1.921 -0.6323 -0.9089 -0.2340
 2228TIP3    H2 6649   4.544   5.379   1.832 -0.3860  0.0450 -1.6076
 2229TIP3   OH2 6650   4.885   3.529   0.329  0.0759  0.3451 -0.3244
 2229TIP3    H1 6651   4.810   3.582   0.304 -0.4246 -1.4440 -3.0953
 2229TIP3    H2 6652   4.857   3.439   0.314  1.5256 -0.6663  2.3582
 2230TIP3   OH2 6653   3.864   5.710   5.790  0.4746  0.2741 -0.3220
 2230TIP3    H1 6654   3.931   5.767   5.829  0.5885 -0.7141  0.9573
 2230TIP3    H2 6655   3.872   5.727   5.696  0.3993  2.4857 -0.0002
 2231TIP3   OH2 6656   2.474   1.753   1.012 -0.3893 -0.2273  0.5741
 2231TIP3    H1 6657   2.514   1.800   0.939  0.8883 -0.3539  1.1637
 2231TIP3    H2 6658   2.505   1.799   1.090 -1.6123 -0.1875  1.0602
 2232TIP3   OH2 6659   2.159   3.494   5.003 -0.7702 -0.4190  0.0644
 2232TIP3    H1 6660   2.224   3.482   4.934 -1.0028  1.1342 -0.4583
 2232TIP3    H2 6661   2.092   3.429   4.983 -1.6358  1.0402 -2.2118
 2233TIP3   OH2 6662   2.015   6.722   5.566  0.5893 -0.2145 -0.2700
 2233TIP3    H1 6663   2.051   6.765   5.488  1.0010  0.7154  0.4174
 2233TIP3    H2 6664   2.091   6.706   5.621 -0.0414  2.9560  1.7890
 2234TIP3   OH2 6665   2.097   2.453   0.687  0.0573 -0.5749 -0.5576
 2234TIP3    H1 6666   2.166   2.515   0.665  1.0649 -1.7326 -0.7482
 2234TIP3    H2 6667   2.102   2.386   0.619 -0.7311 -1.0934 -0.1208
 2235TIP3   OH2 6668   2.724   4.733   0.211 -0.4864  0.0902 -0.0053
 2235TIP3    H1 6669   2.706   4.696   0.125 -1.0687 -0.0853  0.1817
 2235TIP3    H2 6670   2.666   4.808   0.218 -2.4882 -1.4612  1.2693
 2236TIP3   OH2 6671   4.759   5.234   0.120  0.4186 -0.0802  0.2472
 2236TIP3    H1 6672   4.801   5.279   0.193  1.1895 -1.0728  0.4391
 2236TIP3    H2 6673   4.674   5.278   0.111  1.6861  2.4145 -0.5734
 2237TIP3   OH2 6674   2.992   3.207   1.252 -0.1746 -0.2264 -0.5414
 2237TIP3    H1 6675   3.070   3.155   1.268  0.9889  1.9582  1.4005
 2237TIP3    H2 6676   2.927   3.173   1.313  0.1728 -0.2273 -0.1721
 2238TIP3   OH2 6677   6.758   6.242   2.114  0.3066 -0.0174  0.2549
 2238TIP3    H1 6678   6.763   6.153   2.077 -1.2973  1.2129 -3.3832
 2238TIP3    H2 6679   6.838   6.284   2.084 -0.6344  0.7502 -1.3546
 2239TIP3   OH2 6680   3.715   2.989   1.289  0.0427 -0.3583 -0.4767
 2239TIP3    H1 6681   3.797   2.941   1.300 -0.3321 -0.7754  0.5875
 2239TIP3    H2 6682   3.652   2.943   1.344 -0.8709  0.0649 -1.1372
 2240TIP3   OH2 6683   2.639   5.314   4.196 -0.1204  0.5355 -0.1679
 2240TIP3    H1 6684   2.605   5.301   4.285  0.9994  0.3936  0.2464
 2240TIP3    H2 6685   2.577   5.376   4.156 -0.4616  0.8470  0.8122
 2241TIP3   OH2 6686   6.462   3.405   1.257  0.2568  0.3652 -0.1607
 2241TIP3    H1 6687   6.474   3.442   1.169  0.8689  1.0796  0.2076
 2241TIP3    H2 6688   6.551   3.389   1.288  0.0340 -0.1502  0.2237
 2242TIP3   OH2 6689   1.905   5.129   1.352  0.1407 -0.2828  0.2178
 2242TIP3    H1 6690   1.842   5.065   1.386 -0.1575 -0.1086 -0.0049
 2242TIP3    H2 6691   1.876   5.212   1.388 -0.3839 -0.0425 -0.7439
 2243TIP3   OH2 6692   0.350   6.381   5.239 -0.3016  0.0934  0.0459
 2243TIP3    H1 6693   0.382   6.462   5.200 -1.5154  0.7595  0.4024
 2243TIP3    H2 6694   0.410   6.363   5.311  1.8191 -0.9988 -1.8257
 2244TIP3   OH2 6695   6.106   5.536   4.675 -0.6876  0.0791 -0.6679
 2244TIP3    H1 6696   6.081   5.450   4.642  2.4586 -1.1985 -0.0590
 2244TIP3    H2 6697   6.197   5.547   4.648 -0.4931  2.5302  0.6506
 2245TIP3   OH2 6698   1.212   1.107   4.002  0.4205  0.7228  0.6850
 2245TIP3    H1 6699   1.293   1.070   4.039 -0.5018 -0.3153  1.7687
 2245TIP3    H2 6700   1.207   1.071   3.914  0.8786  0.3736  0.7966
 2246TIP3   OH2 6701   6.626   2.004   3.746 -0.4796  0.2918  0.0045
 2246TIP3    H1 6702   6.718   1.984   3.727 -0.9976 -0.1380 -2.2789
 2246TIP3    H2 6703   6.601   1.940   3.813  0.3609 -0.8675 -0.7489
 2247TIP3   OH2 6704   5.338   3.129   4.472  0.8206  0.0333  0.1663
 2247TIP3    H1 6705   5.273   3.198   4.463  2.0465  1.1426 -0.5936
 2247TIP3    H2 6706   5.334   3.103   4.564 -1.2415 -0.5279 -0.0245
 2248TIP3   OH2 6707   6.313   3.694   2.028  0.3492 -0.6980  0.6195
 2248TIP3    H1 6708   6.218   3.696   2.038 -0.0711  0.4054 -2.4976
 2248TIP3    H2 6709   6.328   3.652   1.944  2.3149  2.5671 -0.8513
 2249TIP3   OH2 6710   0.492   4.430   3.307  1.1149 -0.7369  0.1926
 2249TIP3    H1 6711   0.460   4.373   3.377  1.3688 -0.8035  0.2547
 2249TIP3    H2 6712   0.563   4.480   3.348  0.5754 -0.0291  0.2739
 2250TIP3   OH2 6713   4.972   0.011   3.465 -0.1166  0.6907  0.3487
 2250TIP3    H1 6714   4.984  -0.037   3.384  1.0059 -0.4131  1.1293
 2250TIP3    H2 6715   4.887   0.054   3.456 -0.6255 -0.5213 -0.8420
 2251TIP3   OH2 6716   2.025   4.598   3.871  0.8469  0.2714 -0.0827
 2251TIP3    H1 6717   2.103   4.649   3.894 -0.1103  1.8695 -0.2514
 2251TIP3    H2 6718   1.958   4.663   3.851 -0.3193 -1.0632 -0.7403
 2252TIP3   OH2 6719   3.039   5.754   1.243 -0.0024  0.0001 -0.0825
 2252TIP3    H1 6720   2.966   5.779   1.187  0.4760 -0.3504 -0.8766
 2252TIP3    H2 6721   3.111   5.809   1.215 -0.4615  1.9083  2.1419
 2253TIP3   OH2 6722   4.273   5.625   2.134  0.9256  0.6130  0.0865
 2253TIP3    H1 6723   4.216   5.691   2.173 -0.4494 -0.7505  0.4555
 2253TIP3    H2 6724   4.235   5.608   2.047  0.8762 -0.1523  0.2512
 2254TIP3   OH2 6725   1.251   1.494   2.885  0.3742 -0.6809 -0.1215
 2254TIP3    H1 6726   1.179   1.462   2.832  0.6670 -0.1457 -0.8681
 2254TIP3    H2 6727   1.310   1.535   2.822  1.6171 -1.6167  0.3977
 2255TIP3   OH2 6728   0.881   3.822   2.960  0.2919  0.3146  0.0861
 2255TIP3    H1 6729   0.927   3.740   2.942  0.9280  0.8052 -0.5819
 2255TIP3    H2 6730   0.907   3.846   3.049 -0.5501 -0.6192  0.6016
 2256TIP3   OH2 6731   0.872   5.074   2.207 -0.0799  0.0952 -0.1388
 2256TIP3    H1 6732   0.808   5.006   2.226 -1.2285  1.4691  1.1917
 2256TIP3    H2 6733   0.940   5.062   2.273 -0.0852 -0.0043 -0.1512
 2257TIP3   OH2 6734   0.173   3.242   2.302 -0.3070  0.3140  0.4329
 2257TIP3    H1 6735   0.162   3.165   2.247 -1.5535  0.4526  0.4428
 2257TIP3    H2 6736   0.238   3.216   2.367  0.9652  0.0458 -0.8806
 2258TIP3   OH2 6737   1.099   1.100   2.280 -0.1346  0.2764 -0.5325
 2258TIP3    H1 6738   1.086   1.144   2.364 -0.4465  0.0420 -0.4546
 2258TIP3    H2 6739   1.062   1.012   2.293 -1.7089  0.7616 -1.4181
 2259TIP3   OH2 6740   5.049   1.702   4.082  0.3153  0.5069  0.1092
 2259TIP3    H1 6741   5.115   1.742   4.026 -0.3004  1.4429  0.0387
 2259TIP3    H2 6742   4.983   1.770   4.095 -0.5714 -0.3580  0.2890
 2260TIP3   OH2 6743   7.047   0.655   1.438  0.3670  0.2421 -0.2457
 2260TIP3    H1 6744   7.087   0.726   1.388  2.7988  0.1170  1.3657
 2260TIP3    H2 6745   6.965   0.637   1.392  1.1206  2.0059 -2.4851
 2261TIP3   OH2 6746   2.551   2.091   0.523  0.0751  0.3161 -0.3252
 2261TIP3    H1 6747   2.509   2.168   0.483 -0.3103  1.6067  2.3179
 2261TIP3    H2 6748   2.482   2.025   0.524 -0.4975  0.8990 -0.1036
 2262TIP3   OH2 6749   2.212   3.949   5.760 -0.0001  0.0841  0.6644
 2262TIP3    H1 6750   2.243   3.915   5.844 -0.3235 -0.5607  0.5218
 2262TIP3    H2 6751   2.135   4.001   5.782 -0.5191 -0.6856  0.6875
 2263TIP3   OH2 6752   4.865   0.396   5.691 -0.0633  0.6436  0.1852
 2263TIP3    H1 6753   4.885   0.383   5.783 -0.2392  1.1584  0.3006
 2263TIP3    H2 6754   4.943   0.365   5.645 -0.5847 -1.0911  0.4095
 2264TIP3   OH2 6755   5.383   1.029   0.869 -0.3192  0.3280 -0.1033
 2264TIP3    H1 6756   5.344   1.105   0.911 -1.5086 -0.4973  0.3416
 2264TIP3    H2 6757   5.461   1.009   0.922 -0.4952  0.7029  0.2973
 2265TIP3   OH2 6758   3.359   0.315   3.776 -0.0634 -0.2482 -0.2513
 2265TIP3    H1 6759   3.419   0.243   3.757  0.8920  0.4084  0.1941
 2265TIP3    H2 6760   3.370   0.375   3.702  0.7769  0.4596  0.4207
 2266TIP3   OH2 6761   1.999   0.388   2.420 -0.0845  0.4527  0.1504
 2266TIP3    H1 6762   1.977   0.478   2.395 -1.4416  0.2509  0.5519
 2266TIP3    H2 6763   2.059   0.398   2.494 -1.4924  1.0395  1.2422
 2267TIP3   OH2 6764   5.064   5.347   3.791 -0.8263 -1.0517  0.8289
 2267TIP3    H1 6765   4.972   5.363   3.811 -1.1391 -1.0548 -0.5182
 2267TIP3    H2 6766   5.095   5.428   3.750 -0.1630 -0.9753  1.4527
 2268TIP3   OH2 6767   4.092   6.028   1.155  0.5371 -0.3391 -0.2021
 2268TIP3    H1 6768   4.137   6.087   1.215 -0.3065 -1.2690  1.3964
 2268TIP3    H2 6769   4.048   6.087   1.093  1.3291  0.6381  0.1311
 2269TIP3   OH2 6770   2.260   0.444   4.965  0.3165  0.4508  0.5796
 2269TIP3    H1 6771   2.261   0.360   5.010 -1.6622  0.2029  0.2478
 2269TIP3    H2 6772   2.184   0.490   5.001 -0.5383  0.7775 -1.4935
 2270TIP3   OH2 6773   3.898   2.139   1.224  0.1054 -0.6242  0.0240
 2270TIP3    H1 6774   3.981   2.123   1.179  0.3447 -0.7553  0.5058
 2270TIP3    H2 6775   3.872   2.054   1.257  0.6629 -0.2988  1.3667
 2271TIP3   OH2 6776   0.449   4.763   0.942 -0.2069 -0.2534 -0.0287
 2271TIP3    H1 6777   0.423   4.805   1.024  0.7572  0.4507 -0.0776
 2271TIP3    H2 6778   0.372   4.771   0.886 -0.6565 -0.1849  0.5868
 2272TIP3   OH2 6779   5.547   5.272   1.906  0.2412 -0.3062 -0.1535
 2272TIP3    H1 6780   5.573   5.204   1.844  0.9644 -1.2376  1.1315
 2272TIP3    H2 6781   5.588   5.352   1.873 -1.0296 -0.3467 -1.9634
 2273TIP3   OH2 6782   6.242   0.595   2.755 -0.1160 -0.2008 -0.4270
 2273TIP3    H1 6783   6.185   0.672   2.752 -0.0362 -0.1453 -0.5416
 2273TIP3    H2 6784   6.260   0.575   2.663 -0.1606 -0.3756 -0.3979
 2274TIP3   OH2 6785   0.080   6.167   3.779  0.4613  0.2648 -0.1547
 2274TIP3    H1 6786   0.101   6.220   3.856  0.4537  1.7510 -1.1335
 2274TIP3    H2 6787  -0.008   6.133   3.796  0.9424 -0.4777  1.0199
 2275TIP3   OH2 6788   3.310   4.030   3.924  0.0159 -0.1546 -0.2676
 2275TIP3    H1 6789   3.352   4.106   3.883 -0.4471  1.1568  1.5731
 2275TIP3    H2 6790   3.368   4.006   3.996 -1.5209  0.6750  1.3219
 2276TIP3   OH2 6791   3.166   1.695   1.055 -0.2464  0.2823 -0.0182
 2276TIP3    H1 6792   3.172   1.770   0.996 -0.4792 -1.4448 -2.3963
 2276TIP3    H2 6793   3.072   1.678   1.062 -0.1697 -0.2322 -0.1614
 2277TIP3   OH2 6794   5.512   0.940   0.393 -0.0492  0.1879 -0.1993
 2277TIP3    H1 6795   5.456   0.930   0.470 -0.9993 -1.0205 -1.0170
 2277TIP3    H2 6796   5.562   1.020   0.410 -1.1901  0.6635  1.0815
 2278TIP3   OH2 6797   0.418   6.015   1.796  0.4111  0.2807  0.4233
 2278TIP3    H1 6798   0.430   5.943   1.734  3.4324 -0.0718  1.2630
 2278TIP3    H2 6799   0.380   5.973   1.874  1.1021 -0.1884  0.5102
 2279TIP3   OH2 6800   4.039   1.924   5.115 -0.2539  0.5894 -0.2186
 2279TIP3    H1 6801   3.979   1.868   5.067  0.5611  1.6492 -2.6412
 2279TIP3    H2 6802   3.990   2.004   5.131 -0.2589  0.5460 -0.0142
 2280TIP3   OH2 6803   1.100   2.477   2.171  0.0903 -0.2409 -0.4477
 2280TIP3    H1 6804   1.023   2.532   2.185 -0.2132 -0.5935 -0.7198
 2280TIP3    H2 6805   1.147   2.481   2.254 -0.8677 -1.0218  0.1568
 2281TIP3   OH2 6806   0.183   6.177   4.181  0.2862 -0.4752 -0.4355
 2281TIP3    H1 6807   0.268   6.134   4.183 -0.0684 -1.1772  0.0461
 2281TIP3    H2 6808   0.181   6.232   4.260  0.0224 -1.0066 -0.0668
 2282TIP3   OH2 6809   3.041   1.147   0.902 -0.0760 -0.7545 -0.1483
 2282TIP3    H1 6810   3.002   1.162   0.816  1.6633 -0.5141 -0.9338
 2282TIP3    H2 6811   3.094   1.068   0.892 -0.3214 -1.0813  0.8959
 2283TIP3   OH2 6812   5.009   3.401   3.034  0.1275 -0.7015 -0.3546
 2283TIP3    H1 6813   4.945   3.453   2.985 -0.8134 -1.6119 -0.1294
 2283TIP3    H2 6814   5.060   3.355   2.967  0.1989 -0.3764 -0.5227
 2284TIP3   OH2 6815   5.222   5.861   3.319  0.8613 -0.0903 -0.3643
 2284TIP3    H1 6816   5.216   5.906   3.236 -1.9666  2.4102  1.0118
 2284TIP3    H2 6817   5.285   5.912   3.370 -0.4046  0.8469  0.3166
 2285TIP3   OH2 6818   4.344   3.303   0.977 -0.4420  0.4219  0.1658
 2285TIP3    H1 6819   4.306   3.377   0.931  0.0533  0.7375  0.2588
 2285TIP3    H2 6820   4.277   3.277   1.040 -0.6872  0.6782  0.0115
 2286TIP3   OH2 6821   4.094   5.978   2.478  0.1047  0.3499  0.4039
 2286TIP3    H1 6822   4.083   5.931   2.561 -0.6275  0.0098  0.1209
 2286TIP3    H2 6823   4.008   5.974   2.437 -0.2057  2.5631  0.6896
 2287TIP3   OH2 6824   2.098   2.317   0.449  0.6322  0.1893 -0.3982
 2287TIP3    H1 6825   2.139   2.258   0.385  3.0630  0.5477  0.7206
 2287TIP3    H2 6826   2.070   2.392   0.397  2.5412  0.4635 -1.1200
 2288TIP3   OH2 6827   4.237   1.097   2.671 -0.4887 -0.2093 -0.5606
 2288TIP3    H1 6828   4.293   1.022   2.694 -1.5902 -0.7743  0.4167
 2288TIP3    H2 6829   4.296   1.172   2.673  0.1530 -0.7100  0.9742
 2289TIP3   OH2 6830   6.729   2.755   4.489 -0.0694  0.2198  0.0213
 2289TIP3    H1 6831   6.819   2.756   4.455 -0.1692  0.4565 -0.2481
 2289TIP3    H2 6832   6.679   2.710   4.421 -0.0876 -0.2823  0.3596
 2290TIP3   OH2 6833   1.739   1.988   3.730  0.4421  0.3400  0.0540
 2290TIP3    H1 6834   1.827   1.951   3.737  0.8670  1.0295 -1.2522
 2290TIP3    H2 6835   1.748   2.078   3.759 -0.6322 -0.4970  3.3963
 2291TIP3   OH2 6836   5.127   3.658   5.135 -0.6893  0.4080 -0.1930
 2291TIP3    H1 6837   5.100   3.709   5.058 -1.0486 -0.4242 -0.6267
 2291TIP3    H2 6838   5.207   3.614   5.107 -1.6290 -1.1047 -0.6463
 2292TIP3   OH2 6839   5.948   3.493   4.679  0.9992 -0.1186 -0.2884
 2292TIP3    H1 6840   5.885   3.429   4.713  0.0778  1.3179  0.8353
 2292TIP3    H2 6841   5.975   3.458   4.594 -1.4079 -0.7432 -0.8599
 2293TIP3   OH2 6842   1.105   1.541   3.899 -0.2078 -0.4214  0.3474
 2293TIP3    H1 6843   1.081   1.622   3.944 -1.3095 -0.4697 -0.1099
 2293TIP3    H2 6844   1.069   1.472   3.955  1.5129 -0.6662  1.2089
 2294TIP3   OH2 6845   6.369   6.265   4.734  0.0844  0.4207 -0.4047
 2294TIP3    H1 6846   6.331   6.323   4.800 -1.2126 -1.1959  0.3541
 2294TIP3    H2 6847   6.462   6.261   4.756 -0.5208 -1.2600  2.3789
 2295TIP3   OH2 6848   6.903   4.478   4.923 -0.2572 -0.7003 -0.0356
 2295TIP3    H1 6849   6.985   4.430   4.937  0.2027 -0.0117 -0.3019
 2295TIP3    H2 6850   6.849   4.418   4.871  0.8453 -0.4269 -1.5791
 2296TIP3   OH2 6851   1.869   1.368   4.435 -0.2501 -0.3845 -0.0131
 2296TIP3    H1 6852   1.867   1.285   4.483  1.1142 -0.5195 -0.1544
 2296TIP3    H2 6853   1.904   1.431   4.499 -0.9143  0.0027 -0.0273
 2297TIP3   OH2 6854   5.247   0.699   0.471 -0.0270 -0.0778  0.4537
 2297TIP3    H1 6855   5.259   0.608   0.497  0.2904 -0.1127  0.1915
 2297TIP3    H2 6856   5.224   0.695   0.378  1.4349  0.1738  0.0478
 2298TIP3   OH2 6857   6.474   4.011   0.139  0.1542  0.1473 -0.3674
 2298TIP3    H1 6858   6.506   3.981   0.054 -0.6594  0.0398 -0.6430
 2298TIP3    H2 6859   6.544   3.988   0.200  0.0267 -1.3638 -0.7370
 2299TIP3   OH2 6860   6.513   0.738   2.505  0.2092  0.2899  0.3277
 2299TIP3    H1 6861   6.540   0.692   2.585  1.0710  1.3112  0.6600
 2299TIP3    H2 6862   6.441   0.794   2.534 -0.2974 -0.2491  0.1091
 2300TIP3   OH2 6863   0.646   1.264   0.397 -0.2735  0.3351  0.2790
 2300TIP3    H1 6864   0.615   1.289   0.484 -0.3213  1.8190 -0.1455
 2300TIP3    H2 6865   0.574   1.289   0.338  0.4916  1.0446 -0.3827
 2301TIP3   OH2 6866   6.728   3.078   3.356  0.6388  0.0499  0.3793
 2301TIP3    H1 6867   6.737   2.983   3.343 -1.2645 -0.1791  0.4788
 2301TIP3    H2 6868   6.685   3.087   3.441 -1.4930  0.8554 -0.7217
 2302TIP3   OH2 6869   3.426   1.592   0.048 -0.1351  0.3178 -0.3912
 2302TIP3    H1 6870   3.356   1.532   0.023  0.2701  0.0792 -0.9697
 2302TIP3    H2 6871   3.507   1.548   0.019  0.2898  0.3953  0.6407
 2303TIP3   OH2 6872   4.334   3.255   5.711  0.4457  0.0794  0.2095
 2303TIP3    H1 6873   4.279   3.307   5.651 -0.4786 -1.4885 -0.3858
 2303TIP3    H2 6874   4.271   3.206   5.764  1.2847 -0.2078  0.9604
 2304TIP3   OH2 6875   4.235   4.104   0.527 -0.0446 -0.5283  0.6430
 2304TIP3    H1 6876   4.177   4.159   0.474 -0.8835 -1.6764  0.3094
 2304TIP3    H2 6877   4.195   4.103   0.614  1.3097  1.3200  1.3363
 2305TIP3   OH2 6878   3.282   3.106   4.074  0.2163 -0.4411 -0.3117
 2305TIP3    H1 6879   3.307   3.124   4.164  0.0177 -0.1741 -0.3067
 2305TIP3    H2 6880   3.198   3.152   4.063 -0.0090 -0.8919 -0.4783
 2306TIP3   OH2 6881   6.714   5.178   2.872 -0.3432 -0.9439 -0.1281
 2306TIP3    H1 6882   6.632   5.147   2.910 -0.6793  0.3252  0.2284
 2306TIP3    H2 6883   6.688   5.243   2.807  0.3489 -1.2085 -0.6834
 2307TIP3   OH2 6884   0.287   6.336   1.425  0.2933 -0.2407  0.1080
 2307TIP3    H1 6885   0.311   6.429   1.428 -0.2387  0.0164 -1.7890
 2307TIP3    H2 6886   0.281   6.309   1.516  1.1240  1.4163  0.6855
 2308TIP3   OH2 6887   2.724   1.739   5.571 -0.5491  0.1366 -0.6902
 2308TIP3    H1 6888   2.697   1.780   5.653  3.6062  0.5389  0.7047
 2308TIP3    H2 6889   2.750   1.650   5.596  1.7544  0.5907 -1.2428
 2309TIP3   OH2 6890   2.300   0.242   0.939 -0.4823  0.5767 -0.2427
 2309TIP3    H1 6891   2.229   0.201   0.987 -0.9814  0.1436 -1.3258
 2309TIP3    H2 6892   2.374   0.242   1.000 -0.5990 -1.5085 -0.0307
 2310TIP3   OH2 6893   2.361   0.828   1.216 -0.1601 -0.0151  0.3916
 2310TIP3    H1 6894   2.320   0.890   1.276  0.0329  1.4779 -0.9562
 2310TIP3    H2 6895   2.437   0.874   1.181  0.8607 -1.5793  0.4515
 2311TIP3   OH2 6896   1.992   4.815   5.825  0.1314  0.2694 -0.0173
 2311TIP3    H1 6897   2.026   4.740   5.776  0.9708  0.9043 -0.4361
 2311TIP3    H2 6898   2.025   4.892   5.778  0.8724  0.9100  1.4589
 2312TIP3   OH2 6899   2.055   3.107   1.109  0.0343 -0.4874  0.4737
 2312TIP3    H1 6900   1.982   3.148   1.063 -0.0451  0.4636  1.4274
 2312TIP3    H2 6901   2.118   3.086   1.040  0.1807  1.4495 -0.0277
 2313TIP3   OH2 6902   1.997   2.883   2.103  0.1403 -0.2887  0.2185
 2313TIP3    H1 6903   2.054   2.955   2.132 -0.1913 -0.1607  0.5540
 2313TIP3    H2 6904   2.051   2.834   2.041  0.7921 -0.4609  0.9152
 2314TIP3   OH2 6905   1.888   4.366   3.832 -0.0876 -0.8961  0.1422
 2314TIP3    H1 6906   1.823   4.406   3.775  0.4589 -0.7891 -0.4132
 2314TIP3    H2 6907   1.947   4.438   3.855 -0.4672 -0.8707  1.0893
 2315TIP3   OH2 6908   7.116   4.146   5.438  0.0650 -0.4263 -0.5266
 2315TIP3    H1 6909   7.023   4.122   5.432 -0.7490  1.3438  2.4626
 2315TIP3    H2 6910   7.121   4.197   5.519  3.9343 -1.6196  0.1674
 2316TIP3   OH2 6911   0.196   0.713   3.092  0.4337  0.6124 -0.3896
 2316TIP3    H1 6912   0.279   0.668   3.079 -0.1996 -0.2947 -1.5527
 2316TIP3    H2 6913   0.130   0.646   3.075 -0.5544  1.1779  1.0408
 2317TIP3   OH2 6914   3.015   6.583   0.453  0.1941  0.4989  0.0535
 2317TIP3    H1 6915   2.925   6.576   0.420  0.6609  0.8012 -1.3512
 2317TIP3    H2 6916   3.017   6.525   0.529 -1.4425  1.2276  0.7111
 2318TIP3   OH2 6917   3.779   1.702   2.856  0.0304 -0.0019  0.4665
 2318TIP3    H1 6918   3.870   1.695   2.829 -0.3104 -1.0361 -0.4890
 2318TIP3    H2 6919   3.730   1.652   2.791 -1.0330 -1.0305  1.9802
 2319TIP3   OH2 6920   0.264   6.721   1.928 -0.0084 -0.0544 -0.0018
 2319TIP3    H1 6921   0.195   6.778   1.896 -0.2851 -0.7185 -0.6201
 2319TIP3    H2 6922   0.242   6.634   1.894  0.2887 -0.5798  1.0808
 2320TIP3   OH2 6923   4.929   2.716   5.495 -0.3567 -0.4786 -0.6398
 2320TIP3    H1 6924   4.986   2.672   5.559  0.6515 -2.1016 -2.5481
 2320TIP3    H2 6925   4.842   2.712   5.534  0.3052 -0.8713  0.8975
 2321TIP3   OH2 6926   5.980   5.777   2.794 -0.3402  0.3458 -0.0099
 2321TIP3    H1 6927   5.911   5.765   2.859  1.0124  0.6462  1.5433
 2321TIP3    H2 6928   5.954   5.856   2.747 -3.0091 -1.5731 -2.1319
 2322TIP3   OH2 6929   3.381   1.673   4.636  0.0428 -0.0601  0.3513
 2322TIP3    H1 6930   3.390   1.578   4.631  0.0751 -0.0094 -0.8821
 2322TIP3    H2 6931   3.314   1.687   4.703  0.5333 -0.9088  1.0525
 2323TIP3   OH2 6932   7.037   1.237   4.454 -0.2601  0.5706 -0.2312
 2323TIP3    H1 6933   7.013   1.303   4.388  0.6546  1.7260  0.5587
 2323TIP3    H2 6934   6.973   1.250   4.524 -1.0235 -0.4339 -0.7167
 2324TIP3   OH2 6935   0.923   0.633   1.202  0.2344 -0.6167  0.6979
 2324TIP3    H1 6936   1.017   0.616   1.210  0.1475 -0.6204  1.7594
 2324TIP3    H2 6937   0.900   0.684   1.280 -0.7200 -0.9439  0.6457
 2325TIP3   OH2 6938   6.219   0.513   2.493  0.1112 -0.5078  0.0182
 2325TIP3    H1 6939   6.134   0.477   2.520  0.4354 -0.6001  0.9669
 2325TIP3    H2 6940   6.270   0.436   2.466 -0.8882 -0.2384 -2.9569
 2326TIP3   OH2 6941   0.553   5.523   4.730 -0.5325 -0.4518  0.0037
 2326TIP3    H1 6942   0.558   5.562   4.817 -2.2921 -0.0424 -0.0515
 2326TIP3    H2 6943   0.565   5.430   4.745 -2.5214 -0.6077  0.9465
 2327TIP3   OH2 6944   5.171   1.537   3.670  0.0122  0.1202 -0.5825
 2327TIP3    H1 6945   5.226   1.518   3.746 -1.6359 -0.5389  0.5047
 2327TIP3    H2 6946   5.101   1.472   3.674 -0.1475  0.0829 -2.6693
 2328TIP3   OH2 6947   4.602   6.731   0.638  0.3070  0.3852 -0.0863
 2328TIP3    H1 6948   4.509   6.724   0.661 -0.2162  1.7681 -1.5664
 2328TIP3    H2 6949   4.630   6.641   0.623 -0.2764 -0.2350  2.1652
 2329TIP3   OH2 6950   4.615   1.245   4.899 -0.3423  0.1085  0.1282
 2329TIP3    H1 6951   4.699   1.292   4.902  2.4885 -4.3760  0.3339
 2329TIP3    H2 6952   4.571   1.269   4.980  2.0832  0.5004  1.4203
 2330TIP3   OH2 6953   5.515   3.411   4.732  0.1981  0.0880  0.7011
 2330TIP3    H1 6954   5.548   3.357   4.660 -3.2669 -0.4498 -0.6540
 2330TIP3    H2 6955   5.437   3.453   4.697 -0.7923  1.0203  3.7168
 2331TIP3   OH2 6956   4.502   5.178   5.061 -0.0048 -0.0626  0.2627
 2331TIP3    H1 6957   4.536   5.240   4.996  0.6705 -1.0558 -0.3834
 2331TIP3    H2 6958   4.445   5.120   5.010  0.0545 -0.4862  0.6753
 2332TIP3   OH2 6959   2.973   6.178   2.425  0.2033 -0.2334  0.5485
 2332TIP3    H1 6960   3.039   6.109   2.433  0.8125  0.4491  1.5065
 2332TIP3    H2 6961   2.904   6.138   2.371  1.5005 -0.8552 -0.7357
 2333TIP3   OH2 6962   1.792   5.363   1.459 -0.2476  0.6932 -0.0398
 2333TIP3    H1 6963   1.703   5.331   1.448 -0.7104  1.8802  0.0910
 2333TIP3    H2 6964   1.798   5.385   1.552  0.6598 -0.6912  0.2692
 2334TIP3   OH2 6965   6.485   3.845   0.602  0.2553  0.0111 -0.1406
 2334TIP3    H1 6966   6.504   3.751   0.602  1.9808  0.3188 -1.7214
 2334TIP3    H2 6967   6.390   3.849   0.614  0.2163 -1.8891  0.6785
 2335TIP3   OH2 6968   0.914   4.719   0.930  0.1231  0.2894  0.0949
 2335TIP3    H1 6969   0.846   4.653   0.918 -0.8075  0.9611  1.4138
 2335TIP3    H2 6970   0.904   4.777   0.854  1.2070 -1.2358 -1.2903
 2336TIP3   OH2 6971   3.994   4.682   0.041  0.5403  0.0359  0.0414
 2336TIP3    H1 6972   3.922   4.643  -0.008  0.0703 -0.5735  1.1945
 2336TIP3    H2 6973   4.073   4.648  -0.001  0.1386 -1.6417  0.5878
 2337TIP3   OH2 6974   1.736   0.686   4.327 -0.3017 -0.2450 -0.1131
 2337TIP3    H1 6975   1.777   0.653   4.407  0.3319  0.5331 -0.1088
 2337TIP3    H2 6976   1.771   0.775   4.317 -2.5323  0.7395  0.2878
 2338TIP3   OH2 6977   1.968   1.856   3.794  0.3742 -0.0780 -0.1415
 2338TIP3    H1 6978   2.017   1.775   3.811 -1.1736 -0.6397  2.0071
 2338TIP3    H2 6979   1.978   1.907   3.874 -0.6405  0.8265 -0.5669
 2339TIP3   OH2 6980   6.957   5.691   2.342  0.4852 -0.7555 -0.0129
 2339TIP3    H1 6981   6.942   5.722   2.431  2.5013  1.4738 -0.3445
 2339TIP3    H2 6982   7.045   5.654   2.344  1.4979  1.4108 -1.5117
 2340TIP3   OH2 6983   3.837   5.443   0.641 -0.4670 -0.5548 -0.1294
 2340TIP3    H1 6984   3.932   5.438   0.638 -0.4635 -2.0361  1.1733
 2340TIP3    H2 6985   3.816   5.528   0.602  1.3410 -0.4229 -0.9141
 2341TIP3   OH2 6986   5.446   4.380   4.363  0.0806  0.0725 -0.0914
 2341TIP3    H1 6987   5.428   4.462   4.316 -0.5216  0.4482  0.7721
 2341TIP3    H2 6988   5.368   4.366   4.417 -0.0076 -1.2976 -0.5289
 2342TIP3   OH2 6989   5.110   4.794   4.731  0.2382  0.1911 -0.9042
 2342TIP3    H1 6990   5.054   4.852   4.783  1.1000  0.6892 -0.4972
 2342TIP3    H2 6991   5.064   4.710   4.730  1.4343 -0.7675  3.1722
 2343TIP3   OH2 6992   1.741   2.476   4.432  0.2238  0.3362  0.4341
 2343TIP3    H1 6993   1.712   2.391   4.401  1.9602 -0.5665  1.1756
 2343TIP3    H2 6994   1.748   2.467   4.527 -1.3303  1.8933  0.7522
 2344TIP3   OH2 6995   4.003   6.219   5.386  0.7444  0.0634 -0.2662
 2344TIP3    H1 6996   3.939   6.189   5.321  1.4624 -1.2918 -0.3799
 2344TIP3    H2 6997   4.088   6.206   5.344  1.1471  2.1600 -0.2484
 2345TIP3   OH2 6998   5.664   4.287   1.296 -0.0027 -0.2734 -0.2690
 2345TIP3    H1 6999   5.689   4.279   1.204  0.0833 -1.1607 -0.1796
 2345TIP3    H2 7000   5.619   4.205   1.316  1.1317 -0.6707  0.8214
 2346TIP3   OH2 7001   5.867   2.700   4.221  0.0515 -0.4056 -0.7769
 2346TIP3    H1 7002   5.937   2.762   4.244 -0.8933  0.0573  1.0303
 2346TIP3    H2 7003   5.904   2.614   4.240  0.5371 -0.2549 -1.0115
 2347TIP3   OH2 7004   4.057   2.156   1.998 -0.4814  0.1672  0.1789
 2347TIP3    H1 7005   4.100   2.210   2.065  1.4895 -0.3473 -0.6354
 2347TIP3    H2 7006   4.013   2.087   2.048 -0.7132  0.9189  1.0512
 2348TIP3   OH2 7007   2.965   6.198   0.089 -0.4402  0.4770  0.4468
 2348TIP3    H1 7008   3.006   6.112   0.078 -1.7951 -0.2616  0.7867
 2348TIP3    H2 7009   3.026   6.260   0.049  0.4042 -0.6851 -0.1322
 2349TIP3   OH2 7010   4.339   1.282   1.684 -0.4899  0.1028  0.3998
 2349TIP3    H1 7011   4.255   1.325   1.667 -0.0567  1.7850  2.1301
 2349TIP3    H2 7012   4.319   1.211   1.745 -1.0648 -1.6747 -1.7222
 2350TIP3   OH2 7013   1.555   0.610   3.598 -0.3971 -0.1689 -0.3150
 2350TIP3    H1 7014   1.613   0.587   3.670  0.3159 -1.8129 -1.3436
 2350TIP3    H2 7015   1.470   0.572   3.622 -0.2345 -0.4690 -0.2078
 2351TIP3   OH2 7016   3.440   5.628   1.082 -0.2119 -0.1166  0.4997
 2351TIP3    H1 7017   3.395   5.624   0.998 -1.5684 -1.4768  1.2518
 2351TIP3    H2 7018   3.414   5.712   1.119 -0.7608 -0.1391  0.1726
 2352TIP3   OH2 7019   4.053   6.241   3.113 -0.2235  0.0021 -0.0720
 2352TIP3    H1 7020   3.994   6.244   3.038 -0.8809  1.0174  0.4715
 2352TIP3    H2 7021   4.132   6.197   3.079 -0.3524  0.7925 -1.4607
 2353TIP3   OH2 7022   5.393   3.828   3.002  0.2079  0.4011  0.1658
 2353TIP3    H1 7023   5.444   3.908   2.987  0.4002  0.4155  0.8679
 2353TIP3    H2 7024   5.312   3.842   2.952  1.0413  0.2089 -1.2828
 2354TIP3   OH2 7025   3.416   5.783   3.835 -0.1188  0.9599 -0.7964
 2354TIP3    H1 7026   3.507   5.806   3.820  1.0564 -2.0164  0.9509
 2354TIP3    H2 7027   3.401   5.803   3.928 -0.2054 -1.3609 -0.2426
 2355TIP3   OH2 7028   2.752   0.249   4.375 -0.5654 -0.4965  0.2007
 2355TIP3    H1 7029   2.713   0.332   4.402 -1.3818 -0.0245 -2.1968
 2355TIP3    H2 7030   2.685   0.208   4.321  0.9480 -1.3491 -1.0960
 2356TIP3   OH2 7031   4.655   2.758   5.608  0.0434  0.5731  0.1812
 2356TIP3    H1 7032   4.592   2.697   5.569  1.2703 -0.9034  0.3754
 2356TIP3    H2 7033   4.604   2.810   5.670 -1.1573  0.1170 -0.4092
 2357TIP3   OH2 7034   3.817   5.100   1.535  0.7578 -0.6430  0.5962
 2357TIP3    H1 7035   3.741   5.138   1.491  0.9918  0.3949  1.0645
 2357TIP3    H2 7036   3.785   5.078   1.623  0.7902 -0.9247  0.5365
 2358TIP3   OH2 7037   1.200   5.396   5.410 -0.4443  0.1814  0.2474
 2358TIP3    H1 7038   1.140   5.360   5.345  0.4689 -0.2143 -0.3944
 2358TIP3    H2 7039   1.151   5.393   5.492 -0.8252 -1.4077 -0.0145
 2359TIP3   OH2 7040   3.378   3.594   1.453  0.0605  0.1163 -0.0648
 2359TIP3    H1 7041   3.409   3.503   1.449  0.1421  0.1433 -0.0488
 2359TIP3    H2 7042   3.309   3.592   1.520  0.0569  0.0646 -0.0698
 2360TIP3   OH2 7043   5.395   4.680   1.137  0.0040  0.0430 -0.2309
 2360TIP3    H1 7044   5.385   4.652   1.228  1.2236  0.6953  0.1362
 2360TIP3    H2 7045   5.307   4.708   1.110 -0.0361  1.7410  1.4284
 2361TIP3   OH2 7046   0.330   2.876   4.787 -0.4690 -0.2014  0.0916
 2361TIP3    H1 7047   0.389   2.818   4.739  1.3211  0.2355  1.6487
 2361TIP3    H2 7048   0.243   2.836   4.775  0.2410 -1.4306 -1.4382
 2362TIP3   OH2 7049   6.193   3.234   0.204  0.0282  0.0609 -0.2636
 2362TIP3    H1 7050   6.157   3.302   0.260  0.9784  0.2032  0.1893
 2362TIP3    H2 7051   6.234   3.172   0.265  0.0066 -0.4266 -0.7339
 2363TIP3   OH2 7052   2.427   0.638   4.357 -0.2214 -0.3444  0.1783
 2363TIP3    H1 7053   2.346   0.591   4.338 -0.2859 -0.6533  1.2114
 2363TIP3    H2 7054   2.497   0.578   4.331 -0.3088 -0.4062  0.0836
 2364TIP3   OH2 7055   4.941   6.290   4.326  0.0920  0.3891  0.6721
 2364TIP3    H1 7056   4.883   6.214   4.323  0.9454 -0.3243  1.6314
 2364TIP3    H2 7057   4.887   6.360   4.362 -0.3573 -0.0839  0.9284
 2365TIP3   OH2 7058   1.198   0.764   1.519 -0.7370  0.3407  0.1318
 2365TIP3    H1 7059   1.229   0.717   1.441 -0.3532  1.8279 -0.6561
 2365TIP3    H2 7060   1.189   0.854   1.489 -2.5149  0.5836  1.2921
 2366TIP3   OH2 7061   3.288   2.409   4.226  0.5230  0.2172 -0.4028
 2366TIP3    H1 7062   3.276   2.463   4.304  0.4006 -1.1051  0.5203
 2366TIP3    H2 7063   3.290   2.472   4.154  1.0126  1.5037  0.6842
 2367TIP3   OH2 7064   4.277   1.514   2.434  0.3318 -0.2687  0.1598
 2367TIP3    H1 7065   4.223   1.437   2.449 -0.1565 -0.4583 -2.1906
 2367TIP3    H2 7066   4.352   1.503   2.491  1.5761 -3.8276 -1.8969
 2368TIP3   OH2 7067   4.451   5.723   0.157  0.2675 -0.0931  0.6743
 2368TIP3    H1 7068   4.505   5.794   0.124  0.1480  0.1525  1.0085
 2368TIP3    H2 7069   4.474   5.648   0.101 -0.1665  0.3939 -0.1815
 2369TIP3   OH2 7070   3.009   1.222   1.342  0.4719 -0.5729  0.4829
 2369TIP3    H1 7071   2.978   1.132   1.352  0.8626 -0.7598  0.0359
 2369TIP3    H2 7072   3.081   1.216   1.279 -0.8521  0.3342 -1.1942
 2370TIP3   OH2 7073   1.386   2.831   1.886 -0.0368  0.7231 -0.2278
 2370TIP3    H1 7074   1.369   2.756   1.944  4.2032  0.9599  1.7236
 2370TIP3    H2 7075   1.324   2.820   1.814 -2.1961 -2.4911  1.8247
 2371TIP3   OH2 7076   1.362   1.962   5.680 -0.5061  0.0131 -0.0641
 2371TIP3    H1 7077   1.326   2.046   5.654  0.0683  0.6921  1.2579
 2371TIP3    H2 7078   1.317   1.941   5.762 -0.9576 -1.2002 -0.5876
 2372TIP3   OH2 7079   4.881   1.834   2.535  0.0441 -0.4261 -0.0441
 2372TIP3    H1 7080   4.801   1.837   2.483  0.0390 -1.5622 -0.1325
 2372TIP3    H2 7081   4.952   1.827   2.471  0.1387 -0.4305  0.0603
 2373TIP3   OH2 7082   1.178   0.602   5.255 -0.1592  0.2973 -0.0398
 2373TIP3    H1 7083   1.203   0.523   5.208  1.3738  0.5054  0.3755
 2373TIP3    H2 7084   1.102   0.636   5.207 -0.5945 -1.1962 -0.4500
 2374TIP3   OH2 7085   1.178   6.731   3.765 -0.8731 -0.3187 -0.0660
 2374TIP3    H1 7086   1.227   6.659   3.725 -1.0483 -0.9828  0.8912
 2374TIP3    H2 7087   1.169   6.706   3.857  0.6815  1.7879  0.7408
 2375TIP3   OH2 7088   5.581   5.246   4.896  0.5564  0.4906  0.2790
 2375TIP3    H1 7089   5.583   5.300   4.975  1.9982  0.0705  0.5621
 2375TIP3    H2 7090   5.672   5.218   4.884 -0.2149 -2.3442  0.4714
 2376TIP3   OH2 7091   1.748   6.413   0.497 -0.5725  0.0185 -0.4097
 2376TIP3    H1 7092   1.808   6.395   0.425 -0.9987 -1.0531 -0.5219
 2376TIP3    H2 7093   1.744   6.508   0.502  0.9384  0.1134 -0.5542
 2377TIP3   OH2 7094   1.939   2.268   1.405 -0.1901  0.0741  0.6843
 2377TIP3    H1 7095   1.881   2.217   1.462  0.8758 -1.7438  0.2160
 2377TIP3    H2 7096   1.994   2.318   1.466 -0.8929  0.2632  1.1737
 2378TIP3   OH2 7097   0.262   4.236   4.630  0.2854 -0.0949 -0.4736
 2378TIP3    H1 7098   0.217   4.311   4.668  0.5574 -0.0574 -0.2181
 2378TIP3    H2 7099   0.236   4.236   4.538 -0.6918 -0.4268 -0.2082
 2379TIP3   OH2 7100   2.517   2.756   0.883 -0.5974  0.5504  0.8719
 2379TIP3    H1 7101   2.421   2.758   0.890 -0.5246  1.9666  1.8378
 2379TIP3    H2 7102   2.548   2.795   0.965  0.8754 -1.8383  1.5566
 2380TIP3   OH2 7103   1.011   2.484   5.271 -0.1365 -0.1426  0.0828
 2380TIP3    H1 7104   1.027   2.572   5.235 -1.0111  0.2339  0.5781
 2380TIP3    H2 7105   0.938   2.497   5.332  1.1649 -0.7991  1.8420
 2381TIP3   OH2 7106   1.009   0.215   1.558 -0.4519 -0.7804  0.5065
 2381TIP3    H1 7107   1.046   0.186   1.475  0.1673  0.1407  0.4521
 2381TIP3    H2 7108   0.976   0.304   1.541 -2.2137 -1.3503  0.6971
 2382TIP3   OH2 7109   4.793   6.811   2.174  0.3453  0.1758  0.5090
 2382TIP3    H1 7110   4.807   6.721   2.143  0.1807  0.3168  0.0022
 2382TIP3    H2 7111   4.843   6.817   2.255 -0.6304 -0.7419  1.1981
 2383TIP3   OH2 7112   6.118   3.091   5.488  0.2353 -0.0788 -0.1943
 2383TIP3    H1 7113   6.098   3.051   5.572  1.0922  0.6682  0.3874
 2383TIP3    H2 7114   6.160   3.022   5.437  0.6270 -0.2487  0.3594
 2384TIP3   OH2 7115   3.675   3.027   0.008 -0.0096 -0.0064 -0.0703
 2384TIP3    H1 7116   3.646   2.950   0.057 -0.5549  1.1852  1.5720
 2384TIP3    H2 7117   3.770   3.028   0.018 -0.0351 -0.2754  0.2084
 2385TIP3   OH2 7118   5.038   5.220   2.470  0.1834 -0.1201 -0.3796
 2385TIP3    H1 7119   5.121   5.190   2.506  0.1097 -1.2407 -1.1048
 2385TIP3    H2 7120   5.058   5.245   2.379  0.0400  1.1292 -0.0861
 2386TIP3   OH2 7121   6.298   1.170   2.462  0.5415 -0.2345 -0.4664
 2386TIP3    H1 7122   6.259   1.190   2.377 -1.3246 -0.3535  0.2999
 2386TIP3    H2 7123   6.256   1.231   2.523  2.7014  0.6429  0.2319
 2387TIP3   OH2 7124   2.184   3.913   5.097  0.7805  0.0169 -0.2475
 2387TIP3    H1 7125   2.131   3.835   5.113  0.8601  0.0044 -0.0302
 2387TIP3    H2 7126   2.157   3.944   5.011 -1.2141  1.2950  0.7454
 2388TIP3   OH2 7127   6.345   0.698   1.116 -0.1693 -0.0229  0.6455
 2388TIP3    H1 7128   6.367   0.655   1.033 -0.9935 -1.4197  1.1228
 2388TIP3    H2 7129   6.382   0.786   1.107  1.5129 -0.7699 -0.3974
 2389TIP3   OH2 7130   6.637   6.822   2.056 -0.2505  0.4395 -0.1862
 2389TIP3    H1 7131   6.640   6.777   2.141 -0.1041  1.5405  0.3991
 2389TIP3    H2 7132   6.676   6.759   1.995 -0.1044 -0.2597  0.6031
 2390TIP3   OH2 7133   0.349   4.189   5.831  0.0817  0.6239 -0.7284
 2390TIP3    H1 7134   0.291   4.114   5.834  2.2852 -1.1824 -0.6432
 2390TIP3    H2 7135   0.345   4.226   5.920  0.2689 -0.4675 -0.2479
 2391TIP3   OH2 7136   2.440   1.473   0.597  0.3562 -0.1902  1.0087
 2391TIP3    H1 7137   2.501   1.547   0.602 -0.1952  0.1794  2.8367
 2391TIP3    H2 7138   2.393   1.488   0.514  0.9067  0.9803  0.8776
 2392TIP3   OH2 7139   2.563   4.387   2.933  1.1500  0.1150  0.4605
 2392TIP3    H1 7140   2.562   4.413   3.026 -0.2816  1.3477  0.1295
 2392TIP3    H2 7141   2.598   4.464   2.887  1.0109 -0.1672 -0.1209
 2393TIP3   OH2 7142   5.963   1.784   4.356  0.2678 -0.0549  0.4468
 2393TIP3    H1 7143   5.978   1.869   4.398 -0.9149  0.2676  0.2717
 2393TIP3    H2 7144   5.893   1.802   4.293 -1.4848 -1.5956  1.8577
 2394TIP3   OH2 7145   1.455   4.158   1.264 -0.3284  0.0058 -0.2068
 2394TIP3    H1 7146   1.402   4.196   1.193 -1.6612 -1.3707 -0.0189
 2394TIP3    H2 7147   1.524   4.110   1.219 -1.3767 -1.1633 -0.6611
 2395TIP3   OH2 7148   1.274   3.838   0.485  0.5844 -0.2452 -0.1209
 2395TIP3    H1 7149   1.342   3.886   0.439  0.5664 -0.2185 -0.1198
 2395TIP3    H2 7150   1.205   3.902   0.499  0.7112 -0.1806  0.2033
 2396TIP3   OH2 7151   3.446   0.854   0.622 -0.2040 -0.2789 -0.7070
 2396TIP3    H1 7152   3.371   0.914   0.615 -0.3805 -0.4346 -0.2265
 2396TIP3    H2 7153   3.421   0.778   0.570  0.0721  0.1071 -1.4227
 2397TIP3   OH2 7154   0.287   1.160   3.955 -0.0884 -0.5481 -0.2175
 2397TIP3    H1 7155   0.270   1.184   3.864 -0.1546  0.2419 -0.0127
 2397TIP3    H2 7156   0.233   1.083   3.970  0.8561 -1.4270 -1.1925
 2398TIP3   OH2 7157   0.009   3.843   1.488 -0.2134 -0.3284 -0.2755
 2398TIP3    H1 7158  -0.069   3.899   1.488 -0.5220 -0.7388 -1.2364
 2398TIP3    H2 7159   0.082   3.903   1.504 -0.6099  0.2301 -0.5536
 2399TIP3   OH2 7160   1.870   6.520   1.409 -0.1551 -0.2608  0.4731
 2399TIP3    H1 7161   1.888   6.509   1.502  0.2617 -0.7942  0.3367
 2399TIP3    H2 7162   1.860   6.430   1.376 -0.6694 -0.0654  0.0741
 2400TIP3   OH2 7163   3.828   2.544   1.265 -0.0227 -0.6157  0.4645
 2400TIP3    H1 7164   3.862   2.633   1.278 -0.1165 -0.5676  0.3831
 2400TIP3    H2 7165   3.905   2.488   1.274  0.4012 -0.3796 -1.3883
 2401TIP3   OH2 7166   6.546   4.467   4.627 -0.3555  0.0761 -0.0399
 2401TIP3    H1 7167   6.527   4.555   4.660 -1.8959 -0.3310  0.2159
 2401TIP3    H2 7168   6.460   4.429   4.609  0.3311 -0.6256 -2.1465
 2402TIP3   OH2 7169   5.642   6.198   0.487 -0.0361 -0.0628  0.3311
 2402TIP3    H1 7170   5.604   6.118   0.452  0.2962 -0.2388  0.3610
 2402TIP3    H2 7171   5.733   6.174   0.508  0.4861  0.6726 -0.9323
 2403TIP3   OH2 7172   4.635   5.635   1.623 -0.4790  0.4862  0.4558
 2403TIP3    H1 7173   4.683   5.716   1.639  0.0298 -0.1123  2.1014
 2403TIP3    H2 7174   4.601   5.610   1.709 -2.6312  0.1777 -0.4294
 2404TIP3   OH2 7175   3.384   3.031   4.946  0.1785  0.3263 -0.5435
 2404TIP3    H1 7176   3.306   2.978   4.965  1.5562 -1.6434 -0.0663
 2404TIP3    H2 7177   3.377   3.051   4.852 -0.2263 -1.0570 -0.8424
 2405TIP3   OH2 7178   1.234   2.493   3.328  0.2350 -0.4295  0.3490
 2405TIP3    H1 7179   1.188   2.517   3.408  0.4703 -0.5985  0.5336
 2405TIP3    H2 7180   1.165   2.485   3.262  0.0608 -0.1169  0.4931
 2406TIP3   OH2 7181   7.149   4.960   3.465  0.2036 -0.4173  0.4914
 2406TIP3    H1 7182   7.132   4.975   3.372  0.7493  0.3278  0.5111
 2406TIP3    H2 7183   7.152   5.047   3.503 -1.3245 -0.7445  1.4612
 2407TIP3   OH2 7184   0.498   3.449   2.579 -0.1652 -0.3702 -0.2223
 2407TIP3    H1 7185   0.455   3.477   2.498 -0.1326  0.2913 -0.0238
 2407TIP3    H2 7186   0.426   3.431   2.639 -0.2304 -2.0825 -0.7596
 2408TIP3   OH2 7187   3.089   2.393   5.243 -0.6862 -0.0917 -0.4447
 2408TIP3    H1 7188   3.018   2.444   5.204 -0.0913  0.7850 -0.4231
 2408TIP3    H2 7189   3.076   2.304   5.210 -2.4878 -0.2334  0.5183
 2409TIP3   OH2 7190   3.195   6.245   4.273  0.3351 -0.3244  0.3153
 2409TIP3    H1 7191   3.267   6.300   4.305  2.0168 -0.5612 -2.6591
 2409TIP3    H2 7192   3.217   6.157   4.303  0.6429 -0.2074  0.4378
 2410TIP3   OH2 7193   6.665   4.103   3.046 -0.5045  0.0439 -0.4664
 2410TIP3    H1 7194   6.661   4.025   3.102 -1.9618 -1.0137 -1.9530
 2410TIP3    H2 7195   6.745   4.148   3.074 -0.5901 -1.0006  1.6825
 2411TIP3   OH2 7196   4.846   1.607   4.482  0.0910 -0.3353 -0.1967
 2411TIP3    H1 7197   4.843   1.513   4.498  2.5666 -0.4279  0.0427
 2411TIP3    H2 7198   4.914   1.640   4.541 -0.7064  1.6183 -0.2834
 2412TIP3   OH2 7199   6.563   2.198   4.576  0.0627  0.0899 -0.5931
 2412TIP3    H1 7200   6.564   2.104   4.555  0.4511  0.3111 -1.6397
 2412TIP3    H2 7201   6.578   2.241   4.492 -1.4380  1.1447 -0.3610
 2413TIP3   OH2 7202   5.950   3.071   0.845 -0.5977 -0.1561  0.1957
 2413TIP3    H1 7203   6.019   3.018   0.883 -1.3885 -1.3491  0.0144
 2413TIP3    H2 7204   5.869   3.034   0.880 -1.4018 -1.5175 -2.7801
 2414TIP3   OH2 7205   1.911   1.234   0.635 -0.3285 -0.0610  0.0129
 2414TIP3    H1 7206   1.994   1.279   0.624 -1.1374  1.1818 -1.3972
 2414TIP3    H2 7207   1.873   1.272   0.715  0.4525 -0.6788  0.6922
 2415TIP3   OH2 7208   0.723   6.036   0.808 -0.6276  0.4598  0.8141
 2415TIP3    H1 7209   0.629   6.024   0.794 -0.6116  1.9683 -1.0718
 2415TIP3    H2 7210   0.762   5.953   0.782 -1.3657  0.2144  0.4510
 2416TIP3   OH2 7211   3.127   1.211   5.736 -0.4446 -0.5748  0.3473
 2416TIP3    H1 7212   3.209   1.177   5.700 -0.4061 -0.8125  0.6552
 2416TIP3    H2 7213   3.062   1.192   5.669  0.0537  1.2674 -0.7417
 2417TIP3   OH2 7214   6.759   2.288   5.017 -0.7296  0.1946 -0.1400
 2417TIP3    H1 7215   6.745   2.196   5.041  0.8981  0.0110  0.2035
 2417TIP3    H2 7216   6.807   2.284   4.935  2.3489  0.6157  1.5198
 2418TIP3   OH2 7217   5.100   2.633   1.336  0.6122  0.5551  0.0346
 2418TIP3    H1 7218   5.086   2.543   1.364 -1.1686  0.9845  0.7126
 2418TIP3    H2 7219   5.050   2.641   1.255  0.0239  1.1306  0.4367
 2419TIP3   OH2 7220   2.732   3.307   3.122  0.3196 -0.1259  0.1703
 2419TIP3    H1 7221   2.752   3.214   3.115  1.0622  0.1556 -2.9112
 2419TIP3    H2 7222   2.649   3.310   3.170 -0.0627 -2.4406 -0.2235
 2420TIP3   OH2 7223   3.401   6.478   1.478  0.0928 -0.4505  0.1525
 2420TIP3    H1 7224   3.438   6.547   1.532 -0.9896 -0.7940  1.3741
 2420TIP3    H2 7225   3.392   6.403   1.537 -2.5948 -0.3511 -0.0142
 2421TIP3   OH2 7226   5.236   4.921   2.809 -0.3113 -0.0917  0.4295
 2421TIP3    H1 7227   5.310   4.874   2.771 -0.5864 -1.2036  1.2299
 2421TIP3    H2 7228   5.159   4.888   2.762 -0.3189  0.9953 -0.3414
 2422TIP3   OH2 7229   5.382   3.294   4.156 -0.1614 -0.2995  0.6274
 2422TIP3    H1 7230   5.340   3.369   4.198 -0.5897  0.2973 -0.8222
 2422TIP3    H2 7231   5.314   3.226   4.155 -0.7677  0.2946 -0.7069
 2423TIP3   OH2 7232   3.016   1.410   1.821  0.5941 -0.5807 -0.1770
 2423TIP3    H1 7233   2.933   1.376   1.786  0.0955 -0.4244  0.8209
 2423TIP3    H2 7234   3.078   1.401   1.749 -0.3855 -0.3392 -1.0663
 2424TIP3   OH2 7235   2.255   2.448   1.239 -0.6097 -0.4882  0.1249
 2424TIP3    H1 7236   2.160   2.451   1.242 -0.6348 -0.9891 -0.0615
 2424TIP3    H2 7237   2.282   2.424   1.328 -0.6199  0.3681  0.3670
 2425TIP3   OH2 7238   1.707   3.361   4.893  0.2446  1.1970  0.3807
 2425TIP3    H1 7239   1.800   3.350   4.911  0.4851  0.5335 -1.1991
 2425TIP3    H2 7240   1.679   3.277   4.856 -1.4264  0.7229  2.4847
 2426TIP3   OH2 7241   5.031   2.904   4.339  0.5357 -0.5657 -0.0233
 2426TIP3    H1 7242   5.051   2.933   4.428 -2.1416 -0.1446  0.5169
 2426TIP3    H2 7243   5.075   2.819   4.331  1.1875 -0.4103  1.5216
 2427TIP3   OH2 7244   4.097   5.824   2.180  0.0545  0.0570  0.5410
 2427TIP3    H1 7245   4.063   5.888   2.118  0.7768  1.4708  1.5535
 2427TIP3    H2 7246   4.019   5.783   2.218 -0.4183 -1.4315 -1.7920
 2428TIP3   OH2 7247   3.317   1.919   4.546 -0.0266  0.0534  0.2141
 2428TIP3    H1 7248   3.327   1.967   4.628  0.6227 -0.7579  0.6209
 2428TIP3    H2 7249   3.353   1.833   4.564 -0.5464 -0.3750 -0.7122
 2429TIP3   OH2 7250   3.866   3.277   0.720  0.1534  0.1127  0.2356
 2429TIP3    H1 7251   3.891   3.341   0.653 -0.8030 -0.0183 -0.2644
 2429TIP3    H2 7252   3.853   3.330   0.799  0.2657  0.4115  0.0569
 2430TIP3   OH2 7253   5.600   1.597   5.724  0.1650 -0.4484  0.0202
 2430TIP3    H1 7254   5.598   1.688   5.754 -1.2406 -0.4506 -0.0107
 2430TIP3    H2 7255   5.545   1.551   5.787 -0.1451 -1.0482 -0.6788
 2431TIP3   OH2 7256   3.736   4.105   4.908 -0.0801 -0.0126  0.4022
 2431TIP3    H1 7257   3.681   4.178   4.881 -0.4854 -0.8384 -1.1256
 2431TIP3    H2 7258   3.675   4.032   4.921  0.4139 -0.3413  0.9264
 2432TIP3   OH2 7259   5.127   5.551   2.333 -0.1029  0.0501  0.2787
 2432TIP3    H1 7260   5.104   5.605   2.408  0.5958  0.6602  0.0672
 2432TIP3    H2 7261   5.048   5.501   2.314  0.1451 -1.2408  2.3478
 2433TIP3   OH2 7262   5.299   6.339   1.471 -0.1657 -0.2196 -0.1051
 2433TIP3    H1 7263   5.284   6.289   1.551 -0.2277 -0.7257 -0.4264
 2433TIP3    H2 7264   5.230   6.310   1.411  0.7603 -0.9546 -0.8535
 2434TIP3   OH2 7265   3.587   2.708   0.789  0.1458  0.0055 -0.1680
 2434TIP3    H1 7266   3.661   2.650   0.771 -0.3404 -0.5792 -0.3200
 2434TIP3    H2 7267   3.601   2.784   0.733  1.5383  0.6963  1.0593
 2435TIP3   OH2 7268   0.488   2.178   0.310  0.2167  0.2231 -0.2757
 2435TIP3    H1 7269   0.493   2.138   0.396  1.7675 -0.3998 -0.6205
 2435TIP3    H2 7270   0.578   2.204   0.290 -0.0709  0.1724 -1.7762
 2436TIP3   OH2 7271   1.339   5.158   4.119  0.1460 -0.4413 -0.0468
 2436TIP3    H1 7272   1.281   5.229   4.096  0.3618  0.4154  1.8900
 2436TIP3    H2 7273   1.281   5.084   4.139 -0.2772  0.1917  1.1595
 2437TIP3   OH2 7274   4.208   4.537   4.648 -0.0207 -0.1425  0.3044
 2437TIP3    H1 7275   4.238   4.487   4.572 -0.1363  2.4617 -1.5645
 2437TIP3    H2 7276   4.114   4.547   4.634 -0.1857 -0.2873  1.2440
 2438TIP3   OH2 7277   2.102   4.807   1.788 -0.2440 -0.1327  0.1753
 2438TIP3    H1 7278   2.048   4.874   1.830  1.0333 -0.3208  2.2725
 2438TIP3    H2 7279   2.142   4.852   1.714  0.6741  1.5458  1.5829
 2439TIP3   OH2 7280   5.454   2.962   0.679  0.0630 -0.3355 -0.0308
 2439TIP3    H1 7281   5.428   2.909   0.754 -0.2644 -0.8820 -0.5235
 2439TIP3    H2 7282   5.410   2.922   0.604 -0.9208  1.1575 -0.3027
 2440TIP3   OH2 7283   6.076   4.429   4.185  0.2204  0.2622  0.4853
 2440TIP3    H1 7284   5.986   4.458   4.197  0.8457  1.7233  1.8473
 2440TIP3    H2 7285   6.118   4.445   4.269  1.6152 -0.9931  0.0668
 2441TIP3   OH2 7286   3.344   5.636   2.072 -0.2796 -0.1143  0.1459
 2441TIP3    H1 7287   3.335   5.558   2.018 -0.2933  0.0966 -0.1546
 2441TIP3    H2 7288   3.255   5.656   2.100 -0.4914  0.6817 -1.0273
 2442TIP3   OH2 7289   5.541   1.626   4.765 -0.4625 -0.3974  0.4634
 2442TIP3    H1 7290   5.490   1.682   4.823  0.4866 -0.2223  1.1611
 2442TIP3    H2 7291   5.585   1.688   4.706  0.0650 -0.4423  0.8040
 2443TIP3   OH2 7292   1.306   4.873   0.110 -0.5150 -0.2590  0.2283
 2443TIP3    H1 7293   1.240   4.806   0.125  0.1887 -0.8875  0.5706
 2443TIP3    H2 7294   1.353   4.881   0.193  1.1761 -1.3159 -0.5629
 2444TIP3   OH2 7295   6.688   1.653   3.546 -0.0004 -0.8069  0.5045
 2444TIP3    H1 7296   6.609   1.691   3.507  0.5816 -0.9857 -0.9049
 2444TIP3    H2 7297   6.756   1.718   3.529  0.2866 -0.9055  1.2252
 2445TIP3   OH2 7298   2.568   2.911   3.706 -0.3423 -0.3621  0.6143
 2445TIP3    H1 7299   2.532   2.826   3.682 -0.2604 -0.0539 -0.6620
 2445TIP3    H2 7300   2.513   2.974   3.661  0.5056  0.1982  0.3303
 2446TIP3   OH2 7301   7.002   5.771   5.013 -0.0590 -0.2202 -0.2349
 2446TIP3    H1 7302   7.063   5.794   4.942 -1.7862  0.6758 -1.5180
 2446TIP3    H2 7303   6.954   5.852   5.030 -0.2832 -0.6700  1.3703
 2447TIP3   OH2 7304   5.278   4.891   3.175  0.0856 -0.0621  0.2583
 2447TIP3    H1 7305   5.254   4.867   3.264  0.3444  1.5421  0.7977
 2447TIP3    H2 7306   5.232   4.828   3.119 -0.9032 -0.4558  1.4799
 2448TIP3   OH2 7307   3.728   6.778   0.749 -0.4151 -0.2170 -0.3155
 2448TIP3    H1 7308   3.697   6.687   0.756 -0.4368 -0.1286  1.0598
 2448TIP3    H2 7309   3.711   6.815   0.835  0.1531  0.9272 -0.6831
 2449TIP3   OH2 7310   0.236   0.538   2.787  0.3148 -0.5663  0.0734
 2449TIP3    H1 7311   0.154   0.559   2.743  0.4359 -1.0482 -0.3970
 2449TIP3    H2 7312   0.269   0.460   2.742  1.2319 -0.1483 -0.0087
 2450TIP3   OH2 7313   0.249   4.541   3.188 -0.5281  0.0495 -0.1712
 2450TIP3    H1 7314   0.344   4.538   3.200 -0.3119  1.6054 -1.2356
 2450TIP3    H2 7315   0.213   4.523   3.275  0.7674  0.7545  0.5337
 2451TIP3   OH2 7316   3.568   5.002   0.180  0.1353 -0.4398  0.2982
 2451TIP3    H1 7317   3.494   4.951   0.147  0.5131 -0.8085  0.0135
 2451TIP3    H2 7318   3.645   4.959   0.142  0.4759  0.1200  0.3513
 2452TIP3   OH2 7319   4.256   1.239   2.409  0.3877  0.1952 -0.2124
 2452TIP3    H1 7320   4.299   1.157   2.432 -1.8436 -0.6183  1.5183
 2452TIP3    H2 7321   4.185   1.213   2.350  1.2437  1.2830 -1.7892
 2453TIP3   OH2 7322   2.735   2.961   0.758  0.2488  0.1036 -0.4877
 2453TIP3    H1 7323   2.659   2.923   0.715 -0.8566 -0.1303  1.5065
 2453TIP3    H2 7324   2.807   2.902   0.738 -0.7131 -1.2057 -0.2200
 2454TIP3   OH2 7325   2.347   1.540   4.024 -0.4758  0.6179 -0.3425
 2454TIP3    H1 7326   2.357   1.492   3.942 -2.9144 -0.0563 -0.3012
 2454TIP3    H2 7327   2.384   1.480   4.090 -0.3351  0.3019 -0.7014
 2455TIP3   OH2 7328   4.618   0.322   0.125  0.1442 -0.1954 -0.3788
 2455TIP3    H1 7329   4.669   0.253   0.083 -1.5041 -0.6870 -1.7036
 2455TIP3    H2 7330   4.651   0.403   0.085  0.5347 -0.4220 -0.5244
 2456TIP3   OH2 7331   1.076   4.720   4.948 -0.4373 -0.4810  0.1962
 2456TIP3    H1 7332   1.125   4.670   5.013 -0.6813  0.3059  1.0070
 2456TIP3    H2 7333   1.025   4.783   4.999 -0.6195  0.1750 -0.7601
 2457TIP3   OH2 7334   5.820   0.508   1.615 -0.3023  0.3181  0.2403
 2457TIP3    H1 7335   5.795   0.591   1.657 -0.2505  0.8880 -0.8149
 2457TIP3    H2 7336   5.894   0.532   1.559 -0.5656 -0.3532 -0.4043
 2458TIP3   OH2 7337   6.938   2.462   5.239 -0.4672  0.1092  0.1409
 2458TIP3    H1 7338   6.855   2.472   5.192 -0.4148  0.8784  0.2037
 2458TIP3    H2 7339   6.961   2.551   5.267  1.1026  0.1430 -1.0984
 2459TIP3   OH2 7340   1.584   2.482   2.830 -0.4045  0.3434 -0.3478
 2459TIP3    H1 7341   1.538   2.545   2.885  0.4323  0.5538  0.1225
 2459TIP3    H2 7342   1.530   2.403   2.835 -1.5992  1.0608 -1.1434
 2460TIP3   OH2 7343   1.642   0.178   4.865 -0.1364 -0.4880 -0.8006
 2460TIP3    H1 7344   1.588   0.257   4.870  0.3414 -0.2142  1.7243
 2460TIP3    H2 7345   1.678   0.179   4.777  1.9480  3.6403 -0.1617
 2461TIP3   OH2 7346   5.219   6.635   3.627  0.2745  0.3536  0.1939
 2461TIP3    H1 7347   5.310   6.621   3.600  1.0805 -0.8083  3.1048
 2461TIP3    H2 7348   5.225   6.691   3.705 -1.4920  0.0951  0.5660
 2462TIP3   OH2 7349   4.391   2.677   2.770  0.0899  0.1145  0.0735
 2462TIP3    H1 7350   4.390   2.673   2.865  0.3356 -1.4045  0.0337
 2462TIP3    H2 7351   4.427   2.764   2.750 -1.7478  1.2318  1.3333
 2463TIP3   OH2 7352   4.002   6.675   4.770  0.4340  0.7019  0.5313
 2463TIP3    H1 7353   4.070   6.738   4.745  0.8923 -0.2811 -0.8080
 2463TIP3    H2 7354   3.937   6.728   4.817  1.6580  1.8304  1.0369
 2464TIP3   OH2 7355   2.011   2.003   1.310 -0.2092  0.0427 -0.5812
 2464TIP3    H1 7356   1.959   2.082   1.325 -2.6190 -1.5049 -0.3487
 2464TIP3    H2 7357   2.032   1.971   1.397  1.2508  0.6658 -0.6718
 2465TIP3   OH2 7358   4.684   5.139   2.197 -0.3750 -0.1857  0.3576
 2465TIP3    H1 7359   4.762   5.096   2.232 -1.0250 -0.9125  0.9492
 2465TIP3    H2 7360   4.704   5.153   2.104  0.7175  0.2674  0.6438
 2466TIP3   OH2 7361   6.757   4.127   0.695 -0.1190 -0.1501 -0.2638
 2466TIP3    H1 7362   6.687   4.073   0.732 -1.4693  1.1895 -0.7315
 2466TIP3    H2 7363   6.824   4.130   0.764 -0.5392 -1.4272  0.2172
 2467TIP3   OH2 7364   7.055   1.018   3.714  0.4996  0.1417 -0.1572
 2467TIP3    H1 7365   7.083   1.109   3.719 -1.3663  0.7599 -0.2246
 2467TIP3    H2 7366   7.036   1.004   3.621  0.8576 -0.3569 -0.1613
 2468TIP3   OH2 7367   6.545   6.626   4.702 -0.7434  0.2911 -0.1789
 2468TIP3    H1 7368   6.558   6.648   4.794 -2.5642 -2.1512  0.7544
 2468TIP3    H2 7369   6.595   6.545   4.689  1.3298  1.7520 -2.0150
 2469TIP3   OH2 7370   1.491   4.666   5.786 -0.8860  0.3059 -0.0173
 2469TIP3    H1 7371   1.428   4.595   5.771  0.0112 -0.4233 -0.5071
 2469TIP3    H2 7372   1.572   4.633   5.747 -0.7431  2.1256 -1.3662
 2470TIP3   OH2 7373   6.686   0.823   1.530  0.1959  0.6474 -0.0178
 2470TIP3    H1 7374   6.740   0.896   1.561 -2.3831  2.1140  1.3194
 2470TIP3    H2 7375   6.679   0.764   1.606  0.9079 -0.2154 -0.5911
 2471TIP3   OH2 7376   6.795   4.839   0.278  0.3803  0.0305 -0.1408
 2471TIP3    H1 7377   6.783   4.750   0.311  0.0281  0.0888 -0.1095
 2471TIP3    H2 7378   6.714   4.885   0.302 -0.2901 -0.1671 -1.8435
 2472TIP3   OH2 7379   2.923   5.835   1.790  0.0604  0.0488  0.0758
 2472TIP3    H1 7380   2.968   5.879   1.718 -0.5518 -1.1122 -1.0665
 2472TIP3    H2 7381   2.839   5.881   1.797 -0.2853 -0.4512 -0.6377
 2473TIP3   OH2 7382   4.164   1.987   1.438 -0.3806  0.2957  0.2399
 2473TIP3    H1 7383   4.108   2.011   1.511  0.4429  1.1756  0.6123
 2473TIP3    H2 7384   4.232   1.932   1.477 -1.3669 -1.3716 -0.3322
 2474TIP3   OH2 7385   2.727   2.274   2.093  0.1559 -0.1528  0.1583
 2474TIP3    H1 7386   2.811   2.259   2.050  0.1607 -0.1970  0.1826
 2474TIP3    H2 7387   2.726   2.368   2.112  0.0055 -0.0717 -0.2425
 2475TIP3   OH2 7388   4.535   5.652   1.233  0.2779  0.8676  0.3463
 2475TIP3    H1 7389   4.592   5.636   1.158  0.0882 -1.8694  0.6880
 2475TIP3    H2 7390   4.467   5.585   1.226  0.8692 -0.2405  3.5328
 2476TIP3   OH2 7391   1.498   6.271   2.444  0.0053 -0.3577  0.8804
 2476TIP3    H1 7392   1.519   6.352   2.398  1.9562 -0.9907  0.5560
 2476TIP3    H2 7393   1.506   6.203   2.376  0.3662 -1.0216  1.5737
 2477TIP3   OH2 7394   5.105   4.065   5.787 -0.4121  0.0853 -1.0848
 2477TIP3    H1 7395   5.136   4.073   5.697  1.5545  1.1263 -0.3797
 2477TIP3    H2 7396   5.117   4.152   5.825 -3.5469  0.3658 -0.4363
 2478TIP3   OH2 7397   1.502   5.677   2.993  0.2427  0.5670 -0.0514
 2478TIP3    H1 7398   1.588   5.673   3.035 -0.1920  0.6902  0.8652
 2478TIP3    H2 7399   1.443   5.635   3.055 -0.1162 -1.0108 -1.3713
 2479TIP3   OH2 7400   0.427   4.910   5.304 -0.2771  0.1254 -0.7258
 2479TIP3    H1 7401   0.339   4.875   5.320  0.7427 -1.9611  0.6975
 2479TIP3    H2 7402   0.473   4.897   5.387  2.2782 -1.6124 -2.3112
 2480TIP3   OH2 7403   0.997   5.186   1.262 -0.3511  0.0656 -0.0080
 2480TIP3    H1 7404   0.929   5.118   1.260  0.6025 -0.8954 -0.7611
 2480TIP3    H2 7405   1.002   5.212   1.354 -1.6516  0.0824  0.0808
 2481TIP3   OH2 7406   1.118   3.863   0.130  0.4225 -0.2186 -0.4453
 2481TIP3    H1 7407   1.165   3.913   0.197  1.4169 -0.3084 -1.0689
 2481TIP3    H2 7408   1.025   3.880   0.149  0.6644 -0.5289  1.1741
 2482TIP3   OH2 7409   3.983   1.891   3.832 -0.3480 -0.2709 -0.1730
 2482TIP3    H1 7410   3.898   1.910   3.872 -0.5216 -0.3572 -0.4910
 2482TIP3    H2 7411   4.033   1.847   3.900 -0.0404  1.0514  0.4892
 2483TIP3   OH2 7412   6.724   5.992   4.953  0.0794  0.1853 -0.2835
 2483TIP3    H1 7413   6.649   6.003   5.012  0.1919 -1.4717  0.2164
 2483TIP3    H2 7414   6.782   6.064   4.975 -0.4630  0.3331  0.7390
 2484TIP3   OH2 7415   4.915   2.319   4.752  0.4601  0.2692  0.0422
 2484TIP3    H1 7416   4.825   2.326   4.786  0.4913 -0.1481  0.2077
 2484TIP3    H2 7417   4.912   2.245   4.693  0.4842  0.8031 -0.6450
 2485TIP3   OH2 7418   0.637   5.810   1.326 -0.1731  0.3576 -0.1132
 2485TIP3    H1 7419   0.693   5.888   1.323  2.3229 -1.3358 -0.7748
 2485TIP3    H2 7420   0.622   5.788   1.233 -1.0112  0.1205  0.0650
 2486TIP3   OH2 7421   4.489   5.687   3.344 -0.2294 -0.5545  0.0098
 2486TIP3    H1 7422   4.539   5.606   3.355  0.2156 -0.2960 -0.0768
 2486TIP3    H2 7423   4.540   5.753   3.390 -0.3027 -0.2161 -0.3867
 2487TIP3   OH2 7424   2.456   1.878   2.183  0.0656  0.4755  0.2965
 2487TIP3    H1 7425   2.412   1.799   2.212  0.2800  0.7831  1.5412
 2487TIP3    H2 7426   2.393   1.948   2.199 -0.5066  0.4797 -1.7301
 2488TIP3   OH2 7427   3.939   3.989   4.800 -0.4009  0.3427 -0.4032
 2488TIP3    H1 7428   3.876   4.061   4.810 -1.3643 -0.1771 -2.2998
 2488TIP3    H2 7429   3.929   3.937   4.880 -1.3380  1.0388 -0.0473
 2489TIP3   OH2 7430   4.416   3.462   5.900  0.0190 -0.2972  0.3496
 2489TIP3    H1 7431   4.436   3.386   5.846 -0.6801 -0.4066  0.2379
 2489TIP3    H2 7432   4.498   3.511   5.903  0.4836 -1.0757  0.4643
 2490TIP3   OH2 7433   1.557   4.086   4.739  0.3041  0.5323 -0.1602
 2490TIP3    H1 7434   1.504   4.034   4.799  0.0854  1.8984  0.8837
 2490TIP3    H2 7435   1.553   4.039   4.656  0.1224 -1.0889  0.7353
 2491TIP3   OH2 7436   4.597   1.415   4.018  0.3085 -0.5276  0.1251
 2491TIP3    H1 7437   4.565   1.484   4.075 -0.2765 -0.9693  0.3360
 2491TIP3    H2 7438   4.544   1.421   3.939 -0.4718 -1.3943  0.5595
 2492TIP3   OH2 7439   4.907   2.081   4.605  0.2923  0.8889 -0.3329
 2492TIP3    H1 7440   4.845   2.070   4.677  1.5307  0.1345  0.6820
 2492TIP3    H2 7441   4.865   2.039   4.530  0.2380 -1.1305  0.7504
 2493TIP3   OH2 7442   5.800   2.612   4.491  0.2210 -0.0835  0.0318
 2493TIP3    H1 7443   5.790   2.548   4.561  1.4049  0.3215  0.5951
 2493TIP3    H2 7444   5.815   2.560   4.412  0.7889 -0.5131  0.4148
 2494TIP3   OH2 7445   1.199   5.013   5.576 -0.0588 -0.0855 -0.1527
 2494TIP3    H1 7446   1.180   4.941   5.515  0.0261 -0.8271  0.6753
 2494TIP3    H2 7447   1.249   5.076   5.524 -2.3124  0.6056 -1.6090
 2495TIP3   OH2 7448   6.109   1.216   5.084  0.7636  0.0512 -0.0177
 2495TIP3    H1 7449   6.062   1.262   5.014  0.2792  1.8084  1.3957
 2495TIP3    H2 7450   6.175   1.278   5.113  0.6840 -0.4862  1.3684
 2496TIP3   OH2 7451   4.662   1.046   5.328 -0.1068  0.0582 -0.3399
 2496TIP3    H1 7452   4.719   1.124   5.332  0.8283 -0.5914  3.3595
 2496TIP3    H2 7453   4.574   1.081   5.341  0.3166  0.5735  1.4596
 2497TIP3   OH2 7454   3.006   6.577   5.239  0.5254  0.3395 -0.2390
 2497TIP3    H1 7455   3.070   6.587   5.168  0.0376 -0.4047 -0.8068
 2497TIP3    H2 7456   2.921   6.582   5.195  0.2096  0.4384  0.3822
 2498TIP3   OH2 7457   5.602   5.341   3.278  0.3608  0.3582 -0.3758
 2498TIP3    H1 7458   5.509   5.335   3.259  0.5767  0.6905 -1.6416
 2498TIP3    H2 7459   5.643   5.284   3.213  1.2089  2.2436 -1.5887
 2499TIP3   OH2 7460   2.709   4.520   0.459  0.2239 -0.0494 -0.3469
 2499TIP3    H1 7461   2.626   4.548   0.496  0.3091  0.6373 -0.6553
 2499TIP3    H2 7462   2.758   4.484   0.532 -0.1993 -0.1038 -0.0909
 2500TIP3   OH2 7463   4.829   3.576   1.746 -0.2371  0.1860 -0.4663
 2500TIP3    H1 7464   4.837   3.521   1.668  0.5563  0.5125 -0.6233
 2500TIP3    H2 7465   4.918   3.582   1.780 -0.5171  0.3872  0.2297
 2501TIP3   OH2 7466   5.750   6.737   1.998  0.2440  1.3175  0.4966
 2501TIP3    H1 7467   5.791   6.794   1.932  0.2220 -0.3569 -1.0501
 2501TIP3    H2 7468   5.746   6.652   1.956 -0.6424  0.3827  2.3693
 2502TIP3   OH2 7469   4.148   1.624   2.105  0.1698 -0.2413 -0.2498
 2502TIP3    H1 7470   4.130   1.556   2.171  0.8491  0.7324  0.9803
 2502TIP3    H2 7471   4.143   1.578   2.021 -1.0852 -1.4481  0.4469
 2503TIP3   OH2 7472   1.713   6.255   2.655 -0.1520 -0.5053  0.3224
 2503TIP3    H1 7473   1.648   6.325   2.646 -1.3378 -1.7181 -0.8548
 2503TIP3    H2 7474   1.739   6.234   2.566 -0.5391 -2.2236  0.5877
 2504TIP3   OH2 7475   6.938   2.970   4.646 -0.5751  0.3325  0.5706
 2504TIP3    H1 7476   7.029   2.994   4.663 -0.1346 -0.6025 -0.3886
 2504TIP3    H2 7477   6.943   2.901   4.580 -1.8488 -1.5569  2.3349
 2505TIP3   OH2 7478   5.763   0.806   1.300  0.2693 -0.1319  0.4290
 2505TIP3    H1 7479   5.826   0.867   1.261  0.4286  0.0282  0.9331
 2505TIP3    H2 7480   5.680   0.854   1.298  0.4108  0.1353  0.9016
 2506TIP3   OH2 7481   3.465   5.901   4.439  0.5479 -0.1268  0.0115
 2506TIP3    H1 7482   3.538   5.962   4.425  0.7158 -0.3075  0.0983
 2506TIP3    H2 7483   3.481   5.864   4.526 -0.7074  1.2800  0.8942
 2507TIP3   OH2 7484   6.361   6.707   1.884  0.2589  0.3550  0.1553
 2507TIP3    H1 7485   6.295   6.750   1.829 -0.4878 -0.1883  0.6011
 2507TIP3    H2 7486   6.319   6.699   1.969  1.2200  0.7434  0.6833
 2508TIP3   OH2 7487   4.117   5.453   0.654 -0.7715  0.4997  0.0456
 2508TIP3    H1 7488   4.183   5.490   0.596  0.2829  1.3689  1.7247
 2508TIP3    H2 7489   4.152   5.367   0.677 -0.3665  0.8260  0.6740
 2509TIP3   OH2 7490   0.114   5.177   3.362  0.4631  0.2051 -0.1885
 2509TIP3    H1 7491   0.165   5.224   3.428 -0.4230  1.6930 -0.5049
 2509TIP3    H2 7492   0.179   5.142   3.302  1.1558  1.7967 -0.4190
 2510TIP3   OH2 7493   1.098   1.197   4.406 -0.4195 -0.1611 -0.1214
 2510TIP3    H1 7494   1.134   1.227   4.489  1.0569 -1.3189 -0.2992
 2510TIP3    H2 7495   1.045   1.121   4.429  1.1101 -1.3383 -0.3440
 2511TIP3   OH2 7496   6.124   3.596   2.992  0.5342 -0.1898  0.0760
 2511TIP3    H1 7497   6.035   3.563   2.981  1.6526 -2.5302 -3.6822
 2511TIP3    H2 7498   6.133   3.663   2.923  1.3081  1.1155  1.3880
 2512TIP3   OH2 7499   5.104   2.316   1.351  0.2131  0.1732 -0.2060
 2512TIP3    H1 7500   5.163   2.242   1.365  0.6703  0.5247 -0.2813
 2512TIP3    H2 7501   5.144   2.366   1.281 -0.7723 -0.2107 -1.0634
 2513TIP3   OH2 7502   3.496   0.099   1.762 -0.1558  0.1922 -0.3501
 2513TIP3    H1 7503   3.528   0.140   1.682 -0.5068 -0.1346 -0.6630
 2513TIP3    H2 7504   3.440   0.027   1.732 -1.7950  1.1900  0.1520
 2514TIP3   OH2 7505   2.880   5.142   0.253 -0.7330 -0.1006 -0.2678
 2514TIP3    H1 7506   2.863   5.067   0.310 -2.3088  0.4816  0.0899
 2514TIP3    H2 7507   2.844   5.117   0.168 -0.4692 -0.0871 -0.3836
 2515TIP3   OH2 7508   2.157   3.293   5.267 -0.1603  0.4339 -0.1799
 2515TIP3    H1 7509   2.233   3.236   5.256 -0.6033 -0.9968  2.9199
 2515TIP3    H2 7510   2.193   3.380   5.278  0.9372 -0.0052 -0.2068
 2516TIP3   OH2 7511   0.376   6.675   5.712  0.5398  0.0865  0.1779
 2516TIP3    H1 7512   0.320   6.738   5.667 -0.1874  0.0651  1.0304
 2516TIP3    H2 7513   0.417   6.625   5.642 -0.0456  0.5044 -0.4755
 2517TIP3   OH2 7514   0.906   5.151   5.846 -0.0261  0.1928 -0.4979
 2517TIP3    H1 7515   0.869   5.195   5.922  1.6111 -0.4693  0.7333
 2517TIP3    H2 7516   0.969   5.089   5.882  2.1208  1.0913 -2.4471
 2518TIP3   OH2 7517   6.612   2.922   2.009  0.1554 -0.1818  0.3244
 2518TIP3    H1 7518   6.604   2.857   2.078  0.3732  0.1749  0.6888
 2518TIP3    H2 7519   6.654   2.875   1.937 -0.4166 -0.6537  0.2935
 2519TIP3   OH2 7520   1.499   6.706   3.128  0.6031 -0.5663  0.2418
 2519TIP3    H1 7521   1.529   6.795   3.106  0.7512 -0.2052  1.7325
 2519TIP3    H2 7522   1.575   6.651   3.109  0.4816 -0.4039 -0.7844
 2520TIP3   OH2 7523   4.026   3.579   4.249  0.5166 -0.1445  0.2123
 2520TIP3    H1 7524   4.092   3.533   4.198  0.1125 -1.3635  0.7440
 2520TIP3    H2 7525   3.945   3.531   4.233  0.0820  0.3676  0.8101
 2521TIP3   OH2 7526   1.530   1.101   3.098  0.3957 -0.5985 -0.6765
 2521TIP3    H1 7527   1.586   1.173   3.124 -2.0042  1.1119  0.0911
 2521TIP3    H2 7528   1.551   1.031   3.160  0.4936  0.5922  0.6872
 2522TIP3   OH2 7529   0.073   0.310   0.885  0.2521  0.4493 -0.1257
 2522TIP3    H1 7530   0.133   0.313   0.960 -0.4069 -1.8718  0.5809
 2522TIP3    H2 7531   0.074   0.219   0.857 -1.5021  0.7322 -1.3002
 2523TIP3   OH2 7532   3.644   4.074   2.612  0.0786  0.5696 -0.2440
 2523TIP3    H1 7533   3.693   4.148   2.647  3.5191 -1.2425 -0.7588
 2523TIP3    H2 7534   3.650   4.007   2.680 -1.9515  0.2891 -0.2658
 2524TIP3   OH2 7535   3.546   1.355   5.670  0.7352 -0.2908  0.0849
 2524TIP3    H1 7536   3.543   1.298   5.747  0.5617  0.1329  0.3917
 2524TIP3    H2 7537   3.490   1.310   5.606  0.8233 -0.6086  0.2296
 2525TIP3   OH2 7538   1.594   4.640   2.502  0.0927 -0.2355  0.4556
 2525TIP3    H1 7539   1.516   4.596   2.536  0.1328 -0.2844  0.4839
 2525TIP3    H2 7540   1.663   4.618   2.564  0.7079 -2.1716 -0.8400
 2526TIP3   OH2 7541   5.911   2.140   1.685  0.0957  0.0857 -0.2056
 2526TIP3    H1 7542   5.949   2.131   1.598 -1.2102  3.7338 -1.3185
 2526TIP3    H2 7543   5.831   2.088   1.682  0.1626  0.0256 -1.1328
 2527TIP3   OH2 7544   3.903   1.495   4.669  0.1974  0.0776 -0.0164
 2527TIP3    H1 7545   3.907   1.473   4.762 -0.0060  0.7313  0.1497
 2527TIP3    H2 7546   3.994   1.492   4.640  0.4150  1.1524  0.5137
 2528TIP3   OH2 7547   6.707   3.774   5.462 -0.2072  0.3799  0.1105
 2528TIP3    H1 7548   6.772   3.713   5.428 -0.4087  0.2704 -0.0743
 2528TIP3    H2 7549   6.718   3.770   5.557 -1.4061 -1.2481  0.2032
 2529TIP3   OH2 7550   3.830   5.694   5.505  0.5301 -0.2406 -0.6296
 2529TIP3    H1 7551   3.809   5.601   5.500  0.0649 -0.1547 -0.3057
 2529TIP3    H2 7552   3.917   5.701   5.465  1.3576 -1.0878  0.9286
 2530TIP3   OH2 7553   1.006   2.238   0.233  0.1094 -0.0788 -0.2173
 2530TIP3    H1 7554   1.088   2.215   0.278  0.1510  0.1418 -0.1783
 2530TIP3    H2 7555   1.032   2.301   0.166  0.1528 -0.9424 -1.0339
 2531TIP3   OH2 7556   1.154   3.202   0.706  0.3174  0.2997 -0.5766
 2531TIP3    H1 7557   1.230   3.251   0.676  0.0404  1.8407  1.0423
 2531TIP3    H2 7558   1.079   3.257   0.684 -0.2475 -0.5772 -0.9466
 2532TIP3   OH2 7559   5.634   5.800   1.016  0.4983  0.2243  0.2964
 2532TIP3    H1 7560   5.649   5.874   1.075  0.1572 -1.8092  3.1038
 2532TIP3    H2 7561   5.546   5.815   0.981  0.7526  1.5236  0.1635
 2533TIP3   OH2 7562   2.989   1.999   0.187  0.4522  0.1316 -0.0606
 2533TIP3    H1 7563   2.998   2.013   0.093  1.7530 -0.5481 -0.0520
 2533TIP3    H2 7564   3.025   2.079   0.226 -1.5782  1.1464 -0.1171
 2534TIP3   OH2 7565  -0.018   1.156   2.857  0.1148 -0.3987 -0.5002
 2534TIP3    H1 7566   0.013   1.235   2.813 -1.5078 -0.8599 -2.6564
 2534TIP3    H2 7567   0.061   1.107   2.878  1.2530  2.2465  1.9933
 2535TIP3   OH2 7568   4.419   3.577   3.413  0.0993  0.2042 -0.1540
 2535TIP3    H1 7569   4.369   3.566   3.494  0.1134 -2.4966 -0.4163
 2535TIP3    H2 7570   4.354   3.572   3.344  0.3850 -0.3680 -0.3898
 2536TIP3   OH2 7571   6.767   1.412   2.826 -0.3473  0.1134 -0.1270
 2536TIP3    H1 7572   6.807   1.328   2.846  0.3588  0.3025 -0.7299
 2536TIP3    H2 7573   6.768   1.417   2.730 -1.5577  0.2457 -0.1497
 2537TIP3   OH2 7574   5.672   6.663   3.859 -0.1706 -0.2790  0.0112
 2537TIP3    H1 7575   5.731   6.735   3.881  0.9277 -0.9002 -0.7990
 2537TIP3    H2 7576   5.717   6.584   3.888 -0.7652 -0.7436 -0.2894
 2538TIP3   OH2 7577   1.794   5.279   4.469 -0.3880  0.2687 -0.1776
 2538TIP3    H1 7578   1.824   5.346   4.407  0.6363 -0.5352 -0.5899
 2538TIP3    H2 7579   1.832   5.197   4.435 -0.1295 -0.2445  1.2919
 2539TIP3   OH2 7580   2.511   4.267   2.176 -0.6681  0.3082  0.1655
 2539TIP3    H1 7581   2.575   4.237   2.111  0.6688  0.5719  1.3077
 2539TIP3    H2 7582   2.503   4.361   2.159  2.3990  1.1532  2.4931
 2540TIP3   OH2 7583   2.080   0.987   5.409  0.0736 -0.0494 -0.3608
 2540TIP3    H1 7584   2.113   0.993   5.320  0.6797  0.2141 -0.1222
 2540TIP3    H2 7585   2.140   1.041   5.461  0.4703 -1.2078  0.4224
 2541TIP3   OH2 7586   7.098   2.646   1.558 -0.3668 -0.0981  0.4475
 2541TIP3    H1 7587   7.041   2.722   1.567 -1.1564 -0.5671 -0.3396
 2541TIP3    H2 7588   7.054   2.577   1.609  0.0291 -0.1986  0.6621
 2542TIP3   OH2 7589   0.339   4.522   0.316 -0.1492 -0.5878 -0.0036
 2542TIP3    H1 7590   0.326   4.617   0.317  0.4138 -0.4998 -0.6046
 2542TIP3    H2 7591   0.298   4.492   0.397  0.7332  0.3150  0.8149
 2543TIP3   OH2 7592   6.917   6.590   0.082 -0.1545  0.3818 -0.0355
 2543TIP3    H1 7593   6.869   6.545   0.152  0.7234  0.6387  0.7573
 2543TIP3    H2 7594   6.952   6.669   0.123  0.8450  0.2610 -0.5989
 2544TIP3   OH2 7595   6.843   0.265   3.224 -0.1934 -0.1958 -1.0475
 2544TIP3    H1 7596   6.770   0.228   3.174 -0.8056 -0.0454 -0.2908
 2544TIP3    H2 7597   6.803   0.294   3.307  0.7948 -0.4621 -0.4621
 2545TIP3   OH2 7598   3.728   4.388   2.446 -0.4216  0.1050 -0.0527
 2545TIP3    H1 7599   3.712   4.483   2.440 -4.1593 -0.3938 -0.4894
 2545TIP3    H2 7600   3.722   4.369   2.540  1.0088  0.3424  0.1061
 2546TIP3   OH2 7601   2.401   0.182   4.988 -0.1051 -0.3735  0.0087
 2546TIP3    H1 7602   2.395   0.087   4.991  0.3424 -0.4622 -1.3741
 2546TIP3    H2 7603   2.491   0.200   4.960  0.2262  0.5000  1.5141
 2547TIP3   OH2 7604   5.399   3.162   1.075 -0.4752  0.3565  0.0515
 2547TIP3    H1 7605   5.413   3.170   1.169  1.1252  0.3530 -0.1560
 2547TIP3    H2 7606   5.390   3.068   1.060  0.5261  0.2489  0.0625
 2548TIP3   OH2 7607   0.261   2.661   1.545  0.6583 -0.2210 -0.4039
 2548TIP3    H1 7608   0.190   2.724   1.536 -0.2994 -1.1353  0.4973
 2548TIP3    H2 7609   0.308   2.665   1.461 -0.7768  0.0078 -1.2201
 2549TIP3   OH2 7610   3.050   4.248   0.716  0.2147  0.1357 -0.4147
 2549TIP3    H1 7611   3.083   4.333   0.747  1.1822 -0.4382  0.1934
 2549TIP3    H2 7612   2.973   4.232   0.770 -0.0924  0.7145 -0.6698
 2550TIP3   OH2 7613   4.016   5.722   0.463 -0.2001  0.1847  0.4372
 2550TIP3    H1 7614   4.089   5.666   0.434 -0.8432 -0.5588  0.2214
 2550TIP3    H2 7615   4.017   5.714   0.559 -0.5994 -0.6144  0.3827
 2551TIP3   OH2 7616   4.200   2.186   2.783 -1.0363  0.1193  0.4785
 2551TIP3    H1 7617   4.204   2.190   2.688 -0.2715  0.3762  0.5236
 2551TIP3    H2 7618   4.291   2.187   2.812 -1.2751  2.3266  1.3172
 2552TIP3   OH2 7619   0.457   1.019   3.110 -0.0088  0.5674 -0.8647
 2552TIP3    H1 7620   0.365   1.017   3.084 -0.2203  0.7707 -0.1562
 2552TIP3    H2 7621   0.502   0.964   3.045 -0.8453 -0.7106 -0.3983
 2553TIP3   OH2 7622   5.903   1.145   3.989 -0.4465  0.3659 -0.1401
 2553TIP3    H1 7623   5.883   1.205   3.917 -0.1623  0.9764  0.2825
 2553TIP3    H2 7624   5.842   1.072   3.977 -0.1482  0.2676 -1.2210
 2554TIP3   OH2 7625   3.413   0.557   0.552 -0.2902  0.3066 -0.5439
 2554TIP3    H1 7626   3.474   0.484   0.566  0.9215  1.2211 -0.8929
 2554TIP3    H2 7627   3.351   0.524   0.487  0.4924 -0.2834 -1.0137
 2555TIP3   OH2 7628   1.819   0.134   0.185 -0.3723  0.1814  0.3481
 2555TIP3    H1 7629   1.892   0.106   0.129 -0.0873  0.4813  0.5624
 2555TIP3    H2 7630   1.751   0.163   0.123 -0.6086 -0.8084  0.1291
 2556TIP3   OH2 7631   5.716   5.217   5.379  1.0386  0.4683 -0.0117
 2556TIP3    H1 7632   5.810   5.234   5.385  1.2383 -0.5302 -0.1406
 2556TIP3    H2 7633   5.710   5.131   5.337  0.1170 -0.0775  1.1700
 2557TIP3   OH2 7634   3.082   5.286   0.098  0.5461  0.2003  0.3134
 2557TIP3    H1 7635   3.076   5.209   0.041 -0.7716 -0.3912  1.1946
 2557TIP3    H2 7636   3.025   5.265   0.172  0.5719  1.8225  0.8281
 2558TIP3   OH2 7637   5.802   6.387   0.966  0.6714 -0.2462  0.2876
 2558TIP3    H1 7638   5.877   6.349   1.011  1.2820 -0.1305 -0.6310
 2558TIP3    H2 7639   5.823   6.381   0.873 -0.1151  0.4883  0.0503
 2559TIP3   OH2 7640   0.557   5.575   2.544  0.4866  0.5013  0.2067
 2559TIP3    H1 7641   0.605   5.494   2.559  1.3176  1.3588  2.6090
 2559TIP3    H2 7642   0.521   5.566   2.455  1.0001 -2.2288  0.2067
 2560TIP3   OH2 7643   4.817   6.780   1.142 -0.1712 -0.5052  0.1531
 2560TIP3    H1 7644   4.901   6.752   1.179 -1.1009 -1.3954  1.6377
 2560TIP3    H2 7645   4.803   6.868   1.178 -0.0063 -0.4549  0.0971
 2561TIP3   OH2 7646   2.543   3.178   4.470 -0.2097  0.4251  0.0326
 2561TIP3    H1 7647   2.595   3.104   4.439  0.6176  0.5557  1.0578
 2561TIP3    H2 7648   2.588   3.255   4.434  0.3298  0.5369  0.9023
 2562TIP3   OH2 7649   7.142   1.970   0.170 -0.2966  0.3559 -0.1675
 2562TIP3    H1 7650   7.118   1.982   0.078  0.2002  1.2249 -0.1861
 2562TIP3    H2 7651   7.236   1.985   0.173 -0.1873 -0.3626  0.3769
 2563TIP3   OH2 7652   0.063   2.862   1.449  0.0313 -0.3507 -0.8211
 2563TIP3    H1 7653  -0.001   2.809   1.495  1.8202 -0.6946  1.4367
 2563TIP3    H2 7654   0.011   2.919   1.392 -2.0625 -2.7951 -1.5181
 2564TIP3   OH2 7655   3.798   4.388   3.046 -0.0117 -0.2457 -0.3078
 2564TIP3    H1 7656   3.797   4.375   3.141  2.3239  1.0037 -0.0478
 2564TIP3    H2 7657   3.853   4.318   3.012  0.2747  0.1018 -0.5717
 2565TIP3   OH2 7658   0.511   3.094   5.441  0.2238 -0.1442 -0.0020
 2565TIP3    H1 7659   0.531   3.175   5.394  0.3119 -0.6880 -0.9140
 2565TIP3    H2 7660   0.596   3.066   5.476  0.0408  0.6679  1.2001
 2566TIP3   OH2 7661   2.312   5.142   2.746  0.0567  0.0422  0.2870
 2566TIP3    H1 7662   2.226   5.107   2.722 -0.0928 -0.5193  1.5357
 2566TIP3    H2 7663   2.375   5.085   2.702 -0.1767  1.2163 -1.6690
 2567TIP3   OH2 7664   6.222   2.224   1.979  0.2287 -0.6329 -0.2410
 2567TIP3    H1 7665   6.256   2.308   1.950  1.3157 -0.1552  2.2049
 2567TIP3    H2 7666   6.285   2.160   1.945  0.0889 -0.3626 -1.0358
 2568TIP3   OH2 7667   3.466   4.208   1.409  0.0126 -0.4865 -0.0461
 2568TIP3    H1 7668   3.374   4.222   1.432  0.7758  0.3582  2.8830
 2568TIP3    H2 7669   3.509   4.291   1.428  1.4949 -0.9790 -1.0276
 2569TIP3   OH2 7670   7.210   6.323   1.842  0.1471  0.4823  0.4036
 2569TIP3    H1 7671   7.135   6.286   1.888  1.5095 -1.1952  1.3936
 2569TIP3    H2 7672   7.273   6.345   1.911  0.3197  2.6000 -0.3389
 2570TIP3   OH2 7673   1.400   2.769   2.879  0.6792 -0.4630  0.0961
 2570TIP3    H1 7674   1.355   2.813   2.951 -1.4440  0.3409 -1.6168
 2570TIP3    H2 7675   1.345   2.693   2.859  0.9862 -0.4355 -0.9357
 2571TIP3   OH2 7676   1.738   2.356   2.629  0.0344  0.2629 -0.3860
 2571TIP3    H1 7677   1.674   2.289   2.604 -0.0506  0.5884 -1.0538
 2571TIP3    H2 7678   1.688   2.418   2.682  0.1132 -0.1981  0.2357
 2572TIP3   OH2 7679   5.255   0.655   1.898 -0.2900 -0.3811  0.3124
 2572TIP3    H1 7680   5.224   0.667   1.808 -0.7678  1.0997  0.6564
 2572TIP3    H2 7681   5.176   0.662   1.951  0.2649  0.7432  1.0017
 2573TIP3   OH2 7682   6.884   2.781   5.070  0.2708 -0.0869 -0.1787
 2573TIP3    H1 7683   6.958   2.838   5.092 -0.9255  1.2956  0.4626
 2573TIP3    H2 7684   6.841   2.825   4.996  2.2909 -2.9316 -3.2674
 2574TIP3   OH2 7685   5.944   0.198   1.117 -0.2092  0.7225 -0.7945
 2574TIP3    H1 7686   5.891   0.262   1.164 -0.6735 -0.2339  0.0240
 2574TIP3    H2 7687   6.021   0.185   1.174  0.1725  0.9791 -1.2419
 2575TIP3   OH2 7688   0.901   0.825   1.637 -0.0808  0.0924  0.3926
 2575TIP3    H1 7689   0.973   0.773   1.673 -0.6961 -1.1574 -0.1175
 2575TIP3    H2 7690   0.936   0.914   1.631  1.3489 -0.4460  0.3577
 2576TIP3   OH2 7691   4.437   5.992   2.638 -0.1927  0.3232 -0.1072
 2576TIP3    H1 7692   4.503   5.999   2.707 -0.9993 -0.2028  0.7424
 2576TIP3    H2 7693   4.361   5.954   2.681 -0.3822 -1.0108 -1.5146
 2577TIP3   OH2 7694   4.979   5.829   5.189 -0.1775 -0.0820  0.2778
 2577TIP3    H1 7695   4.898   5.880   5.184  0.1638  0.7799  2.4498
 2577TIP3    H2 7696   5.004   5.832   5.282  1.9454 -0.9519 -0.2000
 2578TIP3   OH2 7697   2.632   0.984   0.267  1.0148 -0.0114  0.3956
 2578TIP3    H1 7698   2.584   1.066   0.278  1.6714  0.4120  0.2076
 2578TIP3    H2 7699   2.575   0.917   0.304 -0.2953  0.2755 -1.0177
 2579TIP3   OH2 7700   6.102   2.940   5.739 -0.3249 -0.1191 -0.2097
 2579TIP3    H1 7701   6.013   2.925   5.773 -1.7940 -1.0035 -3.9234
 2579TIP3    H2 7702   6.158   2.882   5.791 -2.7430 -3.2335 -0.7678
 2580TIP3   OH2 7703   6.646   4.426   2.767 -0.0408  0.3206  0.2603
 2580TIP3    H1 7704   6.670   4.489   2.698  0.8200 -1.1966 -0.8904
 2580TIP3    H2 7705   6.716   4.360   2.764 -1.3136 -1.1046  0.8837
 2581TIP3   OH2 7706   5.740   5.439   2.180 -0.0310 -0.5290  0.1001
 2581TIP3    H1 7707   5.675   5.426   2.112 -1.4936 -0.1819  1.3795
 2581TIP3    H2 7708   5.757   5.534   2.180  0.9784 -0.6891 -0.6406
 2582TIP3   OH2 7709   6.092   5.836   1.520 -0.6268  0.2536 -0.4560
 2582TIP3    H1 7710   6.157   5.900   1.492  1.5959 -0.4704  2.5079
 2582TIP3    H2 7711   6.134   5.789   1.592 -4.4652 -0.2979  1.6964
 2583TIP3   OH2 7712   1.970   0.160   4.202  0.1334  0.4420  0.6564
 2583TIP3    H1 7713   1.878   0.137   4.217 -0.0752  1.5167  1.1075
 2583TIP3    H2 7714   2.011   0.155   4.288  0.4789  0.0934  0.4765
 2584TIP3   OH2 7715   3.273   5.873   2.963  0.4879  0.9514  0.2599
 2584TIP3    H1 7716   3.182   5.898   2.977  1.0108  3.2343 -0.0529
 2584TIP3    H2 7717   3.282   5.789   3.009 -1.0744  1.9482  2.5750
 2585TIP3   OH2 7718   0.549   5.099   2.969  0.0601 -0.1337  0.1993
 2585TIP3    H1 7719   0.526   5.140   2.885  1.4070 -0.1728 -0.2147
 2585TIP3    H2 7720   0.504   5.015   2.968  0.8195 -0.5517 -0.9395
 2586TIP3   OH2 7721   2.494   5.881   3.248 -0.0785 -0.0852  0.3534
 2586TIP3    H1 7722   2.531   5.933   3.318  1.7202 -0.3128 -0.3780
 2586TIP3    H2 7723   2.484   5.793   3.285  1.5956 -0.3951  0.1332
 2587TIP3   OH2 7724   3.979   5.822   1.393  0.1304  0.0540  0.8463
 2587TIP3    H1 7725   4.073   5.828   1.376  0.0521 -1.0053 -0.1235
 2587TIP3    H2 7726   3.945   5.908   1.367  0.6023 -0.1561 -0.5800
 2588TIP3   OH2 7727   1.520   0.974   1.292  0.4218 -0.6388  0.4644
 2588TIP3    H1 7728   1.574   1.030   1.235  2.3603 -0.6728  2.1330
 2588TIP3    H2 7729   1.503   1.028   1.369 -3.2481 -0.1326 -0.5487
 2589TIP3   OH2 7730   1.067   3.306   0.362  0.2501  0.2574 -0.0563
 2589TIP3    H1 7731   1.033   3.330   0.276 -0.4054  0.7852  0.3435
 2589TIP3    H2 7732   0.998   3.253   0.401 -0.2606  1.5595  0.8683
 2590TIP3   OH2 7733   4.011   3.421   0.344 -0.5718  0.1107 -0.5152
 2590TIP3    H1 7734   4.088   3.479   0.341  0.0042 -0.5518  0.7493
 2590TIP3    H2 7735   3.978   3.430   0.434 -1.5875 -0.1128 -0.8583
 2591TIP3   OH2 7736   2.318   1.112   3.939 -0.4546  0.0087 -0.0864
 2591TIP3    H1 7737   2.256   1.048   3.904 -0.1024  0.6487 -1.9489
 2591TIP3    H2 7738   2.392   1.059   3.970 -1.5976 -0.7073  1.5751
 2592TIP3   OH2 7739   5.133   0.041   5.001  0.5283  0.8716  0.0520
 2592TIP3    H1 7740   5.056   0.087   4.968  0.1427 -0.8862 -1.7179
 2592TIP3    H2 7741   5.100  -0.044   5.029  1.8304 -0.0121 -0.9530
 2593TIP3   OH2 7742   0.901   6.219   0.736  0.0964 -0.2407 -0.0051
 2593TIP3    H1 7743   0.899   6.281   0.809 -2.1486  0.7873 -0.8493
 2593TIP3    H2 7744   0.851   6.143   0.767  0.4983 -0.4814  0.0636
 2594TIP3   OH2 7745   1.724   5.591   3.109  0.2816  0.0280  0.0826
 2594TIP3    H1 7746   1.801   5.610   3.164  0.5890 -0.6917 -0.0831
 2594TIP3    H2 7747   1.761   5.574   3.022 -0.0853 -0.1285 -0.0425
 2595TIP3   OH2 7748   0.179   5.578   5.786  0.0026  0.1525  0.2868
 2595TIP3    H1 7749   0.179   5.596   5.880  1.1406 -1.4218  0.6299
 2595TIP3    H2 7750   0.236   5.645   5.749  0.0177  0.4295  0.8006
 2596TIP3   OH2 7751   0.514   1.042   0.254  0.4052 -0.0280 -0.1173
 2596TIP3    H1 7752   0.475   0.979   0.315  0.1231  0.7692  0.5466
 2596TIP3    H2 7753   0.584   1.084   0.305 -0.5855  1.4628  0.0648
 2597TIP3   OH2 7754   5.101   1.526   4.290  0.2372  0.3470 -0.3513
 2597TIP3    H1 7755   5.088   1.610   4.245 -0.0577  1.8003  2.2700
 2597TIP3    H2 7756   5.013   1.491   4.301  0.2597  0.2863 -0.3626
 2598TIP3   OH2 7757   5.667   5.864   1.394  0.4956 -0.7821  0.0267
 2598TIP3    H1 7758   5.612   5.811   1.451  0.6969 -0.4861  0.4971
 2598TIP3    H2 7759   5.655   5.953   1.425  0.2943 -0.5692 -0.6499
 2599TIP3   OH2 7760   0.327   4.769   4.141  0.6435  0.0314 -0.1202
 2599TIP3    H1 7761   0.251   4.776   4.083  0.0270 -1.9533  0.3507
 2599TIP3    H2 7762   0.377   4.695   4.105 -0.0904 -1.6785  2.1267
 2600TIP3   OH2 7763   3.336   0.172   5.367  0.7814  0.1699  0.4146
 2600TIP3    H1 7764   3.415   0.128   5.337  0.8599 -0.1738  1.1058
 2600TIP3    H2 7765   3.279   0.173   5.290  0.9290 -0.8024  0.2741
 2601TIP3   OH2 7766   3.610   1.151   3.471  0.2462  0.1789  0.0368
 2601TIP3    H1 7767   3.643   1.098   3.399  0.1973  0.0670  0.0961
 2601TIP3    H2 7768   3.566   1.088   3.528 -1.8657  0.6006 -1.0501
 2602TIP3   OH2 7769   5.524   6.324   3.255 -0.5873 -0.2057  0.2808
 2602TIP3    H1 7770   5.524   6.273   3.174  1.1396 -0.9511  0.6968
 2602TIP3    H2 7771   5.548   6.260   3.323  0.7422  0.9502  0.9459
 2603TIP3   OH2 7772   5.476   2.064   5.679 -0.1107  0.3443 -0.2552
 2603TIP3    H1 7773   5.467   2.064   5.775 -0.6714  1.5037 -0.2941
 2603TIP3    H2 7774   5.399   2.110   5.647 -0.9530 -1.7610 -1.4120
 2604TIP3   OH2 7775   2.670   3.855   3.488  0.0856  0.4177  0.2983
 2604TIP3    H1 7776   2.747   3.879   3.437  1.0622 -2.2639  0.3321
 2604TIP3    H2 7777   2.601   3.842   3.424  0.2630  0.6906  0.0516
 2605TIP3   OH2 7778   1.192   3.528   3.855  0.4077 -0.3917  0.3440
 2605TIP3    H1 7779   1.176   3.594   3.788  1.6413  0.1945  0.5962
 2605TIP3    H2 7780   1.287   3.513   3.851  0.5959  0.0995  2.3644
 2606TIP3   OH2 7781   3.961   0.783   5.520  0.0278 -0.6815  0.0224
 2606TIP3    H1 7782   3.945   0.856   5.460 -0.2953  0.1651  1.1001
 2606TIP3    H2 7783   3.928   0.706   5.474 -1.3455  0.1289 -0.3946
 2607TIP3   OH2 7784   4.233   4.819   0.794  0.0225  0.0167 -0.4656
 2607TIP3    H1 7785   4.298   4.840   0.728  1.2403 -0.3996  0.5472
 2607TIP3    H2 7786   4.200   4.732   0.769  2.4622 -1.4159  0.8592
 2608TIP3   OH2 7787   7.181   0.461   3.300  0.1682 -0.1475 -0.2243
 2608TIP3    H1 7788   7.188   0.371   3.329  2.6152 -0.7816 -2.4265
 2608TIP3    H2 7789   7.257   0.505   3.338 -0.0400  0.5571 -0.5910
 2609TIP3   OH2 7790   6.595   6.595   1.867 -0.3432  0.5201  0.8613
 2609TIP3    H1 7791   6.661   6.621   1.803 -0.9088 -0.0416  0.0342
 2609TIP3    H2 7792   6.520   6.651   1.849 -0.8627 -0.3120  0.3570
 2610TIP3   OH2 7793   4.015   4.819   4.820 -0.1593 -0.2072  0.2432
 2610TIP3    H1 7794   3.958   4.799   4.895 -0.6629 -1.0488 -0.3383
 2610TIP3    H2 7795   4.101   4.788   4.846 -0.1924  0.0846  0.7149
 2611TIP3   OH2 7796   7.170   1.636   1.284  0.2684 -0.1376  0.5704
 2611TIP3    H1 7797   7.240   1.701   1.287 -0.1195  0.2547  1.2663
 2611TIP3    H2 7798   7.214   1.555   1.258  0.8326  0.2944  0.1519
 2612TIP3   OH2 7799   0.731   3.559   4.298 -0.0496  0.4512 -0.6104
 2612TIP3    H1 7800   0.718   3.611   4.377 -0.6823  0.5974 -0.8080
 2612TIP3    H2 7801   0.812   3.509   4.315 -0.9671 -0.6494  0.7387
 2613TIP3   OH2 7802   1.403   6.328   4.544  0.0730 -0.1129  0.4811
 2613TIP3    H1 7803   1.458   6.402   4.521 -1.4517  0.2951 -2.2425
 2613TIP3    H2 7804   1.465   6.257   4.565  1.6073  0.8739 -0.5124
 2614TIP3   OH2 7805   5.269   0.945   3.005 -0.1649 -0.2333 -0.2661
 2614TIP3    H1 7806   5.347   0.990   2.974 -0.0875  0.1605  0.4885
 2614TIP3    H2 7807   5.301   0.863   3.042 -0.0359  0.2216  0.6373
 2615TIP3   OH2 7808   5.072   0.241   0.550 -0.1783 -0.7030 -0.1109
 2615TIP3    H1 7809   4.978   0.254   0.536  0.4152  0.5322 -4.3602
 2615TIP3    H2 7810   5.091   0.157   0.507  0.8010 -0.5713  0.0547
 2616TIP3   OH2 7811   4.749   5.397   3.104 -0.1396  0.1481  0.0774
 2616TIP3    H1 7812   4.774   5.458   3.174  0.4023 -0.3697  0.3472
 2616TIP3    H2 7813   4.832   5.369   3.066 -0.4467  1.0911 -1.3808
 2617TIP3   OH2 7814   5.403   3.960   5.279 -0.1369 -0.3139 -0.0470
 2617TIP3    H1 7815   5.431   3.934   5.191  0.2477 -0.5974  0.1614
 2617TIP3    H2 7816   5.474   3.933   5.336 -0.4703 -0.2966  0.3787
 2618TIP3   OH2 7817   4.198   2.805   5.843 -0.3987  0.4571 -0.1963
 2618TIP3    H1 7818   4.181   2.867   5.772 -1.4587 -0.1290 -0.4734
 2618TIP3    H2 7819   4.140   2.834   5.914  1.7941  2.0129  1.0777
 2619TIP3   OH2 7820   2.462   5.933   0.158  0.6619 -0.5023  0.5953
 2619TIP3    H1 7821   2.387   5.973   0.202  0.2173  0.3913 -0.8965
 2619TIP3    H2 7822   2.536   5.949   0.217  0.4061  2.1410  0.3013
 2620TIP3   OH2 7823   0.503   5.669   3.357 -0.7163  0.1658  0.1682
 2620TIP3    H1 7824   0.449   5.748   3.353 -0.2562  0.4790  0.0393
 2620TIP3    H2 7825   0.510   5.650   3.451  0.4970  1.2157  0.3215
 2621TIP3   OH2 7826   2.967   4.266   1.981  0.1229  0.5659  0.7774
 2621TIP3    H1 7827   2.983   4.241   2.073  1.9806 -3.0997 -0.3504
 2621TIP3    H2 7828   3.045   4.316   1.956  1.2872 -1.3403  0.3800
 2622TIP3   OH2 7829   4.752   4.400   0.887  0.4372  0.4012  0.0292
 2622TIP3    H1 7830   4.737   4.306   0.895  0.2727  0.4545  0.3310
 2622TIP3    H2 7831   4.684   4.430   0.827 -0.5992  0.6177  1.2781
 2623TIP3   OH2 7832   4.167   6.111   0.790 -1.0459 -0.5017  0.4931
 2623TIP3    H1 7833   4.079   6.114   0.827 -1.5996  2.6411 -0.7909
 2623TIP3    H2 7834   4.154   6.118   0.695  0.5715 -0.8944  0.2074
 2624TIP3   OH2 7835   4.563   1.752   1.329  0.2210 -0.0539  0.0439
 2624TIP3    H1 7836   4.650   1.725   1.358  0.2931  1.0125  0.8850
 2624TIP3    H2 7837   4.503   1.696   1.379  0.4032 -0.4386 -0.1597
 2625TIP3   OH2 7838   6.286   2.925   2.894 -0.1509 -0.0164 -0.0051
 2625TIP3    H1 7839   6.335   2.938   2.813  0.7939 -1.0708  0.3672
 2625TIP3    H2 7840   6.286   2.830   2.907  0.8390  0.1954  1.8850
 2626TIP3   OH2 7841   0.226   1.241   3.311  0.0098 -0.3757 -0.1774
 2626TIP3    H1 7842   0.154   1.276   3.364 -0.0894 -1.1294  0.2079
 2626TIP3    H2 7843   0.303   1.289   3.340 -0.4575  1.0540 -1.2042
 2627TIP3   OH2 7844   0.962   1.157   1.338 -0.0718 -0.5099 -0.3610
 2627TIP3    H1 7845   0.925   1.245   1.326 -2.0660 -1.2404  0.0221
 2627TIP3    H2 7846   0.929   1.107   1.263  1.2415 -0.8998 -0.7013
 2628TIP3   OH2 7847   2.406   0.681   0.673 -0.2616 -0.4692 -0.3189
 2628TIP3    H1 7848   2.413   0.743   0.745  2.3412 -0.5202 -0.4398
 2628TIP3    H2 7849   2.371   0.601   0.712  0.7017 -0.3590  0.8055
 2629TIP3   OH2 7850   5.924   5.181   0.211 -0.8000  0.4458 -0.0128
 2629TIP3    H1 7851   5.897   5.091   0.195  1.3312 -0.6235  1.7744
 2629TIP3    H2 7852   6.012   5.187   0.172 -0.6212  1.5154  0.5100
 2630TIP3   OH2 7853   3.318   5.304   5.584 -0.4322 -0.3405 -0.3807
 2630TIP3    H1 7854   3.397   5.257   5.561 -0.8493 -0.6776 -1.1555
 2630TIP3    H2 7855   3.320   5.309   5.680  0.5147 -0.3405 -0.3916
 2631TIP3   OH2 7856   2.115   1.939   5.700  0.1084  0.2549 -0.2167
 2631TIP3    H1 7857   2.071   1.905   5.622  0.5144  1.3748 -0.9484
 2631TIP3    H2 7858   2.146   2.026   5.675 -0.1978  0.8504  1.3525
 2632TIP3   OH2 7859   1.478   4.258   3.049  0.9778  1.0940 -0.2327
 2632TIP3    H1 7860   1.426   4.178   3.046  0.4747  1.3403  1.4066
 2632TIP3    H2 7861   1.485   4.285   2.957 -0.8480  0.4607 -0.5926
 2633TIP3   OH2 7862   6.233   0.023   4.138  0.2331 -0.1467  0.2712
 2633TIP3    H1 7863   6.268   0.042   4.051  0.8004  0.3036  0.5879
 2633TIP3    H2 7864   6.138   0.029   4.128  0.3321  1.1294 -0.0525
 2634TIP3   OH2 7865   2.030   5.389   4.622 -0.1546 -0.5638  0.0175
 2634TIP3    H1 7866   1.941   5.356   4.638 -1.0055  1.6145  0.0970
 2634TIP3    H2 7867   2.071   5.392   4.708 -1.8135  3.1183  0.8848
 2635TIP3   OH2 7868   1.433   3.466   3.715 -0.2661  0.6682  0.2832
 2635TIP3    H1 7869   1.466   3.476   3.626 -1.5635 -0.7396 -0.3973
 2635TIP3    H2 7870   1.444   3.373   3.734  0.2373  0.9987  1.7185
 2636TIP3   OH2 7871   3.437   4.391   2.859 -0.4452 -0.4356  0.4267
 2636TIP3    H1 7872   3.447   4.307   2.815  0.4574 -1.0482  1.7148
 2636TIP3    H2 7873   3.461   4.372   2.950  0.8332  1.4502  0.5260
 2637TIP3   OH2 7874   1.839   1.224   5.841  0.3973 -0.0113 -0.7714
 2637TIP3    H1 7875   1.884   1.280   5.779  2.3047 -0.9314 -0.3227
 2637TIP3    H2 7876   1.891   1.231   5.921  0.2181 -1.7233 -0.4580
 2638TIP3   OH2 7877   6.916   0.994   1.502 -0.3973 -0.6680  0.4213
 2638TIP3    H1 7878   6.957   0.969   1.420 -0.8672  1.7961 -0.6327
 2638TIP3    H2 7879   6.989   1.005   1.563  0.0678 -1.0239 -0.0613
 2639TIP3   OH2 7880   5.197   5.595   1.411  0.0479 -0.1897  0.0072
 2639TIP3    H1 7881   5.192   5.614   1.505  2.3244 -1.6910  0.5081
 2639TIP3    H2 7882   5.160   5.507   1.403  0.3660 -0.2881 -0.3972
 2640TIP3   OH2 7883   3.150   5.637   3.178 -0.1721 -0.2590  0.4413
 2640TIP3    H1 7884   3.130   5.577   3.107  0.9677 -0.3319  0.1744
 2640TIP3    H2 7885   3.068   5.643   3.228 -1.0865  0.0687 -1.0557
 2641TIP3   OH2 7886   5.722   4.751   4.356 -0.8628  0.1080  0.2721
 2641TIP3    H1 7887   5.708   4.835   4.312  0.3352  0.4300  0.4470
 2641TIP3    H2 7888   5.656   4.748   4.425 -0.4763  1.2462  0.7190
 2642TIP3   OH2 7889   3.422   3.133   5.688 -0.6885  0.0775 -0.2631
 2642TIP3    H1 7890   3.402   3.185   5.610  0.7805  0.4854 -0.3956
 2642TIP3    H2 7891   3.378   3.180   5.759 -1.1264  0.3163 -0.6814
 2643TIP3   OH2 7892   6.969   6.199   2.321  0.1498 -0.4387  0.4055
 2643TIP3    H1 7893   7.036   6.252   2.363 -0.1565 -0.3971  0.8613
 2643TIP3    H2 7894   6.890   6.253   2.324  0.0326 -0.5929  0.1276
 2644TIP3   OH2 7895   3.191   5.826   5.891  0.0774 -0.2606  0.3018
 2644TIP3    H1 7896   3.196   5.903   5.834  1.2386 -0.3767  0.2220
 2644TIP3    H2 7897   3.114   5.779   5.861  0.0365  0.2606 -0.4342
 2645TIP3   OH2 7898   0.809   4.416   2.686 -0.7724 -0.1911  0.0403
 2645TIP3    H1 7899   0.895   4.373   2.686 -0.3004  0.7410  0.2389
 2645TIP3    H2 7900   0.828   4.508   2.706 -1.7654  0.1236 -0.4168
 2646TIP3   OH2 7901   4.786   4.039   3.550  0.0578  0.1016 -0.3257
 2646TIP3    H1 7902   4.773   4.126   3.587  0.6521 -0.1133  0.4314
 2646TIP3    H2 7903   4.699   3.999   3.552 -0.0285  0.3069  0.3125
 2647TIP3   OH2 7904   0.320   5.236   1.973  0.2712  0.4389 -0.2966
 2647TIP3    H1 7905   0.332   5.158   2.028 -1.1006  0.2089 -0.2808
 2647TIP3    H2 7906   0.320   5.203   1.884 -1.1849  0.2586 -0.2583
 2648TIP3   OH2 7907   2.391   1.402   0.120  0.2096 -0.0704 -0.1551
 2648TIP3    H1 7908   2.363   1.312   0.137  1.1252 -0.1589  0.9082
 2648TIP3    H2 7909   2.482   1.394   0.093  0.5497  0.6022  0.7580
 2649TIP3   OH2 7910   5.188   5.570   5.338  0.0924  0.5872 -0.1577
 2649TIP3    H1 7911   5.130   5.539   5.269 -0.3897  0.2708  0.3748
 2649TIP3    H2 7912   5.218   5.490   5.382  1.1659  0.7316 -0.6016
 2650TIP3   OH2 7913   5.367   3.279   2.174 -0.1204 -0.4628  0.0719
 2650TIP3    H1 7914   5.380   3.373   2.163  1.1879 -0.5811  0.4509
 2650TIP3    H2 7915   5.408   3.240   2.097  0.6085 -0.7840  0.6095
 2651TIP3   OH2 7916   4.906   5.369   0.625 -0.7849 -0.3699 -0.3613
 2651TIP3    H1 7917   4.872   5.299   0.681 -1.0384  0.1424  0.1379
 2651TIP3    H2 7918   4.841   5.439   0.632  1.3542  1.5638  2.4521
 2652TIP3   OH2 7919   6.448   4.232   1.194 -0.0510  0.2669 -0.1253
 2652TIP3    H1 7920   6.485   4.262   1.111 -2.1581  0.1391 -1.1884
 2652TIP3    H2 7921   6.415   4.144   1.174 -1.2736  0.5414  0.6034
 2653TIP3   OH2 7922   6.301   2.855   0.033 -0.4578 -0.0718 -0.3714
 2653TIP3    H1 7923   6.275   2.763   0.044 -0.8857  0.1883  1.0106
 2653TIP3    H2 7924   6.246   2.887  -0.039 -0.8459 -0.7068 -0.3659
 2654TIP3   OH2 7925   3.162   2.434   1.999 -0.2465  0.4972  0.0846
 2654TIP3    H1 7926   3.257   2.438   1.988 -0.2946 -0.5787 -0.9857
 2654TIP3    H2 7927   3.133   2.525   1.992  0.7005  0.8397  0.4702
 2655TIP3   OH2 7928   4.643   3.309  -0.007  0.1771  0.4451  0.5272
 2655TIP3    H1 7929   4.617   3.218  -0.010  1.1892  0.1523 -0.1531
 2655TIP3    H2 7930   4.580   3.351   0.052 -1.0777 -0.4180 -0.1590
 2656TIP3   OH2 7931   4.592   0.728   4.363  0.3755  0.1999  0.1755
 2656TIP3    H1 7932   4.672   0.702   4.319 -0.3561 -0.2632 -0.9336
 2656TIP3    H2 7933   4.552   0.793   4.305 -0.5558 -0.3451  0.1771
 2657TIP3   OH2 7934   1.275   4.215   0.014 -0.3466 -1.2208  0.1224
 2657TIP3    H1 7935   1.296   4.304   0.043 -0.8132 -1.1285  0.1760
 2657TIP3    H2 7936   1.185   4.220  -0.016 -0.1173 -1.4907 -0.6512
 2658TIP3   OH2 7937   4.826   0.823   0.322 -0.2099 -0.0029  0.1380
 2658TIP3    H1 7938   4.780   0.753   0.367 -0.2909 -0.2782 -0.3659
 2658TIP3    H2 7939   4.802   0.812   0.230  0.8779 -0.1687 -0.1395
 2659TIP3   OH2 7940   0.282   1.297   1.431 -0.6920 -0.6676  0.3849
 2659TIP3    H1 7941   0.230   1.377   1.428 -0.8010 -0.7230  0.7196
 2659TIP3    H2 7942   0.261   1.251   1.350 -1.0596 -0.6246  0.4552
 2660TIP3   OH2 7943   5.441   1.797   4.961 -0.8849  0.0495 -0.4732
 2660TIP3    H1 7944   5.407   1.721   5.009 -1.4657 -0.8041 -2.1280
 2660TIP3    H2 7945   5.368   1.859   4.959 -0.3677  0.7198  0.9912
 2661TIP3   OH2 7946   5.064   2.710   5.781  0.3057  0.2723 -0.2209
 2661TIP3    H1 7947   5.113   2.790   5.760 -0.7344  0.7747 -0.7821
 2661TIP3    H2 7948   5.129   2.640   5.774  1.6827  1.2027  1.9497
 2662TIP3   OH2 7949   4.880   1.342   1.283 -0.0433  0.1345 -0.1745
 2662TIP3    H1 7950   4.894   1.275   1.215 -2.2721 -0.6550  0.0552
 2662TIP3    H2 7951   4.964   1.348   1.328  0.6338 -1.4899 -1.1107
 2663TIP3   OH2 7952   4.448   5.237   0.176 -0.3978  0.1569  0.4355
 2663TIP3    H1 7953   4.402   5.158   0.148 -0.2514 -1.0384  3.2534
 2663TIP3    H2 7954   4.447   5.233   0.272  1.7362  2.3511  0.6533
 2664TIP3   OH2 7955   2.191   4.604   2.190 -0.0294 -0.1334 -0.0445
 2664TIP3    H1 7956   2.102   4.568   2.196  0.1496 -0.8891 -1.5238
 2664TIP3    H2 7957   2.178   4.699   2.190 -0.5865 -0.1080  2.7771
 2665TIP3   OH2 7958   4.586   0.180   1.445  0.3311 -0.4214  0.2174
 2665TIP3    H1 7959   4.606   0.213   1.532 -0.0408  0.7532 -0.1148
 2665TIP3    H2 7960   4.490   0.171   1.445  0.3779 -0.8975  0.0997
 2666TIP3   OH2 7961   4.676   2.516   1.061 -0.2894 -0.0442  0.3640
 2666TIP3    H1 7962   4.673   2.600   1.105 -1.1979  0.0163  0.2054
 2666TIP3    H2 7963   4.721   2.533   0.979  2.2419 -0.3359  1.5959
 2667TIP3   OH2 7964   1.395   5.916   2.121 -1.0923 -0.9216 -0.2557
 2667TIP3    H1 7965   1.402   5.998   2.072  0.1366 -0.8189  0.0680
 2667TIP3    H2 7966   1.387   5.849   2.053  0.5950 -0.7828 -0.6289
 2668TIP3   OH2 7967   2.324   5.737   0.640 -0.1576  0.1196 -0.0435
 2668TIP3    H1 7968   2.398   5.715   0.696  0.8858  1.6085 -0.7608
 2668TIP3    H2 7969   2.289   5.653   0.611  0.6042 -0.6218  1.1360
 2669TIP3   OH2 7970   3.396   1.505   1.047  0.1017 -0.0751  0.6485
 2669TIP3    H1 7971   3.367   1.588   1.086  1.9820 -0.2484  2.6027
 2669TIP3    H2 7972   3.489   1.517   1.032  0.5941 -2.0601  1.7143
 2670TIP3   OH2 7973   4.281   3.623   0.049 -0.1940  0.3843 -0.1591
 2670TIP3    H1 7974   4.217   3.619   0.120 -0.8127 -1.5347 -0.7640
 2670TIP3    H2 7975   4.335   3.544   0.061  0.9215  1.0441 -0.7092
 2671TIP3   OH2 7976   4.787   3.345   1.922 -0.1920 -0.3249 -0.4305
 2671TIP3    H1 7977   4.846   3.270   1.929  0.3463  0.0339 -1.0209
 2671TIP3    H2 7978   4.837   3.410   1.872 -0.7935  0.2823 -0.2505
 2672TIP3   OH2 7979   4.920   3.526   4.872 -0.0171  0.2309  0.4360
 2672TIP3    H1 7980   4.994   3.471   4.849 -0.7210 -1.8869  2.7735
 2672TIP3    H2 7981   4.903   3.507   4.964 -2.8849  1.2928  0.2496
 2673TIP3   OH2 7982   1.728   5.507   0.924 -0.4808  0.0164  0.0494
 2673TIP3    H1 7983   1.674   5.578   0.890 -0.1776 -0.9572 -2.7927
 2673TIP3    H2 7984   1.818   5.535   0.906  0.0578  1.1706  3.8008
 2674TIP3   OH2 7985   0.927   6.588   2.020  0.1392 -0.9751 -0.1602
 2674TIP3    H1 7986   0.964   6.666   2.063  0.9673 -1.5018  0.1156
 2674TIP3    H2 7987   0.875   6.623   1.948  0.6418 -0.1669 -0.1471
 2675TIP3   OH2 7988   5.634   1.194   0.428  0.0489 -0.2012  0.5384
 2675TIP3    H1 7989   5.729   1.209   0.433  0.5171 -2.8705  0.8771
 2675TIP3    H2 7990   5.605   1.200   0.519 -0.1049  0.4582  0.4520
 2676TIP3   OH2 7991   1.504   5.161   4.945  0.0382 -0.6596 -0.2395
 2676TIP3    H1 7992   1.473   5.221   5.013  0.2978 -0.7391 -0.0489
 2676TIP3    H2 7993   1.556   5.096   4.993 -0.0304 -0.8894 -0.4758
 2677TIP3   OH2 7994   7.104   0.931   2.693  0.0782 -0.2870  0.6798
 2677TIP3    H1 7995   7.153   1.003   2.733 -0.1552  0.5007 -0.3987
 2677TIP3    H2 7996   7.033   0.913   2.754 -0.4755  1.1267  0.4989
 2678TIP3   OH2 7997   3.047   4.227   3.253  0.5552 -0.4022 -0.2314
 2678TIP3    H1 7998   3.108   4.299   3.234  2.1634  0.2170  5.3437
 2678TIP3    H2 7999   3.103   4.156   3.285 -1.3653 -1.7773  0.2294
 2679TIP3   OH2 8000   1.973   1.066   3.937 -0.6910  0.3865  0.3176
 2679TIP3    H1 8001   1.923   1.109   3.867 -0.9091  0.3342  0.4399
 2679TIP3    H2 8002   1.968   1.127   4.011 -2.2157 -0.4699  0.9675
 2680TIP3   OH2 8003   3.024   3.387   5.010 -0.3327 -0.0829 -0.6608
 2680TIP3    H1 8004   3.075   3.405   5.089 -2.5117  2.8173  0.2668
 2680TIP3    H2 8005   3.060   3.446   4.944 -0.9825  0.3163 -0.6685
 2681TIP3   OH2 8006   4.750   3.699   0.041 -0.0891  0.0176 -0.3133
 2681TIP3    H1 8007   4.693   3.692  -0.036 -1.3376 -2.1967  0.7431
 2681TIP3    H2 8008   4.800   3.618   0.041  1.2799  0.8196  0.2240
 2682TIP3   OH2 8009   0.310   5.854   2.070 -0.1428 -0.2469  0.6503
 2682TIP3    H1 8010   0.277   5.768   2.043 -1.4694  0.3628  0.2167
 2682TIP3    H2 8011   0.397   5.836   2.104 -0.2817 -1.7298  0.3323
 2683TIP3   OH2 8012   5.007   5.772   3.497  0.0963 -0.1499 -0.2316
 2683TIP3    H1 8013   4.962   5.731   3.423  1.6676 -0.0859 -1.2730
 2683TIP3    H2 8014   5.078   5.822   3.457 -0.0630  1.3207  1.2133
 2684TIP3   OH2 8015   1.192   4.554   0.602  0.0528 -0.2284 -0.6527
 2684TIP3    H1 8016   1.170   4.647   0.597 -0.2764 -0.1599  1.3632
 2684TIP3    H2 8017   1.127   4.511   0.546 -1.3960  0.5458  0.3714
 2685TIP3   OH2 8018   5.314   0.128   4.317 -0.4767 -0.1316 -0.1785
 2685TIP3    H1 8019   5.371   0.128   4.240 -0.1344 -1.6298  0.0499
 2685TIP3    H2 8020   5.226   0.128   4.281 -0.4799  3.4339 -0.5496
 2686TIP3   OH2 8021   6.923   5.703   1.453 -0.2472  0.4986  0.5657
 2686TIP3    H1 8022   6.941   5.767   1.523 -0.9640 -0.6012  1.8015
 2686TIP3    H2 8023   6.913   5.620   1.499 -1.0478 -0.2046 -0.8308
 2687TIP3   OH2 8024   1.244   1.766   0.311  0.5540  0.2197 -0.0181
 2687TIP3    H1 8025   1.194   1.846   0.328 -0.6410 -0.0530 -2.0080
 2687TIP3    H2 8026   1.226   1.711   0.387  0.2578  1.2688  0.7110
 2688TIP3   OH2 8027   4.963   2.597   4.918  0.3603  0.3789 -0.3579
 2688TIP3    H1 8028   4.885   2.546   4.898  1.5635 -1.2226 -1.2027
 2688TIP3    H2 8029   4.949   2.628   5.007 -1.2820  0.2214 -0.5397
 2689TIP3   OH2 8030   5.935   2.219   1.955  0.0498 -0.2675 -0.3394
 2689TIP3    H1 8031   5.910   2.189   1.868  1.0309  2.1645 -1.5579
 2689TIP3    H2 8032   6.030   2.207   1.959  0.3928  1.8874 -0.6531
 2690TIP3   OH2 8033   2.830   2.700   4.494 -0.2352 -0.0577 -0.3677
 2690TIP3    H1 8034   2.768   2.711   4.566  1.5396  0.2496  1.2181
 2690TIP3    H2 8035   2.854   2.607   4.498  1.3806  0.3608  0.8404
 2691TIP3   OH2 8036   2.334   6.012   3.590  0.1724  0.5499  0.1017
 2691TIP3    H1 8037   2.303   6.057   3.512  0.7179  2.5268  0.9582
 2691TIP3    H2 8038   2.260   5.958   3.618 -0.2810  0.3821 -1.3282
 2692TIP3   OH2 8039   5.000   1.841   2.865 -0.2258 -0.1562  0.2718
 2692TIP3    H1 8040   4.974   1.903   2.797  1.5877  0.7900  0.3782
 2692TIP3    H2 8041   5.025   1.762   2.816 -0.9271 -0.2291  0.0149
 2693TIP3   OH2 8042   5.242   3.141   3.817  0.7384 -0.1711 -0.3655
 2693TIP3    H1 8043   5.205   3.053   3.818  2.3696 -0.8802 -0.5671
 2693TIP3    H2 8044   5.186   3.191   3.877  0.3362 -1.5729  0.4621
 2694TIP3   OH2 8045   3.063   5.658   4.033 -0.0279  0.6475  0.9237
 2694TIP3    H1 8046   2.982   5.656   3.982  1.1961  0.6897 -1.1009
 2694TIP3    H2 8047   3.090   5.566   4.039  0.4151  0.7506  0.5241
 2695TIP3   OH2 8048   6.837   3.741   5.697  0.6822  0.3032  0.2354
 2695TIP3    H1 8049   6.815   3.687   5.772 -1.2594  0.0905 -0.4197
 2695TIP3    H2 8050   6.925   3.774   5.715  1.9114 -2.9155  0.7108
 2696TIP3   OH2 8051   4.519   5.430   3.791 -0.9293 -0.5474 -0.0816
 2696TIP3    H1 8052   4.463   5.463   3.720 -0.2793  0.6206 -0.0660
 2696TIP3    H2 8053   4.528   5.504   3.851 -0.1121 -1.0103  0.3839
 2697TIP3   OH2 8054   3.708   6.566   1.483 -0.2532 -0.1689 -0.0895
 2697TIP3    H1 8055   3.646   6.636   1.462  0.8715  0.9634  0.2253
 2697TIP3    H2 8056   3.734   6.530   1.398  0.2039  0.7588 -0.3618
 2698TIP3   OH2 8057   1.595   6.325   3.255 -0.2962  0.3449 -0.1392
 2698TIP3    H1 8058   1.687   6.299   3.255 -0.3773  0.0036 -0.8998
 2698TIP3    H2 8059   1.549   6.249   3.220 -0.9559  0.2535  0.9012
 2699TIP3   OH2 8060   5.755   1.264   3.809 -0.1445 -0.4089 -0.2032
 2699TIP3    H1 8061   5.680   1.267   3.749  0.7318 -1.0552 -1.3862
 2699TIP3    H2 8062   5.725   1.309   3.888 -1.9246 -1.0609 -0.4678
 2700TIP3   OH2 8063   3.604   5.645   3.121  0.0351 -0.8568  0.6036
 2700TIP3    H1 8064   3.664   5.717   3.142 -1.1870  0.2711  0.2999
 2700TIP3    H2 8065   3.612   5.634   3.026 -2.0057  0.9552  0.1680
 2701TIP3   OH2 8066   1.747   2.672   5.229 -0.2922  0.1923 -0.1447
 2701TIP3    H1 8067   1.656   2.659   5.255  0.0932 -0.0311  1.2153
 2701TIP3    H2 8068   1.769   2.758   5.264 -0.1328  0.4926 -0.9611
 2702TIP3   OH2 8069   3.421   3.056   1.013  0.3348 -0.0296 -0.3622
 2702TIP3    H1 8070   3.512   3.085   1.018  0.0519  0.8628 -0.2954
 2702TIP3    H2 8071   3.427   2.961   1.010  1.3126  0.0461 -1.2539
 2703TIP3   OH2 8072   2.093   6.636   1.160 -0.2608 -0.1941  0.0220
 2703TIP3    H1 8073   2.108   6.581   1.238  0.7213 -0.0386 -0.0386
 2703TIP3    H2 8074   2.166   6.615   1.102 -1.2704 -0.7064 -1.1123
 2704TIP3   OH2 8075   5.687   0.113   3.851 -0.2891  0.4923 -0.1682
 2704TIP3    H1 8076   5.695   0.042   3.915  1.1998  1.5557  0.8804
 2704TIP3    H2 8077   5.752   0.093   3.784 -0.5877  0.3364 -0.4151
 2705TIP3   OH2 8078   4.742   1.202   2.519  0.2000  0.5035 -0.2285
 2705TIP3    H1 8079   4.689   1.146   2.462  0.0801 -0.1443  0.4864
 2705TIP3    H2 8080   4.825   1.213   2.472  0.8431 -1.6335  0.2935
 2706TIP3   OH2 8081   4.443   6.525   2.526  0.4748  0.3279 -0.3655
 2706TIP3    H1 8082   4.470   6.527   2.434  1.1779  2.1546 -0.1607
 2706TIP3    H2 8083   4.348   6.518   2.523  0.5693 -0.9394 -1.1911
 2707TIP3   OH2 8084   4.889   5.030   2.562  0.5026  0.5124 -0.5966
 2707TIP3    H1 8085   4.937   5.101   2.519  1.2216  0.6434  0.3873
 2707TIP3    H2 8086   4.862   5.067   2.646 -0.6325  0.1699 -0.7835
 2708TIP3   OH2 8087   3.064   1.539   2.731 -0.3050  0.5144 -0.3814
 2708TIP3    H1 8088   3.126   1.485   2.779  1.1068  0.7516 -1.8590
 2708TIP3    H2 8089   3.057   1.619   2.783  0.0585  0.1946  0.1712
 2709TIP3   OH2 8090   2.577   4.686   4.703 -0.7065 -0.2196 -0.0641
 2709TIP3    H1 8091   2.523   4.607   4.711 -1.5455  0.4532  1.1377
 2709TIP3    H2 8092   2.659   4.662   4.747 -0.0720 -1.1467 -1.6512
 2710TIP3   OH2 8093   2.021   5.571   3.822  0.3143  0.3419  0.4464
 2710TIP3    H1 8094   1.991   5.604   3.738 -1.0030  2.3190  1.5976
 2710TIP3    H2 8095   1.985   5.482   3.828  1.1681 -0.1662 -1.3905
 2711TIP3   OH2 8096   1.579   0.160   2.067 -0.1433 -0.1807  0.7289
 2711TIP3    H1 8097   1.539   0.204   1.992  0.6062  0.1667  0.5276
 2711TIP3    H2 8098   1.634   0.092   2.030  1.3286  0.8764  0.8525
 2712TIP3   OH2 8099   6.776   6.061   1.224 -0.1778  0.2283  0.1608
 2712TIP3    H1 8100   6.690   6.026   1.250  0.3367 -1.4040 -0.2357
 2712TIP3    H2 8101   6.820   6.078   1.307 -1.4228  2.5875  0.4063
 2713TIP3   OH2 8102   2.803   0.609   0.988  0.3004  0.0801 -0.0100
 2713TIP3    H1 8103   2.833   0.605   0.897  0.3695  1.7548 -0.1045
 2713TIP3    H2 8104   2.714   0.644   0.982  0.7763  1.4788  0.6077
 2714TIP3   OH2 8105   2.363   5.630   4.395  0.2669  0.3185  0.3182
 2714TIP3    H1 8106   2.372   5.684   4.316 -0.1530  2.6352  1.7687
 2714TIP3    H2 8107   2.426   5.667   4.457  1.9787 -2.6399  0.5638
 2715TIP3   OH2 8108   2.100   5.004   2.636  0.5094 -0.2875  0.3558
 2715TIP3    H1 8109   2.102   4.911   2.614  1.5385 -0.5372  1.3868
 2715TIP3    H2 8110   2.011   5.019   2.667  0.1786 -0.8106 -0.3235
 2716TIP3   OH2 8111   3.602   0.157   4.002  0.9104 -0.5227  0.6068
 2716TIP3    H1 8112   3.619   0.079   4.055 -1.7168 -0.9761  0.9143
 2716TIP3    H2 8113   3.554   0.216   4.060 -2.0046 -1.0016 -1.0722
 2717TIP3   OH2 8114   5.457   0.853   5.855 -0.2907  0.6507  0.4313
 2717TIP3    H1 8115   5.398   0.845   5.930 -0.6380  2.4038  0.3756
 2717TIP3    H2 8116   5.537   0.809   5.883 -1.0098 -0.2256  1.1690
 2718TIP3   OH2 8117   4.954   1.452   3.997  0.1768  0.1068  0.3518
 2718TIP3    H1 8118   4.982   1.530   4.046  1.6926  0.2248 -0.6192
 2718TIP3    H2 8119   4.890   1.485   3.934  0.9700  0.6564 -0.2006
 2719TIP3   OH2 8120   2.202   2.529   5.890 -0.1123 -0.1063 -0.2604
 2719TIP3    H1 8121   2.239   2.601   5.839  0.3344  1.4090  2.0866
 2719TIP3    H2 8122   2.228   2.450   5.842  2.6359  1.1009 -0.9158
 2720TIP3   OH2 8123   3.625   6.238   2.812  0.0843 -0.3145  0.4834
 2720TIP3    H1 8124   3.578   6.160   2.782 -1.1836  0.5369  0.1565
 2720TIP3    H2 8125   3.563   6.310   2.796  0.3791  0.5061  2.7227
 2721TIP3   OH2 8126   1.684   4.349   1.458  0.5358  0.0261 -0.4628
 2721TIP3    H1 8127   1.726   4.277   1.410 -0.3677 -0.1932 -0.9631
 2721TIP3    H2 8128   1.730   4.427   1.428  0.6911 -0.2192 -0.8856
 2722TIP3   OH2 8129   3.939   2.951   1.021 -0.1985  0.0315  0.2943
 2722TIP3    H1 8130   3.969   2.933   1.110 -1.9009 -0.4584  0.8186
 2722TIP3    H2 8131   3.884   2.876   0.998 -0.2297  0.4084 -0.9619
 2723TIP3   OH2 8132   0.807   1.082   3.382 -0.0449  0.3533 -0.2110
 2723TIP3    H1 8133   0.724   1.037   3.368  0.5552 -0.9573  0.2366
 2723TIP3    H2 8134   0.865   1.049   3.313  0.6185 -0.1430  0.5612
 2724TIP3   OH2 8135   3.009   1.937   3.856 -0.3538  0.3718 -0.0529
 2724TIP3    H1 8136   3.066   1.865   3.829  0.7336  1.1253  0.1739
 2724TIP3    H2 8137   2.971   1.907   3.939  1.0586  0.5403  0.6851
 2725TIP3   OH2 8138   3.249   6.209   5.259 -0.1146  0.2140  0.1247
 2725TIP3    H1 8139   3.172   6.195   5.315 -0.4272  0.6725 -0.1818
 2725TIP3    H2 8140   3.213   6.241   5.176  0.3920  0.1755 -0.1153
 2726TIP3   OH2 8141   2.903   3.945   0.070  0.0922  0.3964  0.2497
 2726TIP3    H1 8142   2.821   3.995   0.064 -1.1345 -1.6828 -2.9825
 2726TIP3    H2 8143   2.884   3.877   0.135  0.1543  1.3669  1.3061
 2727TIP3   OH2 8144   2.568   3.504   2.198  0.3649  0.1641  0.1944
 2727TIP3    H1 8145   2.611   3.545   2.272 -0.7178 -0.4247  1.1799
 2727TIP3    H2 8146   2.481   3.479   2.230 -1.2170  2.3031 -2.0072
 2728TIP3   OH2 8147   5.604   2.155   3.748 -0.2956 -0.3900  0.6556
 2728TIP3    H1 8148   5.682   2.116   3.787  0.5973 -0.3868 -1.0069
 2728TIP3    H2 8149   5.557   2.082   3.708 -1.7237 -0.5432  2.4916
 2729TIP3   OH2 8150   2.007   5.735   3.540 -0.2391 -0.0380  0.0627
 2729TIP3    H1 8151   1.923   5.780   3.547 -0.6681 -0.5612 -1.2785
 2729TIP3    H2 8152   1.986   5.652   3.495  0.6195 -1.2903  1.8494
 2730TIP3   OH2 8153   3.268   3.977   1.233 -0.0742 -0.2538  0.4020
 2730TIP3    H1 8154   3.279   4.060   1.187 -1.1019  1.3492  2.8387
 2730TIP3    H2 8155   3.174   3.959   1.227 -0.1927 -0.1264  1.5998
 2731TIP3   OH2 8156   3.621   1.823   2.340 -0.3267  0.3613 -0.5381
 2731TIP3    H1 8157   3.595   1.782   2.423  0.8908 -1.2961 -0.9129
 2731TIP3    H2 8158   3.551   1.801   2.279 -0.1004 -0.4789 -0.5131
 2732TIP3   OH2 8159   1.930   3.895   5.631 -0.1566  0.0265 -0.6447
 2732TIP3    H1 8160   1.891   3.856   5.709 -1.8645  0.8177 -1.0563
 2732TIP3    H2 8161   1.893   3.846   5.558  0.2815  0.2402 -1.0124
 2733TIP3   OH2 8162   1.993   0.780   0.596 -0.4400 -0.0295  0.2437
 2733TIP3    H1 8163   1.910   0.732   0.604  0.0009 -0.5872  2.2607
 2733TIP3    H2 8164   2.039   0.762   0.679  2.1658 -0.6187 -1.1989
 2734TIP3   OH2 8165   2.036   6.096   0.072  0.3890 -0.1250  0.1651
 2734TIP3    H1 8166   2.100   6.061   0.134  0.4303 -1.3971 -0.5653
 2734TIP3    H2 8167   1.951   6.067   0.105  0.3639 -0.2603 -0.0115
 2735TIP3   OH2 8168   4.534   1.153   3.750 -0.5288  0.0650  0.0483
 2735TIP3    H1 8169   4.603   1.168   3.685  0.3565 -1.4649  0.5909
 2735TIP3    H2 8170   4.504   1.241   3.773  1.2438  0.7793 -0.1965
 2736TIP3   OH2 8171   3.910   2.050   2.623  0.0307  0.0186  0.7804
 2736TIP3    H1 8172   3.822   2.016   2.641  0.0605 -0.3100  0.3180
 2736TIP3    H2 8173   3.969   1.980   2.649  0.1034 -0.1864  0.1024
 2737TIP3   OH2 8174   0.162   4.599   1.466 -0.4050  0.3692  0.5685
 2737TIP3    H1 8175   0.239   4.655   1.457 -0.5507  0.7641  1.5961
 2737TIP3    H2 8176   0.107   4.644   1.530 -1.1157 -0.3196  0.4579
 2738TIP3   OH2 8177   6.907   5.639   4.095 -0.4428 -0.0937 -0.1856
 2738TIP3    H1 8178   6.947   5.713   4.141 -0.0901 -0.6559  0.4185
 2738TIP3    H2 8179   6.836   5.610   4.153 -0.2929 -0.5148 -0.2105
 2739TIP3   OH2 8180   2.330   0.685   4.786 -0.0157  0.4478 -0.1077
 2739TIP3    H1 8181   2.424   0.670   4.773 -0.0838 -2.3566  1.7559
 2739TIP3    H2 8182   2.305   0.623   4.855 -3.0473  1.8613  0.2324
 2740TIP3   OH2 8183   2.825   6.498   1.062  0.3010 -0.4449 -0.2685
 2740TIP3    H1 8184   2.909   6.498   1.108  0.1107 -2.0332  0.1442
 2740TIP3    H2 8185   2.818   6.586   1.024  2.7575 -0.6739 -1.4295
 2741TIP3   OH2 8186   6.704   5.107   3.411 -0.4405  0.3885  0.1063
 2741TIP3    H1 8187   6.785   5.149   3.441 -1.4961  2.7124 -0.1142
 2741TIP3    H2 8188   6.661   5.079   3.492  0.1012  0.0049  0.2749
 2742TIP3   OH2 8189   1.963   0.041   0.396  0.3958  0.2093 -0.2624
 2742TIP3    H1 8190   1.903  -0.013   0.448  0.7244 -1.9794 -1.9725
 2742TIP3    H2 8191   1.925   0.041   0.308  1.5989  0.8947 -0.8134
 2743TIP3   OH2 8192   0.783   6.330   3.744 -0.1925 -0.1303 -0.0587
 2743TIP3    H1 8193   0.828   6.393   3.686  0.3116 -2.3027 -2.1999
 2743TIP3    H2 8194   0.854   6.276   3.779 -0.7293 -0.4596  0.5224
 2744TIP3   OH2 8195   2.657   3.745   5.015 -0.4595  0.2567 -0.3482
 2744TIP3    H1 8196   2.593   3.704   4.957 -0.4631 -1.9778  1.1250
 2744TIP3    H2 8197   2.740   3.741   4.967 -0.9576  1.0426 -1.3097
 2745TIP3   OH2 8198   1.662   5.464   4.615 -0.0327  0.1370  0.4059
 2745TIP3    H1 8199   1.653   5.431   4.705 -1.6373 -0.7324 -0.0404
 2745TIP3    H2 8200   1.708   5.394   4.569 -1.3507 -0.4841  0.0054
 2746TIP3   OH2 8201   6.421   2.476   0.410  0.0840 -0.4000  0.0280
 2746TIP3    H1 8202   6.485   2.501   0.477 -0.2009 -1.7139  0.8190
 2746TIP3    H2 8203   6.383   2.560   0.382 -0.8360  0.1359  2.5875
 2747TIP3   OH2 8204   7.058   6.499   4.683 -0.1198 -0.1827  0.4321
 2747TIP3    H1 8205   7.039   6.591   4.701 -0.1974 -0.3072  1.0166
 2747TIP3    H2 8206   7.149   6.487   4.710 -0.4120 -0.5102  1.3195
 2748TIP3   OH2 8207   3.148   3.544   1.607  0.6565 -0.1855 -0.2853
 2748TIP3    H1 8208   3.092   3.479   1.565 -0.5509  0.5867  0.0718
 2748TIP3    H2 8209   3.124   3.540   1.700  1.5900 -0.2181 -0.0414
 2749TIP3   OH2 8210   4.931   3.991   5.321 -0.0617  0.3705  0.6164
 2749TIP3    H1 8211   4.893   4.053   5.383  2.7459 -0.2704  3.2002
 2749TIP3    H2 8212   4.876   3.913   5.330 -0.0602  0.4890  1.9088
 2750TIP3   OH2 8213   5.422   1.780   0.793  0.5109 -0.2796  0.6635
 2750TIP3    H1 8214   5.483   1.732   0.737  0.4718  0.3293  0.0864
 2750TIP3    H2 8215   5.355   1.814   0.733  2.3062  3.3848  0.4389
 2751TIP3   OH2 8216   0.305   1.787   1.710  0.1299  0.0691 -0.2885
 2751TIP3    H1 8217   0.326   1.848   1.780  0.0825 -1.9234  1.5959
 2751TIP3    H2 8218   0.228   1.824   1.667 -0.8342  0.6238  1.7772
 2752TIP3   OH2 8219   3.268   4.355   4.724 -0.1030  0.4862 -0.4868
 2752TIP3    H1 8220   3.284   4.262   4.739  0.7323  0.2754 -2.4064
 2752TIP3    H2 8221   3.173   4.365   4.737 -0.0611 -0.4187  0.6595
 2753TIP3   OH2 8222   4.244   4.326   3.791  0.6366  1.1193 -0.4582
 2753TIP3    H1 8223   4.255   4.357   3.701 -2.1909  1.6682 -0.7106
 2753TIP3    H2 8224   4.292   4.389   3.845  1.2295  1.5595 -1.4861
 2754TIP3   OH2 8225   6.942   1.729   1.874  0.4907 -0.1178 -0.5142
 2754TIP3    H1 8226   6.914   1.759   1.961  1.0663 -0.7660 -0.0983
 2754TIP3    H2 8227   6.861   1.708   1.829  0.2215 -0.6335  0.1845
 2755TIP3   OH2 8228   6.930   6.517   3.140  0.1236 -0.3935 -0.3614
 2755TIP3    H1 8229   6.927   6.462   3.061 -1.9467 -0.9698  0.0613
 2755TIP3    H2 8230   6.976   6.464   3.205 -2.1433 -1.8708  0.1463
 2756TIP3   OH2 8231   3.230   5.969   4.342 -0.1297  0.7756 -0.0900
 2756TIP3    H1 8232   3.209   5.890   4.292  0.4835 -0.0688  0.9642
 2756TIP3    H2 8233   3.316   5.952   4.380  0.8089  2.6377 -1.1908
 2757TIP3   OH2 8234   6.604   3.097   4.057 -0.1205 -0.3308  0.1654
 2757TIP3    H1 8235   6.624   3.074   4.148  2.1124 -2.3415 -0.7321
 2757TIP3    H2 8236   6.509   3.086   4.050 -0.2893 -0.4390  2.1711
 2758TIP3   OH2 8237   5.265   0.748   2.608  0.0241 -0.2563  0.3889
 2758TIP3    H1 8238   5.255   0.834   2.568 -1.0731 -0.5478  0.0159
 2758TIP3    H2 8239   5.178   0.709   2.605  0.5536 -1.4923  0.2843
 2759TIP3   OH2 8240   1.874   5.192   1.690 -0.2265  0.1019  0.0282
 2759TIP3    H1 8241   1.961   5.164   1.661 -0.3580 -0.7043  0.3886
 2759TIP3    H2 8242   1.892   5.262   1.753  0.1167  0.6188 -0.6255
 2760TIP3   OH2 8243   0.231   5.400   2.700  0.5075 -0.0825 -0.4633
 2760TIP3    H1 8244   0.160   5.453   2.737  1.3210 -0.2038  1.3888
 2760TIP3    H2 8245   0.188   5.321   2.667 -0.5014  0.9164 -1.6428
 2761TIP3   OH2 8246   1.178   1.772   0.039  0.0424 -0.2955  0.0603
 2761TIP3    H1 8247   1.191   1.778   0.134 -0.3023 -0.5912  0.1278
 2761TIP3    H2 8248   1.265   1.748   0.005 -0.2230 -1.9669  0.4786
 2762TIP3   OH2 8249   6.184   5.836   0.138 -0.9735 -0.0865 -0.2597
 2762TIP3    H1 8250   6.155   5.746   0.121 -1.2622 -0.3889  1.6506
 2762TIP3    H2 8251   6.134   5.889   0.076 -0.9160 -1.2147 -1.3112
 2763TIP3   OH2 8252   1.590   0.690   0.316  0.0497  0.3061 -0.9058
 2763TIP3    H1 8253   1.544   0.606   0.303  0.6568  0.2620 -3.0448
 2763TIP3    H2 8254   1.682   0.666   0.321  0.0346  0.5376  2.0833
 2764TIP3   OH2 8255   7.179   6.287   0.595  0.4702 -0.4459  0.2053
 2764TIP3    H1 8256   7.124   6.282   0.517 -0.2168 -0.5744  0.6910
 2764TIP3    H2 8257   7.125   6.251   0.665  1.5356 -1.5188  0.5150
 2765TIP3   OH2 8258   5.786   2.782   5.617  0.0181  0.2142  0.1844
 2765TIP3    H1 8259   5.765   2.867   5.657  0.2633  0.2742  0.1862
 2765TIP3    H2 8260   5.816   2.728   5.690 -1.8817 -0.4732  0.5192
 2766TIP3   OH2 8261   5.032   5.026   3.126  0.0205  0.7597 -0.6024
 2766TIP3    H1 8262   5.123   5.000   3.142 -0.2661  0.7186  1.1101
 2766TIP3    H2 8263   4.984   4.943   3.126 -0.3593  0.9387  1.1297
 2767TIP3   OH2 8264   2.275   0.642   5.761 -0.2273  0.1232 -0.3571
 2767TIP3    H1 8265   2.186   0.633   5.728 -0.8949  0.3301  1.2926
 2767TIP3    H2 8266   2.271   0.610   5.850  1.7986 -1.6319 -0.8254
 2768TIP3   OH2 8267   5.021   3.195   2.021 -0.3146 -0.0726 -0.4829
 2768TIP3    H1 8268   5.059   3.268   1.973 -0.8118 -1.8400 -3.8344
 2768TIP3    H2 8269   5.081   3.122   2.004 -0.5746 -0.8389  1.6017
 2769TIP3   OH2 8270   1.791   0.815   3.625 -0.2308  0.6331  0.1350
 2769TIP3    H1 8271   1.836   0.867   3.558 -1.4103  1.8585  0.2575
 2769TIP3    H2 8272   1.733   0.877   3.669 -0.5342 -0.4673  1.3481
 2770TIP3   OH2 8273   0.058   6.424   3.108 -0.4490  0.5554  0.2960
 2770TIP3    H1 8274   0.028   6.431   3.199  1.6630  2.0229  0.9313
 2770TIP3    H2 8275   0.039   6.509   3.069  2.5369  1.5064  0.6863
 2771TIP3   OH2 8276   2.055   4.522   5.206  0.0062  0.9169  0.6524
 2771TIP3    H1 8277   2.126   4.463   5.178  0.3723  0.6995  1.9909
 2771TIP3    H2 8278   1.999   4.467   5.261  0.4840  1.8612  2.1175
 2772TIP3   OH2 8279   1.858   5.332   0.314 -0.1683 -0.0210 -0.4478
 2772TIP3    H1 8280   1.795   5.262   0.332  0.9975 -0.4435  2.8012
 2772TIP3    H2 8281   1.928   5.290   0.264 -0.7461 -0.4836 -0.8731
 2773TIP3   OH2 8282   1.294   2.984   2.680  0.1020 -0.0012 -0.4254
 2773TIP3    H1 8283   1.210   3.020   2.709 -1.0924 -2.7580 -0.1622
 2773TIP3    H2 8284   1.353   2.999   2.754 -0.2909  1.3521 -0.3473
 2774TIP3   OH2 8285   6.944   4.616   3.483 -0.0172 -0.7472 -0.2416
 2774TIP3    H1 8286   6.962   4.529   3.448  3.1247  0.1885 -1.3359
 2774TIP3    H2 8287   6.974   4.612   3.574  1.6778 -0.4601 -0.7472
 2775TIP3   OH2 8288   5.585   3.781   5.405  0.3095 -0.0571  0.5244
 2775TIP3    H1 8289   5.526   3.706   5.396 -0.0934  0.3467 -0.2179
 2775TIP3    H2 8290   5.666   3.753   5.362  0.9796 -0.9060  2.2079
 2776TIP3   OH2 8291   6.034   2.321   2.756  0.3772  0.7777 -0.2520
 2776TIP3    H1 8292   5.976   2.312   2.831  0.7867  1.0749  0.1035
 2776TIP3    H2 8293   6.116   2.279   2.783 -0.3492 -1.7151 -1.5581
 2777TIP3   OH2 8294   2.132   3.120   2.514 -0.2213  0.7057 -0.2051
 2777TIP3    H1 8295   2.161   3.206   2.486 -1.0052  1.1371  0.2640
 2777TIP3    H2 8296   2.041   3.114   2.482  0.3554 -0.6427 -1.7388
 2778TIP3   OH2 8297   6.591   6.061   3.849 -0.2134 -0.0270  0.0497
 2778TIP3    H1 8298   6.670   6.079   3.899 -0.8320 -0.9398  1.4175
 2778TIP3    H2 8299   6.534   6.136   3.867  0.5486  0.9469 -1.4494
 2779TIP3   OH2 8300   2.435   5.861   1.855 -0.4771  0.3979 -0.4608
 2779TIP3    H1 8301   2.453   5.769   1.836  0.0535  0.5598 -0.7611
 2779TIP3    H2 8302   2.339   5.868   1.851 -0.5299 -0.1723 -0.2679
 2780TIP3   OH2 8303   3.317   4.812   4.090 -0.0817  0.0469 -0.3336
 2780TIP3    H1 8304   3.368   4.867   4.030 -1.8248  1.2538 -0.7718
 2780TIP3    H2 8305   3.311   4.728   4.046 -1.5152  0.9669 -2.0589
 2781TIP3   OH2 8306   1.277  -0.024   0.201  0.4054 -0.3404 -0.0664
 2781TIP3    H1 8307   1.272   0.007   0.110 -0.9691 -0.8604 -0.1941
 2781TIP3    H2 8308   1.204   0.020   0.245 -1.5668 -3.1955 -0.2327
 2782TIP3   OH2 8309   0.217   1.480   4.912 -0.4122 -0.5283  0.7423
 2782TIP3    H1 8310   0.282   1.415   4.938  1.5410  0.6995 -0.7903
 2782TIP3    H2 8311   0.146   1.428   4.874  0.1573 -1.8526  1.4010
 2783TIP3   OH2 8312   5.196   0.020   2.827  0.4018 -0.2224  0.3341
 2783TIP3    H1 8313   5.237  -0.026   2.753 -0.0576 -1.2402  0.7014
 2783TIP3    H2 8314   5.150   0.094   2.786  0.8929 -0.2553 -0.2971
 2784TIP3   OH2 8315   0.635   0.200   2.560  0.0203  0.0973 -0.1716
 2784TIP3    H1 8316   0.548   0.161   2.573 -0.0646  0.6704  1.2091
 2784TIP3    H2 8317   0.679   0.142   2.498 -0.6078 -1.3867  0.7217
 2785TIP3   OH2 8318   4.341   5.013   0.953 -0.1363 -0.2819  0.1866
 2785TIP3    H1 8319   4.272   5.073   0.981  1.2367  0.8617  1.2480
 2785TIP3    H2 8320   4.295   4.945   0.904 -2.0536  0.2609  1.1370
 2786TIP3   OH2 8321   2.357   6.577   3.117  0.0317  0.1442 -0.6859
 2786TIP3    H1 8322   2.337   6.539   3.032  1.0877 -0.4661 -0.6872
 2786TIP3    H2 8323   2.318   6.517   3.181  0.0632  0.0777 -0.7290
 2787TIP3   OH2 8324   0.557   4.710   3.527 -0.2515 -0.1352  0.2464
 2787TIP3    H1 8325   0.628   4.677   3.471 -1.7908 -0.5723 -1.5394
 2787TIP3    H2 8326   0.526   4.789   3.483  1.2003  2.0079  2.7471
 2788TIP3   OH2 8327   1.869   1.677   1.853 -0.5693 -0.5784  0.0956
 2788TIP3    H1 8328   1.962   1.686   1.833 -0.8884 -1.3635 -2.0758
 2788TIP3    H2 8329   1.866   1.645   1.943  1.1733  0.8757  0.7349
 2789TIP3   OH2 8330   7.214   4.428   0.252  0.8939  0.3398 -0.5935
 2789TIP3    H1 8331   7.198   4.468   0.337  0.9391 -1.6833  0.4190
 2789TIP3    H2 8332   7.128   4.398   0.222  0.7105  1.8916 -1.7729
 2790TIP3   OH2 8333   5.589   6.079   3.394 -0.0990 -0.2477 -0.3199
 2790TIP3    H1 8334   5.562   6.024   3.320 -1.7341 -0.2684  0.2563
 2790TIP3    H2 8335   5.550   6.036   3.471  1.2566 -0.0208  0.5326
 2791TIP3   OH2 8336   7.064   1.761   3.245 -0.1176 -0.0920 -0.2233
 2791TIP3    H1 8337   7.021   1.809   3.173 -1.5472 -0.4397  0.3601
 2791TIP3    H2 8338   7.021   1.794   3.324  1.8397  0.7170  0.5659
 2792TIP3   OH2 8339   6.753   0.724   0.910 -0.2469 -0.1346 -0.1110
 2792TIP3    H1 8340   6.685   0.726   0.843 -0.3111 -0.7275 -0.0677
 2792TIP3    H2 8341   6.747   0.636   0.948  1.4471 -0.7081 -1.0651
 2793TIP3   OH2 8342   6.776   3.701   2.374  0.0678 -0.5524  0.1717
 2793TIP3    H1 8343   6.771   3.779   2.429  2.0466  0.0870 -0.4682
 2793TIP3    H2 8344   6.712   3.717   2.304 -0.2260  0.0526  0.5702
 2794TIP3   OH2 8345   6.816   5.679   2.093  0.1937  0.0477 -0.4686
 2794TIP3    H1 8346   6.856   5.675   2.180  1.0129 -1.8468 -0.8596
 2794TIP3    H2 8347   6.851   5.759   2.053  0.1283  0.7172  0.7797
 2795TIP3   OH2 8348   4.247   2.721   2.534 -0.0199  0.2813 -0.1140
 2795TIP3    H1 8349   4.260   2.719   2.629  1.9403  0.2488 -0.3525
 2795TIP3    H2 8350   4.329   2.754   2.499 -0.4146 -0.4782 -1.8585
 2796TIP3   OH2 8351   4.215   2.957   1.117 -0.1922 -0.2015  0.7021
 2796TIP3    H1 8352   4.170   3.036   1.088  1.8072  0.6192 -0.3803
 2796TIP3    H2 8353   4.146   2.902   1.154 -2.3318  0.3395 -2.1135
 2797TIP3   OH2 8354   1.332   5.652   3.251 -0.1811 -0.4308 -0.1680
 2797TIP3    H1 8355   1.248   5.607   3.258 -0.5010 -0.1056 -1.5852
 2797TIP3    H2 8356   1.318   5.734   3.298 -1.1091  0.1938 -1.4562
 2798TIP3   OH2 8357   2.450   5.505  -0.032 -0.4707  0.7789 -0.9000
 2798TIP3    H1 8358   2.369   5.537   0.007  0.2978  0.7781  0.7840
 2798TIP3    H2 8359   2.499   5.467   0.041  0.8957  0.4481 -1.9380
 2799TIP3   OH2 8360   6.236   4.093   5.762 -0.0140 -0.0241  0.4412
 2799TIP3    H1 8361   6.160   4.146   5.781 -0.8516 -1.5167  1.4927
 2799TIP3    H2 8362   6.215   4.048   5.679  0.5715  1.0089 -0.2932
 2800TIP3   OH2 8363   6.314   4.000   2.982 -0.6569  0.1870  0.3366
 2800TIP3    H1 8364   6.355   3.999   3.069 -0.7189  2.1347  0.4211
 2800TIP3    H2 8365   6.380   3.961   2.924  0.9453  2.2299  0.6610
 2801TIP3   OH2 8366   1.905   3.144   4.475 -0.2122 -0.6541 -0.4466
 2801TIP3    H1 8367   1.988   3.097   4.482  0.4045  0.5856  1.3813
 2801TIP3    H2 8368   1.927   3.227   4.434 -0.0636  0.5971  2.0042
 2802TIP3   OH2 8369   1.526   0.628   5.275 -0.1901 -0.6092 -0.2950
 2802TIP3    H1 8370   1.463   0.691   5.239  0.8532  0.9103  0.4708
 2802TIP3    H2 8371   1.563   0.585   5.198 -0.7907 -0.1658 -0.8429
 2803TIP3   OH2 8372   5.725   1.197   2.722  0.1066 -0.3554 -0.9799
 2803TIP3    H1 8373   5.779   1.249   2.782  0.7788 -0.1093 -1.7685
 2803TIP3    H2 8374   5.752   1.107   2.738  0.3592 -0.2822 -0.9813
 2804TIP3   OH2 8375   2.486   2.838   1.373 -0.0130 -0.0422  0.4012
 2804TIP3    H1 8376   2.442   2.754   1.386  1.0612 -0.7257 -0.1647
 2804TIP3    H2 8377   2.578   2.814   1.358  0.5620  1.3228  1.5495
 2805TIP3   OH2 8378   0.849   6.498   3.128 -0.0909 -0.8066 -0.0318
 2805TIP3    H1 8379   0.809   6.512   3.215  0.2473  3.1415 -0.3086
 2805TIP3    H2 8380   0.943   6.508   3.144 -0.0457  0.1929 -0.8161
 2806TIP3   OH2 8381   3.178   0.209   1.411  0.2233 -0.4470 -0.5695
 2806TIP3    H1 8382   3.213   0.147   1.347 -0.8834 -2.3507  0.5856
 2806TIP3    H2 8383   3.245   0.214   1.479  0.3167 -0.3676 -0.6672
 2807TIP3   OH2 8384   3.955   2.862   0.377 -0.6478 -0.2230 -0.2399
 2807TIP3    H1 8385   4.000   2.863   0.461 -3.3678 -0.3336  1.3226
 2807TIP3    H2 8386   3.965   2.951   0.344  1.0210 -0.3562 -0.1853
 2808TIP3   OH2 8387   5.857   3.914   5.461  0.5054  0.1726  0.1088
 2808TIP3    H1 8388   5.896   3.924   5.374 -0.3799 -3.4809 -0.8559
 2808TIP3    H2 8389   5.763   3.925   5.447  0.4853  1.2417  0.9688
 2809TIP3   OH2 8390   3.568   5.791   4.658 -0.0781  0.1987 -0.0017
 2809TIP3    H1 8391   3.547   5.872   4.704 -0.8103 -0.2851  0.5358
 2809TIP3    H2 8392   3.557   5.722   4.724 -1.3635 -0.5362 -0.9329
 2810TIP3   OH2 8393   1.860   0.754   1.867 -0.1812 -0.1511  0.4313
 2810TIP3    H1 8394   1.811   0.672   1.873  1.4506 -1.1689  0.3669
 2810TIP3    H2 8395   1.804   0.812   1.816 -0.1003 -2.2605 -2.2758
 2811TIP3   OH2 8396   2.149   3.370   2.392 -0.0079 -0.1972 -0.1591
 2811TIP3    H1 8397   2.059   3.391   2.366 -0.1619 -0.1001  0.4406
 2811TIP3    H2 8398   2.153   3.392   2.484  1.2087  1.6817 -0.6155
 2812TIP3   OH2 8399   3.100   3.584   4.033  0.8823  0.0149  0.6328
 2812TIP3    H1 8400   3.015   3.587   3.990  0.9842 -0.9018  0.3452
 2812TIP3    H2 8401   3.081   3.599   4.126  0.7032  2.4119  0.2698
 2813TIP3   OH2 8402   4.428   1.918   5.329 -0.2924  0.2102 -0.2212
 2813TIP3    H1 8403   4.513   1.907   5.287  0.8200 -0.6610  2.0950
 2813TIP3    H2 8404   4.447   1.920   5.422 -2.9359 -1.3762  0.4660
 2814TIP3   OH2 8405   0.963   1.469   0.693  0.0044  0.2798  0.0986
 2814TIP3    H1 8406   1.029   1.464   0.762 -0.2815  0.4905  0.3931
 2814TIP3    H2 8407   0.960   1.381   0.656  0.3440  0.2332  0.1825
 2815TIP3   OH2 8408   2.094   0.878   2.367 -0.3006 -0.1064 -0.0838
 2815TIP3    H1 8409   2.187   0.874   2.392 -0.8975 -2.2717  2.2030
 2815TIP3    H2 8410   2.090   0.948   2.303  2.4414  2.1199  1.8996
 2816TIP3   OH2 8411   4.752   1.171   4.042  0.0449  0.1004 -0.4416
 2816TIP3    H1 8412   4.700   1.247   4.017 -2.1301 -1.3206 -0.4691
 2816TIP3    H2 8413   4.688   1.104   4.065  1.8813 -1.7008 -0.2544
 2817TIP3   OH2 8414   3.371   3.777   0.521  0.1779 -0.9784  0.7841
 2817TIP3    H1 8415   3.427   3.854   0.529  1.6182 -1.6443 -1.6746
 2817TIP3    H2 8416   3.290   3.810   0.483  1.1829 -0.7098 -1.3013
 2818TIP3   OH2 8417   4.458   0.383   3.656 -0.1270  0.2374 -0.3689
 2818TIP3    H1 8418   4.453   0.296   3.618 -1.7210 -0.1964  0.7260
 2818TIP3    H2 8419   4.532   0.425   3.611  0.6257 -1.6279 -0.9748
 2819TIP3   OH2 8420   4.191   3.464   4.078 -0.5481 -0.1429  0.6430
 2819TIP3    H1 8421   4.159   3.446   3.989 -1.3576  1.3573  0.5884
 2819TIP3    H2 8422   4.204   3.378   4.117 -2.6388 -0.8377 -0.0776
 2820TIP3   OH2 8423   6.463   2.547   2.048  0.1804 -0.4824  0.4467
 2820TIP3    H1 8424   6.496   2.602   2.120 -1.8704  0.5785  0.6636
 2820TIP3    H2 8425   6.540   2.502   2.015  1.3325 -0.4310  2.8169
 2821TIP3   OH2 8426   1.970   1.815   4.775  0.3503 -0.3059 -0.0706
 2821TIP3    H1 8427   1.876   1.821   4.793  0.4018  0.7080 -0.0527
 2821TIP3    H2 8428   1.988   1.891   4.719  1.1138 -0.6307 -0.2744
 2822TIP3   OH2 8429   1.391   0.167   2.282  0.4109  0.3050  0.0021
 2822TIP3    H1 8430   1.385   0.262   2.269  0.6485  0.0191 -2.6319
 2822TIP3    H2 8431   1.464   0.140   2.227  0.8871 -1.3354  1.3735
 2823TIP3   OH2 8432   3.847   5.439   2.055 -0.7505 -0.1684  0.0294
 2823TIP3    H1 8433   3.806   5.489   1.984 -1.3647  0.1109  0.5698
 2823TIP3    H2 8434   3.779   5.378   2.084 -0.6884  0.1011  0.7478
 2824TIP3   OH2 8435   5.572   0.575   2.834  0.2474  0.0914  0.2756
 2824TIP3    H1 8436   5.582   0.658   2.881 -2.0054  1.5199 -1.5598
 2824TIP3    H2 8437   5.510   0.525   2.888  1.1263 -0.1819  1.0626
 2825TIP3   OH2 8438   0.660   6.146   4.587 -0.3953  0.5910  0.1886
 2825TIP3    H1 8439   0.646   6.082   4.518 -0.4656 -0.1200  0.8449
 2825TIP3    H2 8440   0.663   6.230   4.542 -1.2390  0.2255 -0.5858
 2826TIP3   OH2 8441   6.900   0.979   4.185  0.2077 -0.9145  0.0702
 2826TIP3    H1 8442   6.873   0.940   4.268 -1.4193  0.4585  0.2359
 2826TIP3    H2 8443   6.820   0.985   4.134  0.5311  1.3794 -0.2608
 2827TIP3   OH2 8444   1.884   5.069   4.337  0.1115 -0.1816  0.2375
 2827TIP3    H1 8445   1.950   5.007   4.367 -0.5569 -1.1811 -0.2908
 2827TIP3    H2 8446   1.905   5.083   4.245  0.2663  0.3967  0.3578
 2828TIP3   OH2 8447   1.294   1.099   0.539  0.0005 -0.4589  0.2115
 2828TIP3    H1 8448   1.333   1.045   0.470 -1.1160  0.5669 -1.2929
 2828TIP3    H2 8449   1.336   1.069   0.620  1.7636 -1.3326 -0.9620
 2829TIP3   OH2 8450   0.358   5.774   4.317 -0.4897 -0.2076 -0.6467
 2829TIP3    H1 8451   0.276   5.757   4.364 -1.2062  0.1356 -1.7431
 2829TIP3    H2 8452   0.415   5.702   4.343 -0.3808  0.6601  1.7770
 2830TIP3   OH2 8453   0.714   3.543   1.858 -0.0294 -0.3973 -0.2511
 2830TIP3    H1 8454   0.777   3.602   1.899 -0.1641 -0.1751 -0.3652
 2830TIP3    H2 8455   0.746   3.455   1.881 -0.0951 -0.2786  0.3089
 2831TIP3   OH2 8456   3.705   0.935   0.712  0.1153 -0.0318 -0.4640
 2831TIP3    H1 8457   3.638   0.874   0.681 -0.4568  0.3855 -0.0767
 2831TIP3    H2 8458   3.731   0.900   0.798  0.5865 -0.3344 -0.7246
 2832TIP3   OH2 8459   3.724   6.440   5.292 -0.0188  0.2718  0.1498
 2832TIP3    H1 8460   3.630   6.447   5.275 -0.0934  0.0755  0.4819
 2832TIP3    H2 8461   3.735   6.355   5.333  0.1756  0.6707  0.9445
 2833TIP3   OH2 8462   1.786   6.642   0.257  0.1460 -0.3194 -0.1659
 2833TIP3    H1 8463   1.787   6.581   0.183 -0.1603 -1.4063  0.6905
 2833TIP3    H2 8464   1.859   6.701   0.240 -0.5052  0.0611 -1.8150
 2834TIP3   OH2 8465   5.283   3.747   2.546  0.1809  0.3132 -0.0923
 2834TIP3    H1 8466   5.264   3.838   2.567 -1.3422  0.2959 -1.2342
 2834TIP3    H2 8467   5.348   3.752   2.476  0.8977  0.4828  0.5735
 2835TIP3   OH2 8468   1.713   6.700   0.575 -0.1361 -0.2834  0.5882
 2835TIP3    H1 8469   1.655   6.756   0.627 -1.0162 -0.9008  0.2974
 2835TIP3    H2 8470   1.798   6.744   0.578 -0.8966  1.3104  0.0068
 2836TIP3   OH2 8471   5.138   2.890   5.069 -0.4013 -0.0864 -0.9687
 2836TIP3    H1 8472   5.225   2.852   5.054  0.5738  1.6375  0.0521
 2836TIP3    H2 8473   5.114   2.861   5.157 -0.8235 -0.4373 -1.1931
 2837TIP3   OH2 8474   4.630   5.497   0.724  0.7587 -0.2513  0.3278
 2837TIP3    H1 8475   4.637   5.519   0.817  0.6657 -2.1061  0.8136
 2837TIP3    H2 8476   4.610   5.580   0.682 -1.5577  0.2911  2.2382
 2838TIP3   OH2 8477   7.061   1.337   1.937  0.5602  0.3323 -0.2651
 2838TIP3    H1 8478   7.005   1.265   1.908  1.3157  0.5128 -2.2767
 2838TIP3    H2 8479   6.999   1.404   1.968 -0.2807 -0.0478 -1.0820
 2839TIP3   OH2 8480   1.578   2.558   2.346  0.0558  0.1504  0.0671
 2839TIP3    H1 8481   1.669   2.581   2.363  0.1531  0.3177 -0.6891
 2839TIP3    H2 8482   1.536   2.562   2.433  1.2124 -2.0520  0.8162
 2840TIP3   OH2 8483   1.288   6.146   3.508  0.6029 -0.0838  0.0919
 2840TIP3    H1 8484   1.331   6.138   3.423 -0.4120 -0.8023 -0.3727
 2840TIP3    H2 8485   1.287   6.056   3.542 -0.7809 -0.1483 -0.0550
 2841TIP3   OH2 8486   1.205   2.808   1.678  0.2200  0.7682  0.1829
 2841TIP3    H1 8487   1.123   2.799   1.629 -1.0776  3.5096  1.5872
 2841TIP3    H2 8488   1.248   2.884   1.638  0.7515  0.9780  1.1107
 2842TIP3   OH2 8489   6.016   1.009   1.492 -0.3208  0.1581 -0.1400
 2842TIP3    H1 8490   5.940   1.067   1.483 -0.4900  0.1555  1.0813
 2842TIP3    H2 8491   6.050   1.029   1.580  0.9551 -0.0005 -0.5842
 2843TIP3   OH2 8492   6.156   6.207   2.384 -0.6733  0.1609  0.7197
 2843TIP3    H1 8493   6.096   6.165   2.445 -1.9838 -0.9119 -1.1908
 2843TIP3    H2 8494   6.150   6.300   2.404 -3.4287  0.1517  0.2793
 2844TIP3   OH2 8495   3.201   6.605   4.292  0.4480 -0.1839  0.3969
 2844TIP3    H1 8496   3.189   6.544   4.219  0.1449  1.7124 -1.2225
 2844TIP3    H2 8497   3.114   6.643   4.306  1.4928  4.0022 -2.5663
 2845TIP3   OH2 8498   5.500   4.212   5.378  0.2800 -0.3228 -0.2299
 2845TIP3    H1 8499   5.519   4.161   5.457 -0.7057 -0.2791  0.0431
 2845TIP3    H2 8500   5.446   4.154   5.324  0.0257  0.0508 -0.3805
 2846TIP3   OH2 8501   1.399   5.386   2.363  0.1623 -0.2170  0.5344
 2846TIP3    H1 8502   1.391   5.293   2.385  0.5315 -0.7938 -1.5361
 2846TIP3    H2 8503   1.325   5.428   2.407 -0.4543 -1.6166  0.8808
 2847TIP3   OH2 8504   6.947   4.747   5.121  0.1054 -0.2623  0.1954
 2847TIP3    H1 8505   6.962   4.665   5.168  0.2935  0.2500  1.0408
 2847TIP3    H2 8506   6.858   4.738   5.086 -0.4784 -0.2127  1.5911
 2848TIP3   OH2 8507   4.908   5.170   1.653 -0.6655 -0.3531  0.4806
 2848TIP3    H1 8508   4.946   5.083   1.659 -2.3676 -1.1973 -0.2144
 2848TIP3    H2 8509   4.846   5.164   1.581 -1.8535  1.0099  1.3308
 2849TIP3   OH2 8510   1.581   2.151   1.276  0.3294  0.0337  0.0749
 2849TIP3    H1 8511   1.664   2.139   1.230  0.5685  1.9550 -0.0909
 2849TIP3    H2 8512   1.605   2.191   1.359 -0.3653 -0.2907  0.4417
 2850TIP3   OH2 8513   0.661   4.556   3.926 -0.0465  0.2099 -0.4036
 2850TIP3    H1 8514   0.694   4.563   3.837 -0.0193  1.3128 -0.3247
 2850TIP3    H2 8515   0.719   4.611   3.978  0.2475 -0.8297  0.3928
 2851TIP3   OH2 8516   5.213   1.058   5.681  0.1479  0.4259 -0.1735
 2851TIP3    H1 8517   5.288   1.043   5.624  1.0516 -1.2944  1.3771
 2851TIP3    H2 8518   5.251   1.078   5.766 -1.0728 -1.5370  0.9150
 2852TIP3   OH2 8519   0.125   3.795   4.749  0.0934 -0.5088  0.2642
 2852TIP3    H1 8520   0.073   3.718   4.771 -0.1014 -0.0855  1.3190
 2852TIP3    H2 8521   0.143   3.837   4.833  2.7371 -1.0002  0.0376
 2853TIP3   OH2 8522   5.246   2.057   4.594 -0.4497  0.2521  0.0599
 2853TIP3    H1 8523   5.173   2.117   4.610 -1.0241 -0.7555  1.4684
 2853TIP3    H2 8524   5.324   2.111   4.603 -0.8320  0.5046  3.5207
 2854TIP3   OH2 8525   4.150   4.009   3.202 -0.1723  0.0190 -0.5345
 2854TIP3    H1 8526   4.149   3.966   3.116  1.7909 -0.5905 -0.3119
 2854TIP3    H2 8527   4.155   3.936   3.265  1.0602  0.4973 -0.0475
 2855TIP3   OH2 8528   3.490   6.755   4.155  0.2181 -0.1997 -0.4396
 2855TIP3    H1 8529   3.474   6.709   4.237  2.8277 -0.1922  0.1524
 2855TIP3    H2 8530   3.448   6.700   4.088 -0.9220 -0.8114  0.7366
 2856TIP3   OH2 8531   2.572   3.668   0.559  0.0298  0.5031 -0.1642
 2856TIP3    H1 8532   2.521   3.611   0.618 -0.1283  1.4180  0.6052
 2856TIP3    H2 8533   2.656   3.623   0.550 -0.3084 -0.1622 -0.0524
 2857TIP3   OH2 8534   5.833   1.027   1.976  0.0682  0.5297  0.6713
 2857TIP3    H1 8535   5.854   1.044   2.068  0.6932 -2.2058  1.1434
 2857TIP3    H2 8536   5.772   0.953   1.979  0.4752  0.0827 -1.1005
 2858TIP3   OH2 8537   4.155   2.005   3.368 -0.1773 -0.2920  0.1966
 2858TIP3    H1 8538   4.076   1.988   3.316 -0.1677  1.3460 -0.4409
 2858TIP3    H2 8539   4.135   1.971   3.455 -1.5209 -0.1055 -0.0158
 2859TIP3   OH2 8540   5.443   3.551   3.549 -0.1163  0.5265  0.0934
 2859TIP3    H1 8541   5.477   3.571   3.461  0.3117 -2.1870 -0.4532
 2859TIP3    H2 8542   5.349   3.540   3.536 -0.3170  1.7744  0.3505
 2860TIP3   OH2 8543   1.970   2.233   1.716  0.0288  0.1417  0.0281
 2860TIP3    H1 8544   1.910   2.174   1.669 -1.1685  1.2876  0.0530
 2860TIP3    H2 8545   1.951   2.320   1.680  1.3371  0.6012  0.4100
 2861TIP3   OH2 8546   4.261   1.413   0.041  0.2586  0.5419  0.1434
 2861TIP3    H1 8547   4.331   1.413  -0.024  1.9215  0.2323  1.8577
 2861TIP3    H2 8548   4.183   1.437  -0.009  1.9539  3.4826 -1.4370
 2862TIP3   OH2 8549   3.815   3.735   2.010  0.2631  0.4982  0.4135
 2862TIP3    H1 8550   3.843   3.712   1.921 -0.5852  0.1033  0.2329
 2862TIP3    H2 8551   3.720   3.721   2.009  0.1196  1.3597  1.1235
 2863TIP3   OH2 8552   0.856   2.003   4.720 -0.4795 -0.0194  0.3203
 2863TIP3    H1 8553   0.930   1.976   4.775  0.0367 -1.0518 -0.8357
 2863TIP3    H2 8554   0.824   2.083   4.762  0.6525 -0.1018  1.4264
 2864TIP3   OH2 8555   4.208   2.998   2.045 -0.1582  0.0627  0.3410
 2864TIP3    H1 8556   4.130   2.963   2.003 -0.1430  0.8270 -0.3534
 2864TIP3    H2 8557   4.176   3.044   2.122 -0.5967  1.7912 -0.8251
 2865TIP3   OH2 8558   2.116   1.137   2.266  0.1056  0.0005 -0.1925
 2865TIP3    H1 8559   2.042   1.181   2.224  0.2716  1.2398  0.7502
 2865TIP3    H2 8560   2.106   1.158   2.359  1.3157 -0.3030  0.0222
 2866TIP3   OH2 8561   2.191   6.131   3.371  0.5326  0.0605  0.7410
 2866TIP3    H1 8562   2.099   6.153   3.355  0.6172  0.0877  0.2726
 2866TIP3    H2 8563   2.199   6.041   3.339  0.6895  0.0908  0.6939
 2867TIP3   OH2 8564   6.194   3.287   1.718  0.1197  0.0616  0.0351
 2867TIP3    H1 8565   6.253   3.233   1.771 -1.0087 -0.4631  0.7928
 2867TIP3    H2 8566   6.147   3.224   1.663  2.2024  0.6817 -2.6499
 2868TIP3   OH2 8567   1.166   0.269   2.113 -0.0658  0.0326 -0.3754
 2868TIP3    H1 8568   1.212   0.353   2.118  0.1940 -0.0333 -1.3692
 2868TIP3    H2 8569   1.235   0.204   2.121 -0.3428 -0.1168  1.0741
 2869TIP3   OH2 8570   4.604   4.316   4.286  0.2204 -0.6206 -0.3927
 2869TIP3    H1 8571   4.580   4.243   4.228  0.4103  0.6105 -2.0825
 2869TIP3    H2 8572   4.542   4.310   4.359  0.8178 -3.0183  0.0362
 2870TIP3   OH2 8573   4.145   3.108   2.512 -0.2085  1.0813  0.1565
 2870TIP3    H1 8574   4.099   3.028   2.486  1.9737  0.0926 -0.8675
 2870TIP3    H2 8575   4.211   3.079   2.575  0.3936  2.1524  0.0470
 2871TIP3   OH2 8576   6.691   2.290   5.330  0.0595  0.0164  0.0527
 2871TIP3    H1 8577   6.600   2.301   5.303 -0.0558  2.9710  1.2426
 2871TIP3    H2 8578   6.741   2.303   5.249 -0.5443  0.0793 -0.3190
 2872TIP3   OH2 8579   3.615   4.648   0.079 -0.4492 -0.1476 -0.4849
 2872TIP3    H1 8580   3.632   4.689  -0.006  2.3849  0.3504  0.2097
 2872TIP3    H2 8581   3.636   4.555   0.065  0.1858 -0.0345 -0.3021
 2873TIP3   OH2 8582   3.580   5.808   0.093  0.0793 -0.4200 -0.2994
 2873TIP3    H1 8583   3.602   5.728   0.140 -2.0384 -0.2435  1.1188
 2873TIP3    H2 8584   3.546   5.778   0.009 -0.4892 -1.0215  0.1343
 2874TIP3   OH2 8585   2.532   3.521   5.539  0.1229  0.7723  0.5935
 2874TIP3    H1 8586   2.507   3.453   5.602  0.7477  1.2483  1.3674
 2874TIP3    H2 8587   2.514   3.603   5.584 -2.4221  1.2228 -1.0149
 2875TIP3   OH2 8588   4.431   3.741   2.424 -0.1463  0.0839 -0.0377
 2875TIP3    H1 8589   4.428   3.720   2.331 -0.1960 -2.5372  0.4856
 2875TIP3    H2 8590   4.509   3.795   2.434  0.4765 -0.5294 -1.4224
 2876TIP3   OH2 8591   3.275   5.544   5.070  0.2244 -0.1033  0.3269
 2876TIP3    H1 8592   3.300   5.618   5.014 -0.8195 -0.8602 -1.2075
 2876TIP3    H2 8593   3.356   5.494   5.081  0.7853  0.8670  0.8080
 2877TIP3   OH2 8594   0.350   4.278   4.028  0.4743  0.0062  0.6100
 2877TIP3    H1 8595   0.320   4.187   4.030  1.4927 -0.5235 -2.4290
 2877TIP3    H2 8596   0.438   4.275   4.066 -0.2185  0.1332  2.3012
 2878TIP3   OH2 8597   0.388   2.026   0.540  0.2949  0.2746  0.6188
 2878TIP3    H1 8598   0.435   2.037   0.623  0.4413  3.1718  0.2590
 2878TIP3    H2 8599   0.296   2.035   0.564  0.3603  1.6065  0.4694
 2879TIP3   OH2 8600   3.578   1.359   0.166  0.3797  0.0718 -0.1830
 2879TIP3    H1 8601   3.605   1.300   0.236  0.5106  0.5154  0.1485
 2879TIP3    H2 8602   3.570   1.445   0.209  1.6262  0.6007 -0.9502
 2880TIP3   OH2 8603   2.704   1.489   0.397 -0.0325 -0.0748 -0.2120
 2880TIP3    H1 8604   2.770   1.470   0.331  0.8561  2.6174 -0.1805
 2880TIP3    H2 8605   2.631   1.527   0.349  0.8846  2.5296  0.3276
 2881TIP3   OH2 8606   3.315   6.328   3.639 -0.7838  0.3380 -0.4582
 2881TIP3    H1 8607   3.231   6.289   3.615 -0.6626  0.3711 -0.9418
 2881TIP3    H2 8608   3.374   6.304   3.568 -0.2541 -0.0955  0.1074
 2882TIP3   OH2 8609   0.748   1.678   1.403  0.1100 -0.3025  0.4664
 2882TIP3    H1 8610   0.692   1.704   1.331  0.1355 -2.0203 -0.2314
 2882TIP3    H2 8611   0.696   1.693   1.482  0.0170  1.4263  0.1125
 2883TIP3   OH2 8612   1.223   4.439   4.084 -0.1545 -0.2613 -0.0272
 2883TIP3    H1 8613   1.154   4.378   4.055  0.3474 -0.2437 -1.3132
 2883TIP3    H2 8614   1.198   4.462   4.173 -1.4554 -0.7811 -0.2309
 2884TIP3   OH2 8615   6.044   4.571   5.835 -0.2220  0.2532  0.3952
 2884TIP3    H1 8616   5.964   4.519   5.825  1.0421 -1.5724 -0.8946
 2884TIP3    H2 8617   6.024   4.632   5.906 -2.6122 -0.3995  0.3749
 2885TIP3   OH2 8618   0.407   3.783   1.609 -0.0886 -0.0068 -0.1357
 2885TIP3    H1 8619   0.332   3.732   1.579 -0.5790  1.4748 -1.6035
 2885TIP3    H2 8620   0.476   3.719   1.626 -1.3099 -1.2947  0.1065
 2886TIP3   OH2 8621   0.555   2.942   4.206 -0.1507 -1.0468 -0.5279
 2886TIP3    H1 8622   0.625   2.943   4.141  0.4418  1.8559  0.0010
 2886TIP3    H2 8623   0.481   2.984   4.161 -0.9858 -2.4098 -0.4822
 2887TIP3   OH2 8624   6.253   0.072   4.892  0.2302  0.4228  0.3481
 2887TIP3    H1 8625   6.233   0.146   4.835 -2.2183  0.1060  0.6708
 2887TIP3    H2 8626   6.175   0.017   4.887  2.1912 -2.5780 -0.4736
 2888TIP3   OH2 8627   3.623   4.347   5.376 -0.1107  0.5041  0.6243
 2888TIP3    H1 8628   3.534   4.316   5.360  0.5989 -0.1339 -2.8687
 2888TIP3    H2 8629   3.677   4.269   5.369  0.9185  1.1764  0.8671
 2889TIP3   OH2 8630   5.304   5.680   4.320 -0.3156 -0.0815  0.1026
 2889TIP3    H1 8631   5.221   5.633   4.307 -0.5045  0.6908 -1.8656
 2889TIP3    H2 8632   5.277   5.766   4.353 -0.3747  0.3303 -0.9652
 2890TIP3   OH2 8633   0.002   2.937   0.784 -0.2436  0.1130 -0.4265
 2890TIP3    H1 8634   0.045   3.006   0.834 -0.3863  0.5480 -0.9028
 2890TIP3    H2 8635  -0.028   2.875   0.851 -1.6731  1.3761  0.1579
 2891TIP3   OH2 8636   2.650   0.400   2.716 -0.3358 -0.5120  0.1057
 2891TIP3    H1 8637   2.604   0.332   2.666  0.4086 -1.6336  0.8964
 2891TIP3    H2 8638   2.697   0.450   2.649 -0.6890 -0.9353 -0.4764
 2892TIP3   OH2 8639   1.552   6.068   0.269  0.1230  0.1347  0.6620
 2892TIP3    H1 8640   1.574   5.988   0.317  2.5132  1.0676  1.2898
 2892TIP3    H2 8641   1.535   6.134   0.337 -0.5419  0.4903  0.1698
 2893TIP3   OH2 8642   4.922   2.240   5.312 -0.5629  0.0630  0.1693
 2893TIP3    H1 8643   4.883   2.321   5.279 -1.3001 -0.6678 -0.8201
 2893TIP3    H2 8644   4.855   2.203   5.371 -0.4174 -0.0449  0.2671
 2894TIP3   OH2 8645   2.432   5.108   3.024 -0.1091  0.4358  0.0310
 2894TIP3    H1 8646   2.495   5.041   3.052  2.6792  3.0290  0.4690
 2894TIP3    H2 8647   2.401   5.077   2.939  0.6022 -1.6659  0.4644
 2895TIP3   OH2 8648   3.545   6.022   2.634  0.1262  0.7976  0.0558
 2895TIP3    H1 8649   3.499   6.093   2.590 -2.1901  0.1713  1.3103
 2895TIP3    H2 8650   3.483   5.949   2.632  1.5363 -0.4774  0.8305
 2896TIP3   OH2 8651   1.462   2.626   5.277  0.7079 -0.3431 -0.5730
 2896TIP3    H1 8652   1.425   2.706   5.240  0.0398 -0.7316 -0.7666
 2896TIP3    H2 8653   1.453   2.561   5.208 -0.4887 -1.0631  0.2047
 2897TIP3   OH2 8654   3.940   5.597   4.008  0.2745 -0.0538  0.1909
 2897TIP3    H1 8655   3.941   5.689   3.982 -0.2843 -0.1104 -0.0481
 2897TIP3    H2 8656   3.851   5.567   3.987  0.8106 -0.9718 -0.9136
 2898TIP3   OH2 8657   2.171  -0.021   1.856 -0.1088 -0.0326 -0.1196
 2898TIP3    H1 8658   2.147   0.034   1.782 -1.9645  0.3525  0.6999
 2898TIP3    H2 8659   2.184   0.041   1.928  0.9989 -0.4564  0.0757
 2899TIP3   OH2 8660   1.796   3.456   0.352  0.0393 -0.0139  0.2826
 2899TIP3    H1 8661   1.787   3.497   0.438  2.1866  1.4954 -0.1182
 2899TIP3    H2 8662   1.780   3.527   0.290 -2.8988 -1.3780 -0.6991
 2900TIP3   OH2 8663   5.085   5.431   4.675 -0.4223  0.3524  0.4187
 2900TIP3    H1 8664   5.168   5.401   4.712  0.3659 -0.5778 -1.9786
 2900TIP3    H2 8665   5.081   5.391   4.588 -0.9397  4.3951 -1.6348
 2901TIP3   OH2 8666   4.578   3.021   4.062 -0.4424  0.4507  0.3950
 2901TIP3    H1 8667   4.592   3.071   3.982 -0.2389  3.5731  2.1855
 2901TIP3    H2 8668   4.667   3.006   4.097 -0.4561 -1.8222 -0.3795
 2902TIP3   OH2 8669   5.976   6.260   1.129 -0.6036  0.3521  0.2487
 2902TIP3    H1 8670   6.020   6.189   1.177 -1.6281 -1.6608 -1.6464
 2902TIP3    H2 8671   5.993   6.338   1.182 -0.2862 -1.4446  2.9789
 2903TIP3   OH2 8672   3.621   5.432   5.775  0.1537 -0.1998  0.7441
 2903TIP3    H1 8673   3.639   5.339   5.791 -1.6457 -0.3421  2.2299
 2903TIP3    H2 8674   3.652   5.477   5.853  1.4675  0.5509 -0.1758
 2904TIP3   OH2 8675   0.476   5.276   0.392  0.2307 -0.0282 -0.0175
 2904TIP3    H1 8676   0.559   5.315   0.418 -1.0221  2.1831  0.8916
 2904TIP3    H2 8677   0.468   5.296   0.299  0.7612 -0.3617 -0.1382
 2905TIP3   OH2 8678   1.916   4.517   3.366 -0.5583 -0.1301  0.4802
 2905TIP3    H1 8679   1.986   4.452   3.361 -1.2202 -0.8472  0.3205
 2905TIP3    H2 8680   1.863   4.501   3.288 -1.3531 -0.1479  1.0069
 2906TIP3   OH2 8681   6.760   5.992   1.669 -0.0656 -0.1815  0.1070
 2906TIP3    H1 8682   6.799   6.026   1.588 -2.3566 -2.4171 -2.1387
 2906TIP3    H2 8683   6.802   5.907   1.681 -0.8486 -0.5400  0.3521
 2907TIP3   OH2 8684   4.869   6.148   4.626  0.1368 -0.1203  0.1324
 2907TIP3    H1 8685   4.793   6.189   4.668 -0.3131 -1.0365  0.2274
 2907TIP3    H2 8686   4.835   6.067   4.588  1.3281 -1.1987  1.2924
 2908TIP3   OH2 8687   0.599   4.624   5.307  0.2570 -0.5570  0.3033
 2908TIP3    H1 8688   0.647   4.645   5.228 -0.5475 -0.0911 -0.0803
 2908TIP3    H2 8689   0.586   4.709   5.351  0.7655 -0.8185  0.9763
 2909TIP3   OH2 8690   2.060   4.346   0.535  0.4300  0.2705  0.2975
 2909TIP3    H1 8691   2.129   4.403   0.502  1.7269 -1.0913  0.5625
 2909TIP3    H2 8692   2.105   4.287   0.595 -0.8081 -1.2224 -0.1929
 2910TIP3   OH2 8693   4.689   3.098   1.574  0.4339  0.2302 -0.0730
 2910TIP3    H1 8694   4.687   3.189   1.602  0.3295 -0.2964  1.7851
 2910TIP3    H2 8695   4.715   3.049   1.653 -3.9378 -1.8077  0.4014
 2911TIP3   OH2 8696   3.124   0.370   2.770 -0.3028 -0.2319 -0.0909
 2911TIP3    H1 8697   3.061   0.301   2.749  1.0655 -1.3017 -0.8625
 2911TIP3    H2 8698   3.159   0.398   2.686  0.2853  0.3086  0.3191
 2912TIP3   OH2 8699   6.634   2.261   3.610 -0.0308 -0.0886 -0.2326
 2912TIP3    H1 8700   6.579   2.336   3.632  1.9745  0.9667  1.4686
 2912TIP3    H2 8701   6.593   2.187   3.654 -0.9154  0.3795 -0.2548
 2913TIP3   OH2 8702   4.403   6.037   0.528 -0.3468 -0.5217  0.8216
 2913TIP3    H1 8703   4.432   6.044   0.437 -0.5178 -0.9206  0.7357
 2913TIP3    H2 8704   4.374   6.125   0.551 -4.0920 -1.1674 -0.7821
 2914TIP3   OH2 8705   0.112   3.267   4.145  0.3121 -0.1354  0.6613
 2914TIP3    H1 8706   0.162   3.212   4.205  1.2530  0.0542  0.0755
 2914TIP3    H2 8707   0.177   3.328   4.109 -0.2035 -0.3136 -0.6171
 2915TIP3   OH2 8708   5.950   4.303   2.347  0.0239 -0.4895  0.7039
 2915TIP3    H1 8709   5.967   4.393   2.318  1.0431 -0.8346  0.1828
 2915TIP3    H2 8710   5.877   4.274   2.293  0.5087 -0.3894 -0.0240
 2916TIP3   OH2 8711   2.778   0.063   3.387  0.5268 -0.7544 -0.0722
 2916TIP3    H1 8712   2.738  -0.021   3.411 -1.0138 -0.6889 -2.1589
 2916TIP3    H2 8713   2.820   0.046   3.303 -1.5049  0.9672 -1.5315
 2917TIP3   OH2 8714   5.993   4.795   5.013 -0.0204  0.9123 -0.7257
 2917TIP3    H1 8715   5.912   4.761   5.052 -0.3637  1.6528 -0.7781
 2917TIP3    H2 8716   5.981   4.781   4.918  1.0221 -1.3480 -0.6113
 2918TIP3   OH2 8717   2.550   4.699   3.294  0.6354 -0.8569 -0.0016
 2918TIP3    H1 8718   2.555   4.617   3.245 -0.2068 -0.5088 -0.6920
 2918TIP3    H2 8719   2.611   4.687   3.367  0.7596 -1.9721 -0.2719
 2919TIP3   OH2 8720   3.362   3.615   0.764 -0.5990 -0.1269 -0.2271
 2919TIP3    H1 8721   3.313   3.627   0.682 -1.4773  1.0436  0.4438
 2919TIP3    H2 8722   3.331   3.686   0.821  1.6388  0.4411  0.3515
 2920TIP3   OH2 8723   1.834   6.711   3.182 -0.0559  0.3560 -0.2962
 2920TIP3    H1 8724   1.820   6.774   3.252 -2.4912  0.6161 -0.9289
 2920TIP3    H2 8725   1.843   6.764   3.103  0.5806 -0.0054 -0.4741
 2921TIP3   OH2 8726   5.032   0.869   2.839 -0.0494  0.0507  0.7251
 2921TIP3    H1 8727   5.052   0.855   2.931 -0.3669  1.2499  0.9984
 2921TIP3    H2 8728   5.081   0.948   2.816  0.1640 -0.3328 -0.1901
 2922TIP3   OH2 8729   5.175   4.226   5.320 -0.2019 -0.0603  0.3583
 2922TIP3    H1 8730   5.186   4.321   5.328 -0.6069 -0.0624  0.9515
 2922TIP3    H2 8731   5.217   4.205   5.236 -1.5619  0.8713 -0.5973
 2923TIP3   OH2 8732   5.315   0.124   0.639  0.4403  0.0361 -0.0621
 2923TIP3    H1 8733   5.269   0.116   0.722 -2.1708  1.5759 -1.2295
 2923TIP3    H2 8734   5.267   0.067   0.579  1.3365  0.1238 -0.9002
 2924TIP3   OH2 8735   0.500   4.571   4.985  0.3385  0.3182  0.2016
 2924TIP3    H1 8736   0.438   4.614   4.926  1.5093  1.6494 -0.1387
 2924TIP3    H2 8737   0.452   4.561   5.067 -0.3884  1.1634 -0.1039
 2925TIP3   OH2 8738   1.615   5.344   3.004 -0.4932 -0.4606  0.0974
 2925TIP3    H1 8739   1.573   5.382   2.928 -0.1513 -1.5779 -0.6853
 2925TIP3    H2 8740   1.662   5.416   3.045  0.2491 -0.0500 -1.4109
 2926TIP3   OH2 8741   5.378   5.575   0.941 -0.4095 -0.0657  0.4639
 2926TIP3    H1 8742   5.335   5.593   1.024  0.1947 -1.2261  1.0486
 2926TIP3    H2 8743   5.378   5.659   0.895  1.9160  1.3778  2.8670
 2927TIP3   OH2 8744   2.343   6.641   5.146  0.1229  0.0100  0.2037
 2927TIP3    H1 8745   2.260   6.650   5.193  0.2964 -0.0265  0.5225
 2927TIP3    H2 8746   2.406   6.691   5.198  0.2674  0.1739 -0.1251
 2928TIP3   OH2 8747   3.652   0.165   3.354  0.6514  0.1203 -0.1157
 2928TIP3    H1 8748   3.637   0.103   3.283 -1.9222  0.2524  0.2250
 2928TIP3    H2 8749   3.682   0.245   3.311 -1.1140  0.2779 -1.1440
 2929TIP3   OH2 8750   4.702   2.040   0.781  0.6402  0.3323 -0.3872
 2929TIP3    H1 8751   4.714   1.980   0.708  1.6504  0.9682 -0.7607
 2929TIP3    H2 8752   4.736   1.993   0.857 -1.5816 -0.8330 -0.0603
 2930TIP3   OH2 8753   2.374   2.007   3.292  0.4436 -0.6285  0.2505
 2930TIP3    H1 8754   2.443   1.952   3.328  0.5637 -0.3869  0.3909
 2930TIP3    H2 8755   2.364   1.977   3.202  0.3898 -0.9931  0.3732
 2931TIP3   OH2 8756   1.762   4.592   4.362 -0.3897  0.2986  0.0836
 2931TIP3    H1 8757   1.843   4.626   4.323  1.0767 -1.8647  1.0078
 2931TIP3    H2 8758   1.717   4.550   4.289  0.2670 -0.0957 -0.1083
 2932TIP3   OH2 8759   2.503   0.612   5.617 -0.6085 -0.6529  0.5654
 2932TIP3    H1 8760   2.487   0.524   5.585  0.1884 -1.6274  2.6430
 2932TIP3    H2 8761   2.422   0.636   5.662 -1.2697  0.2034 -1.0219
 2933TIP3   OH2 8762   4.682   1.885   5.252  0.0564  0.1736  0.1100
 2933TIP3    H1 8763   4.664   1.867   5.160 -0.8067 -0.8590  0.4591
 2933TIP3    H2 8764   4.762   1.837   5.271 -0.2330 -0.3231  0.0990
 2934TIP3   OH2 8765   6.492   2.319   0.082  0.1519 -0.6108  0.0288
 2934TIP3    H1 8766   6.466   2.264   0.156  1.9542  0.9468  1.9434
 2934TIP3    H2 8767   6.582   2.345   0.101  0.1121  1.2214 -1.8718
 2935TIP3   OH2 8768   4.160   2.134   3.734 -0.0347 -0.5295  0.5247
 2935TIP3    H1 8769   4.114   2.058   3.771 -0.9471  0.1793  0.8948
 2935TIP3    H2 8770   4.184   2.187   3.810 -0.4411  0.1177  0.2128
 2936TIP3   OH2 8771   6.058   5.779   2.244 -0.0488 -0.3528  0.5594
 2936TIP3    H1 8772   6.019   5.801   2.160  0.7546  0.1666  0.3087
 2936TIP3    H2 8773   5.990   5.801   2.308 -0.3602  0.0534  0.1025
 2937TIP3   OH2 8774   3.861   4.161   2.364 -0.1620  0.0277  0.5844
 2937TIP3    H1 8775   3.814   4.244   2.360  0.7020  0.5465  0.8734
 2937TIP3    H2 8776   3.904   4.162   2.450 -1.0644 -1.2393  1.0782
 2938TIP3   OH2 8777   6.082   2.949   3.251  0.3125 -0.9724  0.4549
 2938TIP3    H1 8778   6.041   2.926   3.334  0.3498  0.6958  0.9619
 2938TIP3    H2 8779   6.076   2.869   3.199 -2.8338 -1.0870  0.8017
 2939TIP3   OH2 8780   2.417   3.948   3.797 -0.4254 -0.2724 -0.2618
 2939TIP3    H1 8781   2.423   3.989   3.711  0.2194  0.9014  0.3301
 2939TIP3    H2 8782   2.342   3.888   3.789 -1.5146  1.1341 -1.1083
 2940TIP3   OH2 8783   3.591   4.268   3.349 -0.6039  0.2742 -0.7672
 2940TIP3    H1 8784   3.681   4.271   3.316 -0.1879  2.4028  0.3777
 2940TIP3    H2 8785   3.597   4.303   3.438 -2.3318 -1.1834 -0.0304
 2941TIP3   OH2 8786   4.584   1.311   2.147 -0.0650  0.0435 -0.1625
 2941TIP3    H1 8787   4.603   1.234   2.199 -0.1397  0.7442  0.9307
 2941TIP3    H2 8788   4.633   1.382   2.189 -1.1431  0.8809 -0.2712
 2942TIP3   OH2 8789   0.349   3.338   4.482 -0.5509 -0.2369 -0.1703
 2942TIP3    H1 8790   0.268   3.372   4.519 -1.4199 -1.8185 -0.5685
 2942TIP3    H2 8791   0.377   3.406   4.420 -2.3397 -0.2777 -1.0765
 2943TIP3   OH2 8792   4.986   2.434   3.068 -0.0942 -0.4168  0.2199
 2943TIP3    H1 8793   5.070   2.414   3.107 -0.8374 -1.4260  1.3788
 2943TIP3    H2 8794   4.964   2.356   3.017  0.3947  0.4855 -1.4323
 2944TIP3   OH2 8795   0.007   3.189   3.313 -0.4760 -0.1442  0.4031
 2944TIP3    H1 8796   0.060   3.224   3.241 -1.1034 -0.4658 -0.2326
 2944TIP3    H2 8797  -0.009   3.098   3.288  0.7284 -0.7685  1.7944
 2945TIP3   OH2 8798   1.028   4.027   3.682  0.3496  0.2594 -0.1821
 2945TIP3    H1 8799   1.073   4.096   3.731 -1.0378  0.8781  0.2857
 2945TIP3    H2 8800   0.959   3.997   3.742  1.7211 -2.5234  0.1777
 2946TIP3   OH2 8801   7.116   0.993   0.489  0.2019  0.7867  0.2104
 2946TIP3    H1 8802   7.036   1.020   0.535  0.2587  0.3168  0.5990
 2946TIP3    H2 8803   7.126   1.057   0.419 -0.1764  1.2141  0.5354
 2947TIP3   OH2 8804   5.469   5.349   4.596  0.6742  0.0851  0.3225
 2947TIP3    H1 8805   5.517   5.298   4.530 -1.8829 -0.7431 -1.0231
 2947TIP3    H2 8806   5.476   5.440   4.565  1.8049  0.0642  0.4687
 2948TIP3   OH2 8807   1.325   3.996   5.727  0.3349  0.3705  0.0381
 2948TIP3    H1 8808   1.412   3.962   5.710 -0.2890 -0.4399 -1.8040
 2948TIP3    H2 8809   1.307   4.055   5.653 -0.4716  0.9462  0.6701
 2949TIP3   OH2 8810   0.128   0.948   0.656 -0.1035  0.6541 -0.0135
 2949TIP3    H1 8811   0.061   0.949   0.587 -1.0708 -0.9513  0.8244
 2949TIP3    H2 8812   0.084   0.988   0.731 -0.2463 -0.5818  0.5983
 2950TIP3   OH2 8813   2.355   3.075   4.168  0.1908  0.0031  0.2514
 2950TIP3    H1 8814   2.399   3.048   4.087 -2.7437 -2.9563 -0.6024
 2950TIP3    H2 8815   2.271   3.112   4.138  0.2401  1.5600  1.9062
 2951TIP3   OH2 8816   1.987   1.767   0.101 -0.3544  0.3480 -0.4281
 2951TIP3    H1 8817   2.067   1.722   0.075 -0.6828 -0.0039 -0.8448
 2951TIP3    H2 8818   1.928   1.755   0.027 -0.0530  2.5013 -1.0924
 2952TIP3   OH2 8819   7.030   2.538   2.456 -0.7844 -0.2349 -0.0155
 2952TIP3    H1 8820   7.114   2.502   2.484 -1.1588 -0.1540  1.2497
 2952TIP3    H2 8821   7.020   2.619   2.505 -0.9983  0.4642 -1.1614
 2953TIP3   OH2 8822   1.899   5.771   4.799 -0.7736 -0.5316 -0.5375
 2953TIP3    H1 8823   1.908   5.678   4.819 -0.0751 -0.5719 -0.9808
 2953TIP3    H2 8824   1.812   5.794   4.830 -1.2133 -1.4922 -1.0183
 2954TIP3   OH2 8825   3.667   5.667   3.984 -0.0156  0.1638 -0.0587
 2954TIP3    H1 8826   3.710   5.723   3.920 -0.6186  0.6478 -0.0447
 2954TIP3    H2 8827   3.616   5.727   4.038  0.7644 -0.1993  1.1048
 2955TIP3   OH2 8828   3.083   5.269   0.417  0.6533  0.2107  0.1142
 2955TIP3    H1 8829   3.041   5.210   0.354  1.7025  3.4044 -4.0368
 2955TIP3    H2 8830   3.177   5.251   0.408  0.7900 -0.5163  2.3311
 2956TIP3   OH2 8831   0.034   4.726   4.307 -0.2633 -0.2831 -0.5233
 2956TIP3    H1 8832   0.018   4.820   4.315  3.0409  0.4615 -1.2499
 2956TIP3    H2 8833   0.064   4.714   4.217 -0.5208 -2.0641 -0.4189
 2957TIP3   OH2 8834   4.331   0.388   0.141 -0.3996  0.2943  0.4261
 2957TIP3    H1 8835   4.422   0.358   0.146  0.3031  1.9919 -1.3278
 2957TIP3    H2 8836   4.289   0.327   0.080 -0.1833  0.1375  0.4304
 2958TIP3   OH2 8837   0.208   6.020   0.399  0.3761 -0.1548 -0.3389
 2958TIP3    H1 8838   0.252   5.935   0.388 -0.9846 -0.8871 -0.2755
 2958TIP3    H2 8839   0.171   6.017   0.487 -2.0267 -0.6395 -1.3081
 2959TIP3   OH2 8840   2.515   4.420   4.759  0.6318 -0.0921 -0.3044
 2959TIP3    H1 8841   2.600   4.378   4.769  0.4451 -0.2688  0.6011
 2959TIP3    H2 8842   2.456   4.369   4.815  0.2790  1.0338  0.3718
 2960TIP3   OH2 8843   0.119   3.779   2.034 -0.4761 -0.3676  0.0790
 2960TIP3    H1 8844   0.197   3.752   2.083 -0.4521 -4.0636 -1.6606
 2960TIP3    H2 8845   0.046   3.758   2.092 -0.3126 -0.7577  0.1469
 2961TIP3   OH2 8846   5.356   4.729   0.026  0.3451 -0.1485  0.0348
 2961TIP3    H1 8847   5.438   4.686   0.000  0.0295 -1.9602  1.8142
 2961TIP3    H2 8848   5.383   4.800   0.085  0.7292  0.7807 -1.2090
 2962TIP3   OH2 8849   5.439   2.661   4.116  0.3091 -0.1748  0.2774
 2962TIP3    H1 8850   5.473   2.572   4.122 -1.0375 -0.6449  1.6138
 2962TIP3    H2 8851   5.363   2.654   4.058  0.7143  0.2840 -0.3179
 2963TIP3   OH2 8852   2.778   6.087   5.135 -0.9753  0.5130  0.3783
 2963TIP3    H1 8853   2.703   6.083   5.195  0.2536  1.4456  2.0584
 2963TIP3    H2 8854   2.841   6.024   5.170 -1.3104 -1.0593 -1.6304
 2964TIP3   OH2 8855   6.869   1.650   0.207 -0.0101  0.2541  0.2708
 2964TIP3    H1 8856   6.790   1.606   0.236 -0.6725  1.1880 -0.0731
 2964TIP3    H2 8857   6.838   1.719   0.148  1.0303  0.8079  0.3456
 2965TIP3   OH2 8858   4.004   1.746   0.187 -0.8394 -0.9544  0.0794
 2965TIP3    H1 8859   4.026   1.722   0.277  1.0965  0.6672  0.1206
 2965TIP3    H2 8860   3.933   1.810   0.196  0.1561  0.1150  0.5789
 2966TIP3   OH2 8861   0.065   0.210   4.411 -0.6808 -0.1098  0.1967
 2966TIP3    H1 8862   0.032   0.196   4.322 -1.6455 -1.8530  0.7716
 2966TIP3    H2 8863   0.056   0.124   4.453 -0.8328  0.8239  2.1570
 2967TIP3   OH2 8864   4.870   0.728   3.674  0.4521 -0.3985 -0.8541
 2967TIP3    H1 8865   4.885   0.656   3.735  0.3737 -0.9461 -1.4719
 2967TIP3    H2 8866   4.958   0.754   3.647  0.4449 -1.3333 -1.8478
 2968TIP3   OH2 8867   2.748   0.822   2.526  0.0324  0.1711  0.0161
 2968TIP3    H1 8868   2.832   0.803   2.568  0.1545 -0.2218 -0.4033
 2968TIP3    H2 8869   2.763   0.906   2.481 -0.0095  0.4426  0.5006
 2969TIP3   OH2 8870   4.445   5.270   1.317  0.2538  0.2035 -0.1909
 2969TIP3    H1 8871   4.519   5.262   1.258  1.8456 -0.4588  1.7971
 2969TIP3    H2 8872   4.430   5.181   1.349  1.1262  0.8871  2.3142
 2970TIP3   OH2 8873   4.507   2.388   1.251  0.2837  0.6594  0.2824
 2970TIP3    H1 8874   4.524   2.372   1.344  0.3949  0.3265  0.2082
 2970TIP3    H2 8875   4.479   2.479   1.247  1.1738  0.9598  0.5336
 2971TIP3   OH2 8876   2.334   3.084   0.582 -0.5288  0.4466  0.2120
 2971TIP3    H1 8877   2.251   3.055   0.544 -0.1524  0.7062 -0.8488
 2971TIP3    H2 8878   2.378   3.129   0.510  0.7339 -0.0992  0.6263
 2972TIP3   OH2 8879   4.703   5.848   4.109 -0.3467 -0.2770  0.1170
 2972TIP3    H1 8880   4.682   5.826   4.200  0.0588  0.5793  0.4265
 2972TIP3    H2 8881   4.787   5.804   4.093 -0.5123 -0.5889  0.0866
 2973TIP3   OH2 8882   2.195   3.989   4.576 -0.2445  0.3055 -0.4425
 2973TIP3    H1 8883   2.210   4.069   4.526 -1.4891 -0.1071 -1.5334
 2973TIP3    H2 8884   2.159   3.928   4.512  0.0441 -0.9123  0.5291
 2974TIP3   OH2 8885   2.793   1.037   2.359  0.1301 -0.2744 -0.2803
 2974TIP3    H1 8886   2.808   1.127   2.391 -0.0842  0.0761 -1.1469
 2974TIP3    H2 8887   2.871   1.017   2.307  0.5472 -0.9038  0.5646
 2975TIP3   OH2 8888   1.492   0.434   0.359  0.6114 -0.6743  0.0289
 2975TIP3    H1 8889   1.472   0.343   0.336 -0.0933 -0.3554 -0.6850
 2975TIP3    H2 8890   1.535   0.429   0.444  0.1790 -1.6412  0.2031
 2976TIP3   OH2 8891   3.284   5.886   1.146  0.0829 -0.0607  0.6991
 2976TIP3    H1 8892   3.256   5.915   1.060  1.3977 -0.8094 -0.0132
 2976TIP3    H2 8893   3.308   5.966   1.192 -0.1329  0.2991  0.1917
 2977TIP3   OH2 8894   6.043   3.713   2.067 -0.0842 -0.0042 -0.7936
 2977TIP3    H1 8895   6.005   3.642   2.119 -0.0417 -0.8846 -1.9362
 2977TIP3    H2 8896   5.971   3.774   2.053  0.0260  0.5196  0.7138
 2978TIP3   OH2 8897   6.591   1.941   4.514 -0.4591  0.4111 -0.7960
 2978TIP3    H1 8898   6.554   1.853   4.507 -0.3611  0.3713 -0.8306
 2978TIP3    H2 8899   6.683   1.930   4.487  0.2800  0.0321  1.6738
 2979TIP3   OH2 8900   5.053   6.082   5.455 -0.2431 -0.0732 -0.5123
 2979TIP3    H1 8901   5.048   6.014   5.522  0.5592 -0.9832 -1.3565
 2979TIP3    H2 8902   5.127   6.057   5.400 -0.0889  1.3462 -1.0011
 2980TIP3   OH2 8903   1.394   3.959   5.397  0.2200 -0.2397  0.3622
 2980TIP3    H1 8904   1.459   3.966   5.327  0.0616  0.2069  0.2565
 2980TIP3    H2 8905   1.322   3.909   5.358  0.4607 -0.6571  0.4513
 2981TIP3   OH2 8906   5.070   0.638   2.317 -0.5247 -0.3640 -0.1585
 2981TIP3    H1 8907   5.137   0.579   2.353 -0.5080 -1.5599 -1.9795
 2981TIP3    H2 8908   4.999   0.636   2.381  0.2074 -0.9799  0.6614
 2982TIP3   OH2 8909   5.043   5.851   0.326  0.3423 -0.0774  0.1829
 2982TIP3    H1 8910   4.951   5.839   0.301  0.4603  0.7571 -0.7196
 2982TIP3    H2 8911   5.060   5.783   0.391 -0.4716 -1.2304 -0.7952
 2983TIP3   OH2 8912   5.462   1.835   3.320 -0.5206 -0.0897  0.3766
 2983TIP3    H1 8913   5.431   1.818   3.409 -0.0649 -1.3166  0.3250
 2983TIP3    H2 8914   5.495   1.750   3.290  1.0591  0.7116 -0.2717
 2984TIP3   OH2 8915   5.672   3.504   4.500  0.0065  0.2905 -0.4622
 2984TIP3    H1 8916   5.617   3.551   4.439 -2.3036 -0.0725  1.1977
 2984TIP3    H2 8917   5.681   3.562   4.576 -1.2922 -1.0809  0.8250
 2985TIP3   OH2 8918   5.212   1.703   2.695  0.1878  0.5040 -0.2286
 2985TIP3    H1 8919   5.306   1.723   2.690 -0.0087  1.2916 -0.9163
 2985TIP3    H2 8920   5.171   1.763   2.633 -0.8166  0.3925  0.3090
 2986TIP3   OH2 8921   1.961   2.425   1.041 -0.1030 -0.3078  0.0697
 2986TIP3    H1 8922   2.029   2.362   1.017 -0.0786 -1.0705  1.9974
 2986TIP3    H2 8923   1.897   2.418   0.971  1.4434 -0.0496 -1.4575
 2987TIP3   OH2 8924   4.070   3.760   4.492  0.1662  0.4302  0.3870
 2987TIP3    H1 8925   4.032   3.718   4.415  0.9732  0.9482 -0.3051
 2987TIP3    H2 8926   4.164   3.748   4.482  0.2819  0.5376  1.2777
 2988TIP3   OH2 8927   2.122   0.175   3.283 -0.0860 -0.0293 -0.4845
 2988TIP3    H1 8928   2.192   0.121   3.246  0.8469 -0.6891  2.0806
 2988TIP3    H2 8929   2.164   0.259   3.301 -0.1406 -0.1949  0.4117
 2989TIP3   OH2 8930   0.688   3.879   4.340  0.3620 -0.4108  0.0723
 2989TIP3    H1 8931   0.613   3.820   4.340 -0.9850  1.0528 -3.3423
 2989TIP3    H2 8932   0.656   3.959   4.381  0.4290 -0.1850 -0.3152
 2990TIP3   OH2 8933   4.780   5.920   3.311 -0.0535  0.1447 -0.2756
 2990TIP3    H1 8934   4.806   5.828   3.302  0.6501  0.2860  0.2367
 2990TIP3    H2 8935   4.768   5.950   3.221  1.0119 -0.0983 -0.5159
 2991TIP3   OH2 8936   6.411   0.960   0.813  0.6474  0.6423 -0.3122
 2991TIP3    H1 8937   6.453   0.967   0.898 -0.3509  1.1856  0.1604
 2991TIP3    H2 8938   6.434   0.873   0.781  0.1456  0.0031  1.0132
 2992TIP3   OH2 8939   3.055   0.099   2.472 -0.0863 -0.1758  0.3330
 2992TIP3    H1 8940   3.004   0.072   2.548 -3.9567 -1.6695 -2.4798
 2992TIP3    H2 8941   2.996   0.087   2.398  4.2005 -1.3499 -3.3372
 2993TIP3   OH2 8942   6.517   0.194   5.634  0.0667 -0.6683 -0.5654
 2993TIP3    H1 8943   6.509   0.131   5.706 -1.7660  0.1159 -0.0273
 2993TIP3    H2 8944   6.497   0.143   5.555  0.4020 -1.1559 -0.3416
 2994TIP3   OH2 8945   3.611   0.722   1.456 -0.6846 -0.2487 -0.0548
 2994TIP3    H1 8946   3.593   0.801   1.405 -1.1014  0.3574  1.0054
 2994TIP3    H2 8947   3.644   0.659   1.392 -0.5657  0.7083 -0.9545
 2995TIP3   OH2 8948   3.162   0.582   3.852  0.1535 -0.0741  0.1915
 2995TIP3    H1 8949   3.082   0.622   3.818  0.6427  1.7847  1.0841
 2995TIP3    H2 8950   3.140   0.489   3.861 -1.7261  0.2915 -0.0769
 2996TIP3   OH2 8951   6.454   3.910   5.834 -0.0857  0.0176 -0.0478
 2996TIP3    H1 8952   6.530   3.920   5.777 -0.4182 -0.7096 -0.6243
 2996TIP3    H2 8953   6.457   3.819   5.863 -2.8898 -1.3031 -3.2797
 2997TIP3   OH2 8954   2.939   0.724   4.979  0.1471  0.2489  0.3683
 2997TIP3    H1 8955   3.006   0.704   4.914  0.2158  2.1927 -0.2223
 2997TIP3    H2 8956   2.985   0.726   5.063  0.8084  1.2664  0.0051
 2998TIP3   OH2 8957   2.714   5.492   1.608 -0.3890  0.1839  0.0429
 2998TIP3    H1 8958   2.701   5.398   1.596 -1.6134  0.4491 -0.8710
 2998TIP3    H2 8959   2.807   5.501   1.628 -0.5887 -1.3949  1.9963
 2999TIP3   OH2 8960   6.900   3.084   3.963 -0.9656 -0.1059 -0.3369
 2999TIP3    H1 8961   6.812   3.120   3.975 -1.2229 -0.7580 -0.2123
 2999TIP3    H2 8962   6.952   3.127   4.031 -1.4574 -0.6001  0.3665
 3000TIP3   OH2 8963   4.654   0.608   0.393 -0.0138 -0.1068 -0.6480
 3000TIP3    H1 8964   4.633   0.620   0.486 -1.6450 -1.0490 -0.8604
 3000TIP3    H2 8965   4.728   0.547   0.393 -0.0782 -0.1965  0.0461
 3001TIP3   OH2 8966   5.494   6.424   0.772 -0.3152 -0.4237  0.7355
 3001TIP3    H1 8967   5.499   6.437   0.866  1.8169 -1.3130  0.7975
 3001TIP3    H2 8968   5.431   6.353   0.761  0.3215 -1.1423  1.6013
 3002TIP3   OH2 8969   6.339   3.692   3.847  0.2988  0.6180  0.3972
 3002TIP3    H1 8970   6.379   3.702   3.933 -0.8508 -2.8882  1.5269
 3002TIP3    H2 8971   6.249   3.724   3.858 -0.8479 -2.5696  1.6155
 3003TIP3   OH2 8972   3.947   5.482   4.259  0.0932 -0.3310 -0.0666
 3003TIP3    H1 8973   3.882   5.417   4.231  0.6869 -0.5118 -1.0581
 3003TIP3    H2 8974   3.972   5.526   4.178  0.3221  0.5580  0.4881
 3004TIP3   OH2 8975   5.587   3.833   5.027 -0.0916 -0.3296 -0.0913
 3004TIP3    H1 8976   5.508   3.854   4.978 -0.2243 -0.6912 -0.0343
 3004TIP3    H2 8977   5.606   3.742   5.005 -1.7362 -1.4613  2.6794
 3005TIP3   OH2 8978   0.606   3.994   4.680  0.1198 -0.4512  0.6767
 3005TIP3    H1 8979   0.585   3.905   4.709 -1.8788  0.1200  1.1393
 3005TIP3    H2 8980   0.554   4.051   4.737  1.0086  1.0007  0.0926
 3006TIP3   OH2 8981   0.805   3.287   5.710  0.1823  0.1308 -0.0512
 3006TIP3    H1 8982   0.757   3.217   5.667  2.4131 -1.6985  0.2280
 3006TIP3    H2 8983   0.832   3.345   5.639  1.3496 -1.2969 -0.8439
 3007TIP3   OH2 8984   4.632   2.827   4.344 -0.1056 -0.6588  0.1732
 3007TIP3    H1 8985   4.721   2.857   4.326 -1.0936  1.4783 -1.5969
 3007TIP3    H2 8986   4.606   2.876   4.423 -0.8750  1.5465 -1.3476
 3008TIP3   OH2 8987   3.114   1.376   5.120  0.4031 -0.2511 -0.0689
 3008TIP3    H1 8988   3.170   1.331   5.182 -0.3431 -0.2749  0.6080
 3008TIP3    H2 8989   3.061   1.306   5.080  1.2934 -0.3092 -1.1830
 3009TIP3   OH2 8990   0.953   6.083   2.916  0.4786 -0.0451 -0.2356
 3009TIP3    H1 8991   0.928   6.077   2.824 -2.0928 -1.1367  0.4464
 3009TIP3    H2 8992   0.883   6.136   2.956  1.7845  0.8010  1.0395
 3010TIP3   OH2 8993   6.751   1.435   2.560  0.2326  0.3753 -0.3572
 3010TIP3    H1 8994   6.689   1.480   2.502 -0.6771 -1.3452 -0.7721
 3010TIP3    H2 8995   6.805   1.381   2.501 -0.1517 -0.7560  0.3010
 3011TIP3   OH2 8996   2.359   3.515   4.389  0.1044 -0.0871 -0.4524
 3011TIP3    H1 8997   2.453   3.494   4.395  0.0016 -0.2680  0.8222
 3011TIP3    H2 8998   2.349   3.553   4.302  1.4825  0.5197 -0.3771
 3012TIP3   OH2 8999   3.540   3.958   3.568 -0.3564  0.3730 -0.8923
 3012TIP3    H1 9000   3.487   4.030   3.534 -1.4428 -0.2605 -0.6094
 3012TIP3    H2 9001   3.488   3.922   3.640 -0.1257 -1.0651 -1.4102
 3013TIP3   OH2 9002   7.061   6.738   2.625  0.1303  0.1867 -0.0579
 3013TIP3    H1 9003   7.116   6.659   2.627  0.6265  0.5345  1.6185
 3013TIP3    H2 9004   6.985   6.716   2.678  1.4880  1.6202  2.6519
 3014TIP3   OH2 9005   5.174   3.117   0.605 -0.0792 -0.0081 -0.4270
 3014TIP3    H1 9006   5.122   3.087   0.680  1.2152 -1.1359  0.0683
 3014TIP3    H2 9007   5.247   3.164   0.645  0.0742  0.2785 -1.0375
 3015TIP3   OH2 9008   2.329   5.536   3.768  0.0684 -0.4164 -0.6565
 3015TIP3    H1 9009   2.266   5.485   3.718  0.6388 -1.4597 -0.3631
 3015TIP3    H2 9010   2.277   5.589   3.828 -0.5612 -0.2127 -1.3779
 3016TIP3   OH2 9011   4.258   3.202   4.167 -0.2569 -0.4971 -0.2585
 3016TIP3    H1 9012   4.279   3.119   4.209 -1.2344 -0.9154 -0.5741
 3016TIP3    H2 9013   4.267   3.185   4.073 -1.2530 -0.4946 -0.3686
 3017TIP3   OH2 9014   5.962   1.281   2.863 -0.7153  0.2281 -0.7457
 3017TIP3    H1 9015   5.984   1.353   2.922 -0.8110 -0.6048  0.3518
 3017TIP3    H2 9016   6.018   1.294   2.787  1.2971 -0.0875  0.6183
 3018TIP3   OH2 9017   6.824   4.509   1.359 -0.6516  0.0612 -0.3399
 3018TIP3    H1 9018   6.834   4.461   1.441 -1.3196 -0.2761 -0.4531
 3018TIP3    H2 9019   6.730   4.506   1.340 -0.1817 -3.9116 -3.4871
 3019TIP3   OH2 9020   3.586   2.098   5.276  0.2381  0.0924  0.1119
 3019TIP3    H1 9021   3.625   2.102   5.364  1.9375  2.8287 -0.6247
 3019TIP3    H2 9022   3.548   2.185   5.263 -0.5567 -0.4702 -1.6292
 3020TIP3   OH2 9023   6.644   2.087   4.170  0.0891  0.1637 -0.5508
 3020TIP3    H1 9024   6.662   2.163   4.226  2.3191  0.4133 -1.4871
 3020TIP3    H2 9025   6.654   2.120   4.081 -2.2230 -0.5086 -1.1349
 3021TIP3   OH2 9026   5.808   0.169   3.467  0.3213  0.1682  0.3453
 3021TIP3    H1 9027   5.843   0.257   3.450  2.1886 -0.6988 -0.5242
 3021TIP3    H2 9028   5.734   0.162   3.406  0.7116  0.8043 -0.2247
 3022TIP3   OH2 9029   2.859   4.531   4.311 -0.6376  0.0186  1.1806
 3022TIP3    H1 9030   2.848   4.564   4.400 -1.3402  0.7543  0.8242
 3022TIP3    H2 9031   2.813   4.593   4.255  0.2129 -0.1580  0.2395
 3023TIP3   OH2 9032   1.670   2.152   3.983  0.8892  0.4633  0.4172
 3023TIP3    H1 9033   1.584   2.181   4.014 -0.6634 -2.6382 -0.5823
 3023TIP3    H2 9034   1.719   2.134   4.063 -0.3190 -0.0722  1.0698
 3024TIP3   OH2 9035   6.519   6.530   5.579  0.4601 -0.0813 -0.5382
 3024TIP3    H1 9036   6.523   6.587   5.501  0.5278 -0.2410 -0.6516
 3024TIP3    H2 9037   6.427   6.503   5.584  0.3946  0.1589 -0.3960
 3025TIP3   OH2 9038   6.332   5.137   1.524  0.0009 -0.0261 -0.1267
 3025TIP3    H1 9039   6.335   5.228   1.555 -0.2185 -0.4131  1.0858
 3025TIP3    H2 9040   6.250   5.131   1.476 -0.0660  0.3683 -0.0690
 3026TIP3   OH2 9041   0.280   3.478   4.095 -1.2195  0.1694  0.2684
 3026TIP3    H1 9042   0.268   3.504   4.003 -3.1758  1.1085  0.7344
 3026TIP3    H2 9043   0.358   3.525   4.123  0.9045 -2.0082 -1.5204
 3027TIP3   OH2 9044   4.774   0.489   0.845  0.4497  0.0519  0.0616
 3027TIP3    H1 9045   4.835   0.534   0.786  0.6687 -0.3020  0.0168
 3027TIP3    H2 9046   4.776   0.542   0.925  1.3275 -0.3169  0.3006
 3028TIP3   OH2 9047   0.465   0.510   2.093 -0.9881  0.1142  0.1966
 3028TIP3    H1 9048   0.389   0.567   2.083 -2.2367 -1.5883 -0.6146
 3028TIP3    H2 9049   0.428   0.427   2.123  0.2316 -1.3852 -2.1184
 3029TIP3   OH2 9050   5.471   2.531   2.898 -0.1047 -0.2321 -0.4581
 3029TIP3    H1 9051   5.556   2.511   2.859 -0.3047 -1.8120 -0.1446
 3029TIP3    H2 9052   5.412   2.540   2.823  0.6706  3.1024 -0.8475
 3030TIP3   OH2 9053   1.348   5.891   0.094 -0.3517  0.4236 -1.0051
 3030TIP3    H1 9054   1.330   5.894  -0.000 -0.0619  1.3171 -1.0348
 3030TIP3    H2 9055   1.410   5.819   0.104 -1.1519 -0.3437 -1.3571
 3031TIP3   OH2 9056   1.576   2.520   1.187  0.0181 -0.0461  0.3342
 3031TIP3    H1 9057   1.576   2.448   1.124 -1.2045  0.3411 -0.1331
 3031TIP3    H2 9058   1.637   2.584   1.150  1.8849 -1.2057  1.2422
 3032TIP3   OH2 9059   1.050   0.515   1.495  0.0639  0.4716  0.0658
 3032TIP3    H1 9060   0.957   0.511   1.470  0.0255 -1.1013  0.3404
 3032TIP3    H2 9061   1.051   0.568   1.574 -0.3001  2.3033 -1.0960
 3033TIP3   OH2 9062   6.205   1.455   5.198 -0.0694  0.2338  0.4109
 3033TIP3    H1 9063   6.284   1.503   5.171 -1.2719  2.3350  0.4711
 3033TIP3    H2 9064   6.225   1.424   5.286  1.2493 -0.6333 -0.1549
 3034TIP3   OH2 9065   2.595   1.323   2.713  0.1589  0.0121  0.4890
 3034TIP3    H1 9066   2.676   1.272   2.712 -0.4413 -0.9766  0.6935
 3034TIP3    H2 9067   2.554   1.300   2.797 -1.6825 -1.7091 -0.7931
 3035TIP3   OH2 9068   6.996   6.742   4.772 -0.4907 -0.1011 -0.1116
 3035TIP3    H1 9069   6.964   6.820   4.727 -0.7796  0.2911  0.7511
 3035TIP3    H2 9070   7.061   6.776   4.834 -0.0280 -0.6412 -0.2952
 3036TIP3   OH2 9071   1.541   4.664   3.524 -0.4020  0.4499  0.3406
 3036TIP3    H1 9072   1.530   4.759   3.528 -1.5114  0.3310  0.4171
 3036TIP3    H2 9073   1.456   4.630   3.497  0.3473 -0.4475 -1.0565
 3037TIP3   OH2 9074   1.055   2.096   5.808  0.1102 -0.1527 -0.3840
 3037TIP3    H1 9075   1.027   2.067   5.894 -2.2428  2.2195 -0.2048
 3037TIP3    H2 9076   1.143   2.133   5.822  0.0321 -0.4095  0.8333
 3038TIP3   OH2 9077   0.583   4.349   4.602  0.0622 -0.2381  0.5784
 3038TIP3    H1 9078   0.592   4.284   4.532  1.1470 -0.4590  0.9032
 3038TIP3    H2 9079   0.511   4.317   4.656 -0.9721  0.0697 -0.5706
 3039TIP3   OH2 9080   1.319   0.735   3.209 -0.3788  0.0861  0.0258
 3039TIP3    H1 9081   1.393   0.771   3.258 -0.3756  0.0235  0.0669
 3039TIP3    H2 9082   1.337   0.641   3.205  1.5976  0.4453 -3.2650
 3040TIP3   OH2 9083   5.525   2.368   0.311  0.4211  0.3962 -0.2716
 3040TIP3    H1 9084   5.465   2.439   0.287  0.1782 -0.1387 -1.2995
 3040TIP3    H2 9085   5.494   2.337   0.395  0.3616  1.3222  0.0642
 3041TIP3   OH2 9086   6.770   5.219   1.022 -0.3459  0.3243  0.3178
 3041TIP3    H1 9087   6.706   5.283   0.991 -1.2981 -1.3544 -1.3669
 3041TIP3    H2 9088   6.850   5.239   0.973 -0.8312 -0.1666 -0.6821
 3042TIP3   OH2 9089   1.881   6.497   1.977  0.0509  0.4079  0.3312
 3042TIP3    H1 9090   1.950   6.432   1.965 -0.4914 -0.4923  1.7906
 3042TIP3    H2 9091   1.845   6.510   1.889  0.5641 -0.8230 -0.0871
 3043TIP3   OH2 9092   3.344   0.625   5.782  0.4316  0.5871 -0.2760
 3043TIP3    H1 9093   3.413   0.577   5.826 -0.6739 -0.7523  0.0599
 3043TIP3    H2 9094   3.390   0.695   5.735  2.1026 -0.7466 -0.7549
 3044TIP3   OH2 9095   0.990   5.090   3.369 -0.8968  0.3627 -0.2778
 3044TIP3    H1 9096   1.083   5.068   3.374 -0.9021  0.6203  3.2819
 3044TIP3    H2 9097   0.949   5.013   3.329  0.7045 -0.2186 -0.8536
 3045TIP3   OH2 9098   1.419   5.090   3.065  0.1737  0.0273 -0.2802
 3045TIP3    H1 9099   1.433   5.044   2.982  1.7353  2.4185 -1.4470
 3045TIP3    H2 9100   1.482   5.051   3.126  1.0989  0.2278 -1.0867
 3046TIP3   OH2 9101   0.353   4.898   1.160  0.2555 -0.5787 -0.1277
 3046TIP3    H1 9102   0.365   4.839   1.234  1.4870  1.0718  1.0849
 3046TIP3    H2 9103   0.264   4.933   1.171  0.5674 -0.0466  0.8521
 3047TIP3   OH2 9104   6.133   6.139   3.832  0.0145 -0.3669  0.0962
 3047TIP3    H1 9105   6.164   6.225   3.803  1.0930 -0.8900 -0.3614
 3047TIP3    H2 9106   6.137   6.084   3.754 -2.6232 -0.3753 -0.1507
 3048TIP3   OH2 9107   4.240   0.578   2.598 -0.3295 -0.2001  0.0550
 3048TIP3    H1 9108   4.292   0.549   2.673  0.1516  0.7077  0.0903
 3048TIP3    H2 9109   4.217   0.498   2.552  0.8286 -0.6493  0.2279
 3049TIP3   OH2 9110   2.394   3.499   4.065 -0.3279 -0.3347  0.7948
 3049TIP3    H1 9111   2.426   3.412   4.088  0.7585  0.0821  0.9028
 3049TIP3    H2 9112   2.331   3.483   3.995  1.3747 -1.0682 -0.6564
 3050TIP3   OH2 9113   3.456   1.701   3.307  0.2592 -0.2465 -0.1014
 3050TIP3    H1 9114   3.529   1.738   3.256  0.5318 -0.4629  0.1320
 3050TIP3    H2 9115   3.487   1.615   3.335  0.0819 -0.1542  0.3788
 3051TIP3   OH2 9116   3.893   2.758   4.539  0.4190 -0.0173 -0.3352
 3051TIP3    H1 9117   3.850   2.803   4.612  0.6839  1.6275 -1.1405
 3051TIP3    H2 9118   3.934   2.682   4.579 -0.6189  0.0734  0.9838
 3052TIP3   OH2 9119   0.446   0.965   1.814  0.1707  0.1247 -0.1878
 3052TIP3    H1 9120   0.483   0.895   1.761  0.9362  0.8496 -0.6428
 3052TIP3    H2 9121   0.408   1.026   1.751 -0.6030  0.0651  0.2082
 3053TIP3   OH2 9122   7.004   4.176   0.846 -0.0870  0.6040 -0.6878
 3053TIP3    H1 9123   7.016   4.207   0.936  1.3959  0.2342 -0.7286
 3053TIP3    H2 9124   7.047   4.091   0.844 -4.1857 -1.7153 -0.5491
 3054TIP3   OH2 9125   4.904   4.283   1.268 -0.6616  0.2773 -0.2875
 3054TIP3    H1 9126   4.846   4.217   1.230  1.8704 -1.2670 -1.7920
 3054TIP3    H2 9127   4.975   4.292   1.204  1.9112  0.3706  2.3674
 3055TIP3   OH2 9128   0.836   2.280   1.954 -0.1849  0.1048 -0.3474
 3055TIP3    H1 9129   0.906   2.239   2.005 -0.4671 -1.2025 -0.9638
 3055TIP3    H2 9130   0.798   2.345   2.013  0.1288 -0.6903  0.7555
 3056TIP3   OH2 9131   1.995   4.605   1.938 -0.0638  0.0329 -0.6987
 3056TIP3    H1 9132   2.054   4.654   1.880  1.2577  0.5605  0.9947
 3056TIP3    H2 9133   1.997   4.654   2.020 -2.1273 -0.5194 -0.2729
 3057TIP3   OH2 9134   4.767   6.260   1.226  0.4207 -0.0691  0.2547
 3057TIP3    H1 9135   4.833   6.287   1.161 -2.0585  1.3935 -1.8485
 3057TIP3    H2 9136   4.781   6.166   1.236  1.5298 -0.1767 -1.6857
 3058TIP3   OH2 9137   6.434   0.535   3.587 -1.0947 -0.2156 -0.6665
 3058TIP3    H1 9138   6.448   0.441   3.603 -1.8449 -0.3259 -0.6506
 3058TIP3    H2 9139   6.402   0.538   3.497  0.3370  0.1594 -1.1964
 3059TIP3   OH2 9140   4.624   3.238   3.538  0.2900  0.2180 -0.0407
 3059TIP3    H1 9141   4.637   3.236   3.443 -3.5703  0.4292 -0.7306
 3059TIP3    H2 9142   4.642   3.328   3.563 -2.7343  1.3082 -1.4238
 3060TIP3   OH2 9143   3.329   1.502   3.946  0.4756 -0.0768  0.1238
 3060TIP3    H1 9144   3.324   1.412   3.915 -0.0886 -0.2811  0.7873
 3060TIP3    H2 9145   3.421   1.526   3.936  0.5461 -0.5854 -0.4439
 3061TIP3   OH2 9146   3.176   1.856   1.675  0.3427 -0.3902 -0.5308
 3061TIP3    H1 9147   3.223   1.782   1.715  0.6910 -0.7357 -1.5661
 3061TIP3    H2 9148   3.092   1.819   1.650 -0.7275  0.3376  1.7359
 3062TIP3   OH2 9149   4.883   2.959   1.053  0.6115 -0.1051 -0.0514
 3062TIP3    H1 9150   4.828   3.014   1.108 -0.6628 -0.9102 -0.4680
 3062TIP3    H2 9151   4.971   2.993   1.065  0.0013  1.3597  0.4859
 3063TIP3   OH2 9152   1.294   2.966   3.612  0.3278  0.4800  0.1060
 3063TIP3    H1 9153   1.326   3.041   3.661 -0.3824 -0.0529  1.4390
 3063TIP3    H2 9154   1.206   2.951   3.646  0.3312 -0.7395 -0.3742
 3064TIP3   OH2 9155   0.987   6.072   0.465  0.8206 -0.2395  0.1985
 3064TIP3    H1 9156   0.941   6.094   0.546  1.3853  1.1580  0.1613
 3064TIP3    H2 9157   1.039   6.149   0.445  1.1539 -0.7934 -1.1853
 3065TIP3   OH2 9158   6.407   3.891   5.178 -0.0318  0.3919  0.1711
 3065TIP3    H1 9159   6.468   3.822   5.204  0.5259  0.4911 -0.8284
 3065TIP3    H2 9160   6.357   3.853   5.105 -1.1800  0.3172  0.9632
 3066TIP3   OH2 9161   2.083   3.395   2.969  0.1846  0.0886  0.3098
 3066TIP3    H1 9162   2.125   3.426   3.049 -0.2075  0.2367  0.4598
 3066TIP3    H2 9163   2.070   3.301   2.983 -1.2556  0.3697  1.0537
 3067TIP3   OH2 9164   4.086   1.477   1.148  0.2835 -0.4637  0.1094
 3067TIP3    H1 9165   4.040   1.559   1.127  0.4075 -0.4150  0.0237
 3067TIP3    H2 9166   4.167   1.482   1.097 -0.6644 -1.6160 -1.6305
 3068TIP3   OH2 9167   6.063   4.166   3.831  0.0461  0.0393  0.6655
 3068TIP3    H1 9168   6.011   4.176   3.752 -1.1067 -1.8727  1.1206
 3068TIP3    H2 9169   6.154   4.164   3.800 -0.2490  1.3134 -0.3620
 3069TIP3   OH2 9170   2.712   3.699   1.846  0.1065 -0.1414  0.3503
 3069TIP3    H1 9171   2.645   3.758   1.879 -0.0672 -0.3459  0.3664
 3069TIP3    H2 9172   2.786   3.710   1.906 -0.7743 -1.7146  1.8335
 3070TIP3   OH2 9173   2.583   3.960   5.861  0.4363  0.1762  0.3439
 3070TIP3    H1 9174   2.629   3.989   5.940 -0.5353  0.4041  0.8405
 3070TIP3    H2 9175   2.504   4.013   5.859 -0.7109 -1.4563  0.5275
 3071TIP3   OH2 9176   4.523   4.552   3.133 -0.3404 -0.2752  0.7523
 3071TIP3    H1 9177   4.436   4.514   3.124 -0.3411  0.1235 -1.3910
 3071TIP3    H2 9178   4.583   4.478   3.124 -0.4066 -0.6030  2.5607
 3072TIP3   OH2 9179   0.687   2.548   5.842 -0.0986  0.0516 -0.1410
 3072TIP3    H1 9180   0.782   2.542   5.842 -0.1945 -2.4566  0.1648
 3072TIP3    H2 9181   0.662   2.531   5.751 -0.2606  1.4164 -0.3722
 3073TIP3   OH2 9182   6.789   6.504   4.730  0.2593  0.2754 -0.3365
 3073TIP3    H1 9183   6.885   6.499   4.730  0.3485  1.5602 -0.6898
 3073TIP3    H2 9184   6.768   6.554   4.808 -0.2871 -1.8161  0.9189
 3074TIP3   OH2 9185   5.032   0.081   4.497  0.1461  0.2051 -0.1230
 3074TIP3    H1 9186   4.970   0.154   4.487  1.1455  1.0753 -0.1443
 3074TIP3    H2 9187   5.106   0.119   4.544  0.2078 -1.0910  0.8688
 3075TIP3   OH2 9188   4.673   1.764   3.967  0.4381 -0.2794  0.0441
 3075TIP3    H1 9189   4.659   1.856   3.989  0.8892  0.0524 -0.9896
 3075TIP3    H2 9190   4.720   1.728   4.042  0.8119  0.4884  0.1835
 3076TIP3   OH2 9191   6.488   3.984   5.453 -0.3458  0.2810 -0.4117
 3076TIP3    H1 9192   6.489   4.028   5.368 -0.2288 -0.9624 -1.0863
 3076TIP3    H2 9193   6.568   3.932   5.454 -0.6687 -0.2155  0.1874
 3077TIP3   OH2 9194   6.943   1.890   2.689 -0.3501 -0.0820  0.1841
 3077TIP3    H1 9195   6.882   1.917   2.620 -0.1505 -0.7665 -0.2710
 3077TIP3    H2 9196   7.010   1.840   2.643  0.1146 -0.0327  0.7967
 3078TIP3   OH2 9197   5.266   6.071   0.473 -0.0222  0.4245 -0.0270
 3078TIP3    H1 9198   5.265   5.976   0.461  1.6308  0.3434  0.1861
 3078TIP3    H2 9199   5.277   6.106   0.385 -0.3049  0.4053 -0.0704
 3079TIP3   OH2 9200   6.903   6.058   3.245 -0.0184 -0.1839  0.1208
 3079TIP3    H1 9201   6.844   6.060   3.170  1.0417  3.2040 -0.7920
 3079TIP3    H2 9202   6.856   6.104   3.314  0.5738  0.3538  0.1779
 3080TIP3   OH2 9203   0.854   3.769   4.116 -0.2750  0.3296  0.9439
 3080TIP3    H1 9204   0.814   3.839   4.168  0.6760 -0.0195  2.1947
 3080TIP3    H2 9205   0.820   3.688   4.155 -0.9817  0.0605 -0.1791
 3081TIP3   OH2 9206   3.281   3.532   3.346  0.0574  0.3182  0.4652
 3081TIP3    H1 9207   3.230   3.484   3.282  1.3701  0.8657 -1.0604
 3081TIP3    H2 9208   3.258   3.492   3.430  0.5659 -2.4974 -0.6321
 3082TIP3   OH2 9209   4.894   0.162   5.310 -0.1338 -0.0527  0.4866
 3082TIP3    H1 9210   4.975   0.188   5.265 -0.1748 -0.2944  0.2715
 3082TIP3    H2 9211   4.918   0.083   5.358 -0.2480 -0.1335  0.4094
 3083TIP3   OH2 9212   3.611   5.366   5.317 -0.4863 -0.0870 -0.5280
 3083TIP3    H1 9213   3.640   5.317   5.241 -0.9860  1.1541 -1.5560
 3083TIP3    H2 9214   3.626   5.458   5.294 -0.2232  0.3030  1.0487
 3084TIP3   OH2 9215   2.054   3.145   3.532  1.2948  0.0961 -0.4513
 3084TIP3    H1 9216   1.988   3.076   3.522  2.4401 -1.1782  0.5262
 3084TIP3    H2 9217   2.095   3.151   3.446 -0.0321  0.8824 -1.0654
 3085TIP3   OH2 9218   6.672   3.196   0.317 -0.2613 -0.1172 -0.5146
 3085TIP3    H1 9219   6.595   3.155   0.356 -1.1740  0.7803 -1.3435
 3085TIP3    H2 9220   6.725   3.223   0.393 -1.5038  0.6558  0.1070
 3086TIP3   OH2 9221   4.483   1.772   0.737  0.3868  0.0422  0.1238
 3086TIP3    H1 9222   4.465   1.688   0.696  1.0710  0.0841 -0.2866
 3086TIP3    H2 9223   4.500   1.751   0.829  1.1583 -0.3495 -0.1009
 3087TIP3   OH2 9224   2.210   4.278   1.368 -0.4781 -0.2861 -0.3414
 3087TIP3    H1 9225   2.259   4.221   1.428  1.9155  2.2848  0.3754
 3087TIP3    H2 9226   2.249   4.262   1.282  0.3818  0.3802 -0.0946
 3088TIP3   OH2 9227   1.107   2.859   2.018  0.4071 -0.0208 -0.1542
 3088TIP3    H1 9228   1.020   2.821   2.032 -1.2003  3.1642 -0.6521
 3088TIP3    H2 9229   1.129   2.898   2.102  0.6380  0.5071 -0.4567
 3089TIP3   OH2 9230   4.599   3.692   1.428 -0.5894 -0.4175 -0.3580
 3089TIP3    H1 9231   4.525   3.631   1.423  0.0844 -1.2447 -0.5313
 3089TIP3    H2 9232   4.666   3.653   1.372 -0.2190  0.6208 -0.6667
 3090TIP3   OH2 9233   6.086   4.210   1.827 -0.5166  0.1817  0.3813
 3090TIP3    H1 9234   5.992   4.201   1.842 -0.2731  0.5336  2.3850
 3090TIP3    H2 9235   6.097   4.195   1.733 -2.4862 -0.5012  0.2172
 3091TIP3   OH2 9236   5.644   3.472   2.629  0.3147  0.0602  0.3094
 3091TIP3    H1 9237   5.589   3.445   2.556  2.0575  2.4086 -2.0779
 3091TIP3    H2 9238   5.582   3.498   2.698 -1.3712 -2.9053  0.0621
 3092TIP3   OH2 9239   2.618   3.014   5.362  0.0516 -0.0140 -0.0358
 3092TIP3    H1 9240   2.701   3.061   5.353 -0.1457  0.1535 -1.0929
 3092TIP3    H2 9241   2.567   3.066   5.424  0.0192  0.9174 -0.8244
 3093TIP3   OH2 9242   6.574   2.746   2.254 -0.1744 -0.0043 -0.9574
 3093TIP3    H1 9243   6.650   2.715   2.302 -0.1919 -1.9178 -2.0790
 3093TIP3    H2 9244   6.514   2.777   2.321  0.7398 -0.3948  0.0705
 3094TIP3   OH2 9245   6.475   6.433   4.319  0.6920  0.3583  0.7241
 3094TIP3    H1 9246   6.563   6.469   4.302  0.9913 -0.6971 -0.0728
 3094TIP3    H2 9247   6.437   6.420   4.232  0.0994 -0.0425  1.0361
 3095TIP3   OH2 9248   5.694   5.005   4.295 -0.9434  0.3264  0.4225
 3095TIP3    H1 9249   5.719   5.012   4.203 -2.2976 -0.9018 -0.0669
 3095TIP3    H2 9250   5.650   5.088   4.314 -1.0018  0.4302 -0.1451
 3096TIP3   OH2 9251   0.005   2.181   0.863 -0.0376  0.3870 -0.4776
 3096TIP3    H1 9252   0.076   2.118   0.852  1.4314  1.8591  0.2274
 3096TIP3    H2 9253  -0.023   2.170   0.954 -1.9849 -1.3936 -1.2019
 3097TIP3   OH2 9254   2.979   0.570   2.924  0.9324  0.0002 -1.1042
 3097TIP3    H1 9255   3.010   0.552   3.013 -3.8037 -0.3991  0.7697
 3097TIP3    H2 9256   3.038   0.520   2.867  3.3125 -0.8748  1.8756
 3098TIP3   OH2 9257   5.986   2.165   4.248 -0.0272  0.3330  0.0167
 3098TIP3    H1 9258   6.062   2.120   4.211  0.3660  0.1420  1.0280
 3098TIP3    H2 9259   5.973   2.124   4.334 -0.5106  1.2024  0.3723
 3099TIP3   OH2 9260   4.832   1.806   0.503  0.0527  0.2963  0.2033
 3099TIP3    H1 9261   4.795   1.731   0.549  1.6466 -1.4497 -1.2082
 3099TIP3    H2 9262   4.758   1.843   0.454 -0.5211 -1.1567 -0.0842
 3100TIP3   OH2 9263   3.441   5.789   4.117 -0.3396  0.0555  0.4970
 3100TIP3    H1 9264   3.416   5.880   4.133  0.6250  0.6923 -1.3297
 3100TIP3    H2 9265   3.365   5.738   4.148 -0.6834  1.4080  2.0137
 3101TIP3   OH2 9266   6.659   3.001   0.962 -0.0095  0.3105 -0.2002
 3101TIP3    H1 9267   6.651   3.093   0.988  0.2638  0.0560  0.8194
 3101TIP3    H2 9268   6.660   3.003   0.866  0.9763  1.4571 -0.1814
 3102TIP3   OH2 9269   0.867   0.242   2.713  0.4218  0.1223  0.7370
 3102TIP3    H1 9270   0.933   0.232   2.644 -0.8163 -1.6410 -0.2590
 3102TIP3    H2 9271   0.785   0.216   2.672 -1.0416  2.6546  1.8100
 3103TIP3   OH2 9272   0.266   2.719   2.562 -0.1067 -0.3959  0.1937
 3103TIP3    H1 9273   0.195   2.784   2.557  0.2623 -0.0541 -0.9069
 3103TIP3    H2 9274   0.297   2.725   2.652 -0.4524  0.5597  0.2623
 3104TIP3   OH2 9275   1.352   3.753   5.573 -0.2034 -0.2340  0.0888
 3104TIP3    H1 9276   1.264   3.730   5.604 -0.5543 -0.3198 -0.9454
 3104TIP3    H2 9277   1.345   3.843   5.543 -0.2315 -0.5914 -1.0276
 3105TIP3   OH2 9278   3.084   3.122   2.449  0.7663 -0.0619 -0.5689
 3105TIP3    H1 9279   3.123   3.085   2.369  0.8228  0.5362 -0.8198
 3105TIP3    H2 9280   3.123   3.209   2.457  2.0181 -0.7121  1.0030
 3106TIP3   OH2 9281   4.436   1.031   5.821  0.0323  0.0734  0.4374
 3106TIP3    H1 9282   4.389   0.968   5.877 -1.0941  0.1414 -0.3983
 3106TIP3    H2 9283   4.404   1.013   5.733  1.1574  0.5324 -0.0836
 3107TIP3   OH2 9284   1.082   5.860   5.289 -0.1720 -0.0986 -0.3736
 3107TIP3    H1 9285   1.168   5.900   5.294  0.4292 -1.2088 -1.2577
 3107TIP3    H2 9286   1.023   5.922   5.332  0.9621  0.9608 -0.3130
 3108TIP3   OH2 9287   5.599   0.895   4.638  0.0654  0.4295 -0.2026
 3108TIP3    H1 9288   5.671   0.834   4.624  1.5106  2.0133 -0.0343
 3108TIP3    H2 9289   5.523   0.852   4.598  1.6394 -0.1829 -2.7733
 3109TIP3   OH2 9290   7.179   3.060   4.724  0.0115 -0.1143 -0.1536
 3109TIP3    H1 9291   7.244   3.003   4.764 -0.5104  0.6258  1.8354
 3109TIP3    H2 9292   7.197   3.147   4.760 -1.9867  0.1234  0.3885
 3110TIP3   OH2 9293   0.644   4.859   5.494  0.3546  0.0530  0.0554
 3110TIP3    H1 9294   0.628   4.813   5.577 -1.2125  0.2809 -0.0776
 3110TIP3    H2 9295   0.731   4.898   5.504  1.0121 -1.5407  0.8131
 3111TIP3   OH2 9296   5.178   1.910   1.159  0.4777 -0.1125 -0.2153
 3111TIP3    H1 9297   5.115   1.861   1.212 -0.2979  0.2582 -0.7670
 3111TIP3    H2 9298   5.159   2.002   1.177 -0.7346  0.0657 -2.1156
 3112TIP3   OH2 9299   5.533   2.882   5.817  0.5506  0.1634  0.0205
 3112TIP3    H1 9300   5.565   2.938   5.887 -0.6282  1.7363 -0.6569
 3112TIP3    H2 9301   5.475   2.820   5.860 -0.2098  1.1556  0.4417
 3113TIP3   OH2 9302   5.479   4.606   4.091 -0.7730  0.3652  0.5725
 3113TIP3    H1 9303   5.457   4.682   4.145  1.4433  0.7051  1.0586
 3113TIP3    H2 9304   5.554   4.635   4.038 -0.6424 -1.1182 -0.1001
 3114TIP3   OH2 9305   6.449   2.203   5.150  0.3797 -0.0286 -0.0775
 3114TIP3    H1 9306   6.479   2.150   5.076  0.0687 -0.5223  0.1426
 3114TIP3    H2 9307   6.458   2.293   5.121 -2.3494 -0.1984 -1.7859
 3115TIP3   OH2 9308   5.489   3.271   3.875  0.0990 -0.1803  0.5936
 3115TIP3    H1 9309   5.486   3.315   3.960  0.2756  1.6668 -0.3042
 3115TIP3    H2 9310   5.410   3.217   3.872 -0.1595  0.1222  1.7257
 3116TIP3   OH2 9311   4.445   4.805   0.018 -0.0018  0.2675 -0.0801
 3116TIP3    H1 9312   4.477   4.781  -0.070  0.7850 -0.1289  0.2980
 3116TIP3    H2 9313   4.501   4.755   0.077  1.1213  2.3440  0.7354
 3117TIP3   OH2 9314   2.706   1.982   2.100  0.3424 -0.0707  0.2745
 3117TIP3    H1 9315   2.621   1.950   2.129  0.5284 -1.8789 -0.9756
 3117TIP3    H2 9316   2.688   2.069   2.064 -1.0166 -0.5030 -0.1424
 3118TIP3   OH2 9317   3.151   6.547   3.586  0.0175  0.7795  0.0921
 3118TIP3    H1 9318   3.192   6.609   3.525  0.4299 -0.3016 -0.7552
 3118TIP3    H2 9319   3.225   6.503   3.628 -0.1418 -1.7148 -1.9705
 3119TIP3   OH2 9320   6.637   5.293   3.218  0.0174  0.4179 -0.1901
 3119TIP3    H1 9321   6.588   5.240   3.155 -1.2082 -1.8067  2.4105
 3119TIP3    H2 9322   6.668   5.230   3.283  0.2145  2.6793  2.0532
 3120TIP3   OH2 9323   3.772   4.012   1.060  0.0299 -0.1345  0.6999
 3120TIP3    H1 9324   3.787   3.917   1.057 -0.1066 -0.1427 -2.4319
 3120TIP3    H2 9325   3.678   4.021   1.076 -0.0059 -0.5170  0.7071
 3121TIP3   OH2 9326   5.566   4.057   4.553 -0.2194 -0.2263 -0.0228
 3121TIP3    H1 9327   5.654   4.020   4.565 -0.3044 -0.3871  0.1042
 3121TIP3    H2 9328   5.577   4.122   4.483 -0.4083 -1.6995 -1.4791
 3122TIP3   OH2 9329   3.197   0.086   2.052 -0.0234 -0.6865  0.4694
 3122TIP3    H1 9330   3.256   0.090   2.128  1.2077 -0.8384 -0.4500
 3122TIP3    H2 9331   3.251   0.114   1.979 -1.1325 -0.7718 -0.3995
 3123TIP3   OH2 9332   5.450   0.089   5.482 -0.3902  0.6485 -0.5188
 3123TIP3    H1 9333   5.383   0.085   5.551 -0.1780  0.1707 -0.3307
 3123TIP3    H2 9334   5.497   0.171   5.499  0.3509  0.0199  0.5701
 3124TIP3   OH2 9335   1.410   3.873   2.906 -0.0750  0.0041  0.0711
 3124TIP3    H1 9336   1.338   3.810   2.900  0.5465 -0.8778  1.2603
 3124TIP3    H2 9337   1.376   3.945   2.959 -0.2551 -0.1551  0.1726
 3125TIP3   OH2 9338   5.388   5.388   2.616  0.3659  0.4603  0.5415
 3125TIP3    H1 9339   5.388   5.437   2.534 -0.0651  2.7656  1.7995
 3125TIP3    H2 9340   5.325   5.435   2.671 -0.5174 -1.9129  1.7044
 3126TIP3   OH2 9341   0.372   2.570   1.306 -0.2944  0.1856  0.3001
 3126TIP3    H1 9342   0.367   2.487   1.259 -0.1398 -1.0301  2.3144
 3126TIP3    H2 9343   0.333   2.634   1.246  0.4620 -1.1333 -1.6916
 3127TIP3   OH2 9344   4.042   2.909   2.764 -0.4482 -0.0101 -0.1115
 3127TIP3    H1 9345   4.081   2.974   2.823  1.3991 -0.7378 -0.4679
 3127TIP3    H2 9346   4.080   2.826   2.790 -2.0058 -0.8336 -0.3322
 3128TIP3   OH2 9347   4.667   0.802   1.488 -0.0015  0.2224  0.1772
 3128TIP3    H1 9348   4.732   0.734   1.504 -0.1745  0.3484  1.5680
 3128TIP3    H2 9349   4.621   0.773   1.409  0.3087 -0.9797  0.4103
 3129TIP3   OH2 9350   4.782   1.102   3.637 -0.0202 -0.4395  0.8226
 3129TIP3    H1 9351   4.787   1.014   3.674  2.3568  0.2395  2.3283
 3129TIP3    H2 9352   4.871   1.137   3.644 -0.4931  1.4666 -1.3799
 3130TIP3   OH2 9353   7.192   3.878   0.259 -0.4879 -0.4565  0.0396
 3130TIP3    H1 9354   7.173   3.949   0.197  0.5096 -0.0207  0.2008
 3130TIP3    H2 9355   7.262   3.828   0.217  0.1743 -0.1744  0.7870
 3131TIP3   OH2 9356   7.014   3.010   0.322 -0.4155 -0.5419 -0.3010
 3131TIP3    H1 9357   7.072   2.959   0.378  1.2488 -0.3614 -1.7630
 3131TIP3    H2 9358   7.050   2.999   0.234 -3.2934 -1.3541 -1.5017
 3132TIP3   OH2 9359   4.899   0.763   1.725  0.1796  0.2735  0.2073
 3132TIP3    H1 9360   4.927   0.847   1.688  2.1386  0.5670  2.1162
 3132TIP3    H2 9361   4.943   0.698   1.670 -2.5642  0.3154 -2.2468
 3133TIP3   OH2 9362   2.577   6.020   2.121  0.4553  0.2478 -0.1054
 3133TIP3    H1 9363   2.600   6.013   2.029  0.8172 -0.4257  0.0338
 3133TIP3    H2 9364   2.558   5.930   2.149 -0.1617  0.5071  0.3455
 3134TIP3   OH2 9365   1.858   1.795   1.586 -0.2559  0.4246 -0.2524
 3134TIP3    H1 9366   1.953   1.805   1.589 -0.4955  4.4142 -0.7270
 3134TIP3    H2 9367   1.835   1.756   1.670  1.7544 -0.7114 -0.1667
 3135TIP3   OH2 9368   0.304   1.700   0.584 -0.4001 -0.5287 -0.3584
 3135TIP3    H1 9369   0.303   1.607   0.563 -2.1668 -1.0949  1.7703
 3135TIP3    H2 9370   0.211   1.725   0.586 -0.0708  0.7478  1.0606
 3136TIP3   OH2 9371   2.240   1.365   1.217 -0.0677 -0.1789 -0.3257
 3136TIP3    H1 9372   2.331   1.393   1.215  0.5253 -1.7733  1.0702
 3136TIP3    H2 9373   2.228   1.315   1.136  0.4895 -0.4240 -0.2636
 3137TIP3   OH2 9374   1.723   2.802   1.987  0.2017  0.1157  0.1319
 3137TIP3    H1 9375   1.768   2.724   1.955 -0.1353  0.1522 -0.4473
 3137TIP3    H2 9376   1.684   2.841   1.908 -0.7409  0.1439  0.6064
 3138TIP3   OH2 9377   0.331   4.244   5.548 -0.0994  0.0626 -0.1487
 3138TIP3    H1 9378   0.286   4.323   5.578 -0.2173 -0.4782  1.1747
 3138TIP3    H2 9379   0.378   4.213   5.625  2.4985  0.5368 -1.4275
 3139TIP3   OH2 9380   1.660   6.379   1.125  0.7227  0.2237 -0.0519
 3139TIP3    H1 9381   1.648   6.299   1.075  0.1753  0.4112 -0.2214
 3139TIP3    H2 9382   1.748   6.409   1.102  0.1387  0.7968 -1.6159
 3140TIP3   OH2 9383   1.328   2.775   5.016 -0.5138 -0.1750 -0.3596
 3140TIP3    H1 9384   1.283   2.850   4.978 -0.0880 -0.4133 -1.3702
 3140TIP3    H2 9385   1.284   2.699   4.979 -1.1386 -0.4546  0.8884
 3141TIP3   OH2 9386   2.968   6.581   4.138  0.4301 -0.3267 -0.4777
 3141TIP3    H1 9387   2.883   6.590   4.094  0.1600  0.4162  0.1723
 3141TIP3    H2 9388   3.022   6.650   4.099 -0.0221  0.7977  0.8043
 3142TIP3   OH2 9389   3.770   5.179   1.113 -0.0157 -0.3083  0.5500
 3142TIP3    H1 9390   3.687   5.180   1.161  0.6458 -1.1324  1.7470
 3142TIP3    H2 9391   3.795   5.271   1.105 -1.0643 -0.0380  0.0958
 3143TIP3   OH2 9392   6.879   2.942   0.647 -0.3503  0.1252 -0.4277
 3143TIP3    H1 9393   6.882   2.852   0.614  1.2004 -1.3170  3.1050
 3143TIP3    H2 9394   6.789   2.970   0.633 -1.3289 -2.6185 -0.1654
 3144TIP3   OH2 9395   2.944   1.733   0.672 -0.0567  0.1136 -0.3874
 3144TIP3    H1 9396   2.922   1.787   0.596 -0.3651  1.4927  0.6404
 3144TIP3    H2 9397   2.993   1.792   0.729 -0.4388 -0.6945  0.7919
 3145TIP3   OH2 9398   2.308   3.659   1.110 -0.0135 -0.8111  0.0694
 3145TIP3    H1 9399   2.354   3.741   1.127 -1.8190 -0.1401  2.2714
 3145TIP3    H2 9400   2.320   3.607   1.190 -1.3678 -1.4281 -0.0926
 3146TIP3   OH2 9401   1.389   5.061   5.774 -0.0538  0.7804 -0.5918
 3146TIP3    H1 9402   1.326   5.019   5.716  0.1320  1.7767 -1.5482
 3146TIP3    H2 9403   1.439   5.119   5.717 -0.3448  2.3417  0.6630
 3147TIP3   OH2 9404   1.017   3.023   2.747  0.5163  0.2707  0.1009
 3147TIP3    H1 9405   0.932   3.062   2.769 -0.0165 -0.2401 -0.9646
 3147TIP3    H2 9406   1.020   2.942   2.797 -0.3892 -0.5468 -1.1068
 3148TIP3   OH2 9407   3.212   3.407   4.627  0.5286 -0.4129  0.1656
 3148TIP3    H1 9408   3.246   3.349   4.559 -1.8858 -0.7515 -0.8536
 3148TIP3    H2 9409   3.193   3.349   4.701 -0.3382 -0.6700 -0.2515
 3149TIP3   OH2 9410   3.128   5.806   2.143  0.0709 -0.4367 -0.1154
 3149TIP3    H1 9411   3.067   5.818   2.216  1.0688  1.4928  0.4667
 3149TIP3    H2 9412   3.150   5.895   2.115  0.7263 -1.1213 -1.9310
 3150TIP3   OH2 9413   5.156   4.592   3.839  0.0616 -0.0804 -0.7034
 3150TIP3    H1 9414   5.228   4.589   3.775 -1.1264  0.4066 -2.1267
 3150TIP3    H2 9415   5.173   4.519   3.898  1.3204 -0.4232 -1.4489
 3151TIP3   OH2 9416   2.257   1.050   2.728  0.2686  0.1715  0.2739
 3151TIP3    H1 9417   2.182   1.044   2.787  0.1938  0.3771  0.2009
 3151TIP3    H2 9418   2.300   0.965   2.735 -0.6232 -0.3697 -0.5605
 3152TIP3   OH2 9419   1.035   2.751   5.193 -0.3111 -0.4453  0.2275
 3152TIP3    H1 9420   1.113   2.789   5.235 -1.2903  0.0331  1.6927
 3152TIP3    H2 9421   1.034   2.789   5.105  0.1839  0.8840  0.7741
 3153TIP3   OH2 9422   0.580   3.246   3.424 -0.0851 -0.3311  0.2198
 3153TIP3    H1 9423   0.568   3.243   3.519 -0.5885 -1.2466  0.1392
 3153TIP3    H2 9424   0.491   3.252   3.389  0.0839 -0.2608 -0.1980
 3154TIP3   OH2 9425   1.026   4.778   0.454 -0.4576  0.3285  0.1565
 3154TIP3    H1 9426   0.955   4.717   0.473 -1.8558  1.6016 -0.7953
 3154TIP3    H2 9427   1.007   4.854   0.509  1.4580 -0.1488  1.5929
 3155TIP3   OH2 9428   6.688   5.716   0.836  0.5926  0.1446 -0.4083
 3155TIP3    H1 9429   6.655   5.799   0.803 -0.1440  0.2551  0.5525
 3155TIP3    H2 9430   6.763   5.740   0.891 -0.1609  0.2672  0.5810
 3156TIP3   OH2 9431   0.760   4.995   2.619 -0.2809  0.3534 -0.3639
 3156TIP3    H1 9432   0.838   5.041   2.651 -1.4020  1.6361  0.6664
 3156TIP3    H2 9433   0.730   4.944   2.695 -0.2620 -0.4009 -0.8559
 3157TIP3   OH2 9434   5.323   5.343   4.834 -0.2627  0.0472 -0.5236
 3157TIP3    H1 9435   5.386   5.313   4.900 -0.1338 -1.3735 -1.2558
 3157TIP3    H2 9436   5.373   5.347   4.753 -0.8784 -0.1368 -0.9195
 3158TIP3   OH2 9437   1.676   3.018   3.158  0.0445 -0.3252  0.4298
 3158TIP3    H1 9438   1.673   2.924   3.140  1.8812 -0.2460 -0.6164
 3158TIP3    H2 9439   1.601   3.034   3.214 -0.4648 -2.3728  0.4337
 3159TIP3   OH2 9440   0.929   0.341   3.409  0.8384 -0.2041  0.2835
 3159TIP3    H1 9441   0.954   0.424   3.449  1.2680 -0.3655  0.3658
 3159TIP3    H2 9442   0.947   0.276   3.477  1.5566 -0.4768 -0.1541
 3160TIP3   OH2 9443   2.349   5.728   5.270  0.1731  0.3598 -0.6023
 3160TIP3    H1 9444   2.403   5.807   5.279 -1.2812  1.6158 -2.2423
 3160TIP3    H2 9445   2.305   5.738   5.186 -1.7114 -1.1741  0.1124
 3161TIP3   OH2 9446   2.223   5.083   2.267 -0.1465  0.2215 -0.3883
 3161TIP3    H1 9447   2.244   5.087   2.173 -0.5476 -0.0866 -0.4942
 3161TIP3    H2 9448   2.225   4.990   2.288 -3.3417 -0.0605 -0.8738
 3162TIP3   OH2 9449   2.286   2.955   5.389  0.0545 -0.2681  0.3613
 3162TIP3    H1 9450   2.285   2.868   5.349 -0.4979 -0.1663  0.1532
 3162TIP3    H2 9451   2.211   2.955   5.448  0.8345 -0.4029  1.3817
 3163TIP3   OH2 9452   4.751   4.568   5.089 -0.5252 -0.1020 -0.2241
 3163TIP3    H1 9453   4.791   4.497   5.139 -0.7646  0.1762  0.3767
 3163TIP3    H2 9454   4.751   4.643   5.150  0.9716  0.8164 -1.2960
 3164TIP3   OH2 9455   3.327   0.719   3.523  0.3749 -0.2889 -0.2590
 3164TIP3    H1 9456   3.303   0.634   3.560  0.4842 -0.5671 -0.8079
 3164TIP3    H2 9457   3.243   0.759   3.498  0.3646 -0.5458 -0.6508
 3165TIP3   OH2 9458   1.739   2.846   2.298  0.2148 -0.2601 -0.0017
 3165TIP3    H1 9459   1.660   2.883   2.338  0.6039  0.4386  0.1455
 3165TIP3    H2 9460   1.760   2.770   2.352 -0.2093 -0.3043  0.1089
 3166TIP3   OH2 9461   4.082   2.781   0.616 -0.1824 -0.7154  0.2995
 3166TIP3    H1 9462   4.042   2.756   0.700 -1.6507  0.1745 -0.0870
 3166TIP3    H2 9463   4.130   2.861   0.635 -0.5878 -0.4658  0.2779
 3167TIP3   OH2 9464   2.701   3.942   3.856  0.6740  0.0454 -0.7437
 3167TIP3    H1 9465   2.748   3.861   3.835 -0.8453 -0.4263 -2.7073
 3167TIP3    H2 9466   2.619   3.935   3.807 -0.9825  1.3187  1.6403
 3168TIP3   OH2 9467   3.375   4.306   5.094  0.6532  0.5270 -0.2453
 3168TIP3    H1 9468   3.291   4.352   5.086  1.8380  2.6245 -1.8879
 3168TIP3    H2 9469   3.374   4.270   5.183 -0.9825  2.5691  0.6658
 3169TIP3   OH2 9470   2.205   4.741   5.236  0.9451  0.1353  0.2973
 3169TIP3    H1 9471   2.300   4.736   5.252  1.8855  0.7208 -3.9270
 3169TIP3    H2 9472   2.177   4.649   5.233  1.4391 -0.0584  1.0895
 3170TIP3   OH2 9473   3.555   0.151   4.558  0.2222  0.7291 -0.2636
 3170TIP3    H1 9474   3.596   0.094   4.622  0.4657 -0.1940 -1.2093
 3170TIP3    H2 9475   3.495   0.094   4.510  0.9248  1.0995 -1.6425
 3171TIP3   OH2 9476   3.522   2.371   1.868 -0.5643 -0.1829 -0.3710
 3171TIP3    H1 9477   3.610   2.403   1.853  0.2355 -2.6173 -1.3451
 3171TIP3    H2 9478   3.519   2.351   1.962 -0.4662  0.9030 -0.1259
 3172TIP3   OH2 9479   2.068   1.823   2.853 -0.3514 -0.3735 -0.3113
 3172TIP3    H1 9480   2.030   1.910   2.865 -0.0910 -0.1129 -1.3326
 3172TIP3    H2 9481   2.011   1.779   2.791  0.4127 -0.3489 -1.0487
 3173TIP3   OH2 9482   3.238   3.318   2.884  0.6027  0.4763  0.2484
 3173TIP3    H1 9483   3.297   3.274   2.823 -0.1959 -0.1113 -0.1030
 3173TIP3    H2 9484   3.292   3.387   2.923  1.6732 -0.3676  0.3018
 3174TIP3   OH2 9485   6.441   0.302   3.781  0.1279  0.4952  0.7251
 3174TIP3    H1 9486   6.487   0.257   3.852 -0.5960 -0.4975  0.5824
 3174TIP3    H2 9487   6.435   0.237   3.711 -1.7084  0.4931  0.8415
 3175TIP3   OH2 9488   2.541   0.980   5.713  0.1713 -0.0157 -0.1568
 3175TIP3    H1 9489   2.596   0.916   5.757  2.1167  1.3882 -0.3584
 3175TIP3    H2 9490   2.457   0.977   5.758  1.2169 -0.5319  1.8495
 3176TIP3   OH2 9491   3.344   4.728   5.805 -0.1857  0.1494  0.2309
 3176TIP3    H1 9492   3.395   4.769   5.874 -0.0841 -1.6621  1.2964
 3176TIP3    H2 9493   3.262   4.778   5.803  0.5234  1.3669  0.3598
 3177TIP3   OH2 9494   3.715   5.045   4.758  0.1479 -1.0815  0.2286
 3177TIP3    H1 9495   3.640   4.995   4.727 -0.9393  0.7213 -0.1757
 3177TIP3    H2 9496   3.689   5.077   4.844  0.6758 -0.9082  0.3297
 3178TIP3   OH2 9497   4.763   1.295   3.419 -0.1637  0.7401 -0.3907
 3178TIP3    H1 9498   4.669   1.309   3.415 -0.3396 -0.6061 -1.7055
 3178TIP3    H2 9499   4.773   1.208   3.457  0.5162  0.6241 -0.8144
 3179TIP3   OH2 9500   2.158   3.722   2.096 -0.2679 -0.5667 -0.2797
 3179TIP3    H1 9501   2.079   3.680   2.129  0.1903 -1.1339  0.1450
 3179TIP3    H2 9502   2.229   3.665   2.128  0.3840  0.6022  0.4168
 3180TIP3   OH2 9503   1.986   2.014   4.571 -0.2850 -0.0833 -0.2664
 3180TIP3    H1 9504   2.070   2.053   4.550  0.1025 -1.1646 -0.7615
 3180TIP3    H2 9505   1.971   1.949   4.502 -1.6146  0.2344 -0.2982
 3181TIP3   OH2 9506   2.903   1.732   0.989  0.2576 -0.0737  0.0844
 3181TIP3    H1 9507   2.823   1.691   0.957  0.2013 -0.2150  0.3990
 3181TIP3    H2 9508   2.887   1.826   0.978 -1.1266  0.0971  2.7170
 3182TIP3   OH2 9509   6.436   5.519   3.214 -0.2548  0.1178  0.2732
 3182TIP3    H1 9510   6.491   5.589   3.248  0.9874 -0.8190  0.2707
 3182TIP3    H2 9511   6.496   5.446   3.199 -1.0176 -0.0613 -2.4260
 3183TIP3   OH2 9512   1.098   5.627   5.142 -0.1322 -0.3226 -0.3070
 3183TIP3    H1 9513   1.016   5.647   5.096 -0.1710  2.1423  0.7189
 3183TIP3    H2 9514   1.097   5.681   5.220  1.1550 -2.4604  1.3225
 3184TIP3   OH2 9515   6.917   3.081   3.064  0.3181 -0.0132 -0.0506
 3184TIP3    H1 9516   6.968   3.032   3.129 -0.7871 -0.5969  0.4072
 3184TIP3    H2 9517   6.906   3.168   3.103 -0.1055 -0.2780  0.4469
 3185TIP3   OH2 9518   6.116   3.776   1.779  0.4525 -0.1574 -0.0289
 3185TIP3    H1 9519   6.101   3.681   1.785 -0.3189 -0.0325  0.1266
 3185TIP3    H2 9520   6.060   3.813   1.847  2.0580  0.2951  1.1015
 3186TIP3   OH2 9521   3.766   3.988   3.750 -0.4183 -0.5927 -0.3428
 3186TIP3    H1 9522   3.696   3.988   3.686 -0.6100 -0.0163 -0.1314
 3186TIP3    H2 9523   3.801   3.898   3.747 -1.1535 -0.8815 -0.4503
 3187TIP3   OH2 9524   7.152   1.176   0.269 -0.1537  0.7966 -0.0640
 3187TIP3    H1 9525   7.083   1.207   0.210  0.7256  2.4107 -0.2932
 3187TIP3    H2 9526   7.196   1.256   0.299  1.8204 -0.1965 -0.1581
 3188TIP3   OH2 9527   5.658   6.634   5.046 -0.4561  0.7300 -0.4568
 3188TIP3    H1 9528   5.633   6.718   5.007  0.3913  1.3301  0.2430
 3188TIP3    H2 9529   5.632   6.642   5.138  1.7067  1.1725  0.1760
 3189TIP3   OH2 9530   2.816   3.751   3.712 -0.4357  0.8409 -0.4530
 3189TIP3    H1 9531   2.748   3.762   3.645 -1.0395 -0.8735 -0.1483
 3189TIP3    H2 9532   2.834   3.658   3.713  0.7109  1.0564  0.6839
 3190TIP3   OH2 9533   1.971   4.085   1.456 -0.3551  0.3136  0.5118
 3190TIP3    H1 9534   1.922   4.125   1.384 -0.3937 -0.3834  0.1409
 3190TIP3    H2 9535   2.055   4.061   1.418  0.0551  0.9553  0.9928
 3191TIP3   OH2 9536   4.811   5.391   4.711 -0.4822 -0.0648  0.1146
 3191TIP3    H1 9537   4.811   5.296   4.718  0.8767  0.0457  2.2140
 3191TIP3    H2 9538   4.902   5.416   4.720 -0.6067  1.4070 -1.9106
 3192TIP3   OH2 9539   1.872   2.578   0.776  0.1435  0.7391 -0.2662
 3192TIP3    H1 9540   1.813   2.536   0.713 -1.8449 -1.7085  2.9198
 3192TIP3    H2 9541   1.958   2.539   0.759 -0.4833 -0.3672 -0.9911
 3193TIP3   OH2 9542   5.608   1.409   0.040  0.5701  0.1475  0.2141
 3193TIP3    H1 9543   5.684   1.466   0.043  1.1017 -0.4254 -1.5074
 3193TIP3    H2 9544   5.535   1.463   0.071  1.5698  0.8132  1.5104
 3194TIP3   OH2 9545   3.084   4.272   5.832  0.3988  0.1864  0.3802
 3194TIP3    H1 9546   3.147   4.319   5.886  0.2513 -0.5144  1.1765
 3194TIP3    H2 9547   3.023   4.232   5.894 -0.5294  0.4257 -0.3572
 3195TIP3   OH2 9548   5.853   2.134   4.723  0.9742 -0.1194  0.3696
 3195TIP3    H1 9549   5.888   2.197   4.786  1.5283 -0.9629  0.9188
 3195TIP3    H2 9550   5.789   2.083   4.772  1.7745 -1.1137  0.3971
 3196TIP3   OH2 9551   6.148   2.350   3.116 -0.0668  0.0911 -0.5168
 3196TIP3    H1 9552   6.195   2.321   3.038  2.2490 -0.4793  0.9993
 3196TIP3    H2 9553   6.199   2.424   3.149 -0.0946 -0.6583  1.3033
 3197TIP3   OH2 9554   0.887   4.064   2.591  0.0407  0.1141  0.1188
 3197TIP3    H1 9555   0.945   4.138   2.608 -0.4568  0.1855  1.6450
 3197TIP3    H2 9556   0.806   4.086   2.638 -0.7234 -0.6199 -0.8282
 3198TIP3   OH2 9557   2.868   6.430   0.162 -0.7733 -0.0965 -0.4543
 3198TIP3    H1 9558   2.855   6.340   0.191 -0.8482  0.1119  0.2017
 3198TIP3    H2 9559   2.926   6.424   0.087 -1.9727 -0.8120 -1.3661
 3199TIP3   OH2 9560   3.524   3.929   5.271 -0.4440  0.4300 -0.2336
 3199TIP3    H1 9561   3.433   3.910   5.249 -0.0822  0.5048 -1.9185
 3199TIP3    H2 9562   3.519   3.987   5.347 -1.8206  0.9168 -0.6800
 3200TIP3   OH2 9563   6.977   2.042   4.099 -0.2561  0.1815 -0.4354
 3200TIP3    H1 9564   7.048   2.102   4.073  2.0690 -1.8447  0.7990
 3200TIP3    H2 9565   6.920   2.038   4.022  0.7720  2.1266 -1.3907
 3201TIP3   OH2 9566   5.425   2.051   2.005 -0.5308 -0.7450  0.0213
 3201TIP3    H1 9567   5.416   2.141   2.036 -0.9307  0.6775 -3.6432
 3201TIP3    H2 9568   5.335   2.020   1.993 -0.4004 -1.1356  0.0327
 3202TIP3   OH2 9569   4.351   5.478   4.210 -0.4115  0.5887 -0.0307
 3202TIP3    H1 9570   4.291   5.407   4.232 -1.8315  1.8890  0.4655
 3202TIP3    H2 9571   4.316   5.515   4.129  0.5410  0.5078 -0.4964
 3203TIP3   OH2 9572   5.911   6.586   2.410  0.4774 -0.1797  0.3948
 3203TIP3    H1 9573   5.934   6.570   2.501  0.1738 -1.6760  0.2286
 3203TIP3    H2 9574   5.990   6.625   2.372  1.1034 -0.8824  0.9532
 3204TIP3   OH2 9575   4.493   6.372   0.326  0.2929  0.1594 -0.6478
 3204TIP3    H1 9576   4.468   6.331   0.243 -0.0086  3.5099 -2.3772
 3204TIP3    H2 9577   4.589   6.363   0.329  0.1932 -1.0829 -0.6900
 3205TIP3   OH2 9578   6.752   4.791   3.346 -0.2574  0.1181  0.6958
 3205TIP3    H1 9579   6.719   4.852   3.411 -0.9013 -0.0007  0.4878
 3205TIP3    H2 9580   6.818   4.740   3.392  2.4267  2.8289  0.1496
 3206TIP3   OH2 9581   6.001   1.749   0.543 -1.0123  0.0296  0.2370
 3206TIP3    H1 9582   6.004   1.700   0.626  0.0826 -0.8377 -0.2926
 3206TIP3    H2 9583   5.992   1.682   0.476  0.1961  0.5472 -0.4822
 3207TIP3   OH2 9584   2.437   5.474   4.090  0.2812  0.3295  0.7713
 3207TIP3    H1 9585   2.405   5.553   4.046  1.8237  0.8671  0.5658
 3207TIP3    H2 9586   2.358   5.430   4.121 -0.7732  0.7284 -1.1923
 3208TIP3   OH2 9587   2.720   1.313   2.460  0.2572  0.1728 -0.0928
 3208TIP3    H1 9588   2.754   1.356   2.538 -0.6723  1.2623 -0.2650
 3208TIP3    H2 9589   2.640   1.361   2.439 -0.4094 -1.1706 -0.7441
 3209TIP3   OH2 9590   6.653   1.819   3.955 -0.1860  0.0529 -0.2035
 3209TIP3    H1 9591   6.601   1.844   4.031  0.8768 -0.6278  0.7705
 3209TIP3    H2 9592   6.632   1.727   3.940  0.6569 -0.2129  0.1641
 3210TIP3   OH2 9593   0.637   2.684   1.027 -0.1018  0.3286 -0.0292
 3210TIP3    H1 9594   0.547   2.710   1.044  1.0374  2.5586  3.7038
 3210TIP3    H2 9595   0.643   2.594   1.060 -1.1811 -0.3852 -1.6357
 3211TIP3   OH2 9596   4.689   2.923   2.777  0.1821  0.0068 -0.4339
 3211TIP3    H1 9597   4.648   2.964   2.701 -1.3219 -1.4643 -0.4775
 3211TIP3    H2 9598   4.766   2.977   2.796  1.1264 -0.0642 -3.5317
 3212TIP3   OH2 9599   4.420   6.544   4.641  0.0954  0.1068 -0.1715
 3212TIP3    H1 9600   4.403   6.626   4.688  0.6105  0.9332 -1.3779
 3212TIP3    H2 9601   4.333   6.505   4.629 -0.3810  1.3859 -1.1399
 3213TIP3   OH2 9602   3.035   2.697   3.148 -0.0856  0.6842 -0.5297
 3213TIP3    H1 9603   2.999   2.756   3.082 -0.9701 -0.2311 -0.9013
 3213TIP3    H2 9604   2.959   2.656   3.189  0.4824 -0.8382 -0.8933
 3214TIP3   OH2 9605   4.844   6.111   1.604 -0.0664  0.4525 -0.3898
 3214TIP3    H1 9606   4.912   6.084   1.665 -1.6975  0.5328  1.5838
 3214TIP3    H2 9607   4.877   6.191   1.564  1.7336 -0.4796 -0.8535
 3215TIP3   OH2 9608   5.507   1.818   2.133  0.1629  0.1013  0.4586
 3215TIP3    H1 9609   5.544   1.847   2.216 -1.8575  0.4104  1.3082
 3215TIP3    H2 9610   5.500   1.898   2.080  2.2206 -0.2176 -0.3930
 3216TIP3   OH2 9611   4.185   5.542   5.221 -0.1744  0.0197 -0.0022
 3216TIP3    H1 9612   4.276   5.516   5.206  0.5987  0.9801  2.4737
 3216TIP3    H2 9613   4.134   5.463   5.204  1.3110 -0.9921  0.0642
 3217TIP3   OH2 9614   1.219   5.772   4.678 -0.0074 -0.0773  0.2107
 3217TIP3    H1 9615   1.214   5.762   4.773  1.3813 -0.8346  0.2335
 3217TIP3    H2 9616   1.237   5.866   4.665  1.7578 -0.2806  0.8306
 3218TIP3   OH2 9617   2.627   4.363   2.395  0.3126 -0.0526  0.1576
 3218TIP3    H1 9618   2.542   4.403   2.413 -0.2384 -1.3486  0.5705
 3218TIP3    H2 9619   2.615   4.317   2.312  0.6119 -0.2349  0.2136
 3219TIP3   OH2 9620   6.345   5.669   3.492  0.2677  0.1436 -0.6970
 3219TIP3    H1 9621   6.437   5.685   3.508  0.3158  1.9382 -2.4538
 3219TIP3    H2 9622   6.322   5.728   3.420 -2.5935  0.8470  0.6365
 3220TIP3   OH2 9623   0.912   5.812   0.409 -0.2115 -0.4213 -0.3386
 3220TIP3    H1 9624   1.000   5.790   0.440  0.4508  1.3417 -0.8594
 3220TIP3    H2 9625   0.906   5.907   0.420 -0.6908  0.0254 -3.6462
 3221TIP3   OH2 9626   0.391   2.602   0.289 -0.0529  0.1312  0.5226
 3221TIP3    H1 9627   0.348   2.517   0.277 -0.1953  0.2763 -0.0317
 3221TIP3    H2 9628   0.484   2.581   0.295  0.1910  0.1262 -2.1961
 3222TIP3   OH2 9629   4.278   0.386   1.225  0.2555 -0.2362  0.7719
 3222TIP3    H1 9630   4.360   0.339   1.207  0.0723  0.3716 -2.2786
 3222TIP3    H2 9631   4.285   0.466   1.172 -2.3357 -0.2234  0.3517
 3223TIP3   OH2 9632   1.710   4.982   5.019 -0.1596  0.0359  0.3367
 3223TIP3    H1 9633   1.759   4.908   4.984  0.2958 -0.2314  1.4790
 3223TIP3    H2 9634   1.756   5.005   5.100  0.5411  2.4631 -0.6697
 3224TIP3   OH2 9635   5.049   1.789   1.764 -0.3160  0.4914 -0.1058
 3224TIP3    H1 9636   4.979   1.739   1.806 -0.9893  1.6105  0.1701
 3224TIP3    H2 9637   5.115   1.724   1.740  0.5399 -0.1440  3.4704
 3225TIP3   OH2 9638   0.683   4.126   0.423 -0.3446  0.3917  0.1859
 3225TIP3    H1 9639   0.738   4.190   0.378 -0.8619  1.1512  0.6129
 3225TIP3    H2 9640   0.743   4.056   0.447  0.1119  0.4053 -0.8546
 3226TIP3   OH2 9641   1.509   5.330   1.328 -0.6680 -0.1413  0.1382
 3226TIP3    H1 9642   1.495   5.237   1.346  1.8043 -0.6626 -0.2763
 3226TIP3    H2 9643   1.519   5.334   1.233  2.6966 -0.0867  0.3942
 3227TIP3   OH2 9644   3.561   4.893   1.640  0.5430 -0.1614  0.5272
 3227TIP3    H1 9645   3.633   4.831   1.649  2.2134  1.7788  1.4521
 3227TIP3    H2 9646   3.568   4.925   1.550  0.4078 -0.4715  0.4069
 3228TIP3   OH2 9647   7.103   6.270   4.431 -0.4530  0.5433  0.4618
 3228TIP3    H1 9648   7.143   6.318   4.503 -0.0088  1.6257 -0.4688
 3228TIP3    H2 9649   7.012   6.299   4.430 -0.6452 -0.0065  1.0011
 3229TIP3   OH2 9650   5.674   3.026   3.651 -0.1803  0.0658  0.0508
 3229TIP3    H1 9651   5.678   2.997   3.742 -1.8537 -0.3753  0.0246
 3229TIP3    H2 9652   5.633   2.953   3.604  0.0322  0.5581 -0.9401
 3230TIP3   OH2 9653   3.310   6.097   3.257 -0.1859  0.0670  0.2233
 3230TIP3    H1 9654   3.260   6.148   3.193 -0.3487  0.9224  1.0170
 3230TIP3    H2 9655   3.344   6.162   3.318  1.0037 -0.6205  0.3087
 3231TIP3   OH2 9656   3.380   3.762   3.223  0.0304 -0.0008  0.8412
 3231TIP3    H1 9657   3.344   3.678   3.255 -0.6924  0.3334  0.9257
 3231TIP3    H2 9658   3.469   3.765   3.259 -0.3523 -0.1917  1.8400
 3232TIP3   OH2 9659   3.515   6.303   3.825  0.4761  0.1840 -0.5299
 3232TIP3    H1 9660   3.459   6.251   3.883 -0.3710  0.3128 -1.2186
 3232TIP3    H2 9661   3.461   6.321   3.748  0.5188  2.5369 -0.0967
 3233TIP3   OH2 9662   0.508   1.665   2.677 -0.7007  0.0993  0.0950
 3233TIP3    H1 9663   0.418   1.697   2.670  0.0737  2.2295 -1.0760
 3233TIP3    H2 9664   0.541   1.668   2.587  0.5317 -0.6641  0.5143
 3234TIP3   OH2 9665   1.343   3.856   1.656 -0.0830  0.7102 -0.0381
 3234TIP3    H1 9666   1.274   3.876   1.719 -1.0754  1.0042 -1.1900
 3234TIP3    H2 9667   1.298   3.812   1.584  0.7895  1.5710 -1.1500
 3235TIP3   OH2 9668   1.925   4.279   5.328  0.0146  0.0146  0.3803
 3235TIP3    H1 9669   2.000   4.219   5.325 -0.6454 -0.8639  0.9648
 3235TIP3    H2 9670   1.854   4.230   5.286 -0.7458  0.0656  1.5674
 3236TIP3   OH2 9671   3.536   5.952   5.053  0.5029 -0.5196 -0.2116
 3236TIP3    H1 9672   3.541   6.005   5.133  0.6087 -0.2114 -0.4202
 3236TIP3    H2 9673   3.606   5.887   5.063  0.1301 -0.8592  0.2146
 3237TIP3   OH2 9674   2.563   1.711   2.941 -0.4317  0.2476 -0.2802
 3237TIP3    H1 9675   2.538   1.731   2.850  0.6201  1.4998 -0.3267
 3237TIP3    H2 9676   2.490   1.744   2.994 -0.3964  0.8434 -0.5948
 3238TIP3   OH2 9677   4.099   6.176   4.945 -0.3888 -0.2787  0.4851
 3238TIP3    H1 9678   4.183   6.144   4.914  1.0321  0.7971  2.9896
 3238TIP3    H2 9679   4.102   6.270   4.927  0.3844  0.3424  3.4227
 3239TIP3   OH2 9680   0.866   1.649   0.148 -0.0797  0.4016  0.4364
 3239TIP3    H1 9681   0.892   1.627   0.237  1.2015 -0.8864 -0.2059
 3239TIP3    H2 9682   0.771   1.633   0.146 -0.1059  0.3578  1.5365
 3240TIP3   OH2 9683   0.309   4.506   2.376  0.1729 -0.2551 -0.1758
 3240TIP3    H1 9684   0.232   4.489   2.430 -0.7825  2.0715 -0.7118
 3240TIP3    H2 9685   0.383   4.494   2.436 -0.8326  2.0654  1.7174
 3241TIP3   OH2 9686   6.875   3.174   4.460  0.6300 -0.9977  0.3274
 3241TIP3    H1 9687   6.882   3.101   4.522  0.5175  0.3345  1.9899
 3241TIP3    H2 9688   6.962   3.180   4.422  1.0146 -1.2167  1.1338
 3242TIP3   OH2 9689   5.389   4.161   3.487  0.6058 -0.4939 -0.5216
 3242TIP3    H1 9690   5.422   4.071   3.484 -0.1115 -0.8008  0.3874
 3242TIP3    H2 9691   5.456   4.212   3.442  0.3057 -1.6741 -2.4269
 3243TIP3   OH2 9692   6.383   2.379   1.791  0.3875  0.2671  0.1074
 3243TIP3    H1 9693   6.461   2.431   1.772  0.4315 -0.8498 -3.5327
 3243TIP3    H2 9694   6.413   2.288   1.783 -1.1166 -0.1912 -0.5976
 3244TIP3   OH2 9695   1.912   2.117   4.996 -0.7861  0.0454  0.4745
 3244TIP3    H1 9696   1.887   2.154   4.911  0.4988  0.0245  0.0675
 3244TIP3    H2 9697   1.869   2.173   5.060  0.5495  1.8660 -0.1447
 3245TIP3   OH2 9698   4.016   5.815   3.788  0.0258  0.6006 -0.2231
 3245TIP3    H1 9699   4.000   5.839   3.697  0.1108  1.0761 -0.1126
 3245TIP3    H2 9700   4.108   5.836   3.803  0.5605 -1.2955 -0.5962
 3246TIP3   OH2 9701   5.618   4.972   2.774  0.5234  0.2505  0.0935
 3246TIP3    H1 9702   5.603   5.064   2.752  0.7968  0.4320  0.6463
 3246TIP3    H2 9703   5.611   4.926   2.691 -0.3104  0.6777 -0.0880
 3247TIP3   OH2 9704   2.992   6.064   5.647 -0.0713 -0.2393 -0.0931
 3247TIP3    H1 9705   3.074   6.063   5.597  1.1117 -0.5266  1.7435
 3247TIP3    H2 9706   2.965   5.972   5.649  0.5606 -0.4195  0.8048
 3248TIP3   OH2 9707   3.908   1.782   2.031  0.7012 -0.1291  0.5102
 3248TIP3    H1 9708   3.927   1.854   1.971  1.8407  0.2990  1.3377
 3248TIP3    H2 9709   3.994   1.745   2.052  0.1836 -1.3537  0.5650
 3249TIP3   OH2 9710   2.681   4.198   3.441 -0.2787 -0.1697 -0.3704
 3249TIP3    H1 9711   2.588   4.217   3.450 -0.3032 -0.2981 -0.3517
 3249TIP3    H2 9712   2.685   4.103   3.427 -0.2800  0.0396 -2.0366
 3250TIP3   OH2 9713   3.219   0.785   4.856  0.0347 -0.3735  0.2579
 3250TIP3    H1 9714   3.208   0.830   4.940  0.3574  0.0739  0.0613
 3250TIP3    H2 9715   3.242   0.695   4.880 -2.7318 -1.0821  0.7015
 3251TIP3   OH2 9716   7.130   2.272   4.855 -0.2526 -0.8810  0.2459
 3251TIP3    H1 9717   7.130   2.330   4.931 -3.5413 -0.7356  0.3012
 3251TIP3    H2 9718   7.184   2.317   4.790 -1.4650  1.5635  0.8083
 3252TIP3   OH2 9719   2.836   0.533   4.141  0.4922 -0.3251  0.2600
 3252TIP3    H1 9720   2.837   0.449   4.187  2.4452 -0.5859 -0.1866
 3252TIP3    H2 9721   2.870   0.513   4.054  1.0911  0.9528  0.1781
 3253TIP3   OH2 9722   2.958   2.338   0.030  0.2100  0.3351 -0.0101
 3253TIP3    H1 9723   3.023   2.386  -0.021  0.8996 -1.7074 -1.1731
 3253TIP3    H2 9724   3.007   2.300   0.102  0.3376 -1.0589 -0.7875
 3254TIP3   OH2 9725   4.204   5.066   5.820  0.0169  0.7328 -0.4662
 3254TIP3    H1 9726   4.139   5.022   5.875 -0.1576  0.4310 -0.9095
 3254TIP3    H2 9727   4.243   4.997   5.767 -1.2568  1.2603 -2.1845
 3255TIP3   OH2 9728   4.462   4.836   4.832 -0.5795  0.1479  0.0039
 3255TIP3    H1 9729   4.389   4.774   4.833  0.4353 -1.2130  3.3794
 3255TIP3    H2 9730   4.421   4.922   4.819 -2.2978 -0.8940 -1.9827
 3256TIP3   OH2 9731   2.758   2.322   3.460  0.2122 -0.0555  0.1861
 3256TIP3    H1 9732   2.752   2.402   3.512  2.2980 -0.0316  0.4715
 3256TIP3    H2 9733   2.793   2.256   3.519 -3.2175 -1.8168  0.5036
 3257TIP3   OH2 9734   2.684   0.588   0.679 -0.5344 -0.2521  0.5302
 3257TIP3    H1 9735   2.685   0.682   0.665 -1.6598 -0.3314 -0.1968
 3257TIP3    H2 9736   2.596   0.561   0.654 -0.1633 -1.5267  0.5400
 3258TIP3   OH2 9737   0.152   0.018   5.155 -0.0442 -0.0024 -0.6643
 3258TIP3    H1 9738   0.153  -0.036   5.076 -2.4098 -1.0911 -0.0216
 3258TIP3    H2 9739   0.059   0.025   5.178  0.5803  0.1266  2.1232
 3259TIP3   OH2 9740   6.751   6.200   0.193 -0.6844  0.1629 -0.1459
 3259TIP3    H1 9741   6.744   6.226   0.101  0.5617  1.3865  0.0714
 3259TIP3    H2 9742   6.771   6.107   0.190 -3.0567 -0.4146 -1.0138
 3260TIP3   OH2 9743   2.982   1.446   0.951 -1.0461 -0.1060 -0.1269
 3260TIP3    H1 9744   2.967   1.539   0.931  0.2116  0.4455  1.3474
 3260TIP3    H2 9745   3.065   1.425   0.909 -0.0096  0.1909  1.6574
 3261TIP3   OH2 9746   3.564   3.307   2.084  0.0971  0.4696 -0.0262
 3261TIP3    H1 9747   3.614   3.359   2.147 -0.8830 -0.0760  1.2630
 3261TIP3    H2 9748   3.475   3.304   2.121 -0.3632 -0.3781 -1.1374
 3262TIP3   OH2 9749   1.373   3.646   1.076 -0.2535 -0.9718 -0.3199
 3262TIP3    H1 9750   1.429   3.569   1.089  0.8672 -0.1284 -0.0192
 3262TIP3    H2 9751   1.398   3.706   1.147 -0.2919  0.1306 -1.2053
 3263TIP3   OH2 9752   4.291   6.206   2.619  0.3162  0.2177  0.1906
 3263TIP3    H1 9753   4.334   6.120   2.620 -2.2432 -1.1671  0.0017
 3263TIP3    H2 9754   4.228   6.200   2.547 -0.1227  2.1942  0.3550
 3264TIP3   OH2 9755   2.043   6.767   3.814  0.1962  0.4934  0.2998
 3264TIP3    H1 9756   2.030   6.707   3.887 -0.8127 -0.3588 -0.5437
 3264TIP3    H2 9757   1.976   6.742   3.750  2.2465 -0.0812 -1.7693
 3265TIP3   OH2 9758   0.227   3.246   3.074  0.7398  0.1993 -0.3638
 3265TIP3    H1 9759   0.233   3.204   3.159  0.2118  1.3972  0.2898
 3265TIP3    H2 9760   0.274   3.188   3.015  0.3113 -1.1240  0.5619
 3266TIP3   OH2 9761   3.217   6.302   0.000  0.3401  0.2913  0.8681
 3266TIP3    H1 9762   3.230   6.397   0.002 -1.4139  0.5514  1.3008
 3266TIP3    H2 9763   3.247   6.273   0.087  2.4407  0.1671  0.1708
 3267TIP3   OH2 9764   2.696   1.683   1.875 -0.2518 -0.8372  0.1335
 3267TIP3    H1 9765   2.674   1.765   1.919 -0.9673 -0.4246 -0.9487
 3267TIP3    H2 9766   2.617   1.661   1.825 -0.1062 -2.2425  0.4758
 3268TIP3   OH2 9767   2.674   0.223   0.336 -0.4774 -0.1097 -0.3339
 3268TIP3    H1 9768   2.694   0.316   0.337 -1.0517  0.0114 -0.1529
 3268TIP3    H2 9769   2.579   0.218   0.334 -0.4750 -0.6944  0.4885
 3269TIP3   OH2 9770   0.058   6.292   5.896  0.7958 -0.3118 -0.1116
 3269TIP3    H1 9771   0.024   6.214   5.852 -0.4016 -0.6981  1.4043
 3269TIP3    H2 9772   0.061   6.359   5.828  0.7873 -1.3768 -1.1901
 3270TIP3   OH2 9773   5.866   0.440   4.725  0.5235  0.5939 -0.2965
 3270TIP3    H1 9774   5.927   0.381   4.680  0.4867  0.6911 -0.4755
 3270TIP3    H2 9775   5.781   0.399   4.715  0.4850  0.7199 -0.4964
 3271TIP3   OH2 9776   3.509   5.839   0.545 -0.5260  0.2080 -0.5204
 3271TIP3    H1 9777   3.424   5.821   0.584 -0.6066  1.2822 -0.1519
 3271TIP3    H2 9778   3.489   5.886   0.464 -0.3703 -2.2763 -2.0714
 3272TIP3   OH2 9779   0.875   1.477   2.012 -0.3768 -0.1107 -0.1266
 3272TIP3    H1 9780   0.791   1.503   2.050  0.2036  0.6655  0.6768
 3272TIP3    H2 9781   0.934   1.470   2.087 -0.1759 -2.5980 -0.4566
 3273TIP3   OH2 9782   5.828   4.766   4.077  0.3892  0.4101  0.2839
 3273TIP3    H1 9783   5.763   4.758   4.007  0.1588  2.8591  0.1428
 3273TIP3    H2 9784   5.823   4.683   4.123 -0.4918 -0.7306 -1.7085
 3274TIP3   OH2 9785   6.452   4.247   2.745  0.5600 -0.0801  0.2376
 3274TIP3    H1 9786   6.376   4.245   2.804 -0.0289  0.4003 -0.4776
 3274TIP3    H2 9787   6.507   4.318   2.779  0.4569 -0.1202  0.4895
 3275TIP3   OH2 9788   6.764   2.590   3.999 -0.5226  0.6078 -0.4440
 3275TIP3    H1 9789   6.803   2.645   3.932 -0.2551  0.0233 -0.7821
 3275TIP3    H2 9790   6.688   2.638   4.030  1.1254  2.3933  1.1284
 3276TIP3   OH2 9791   4.285   0.622   1.059  0.2006  0.0786 -0.2153
 3276TIP3    H1 9792   4.338   0.698   1.082  0.4990 -1.0406  3.3805
 3276TIP3    H2 9793   4.328   0.585   0.983  4.5926 -0.5680  2.2698
 3277TIP3   OH2 9794   4.908   4.296   4.961  0.3304 -0.6967 -0.2947
 3277TIP3    H1 9795   4.840   4.259   4.906 -2.7112  1.0302  1.9887
 3277TIP3    H2 9796   4.915   4.387   4.932  3.0146 -1.2245 -1.5869
 3278TIP3   OH2 9797   6.068   1.370   0.936  0.5027  0.1034 -0.4787
 3278TIP3    H1 9798   6.053   1.276   0.942 -0.7207  0.3541  1.4030
 3278TIP3    H2 9799   5.982   1.407   0.914  0.2723  0.9490  1.6243
 3279TIP3   OH2 9800   0.511   0.373   4.978 -0.3174  0.0918 -0.6894
 3279TIP3    H1 9801   0.459   0.398   4.901 -3.0821  1.4279  1.4600
 3279TIP3    H2 9802   0.507   0.277   4.979 -2.6396  0.1292 -0.7490
 3280TIP3   OH2 9803   0.868   0.080   1.754  0.0917  0.0278 -0.0626
 3280TIP3    H1 9804   0.799   0.144   1.772 -0.2549 -0.5824  0.8401
 3280TIP3    H2 9805   0.930   0.127   1.698 -0.9599  0.6448 -0.7526
 3281TIP3   OH2 9806   3.350   1.558   2.098  0.6212 -0.1321  0.7890
 3281TIP3    H1 9807   3.367   1.632   2.157  2.0121 -1.3305  1.9662
 3281TIP3    H2 9808   3.425   1.500   2.110 -0.4702 -1.7888 -0.0401
 3282TIP3   OH2 9809   3.216   5.541   5.454 -0.0184  0.1480 -0.1770
 3282TIP3    H1 9810   3.187   5.504   5.370  0.7434 -0.5882 -0.1326
 3282TIP3    H2 9811   3.181   5.481   5.520  0.5794 -0.0826 -0.0601
 3283TIP3   OH2 9812   6.246   6.155   1.764  0.1501 -0.0984 -0.6250
 3283TIP3    H1 9813   6.338   6.143   1.786  0.0228 -1.1183 -0.5846
 3283TIP3    H2 9814   6.199   6.130   1.844 -0.1189  4.2646  0.8588
 3284TIP3   OH2 9815   2.519   1.805   3.400  0.3295 -0.5831 -0.1641
 3284TIP3    H1 9816   2.556   1.717   3.402  0.5367 -0.4870  0.2877
 3284TIP3    H2 9817   2.544   1.843   3.483 -0.9781 -0.6007  0.2626
 3285TIP3   OH2 9818   6.946   1.227   5.071 -0.4363  0.3463  0.1612
 3285TIP3    H1 9819   6.942   1.169   4.994  0.7208 -0.0628  0.3857
 3285TIP3    H2 9820   7.011   1.186   5.128 -1.9215  0.1544  1.7964
 3286TIP3   OH2 9821   3.102   4.755   4.273  0.3056  0.8021 -0.2788
 3286TIP3    H1 9822   3.167   4.756   4.203 -0.5496 -0.5595 -1.1279
 3286TIP3    H2 9823   3.024   4.794   4.234 -0.3275 -0.4119 -0.2728
 3287TIP3   OH2 9824   0.678   1.727   5.779 -0.2811 -0.2551 -0.1086
 3287TIP3    H1 9825   0.655   1.635   5.768  1.9539 -0.7284 -1.2826
 3287TIP3    H2 9826   0.646   1.769   5.699  2.0548 -0.7856 -1.4087
 3288TIP3   OH2 9827   4.635   1.049   4.698  0.4165 -0.5273 -0.1575
 3288TIP3    H1 9828   4.680   0.965   4.710  2.2669  0.3695 -0.4169
 3288TIP3    H2 9829   4.645   1.093   4.782 -0.4988 -0.5281 -0.0420
 3289TIP3   OH2 9830   4.362   5.420   5.485  0.2855 -0.6543 -0.1679
 3289TIP3    H1 9831   4.285   5.368   5.510  1.9779 -2.7509  1.0412
 3289TIP3    H2 9832   4.430   5.393   5.546  1.9611  1.2813 -1.0594
 3290TIP3   OH2 9833   3.924   4.145   2.935 -0.1441 -0.2171 -0.5681
 3290TIP3    H1 9834   3.893   4.078   2.995  1.6085  0.1793  0.8972
 3290TIP3    H2 9835   3.996   4.103   2.887 -1.3265 -0.4353 -2.2508
 3291TIP3   OH2 9836   4.752   6.460   3.624  0.4702 -0.7981  0.0651
 3291TIP3    H1 9837   4.760   6.506   3.541 -0.2403  0.4155  0.6276
 3291TIP3    H2 9838   4.810   6.508   3.684 -1.5177  0.4712  1.0789
 3292TIP3   OH2 9839   6.976   3.868   0.885 -0.3849 -0.2610 -0.0900
 3292TIP3    H1 9840   6.938   3.786   0.854  0.9912 -1.0104  0.1311
 3292TIP3    H2 9841   7.064   3.870   0.847 -0.3236  1.0293  0.0557
 3293TIP3   OH2 9842   2.195   4.175   3.996 -0.1625  0.4825 -0.1161
 3293TIP3    H1 9843   2.288   4.192   3.983  0.0029 -0.2259  0.0929
 3293TIP3    H2 9844   2.190   4.132   4.081 -0.6676  0.3617 -0.2033
 3294TIP3   OH2 9845   2.169   5.145   3.904 -0.4879 -0.2452  0.3418
 3294TIP3    H1 9846   2.168   5.204   3.979 -0.4793 -0.2826  0.3716
 3294TIP3    H2 9847   2.107   5.183   3.842  0.3233  0.3856 -0.0963
 3295TIP3   OH2 9848   1.425   1.094   5.513  0.1554  0.4680 -0.2935
 3295TIP3    H1 9849   1.442   1.188   5.507 -0.1488  0.4830 -1.1265
 3295TIP3    H2 9850   1.353   1.079   5.452 -0.7642 -0.0810  0.8849
 3296TIP3   OH2 9851   1.475   5.429   2.715  0.0874  0.0008  0.3037
 3296TIP3    H1 9852   1.491   5.334   2.712 -1.1089 -0.2049 -0.1820
 3296TIP3    H2 9853   1.526   5.465   2.643  0.7813 -0.2297  0.6715
 3297TIP3   OH2 9854   2.472   5.298   2.522  0.0654  0.1026 -0.4148
 3297TIP3    H1 9855   2.385   5.278   2.557 -1.1637  1.9018 -2.2042
 3297TIP3    H2 9856   2.505   5.214   2.490 -2.1949 -0.2263 -2.0988
 3298TIP3   OH2 9857   3.644   6.778   2.755 -0.0530  0.4586 -0.2509
 3298TIP3    H1 9858   3.590   6.829   2.695 -0.8827 -0.6058 -0.4414
 3298TIP3    H2 9859   3.582   6.748   2.822  0.6856  0.8488  0.6256
 3299TIP3   OH2 9860   3.869   0.168   4.681 -0.3747 -0.1103  0.5189
 3299TIP3    H1 9861   3.869   0.230   4.608  0.3343 -1.0493 -0.3075
 3299TIP3    H2 9862   3.877   0.223   4.759  0.7767  0.8142 -0.2215
 3300TIP3   OH2 9863   2.110   0.731   0.050 -0.0691 -0.1894  0.1894
 3300TIP3    H1 9864   2.094   0.737  -0.044  0.2646  2.1014  0.2073
 3300TIP3    H2 9865   2.042   0.787   0.089 -0.7265 -1.7666  1.4071
 3301TIP3   OH2 9866   2.101   0.778   2.873 -0.2841 -0.3897  0.5710
 3301TIP3    H1 9867   2.154   0.721   2.817  0.0574  1.1367 -0.7412
 3301TIP3    H2 9868   2.012   0.767   2.841  0.0755  1.4767 -1.2812
 3302TIP3   OH2 9869   4.954   6.739   4.877  0.5372  0.0596 -0.0303
 3302TIP3    H1 9870   4.896   6.799   4.829  1.6621  0.8612 -0.4248
 3302TIP3    H2 9871   4.940   6.654   4.835  0.3706  0.4394 -0.7669
 3303TIP3   OH2 9872   5.996   2.690   1.965 -0.0686  0.1400  0.2694
 3303TIP3    H1 9873   6.078   2.668   1.922  0.2294 -2.2241  1.8553
 3303TIP3    H2 9874   5.933   2.702   1.893  1.4691  1.4654 -0.9325
 3304TIP3   OH2 9875   1.299   2.695   3.818 -0.3936  0.1019  0.2923
 3304TIP3    H1 9876   1.278   2.639   3.893  0.0372  0.4382  0.6696
 3304TIP3    H2 9877   1.298   2.784   3.854 -2.2751  0.4686 -0.5542
 3305TIP3   OH2 9878   7.045   2.775   2.673  0.5745  0.0979 -0.0490
 3305TIP3    H1 9879   7.087   2.824   2.602 -1.4165  0.0428 -1.3779
 3305TIP3    H2 9880   6.985   2.839   2.712 -1.5431 -0.9824 -1.3487
 3306TIP3   OH2 9881   0.336   4.682   4.763  0.1554  0.0437 -0.3203
 3306TIP3    H1 9882   0.397   4.742   4.721 -0.6331  0.9181 -0.2620
 3306TIP3    H2 9883   0.259   4.736   4.782 -0.5390 -0.9632 -0.1766
 3307TIP3   OH2 9884   6.024   4.630   0.412  0.2630  0.0065  0.2117
 3307TIP3    H1 9885   6.064   4.618   0.499 -0.3345 -3.6814  0.1282
 3307TIP3    H2 9886   6.090   4.596   0.351 -1.0536 -1.6777 -0.3308
 3308TIP3   OH2 9887   2.680   3.926   2.591 -0.2577  0.3098  0.4136
 3308TIP3    H1 9888   2.748   3.969   2.643  0.7279  0.6875 -1.0946
 3308TIP3    H2 9889   2.598   3.951   2.633  0.3777  2.3891  0.5326
 3309TIP3   OH2 9890   5.034   0.297   3.145  0.3523  0.2274  0.1263
 3309TIP3    H1 9891   5.047   0.205   3.120  0.0152 -0.2146  1.4657
 3309TIP3    H2 9892   5.084   0.306   3.226  0.3335  1.2291  0.0333
 3310TIP3   OH2 9893   4.455   5.330   3.436  0.2177  0.3826  0.1557
 3310TIP3    H1 9894   4.375   5.382   3.448  0.1472  0.4601 -0.5496
 3310TIP3    H2 9895   4.522   5.376   3.485 -0.0997  0.5070  0.4756
 3311TIP3   OH2 9896   2.694   1.861   3.179  0.5886 -0.0879  0.0976
 3311TIP3    H1 9897   2.636   1.843   3.253  1.3996 -0.2261  0.7142
 3311TIP3    H2 9898   2.715   1.954   3.186 -0.7911  0.3484 -1.0465
 3312TIP3   OH2 9899   2.158   1.895   1.811 -0.2715  0.0816  0.4189
 3312TIP3    H1 9900   2.170   1.982   1.848 -0.5744  0.6077 -0.6930
 3312TIP3    H2 9901   2.214   1.838   1.865  2.3090  1.4203 -0.6890
 3313TIP3   OH2 9902   5.028   1.202   3.950  0.3038 -0.3027  0.1790
 3313TIP3    H1 9903   4.938   1.182   3.977  0.4429 -0.7917  0.2963
 3313TIP3    H2 9904   5.055   1.271   4.010 -0.0824  0.0264 -0.0223
 3314TIP3   OH2 9905   5.762   2.388   3.938 -0.2428 -0.2617  0.2697
 3314TIP3    H1 9906   5.785   2.367   3.848 -3.1803  1.6753 -1.1004
 3314TIP3    H2 9907   5.750   2.483   3.938 -1.9414 -0.3972  2.2524
 3315TIP3   OH2 9908   1.091   3.593   5.370 -0.0497  0.5182 -0.2067
 3315TIP3    H1 9909   1.116   3.519   5.314  1.6760 -0.0228  1.1961
 3315TIP3    H2 9910   1.125   3.670   5.326  0.6753  0.1706 -0.2673
 3316TIP3   OH2 9911   6.532   6.022   5.135  0.5167 -0.2885 -0.0068
 3316TIP3    H1 9912   6.590   5.991   5.205  0.1574  2.2132  1.5335
 3316TIP3    H2 9913   6.446   5.987   5.157  0.8325 -1.5090 -0.6136
 3317TIP3   OH2 9914   0.034   0.898   4.304  0.4521 -0.7051 -0.8140
 3317TIP3    H1 9915   0.057   0.818   4.350  1.1558  0.3229  0.6794
 3317TIP3    H2 9916  -0.032   0.940   4.359 -0.1439 -0.3884 -1.7344
 3318TIP3   OH2 9917   0.539   0.487   1.703 -0.1295  0.2018  0.8417
 3318TIP3    H1 9918   0.459   0.519   1.662 -0.4572  0.3344  1.5695
 3318TIP3    H2 9919   0.509   0.445   1.784  0.2554 -2.1727 -0.1758
 3319TIP3   OH2 9920   4.392   2.457   4.668  0.1187  0.0333 -0.0117
 3319TIP3    H1 9921   4.421   2.368   4.688 -0.1707 -0.0967 -0.1699
 3319TIP3    H2 9922   4.462   2.493   4.614  0.3869  0.0136  0.3167
 3320TIP3   OH2 9923   3.013   4.794   3.773  0.3646  0.4756  0.2598
 3320TIP3    H1 9924   2.946   4.823   3.710 -0.4195 -0.4528  0.6399
 3320TIP3    H2 9925   3.039   4.873   3.819 -0.3003  0.8900 -0.0648
 3321TIP3   OH2 9926   0.502   6.015   0.580  0.2451 -0.3290 -0.0049
 3321TIP3    H1 9927   0.542   6.033   0.494  0.4301  0.1497  0.1803
 3321TIP3    H2 9928   0.436   5.949   0.561  0.8848 -0.8777 -0.3743
 3322TIP3   OH2 9929   6.948   6.259   2.702 -0.0502  0.3964 -0.1008
 3322TIP3    H1 9930   7.040   6.277   2.722 -0.0635 -0.7433  1.1487
 3322TIP3    H2 9931   6.920   6.335   2.651  1.4483  1.0010 -0.0999
 3323TIP3   OH2 9932   5.689   2.084   3.145 -0.1996  1.1750 -0.0986
 3323TIP3    H1 9933   5.618   2.084   3.209  0.0297 -0.5964  0.1998
 3323TIP3    H2 9934   5.744   2.159   3.169 -1.3594  1.8971  0.3426
 3324TIP3   OH2 9935   6.272   2.256   4.045 -0.3878  0.1557 -0.3297
 3324TIP3    H1 9936   6.262   2.166   4.075 -0.3047  0.5017  0.7926
 3324TIP3    H2 9937   6.346   2.254   3.985  0.7541 -0.2560  1.0250
 3325TIP3   OH2 9938   3.921   6.115   0.940 -0.3096 -0.0500  0.3332
 3325TIP3    H1 9939   3.874   6.055   0.882  0.1855  0.4708 -0.6395
 3325TIP3    H2 9940   3.862   6.129   1.013  0.0689 -2.7400  1.2762
 3326TIP3   OH2 9941   6.696   0.983   2.317  0.2202  0.1320 -0.5267
 3326TIP3    H1 9942   6.605   0.956   2.330  0.0316  0.7053 -0.5991
 3326TIP3    H2 9943   6.741   0.958   2.398 -0.1546  0.4601 -0.2158
 3327TIP3   OH2 9944   6.309   1.398   3.488  0.0214  0.3781  0.3348
 3327TIP3    H1 9945   6.215   1.415   3.476 -0.0954  0.9179  1.7837
 3327TIP3    H2 9946   6.347   1.484   3.504  0.5640  0.0384  0.9375
 3328TIP3   OH2 9947   2.464   4.971   5.495  0.2637 -0.4863  0.2588
 3328TIP3    H1 9948   2.416   5.050   5.520 -0.3946 -1.1088  1.0338
 3328TIP3    H2 9949   2.418   4.900   5.540 -0.7959 -1.6663 -2.4825
 3329TIP3   OH2 9950   1.176   0.132   5.192  0.4093 -0.2128 -0.3724
 3329TIP3    H1 9951   1.143   0.136   5.282  1.3205  0.0388 -0.0354
 3329TIP3    H2 9952   1.270   0.119   5.202  0.7824  1.4667 -1.2625
 3330TIP3   OH2 9953   0.425   5.794   0.192  0.4870 -0.2309 -0.2296
 3330TIP3    H1 9954   0.351   5.814   0.134  2.1304 -0.5910 -2.6293
 3330TIP3    H2 9955   0.400   5.714   0.237 -1.0220  0.2701 -0.1194
 3331TIP3   OH2 9956   2.604   3.509   2.674  0.0397 -0.1491 -0.0910
 3331TIP3    H1 9957   2.625   3.518   2.766 -0.0187  0.7889 -0.1607
 3331TIP3    H2 9958   2.600   3.415   2.659 -1.1972 -0.3225  1.1552
 3332TIP3   OH2 9959   5.369   0.692   3.073 -0.3013 -0.0225 -0.2755
 3332TIP3    H1 9960   5.320   0.686   3.155  0.4830 -0.9636  0.1430
 3332TIP3    H2 9961   5.328   0.629   3.015 -0.7850  0.5631 -0.5798
 3333TIP3   OH2 9962   4.494   6.325   1.433  0.3566 -0.1996  0.1078
 3333TIP3    H1 9963   4.453   6.381   1.500  0.2414 -0.4495  0.2468
 3333TIP3    H2 9964   4.466   6.236   1.455  1.0279 -0.3854  0.2412
 3334TIP3   OH2 9965   3.141   5.923   4.045  0.7363  0.1735  0.2703
 3334TIP3    H1 9966   3.136   5.828   4.039  3.6110 -0.0928  0.9252
 3334TIP3    H2 9967   3.093   5.954   3.968 -0.5527 -1.7610  0.2378
 3335TIP3   OH2 9968   3.829   0.277   2.610  0.1254 -0.5736 -0.0395
 3335TIP3    H1 9969   3.826   0.310   2.520  0.1842  1.2701  0.5954
 3335TIP3    H2 9970   3.893   0.205   2.607  0.0335 -0.6189 -1.4881
 3336TIP3   OH2 9971   2.279   0.924   5.767 -0.1231  0.2018  0.5347
 3336TIP3    H1 9972   2.185   0.910   5.767 -0.0922 -0.0321  1.3128
 3336TIP3    H2 9973   2.317   0.838   5.785  0.2052  0.4558  1.1015
 3337TIP3   OH2 9974   5.009   2.860   4.824 -0.4728 -0.5469  0.8655
 3337TIP3    H1 9975   5.069   2.851   4.899  2.8036 -3.0000 -1.7309
 3337TIP3    H2 9976   4.985   2.770   4.802 -0.4012 -0.0174 -1.6630
 3338TIP3   OH2 9977   2.412   6.454   4.098  0.1377  0.1784  0.2988
 3338TIP3    H1 9978   2.471   6.471   4.172  0.2721 -0.7891  0.4255
 3338TIP3    H2 9979   2.462   6.398   4.040  0.0448  0.9709 -0.5711
 3339TIP3   OH2 9980   1.065   2.771   3.341  0.6424  0.1991 -0.3896
 3339TIP3    H1 9981   1.149   2.735   3.313  2.5742  2.7574  1.6693
 3339TIP3    H2 9982   1.061   2.755   3.435 -1.0897  0.3773 -0.3868
 3340TIP3   OH2 9983   4.770   3.070   5.098  0.3581 -0.5293  0.0598
 3340TIP3    H1 9984   4.772   2.989   5.046 -0.3240  0.8851 -2.3034
 3340TIP3    H2 9985   4.755   3.139   5.034 -0.8066  1.3257  2.2048
 3341TIP3   OH2 9986   3.593   2.850   4.984 -0.1918  0.2473 -0.6459
 3341TIP3    H1 9987   3.549   2.781   4.934 -0.8173 -2.3785  3.0680
 3341TIP3    H2 9988   3.540   2.928   4.970 -2.5583 -1.3311 -1.0461
 3342TIP3   OH2 9989   6.020   3.268   5.244 -0.0049 -0.1051  0.4120
 3342TIP3    H1 9990   6.016   3.206   5.317  1.8350  1.1104  1.6186
 3342TIP3    H2 9991   6.107   3.306   5.249 -0.1081  0.5998 -1.9759
 3343TIP3   OH2 9992   2.742   0.385   5.739 -0.2958  0.1562  0.3760
 3343TIP3    H1 9993   2.681   0.455   5.761 -0.3240  0.3905 -0.4008
 3343TIP3    H2 9994   2.822   0.406   5.788  0.2381  1.6263 -1.0446
 3344TIP3   OH2 9995   5.011   5.759   2.844 -0.2347 -0.0557  0.3250
 3344TIP3    H1 9996   5.061   5.840   2.854  1.6038 -0.8997 -1.3624
 3344TIP3    H2 9997   5.043   5.701   2.912  1.1166 -0.5713 -0.7129
 3345TIP3   OH2 9998   4.528   2.532   5.804  0.2747 -0.0185 -0.1169
 3345TIP3    H1 9999   4.471   2.553   5.730 -0.9471  0.5662  0.9321
 3345TIP3    H210000   4.600   2.483   5.766 -0.9096 -0.7593 -1.5327
 3346TIP3   OH210001   3.514   5.967   0.299  0.4632 -0.0212  0.2083
 3346TIP3    H110002   3.525   5.919   0.217 -0.1265  0.4140 -0.1283
 3346TIP3    H210003   3.574   6.042   0.290  1.7976 -0.9509  0.9603
 3347TIP3   OH210004   1.326   2.417   5.736  0.3837  0.4267  0.1288
 3347TIP3    H110005   1.324   2.431   5.831 -0.5315  1.2418  0.0116
 3347TIP3    H210006   1.279   2.493   5.700 -0.8002 -0.7277 -0.8666
 3348TIP3   OH210007   1.081   5.967   3.769 -0.1016 -0.1026  0.1766
 3348TIP3    H110008   1.166   5.981   3.810  0.2843 -0.4950 -0.4661
 3348TIP3    H210009   1.097   5.898   3.704 -0.9359 -0.2619  0.1295
 3349TIP3   OH210010   0.043   0.487   4.702 -0.0561  0.1173  0.1986
 3349TIP3    H110011   0.042   0.583   4.700  0.3314  0.1885  1.7283
 3349TIP3    H210012   0.057   0.466   4.795  2.3846 -1.4116 -0.4548
 3350TIP3   OH210013   6.135   3.159   2.160  0.0270 -0.3790 -0.6521
 3350TIP3    H110014   6.216   3.108   2.157  0.1080 -0.3313  0.4999
 3350TIP3    H210015   6.162   3.249   2.141  0.3991 -0.2075  0.6083
 3351TIP3   OH210016   5.886   4.951   3.412 -0.3262 -0.0616 -0.0746
 3351TIP3    H110017   5.855   4.990   3.494 -0.8751 -1.1886  0.2819
 3351TIP3    H210018   5.982   4.955   3.418 -0.3691  0.3912  0.3595
 3352TIP3   OH210019   6.945   0.498   3.857  0.6732 -0.1796  0.0852
 3352TIP3    H110020   7.004   0.557   3.809 -0.9130  1.5807  0.2069
 3352TIP3    H210021   6.875   0.479   3.794  0.4624 -0.8221  0.5124
 3353TIP3   OH210022   6.556   6.283   1.692  0.0278 -0.0332  0.1309
 3353TIP3    H110023   6.651   6.299   1.694 -0.1963  1.3487  0.7921
 3353TIP3    H210024   6.536   6.245   1.777  0.0698 -0.9182 -0.2450
 3354TIP3   OH210025   6.174   5.355   4.092  0.7495  0.1782  0.4260
 3354TIP3    H110026   6.207   5.424   4.034  1.0311  0.7357  1.2245
 3354TIP3    H210027   6.175   5.276   4.038  1.4766  0.5791 -0.1827
 3355TIP3   OH210028   6.051   2.847   5.060  0.6720 -0.0010 -0.1596
 3355TIP3    H110029   6.123   2.813   5.113  0.7932 -0.8250 -0.8434
 3355TIP3    H210030   6.087   2.923   5.016  0.6946  0.4417  0.5970
 3356TIP3   OH210031   6.116   6.265   2.934  0.3872  0.2436  0.1283
 3356TIP3    H110032   6.037   6.286   2.884  0.1197  0.3589  0.5878
 3356TIP3    H210033   6.090   6.192   2.990  0.4193  0.6841  0.7314
 3357TIP3   OH210034   4.465   6.140   4.604 -0.1109 -0.3745 -0.6194
 3357TIP3    H110035   4.386   6.193   4.615 -0.3806 -0.6496 -1.1846
 3357TIP3    H210036   4.535   6.193   4.640 -0.2403  0.7310 -1.9220
 3358TIP3   OH210037   1.296   1.459   3.690  0.0053  0.2343  0.8401
 3358TIP3    H110038   1.238   1.516   3.740 -0.3220  0.4726  0.1908
 3358TIP3    H210039   1.363   1.432   3.753  0.2617  1.4665  1.1254
 3359TIP3   OH210040   1.240   3.004   0.138 -0.2396  0.0874  0.1712
 3359TIP3    H110041   1.304   3.025   0.206 -0.3435 -0.6271  0.5014
 3359TIP3    H210042   1.156   3.028   0.177 -0.1958  0.7844 -0.1629
 3360TIP3   OH210043   3.656   0.975   3.222 -0.0273  0.1407  0.6310
 3360TIP3    H110044   3.635   1.068   3.212 -1.3494 -0.3433 -2.0165
 3360TIP3    H210045   3.746   0.974   3.253  0.4856  2.3087 -0.6014
 3361TIP3   OH210046   2.744   3.436   1.749  0.7634  0.5750 -0.1976
 3361TIP3    H110047   2.697   3.519   1.760 -0.1299 -0.0180  0.5925
 3361TIP3    H210048   2.682   3.380   1.701  0.3674 -0.4281  1.4191
 3362TIP3   OH210049   2.144   1.405   1.515  0.0131  0.1364 -0.0909
 3362TIP3    H110050   2.160   1.497   1.495 -0.2312  0.0820 -0.5454
 3362TIP3    H210051   2.166   1.359   1.434  2.2864 -0.4520  0.7931
 3363TIP3   OH210052   7.022   1.381   0.819 -0.0529  0.0345  0.0670
 3363TIP3    H110053   6.989   1.441   0.752 -0.3613 -0.1309  0.0686
 3363TIP3    H210054   6.962   1.306   0.816  0.1587 -0.1457  0.2632
 3364TIP3   OH210055   0.979   2.988   2.452 -0.4802 -0.0664  0.2364
 3364TIP3    H110056   0.997   3.081   2.470  0.0674 -0.0771 -0.2416
 3364TIP3    H210057   0.998   2.944   2.535 -0.0680  0.1633  0.2685
 3365TIP3   OH210058   3.196   2.565   0.183  0.3006  0.2772  0.1046
 3365TIP3    H110059   3.166   2.586   0.095 -0.6067  0.0434  0.3518
 3365TIP3    H210060   3.118   2.574   0.238  0.7711  0.0458  0.8202
 3366TIP3   OH210061   6.606   5.671   3.530  0.2278  0.0755  0.7400
 3366TIP3    H110062   6.682   5.638   3.482 -0.3154 -1.3266  0.8084
 3366TIP3    H210063   6.636   5.755   3.566  1.1415  0.4079 -0.7276
 3367TIP3   OH210064   3.208   0.336   0.123  0.1297  0.1036 -0.0498
 3367TIP3    H110065   3.207   0.365   0.214  0.8937  0.6244 -0.2053
 3367TIP3    H210066   3.231   0.414   0.072  0.4782 -0.3588 -0.6208
 3368TIP3   OH210067   2.486   6.559   0.196 -0.2970 -0.1938 -0.6214
 3368TIP3    H110068   2.448   6.473   0.178 -0.5422 -0.3284  0.4521
 3368TIP3    H210069   2.545   6.543   0.270 -2.9562  1.1272  1.9989
 3369TIP3   OH210070   2.354   5.647   1.194  0.3052  0.0215  0.2934
 3369TIP3    H110071   2.344   5.739   1.218 -0.3656 -0.1505  0.7026
 3369TIP3    H210072   2.323   5.644   1.103 -0.4362  0.0678  0.5331
 3370TIP3   OH210073   6.784   5.272   0.441  0.2910  0.0510 -0.0469
 3370TIP3    H110074   6.777   5.270   0.537 -3.2539 -1.1683 -0.1677
 3370TIP3    H210075   6.729   5.347   0.415  0.1449 -0.4201 -1.1442
 3371TIP3   OH210076   7.141   4.759   2.129  0.3791 -0.6841 -0.0243
 3371TIP3    H110077   7.180   4.844   2.149 -3.1548  1.1571 -0.0795
 3371TIP3    H210078   7.131   4.716   2.214 -0.2059  0.1293  0.3225
 3372TIP3   OH210079   5.589   3.798   0.896 -0.0328  0.3447 -0.6152
 3372TIP3    H110080   5.656   3.737   0.865 -1.0589 -1.4190  0.4987
 3372TIP3    H210081   5.532   3.812   0.821 -1.1281 -1.9872 -0.2915
 3373TIP3   OH210082   5.209   1.399   0.303 -0.1777  0.0754  0.0337
 3373TIP3    H110083   5.230   1.314   0.343 -3.6473 -2.1281 -2.3027
 3373TIP3    H210084   5.137   1.433   0.356 -1.4557 -0.4441 -1.3218
 3374TIP3   OH210085   6.900   6.718   5.605 -0.8597  0.0936 -0.3511
 3374TIP3    H110086   6.942   6.711   5.519 -1.5968  0.7822 -0.7767
 3374TIP3    H210087   6.971   6.744   5.664 -0.0001 -1.8619 -0.4239
 3375TIP3   OH210088   6.607   0.162   0.892  0.0389  0.2347 -0.4010
 3375TIP3    H110089   6.613   0.228   0.823 -0.1128  0.4667 -0.1957
 3375TIP3    H210090   6.558   0.090   0.852  0.6859  0.0162 -0.7990
 3376TIP3   OH210091   3.132   6.628   5.473 -0.2128 -0.5425 -0.1374
 3376TIP3    H110092   3.102   6.714   5.502 -1.5801 -1.5163  1.5409
 3376TIP3    H210093   3.091   6.616   5.387  0.7765  0.8255 -0.8404
 3377TIP3   OH210094   6.442   1.388   0.573  0.7260 -0.1045 -0.3224
 3377TIP3    H110095   6.490   1.466   0.546  1.5893 -0.7728 -0.7873
 3377TIP3    H210096   6.412   1.348   0.491 -0.4826  0.1927 -0.0478
 3378TIP3   OH210097   5.448   3.440   0.589  0.2309 -0.4415  0.4242
 3378TIP3    H110098   5.398   3.499   0.645  0.6076  0.7906 -0.4852
 3378TIP3    H210099   5.488   3.377   0.649 -0.9092 -0.3321  1.3349
 3379TIP3   OH210100   5.115   1.302   1.424  0.0189 -0.8645  0.1412
 3379TIP3    H110101   5.065   1.327   1.502 -0.0580 -2.4308  0.6248
 3379TIP3    H210102   5.200   1.344   1.435 -0.8335  1.0321 -0.2134
 3380TIP3   OH210103   0.575   3.179   1.799  0.7156 -0.2521  0.5487
 3380TIP3    H110104   0.503   3.179   1.736  0.8697 -0.0746  0.3721
 3380TIP3    H210105   0.533   3.159   1.883  0.8707 -3.2782  0.0153
 3381TIP3   OH210106   2.047   4.183   2.886  0.2557 -0.4166  0.1259
 3381TIP3    H110107   2.087   4.231   2.958 -2.3490  0.1400  1.3141
 3381TIP3    H210108   2.038   4.248   2.816  1.4901 -0.5896 -0.2121
 3382TIP3   OH210109   1.649   1.037   4.526 -0.9642  0.2028 -0.5005
 3382TIP3    H110110   1.621   0.960   4.575  1.1366  0.3441  1.0549
 3382TIP3    H210111   1.669   1.102   4.593  2.7376  0.1719 -1.3567
 3383TIP3   OH210112   4.414   2.949   3.027  0.0263 -0.2477 -0.3481
 3383TIP3    H110113   4.323   2.972   3.007  1.0571  3.3144 -1.6697
 3383TIP3    H210114   4.465   2.989   2.957  2.7675 -0.6110  1.2920
 3384TIP3   OH210115   5.374   0.916   1.865 -0.3184  0.0115 -0.2469
 3384TIP3    H110116   5.394   0.961   1.947  1.4416 -1.9769  0.4941
 3384TIP3    H210117   5.333   0.834   1.891 -0.7956 -0.1414 -1.4158
 3385TIP3   OH210118   1.455   2.616   4.787  0.4262 -0.2365  0.5301
 3385TIP3    H110119   1.460   2.705   4.753 -0.8173 -0.9280 -1.6965
 3385TIP3    H210120   1.543   2.598   4.820  1.2246  1.1809 -0.6923
 3386TIP3   OH210121   4.268   5.045   0.074 -0.7879  0.1448 -0.4625
 3386TIP3    H110122   4.235   5.088  -0.005 -2.8879 -2.2135 -1.0117
 3386TIP3    H210123   4.315   4.968   0.041  0.7421  0.6080  0.5432
 3387TIP3   OH210124   4.675   0.833   4.944 -0.4560 -0.0957  0.0132
 3387TIP3    H110125   4.750   0.881   4.908 -1.6753  2.4752  0.7133
 3387TIP3    H210126   4.695   0.825   5.038 -0.7335 -0.0448  0.0759
 3388TIP3   OH210127   5.338   4.666   2.957 -0.1891  0.1039  0.0266
 3388TIP3    H110128   5.423   4.700   2.984  0.2559 -1.4315  0.6098
 3388TIP3    H210129   5.323   4.706   2.871  1.2278  0.2128 -0.1961
 3389TIP3   OH210130   4.407   2.069   0.789  0.3107 -0.3801 -0.2607
 3389TIP3    H110131   4.370   1.982   0.800  0.8919 -0.5820  0.1703
 3389TIP3    H210132   4.500   2.053   0.771  0.7421  0.1802  1.2855
 3390TIP3   OH210133   6.439   6.058   0.486  0.4118  0.0934 -0.0397
 3390TIP3    H110134   6.355   6.098   0.460  0.1656 -0.1464  0.3652
 3390TIP3    H210135   6.499   6.132   0.493 -0.1400  0.4720  1.0807
 3391TIP3   OH210136   6.172   5.375   1.866  0.5311  0.0426 -0.4071
 3391TIP3    H110137   6.241   5.440   1.878  0.9045 -0.2898 -0.7098
 3391TIP3    H210138   6.179   5.319   1.943 -0.2539  0.7677  0.2080
 3392TIP3   OH210139   4.251   3.560   2.155  0.7579  0.1584 -0.1419
 3392TIP3    H110140   4.232   3.477   2.200  0.8600  0.0520 -0.2977
 3392TIP3    H210141   4.337   3.586   2.188  1.6205 -0.7872 -1.5598
 3393TIP3   OH210142   1.137   2.092   5.066 -0.0520  0.0189 -0.2618
 3393TIP3    H110143   1.220   2.076   5.113  0.0020  0.3663 -0.2403
 3393TIP3    H210144   1.133   2.187   5.055 -0.7425  0.0585  0.2676
 3394TIP3   OH210145   0.297   4.747   0.075 -0.2554  0.1934 -0.9144
 3394TIP3    H110146   0.207   4.715   0.081  0.4959 -1.8769 -0.1099
 3394TIP3    H210147   0.291   4.840   0.100 -1.6870 -0.7653  2.8856
 3395TIP3   OH210148   1.972   6.016   2.015 -0.4713 -0.2489  0.5015
 3395TIP3    H110149   1.925   6.083   1.966  0.3896 -0.8246 -1.1930
 3395TIP3    H210150   1.922   5.936   1.999  0.0715 -0.5264  0.1620
 3396TIP3   OH210151   6.409   3.798   1.325  0.5826 -0.3790  0.0937
 3396TIP3    H110152   6.386   3.857   1.253 -0.9270 -1.3464 -0.2703
 3396TIP3    H210153   6.348   3.820   1.395  1.3810 -0.1240  0.7142
 3397TIP3   OH210154   1.012   3.219   2.158 -0.2272 -0.3406  0.2601
 3397TIP3    H110155   0.981   3.225   2.248 -0.5878  0.9519  0.0685
 3397TIP3    H210156   1.105   3.199   2.166 -0.3796 -0.8244  0.8997
 3398TIP3   OH210157   4.012   3.235   2.126  0.3967  0.1166  0.0961
 3398TIP3    H110158   3.992   3.164   2.066 -1.0359 -0.2134  0.9082
 3398TIP3    H210159   3.977   3.313   2.082  1.1647  0.1997 -0.3877
 3399TIP3   OH210160   4.129   3.798   3.359  0.1945 -0.1759  0.3207
 3399TIP3    H110161   4.213   3.809   3.404 -0.5339  1.2460  1.4282
 3399TIP3    H210162   4.064   3.799   3.429 -0.9122  1.1789 -0.6661
 3400TIP3   OH210163   2.677   5.430   2.955 -0.1234  0.0521 -0.1081
 3400TIP3    H110164   2.640   5.431   2.867  0.4216  0.3082 -0.3338
 3400TIP3    H210165   2.737   5.355   2.955 -1.3861 -1.0054  0.5769
 3401TIP3   OH210166   5.404   3.877   5.809  0.0693  0.2252 -0.4902
 3401TIP3    H110167   5.384   3.912   5.896  0.3114  0.0686 -0.3712
 3401TIP3    H210168   5.329   3.824   5.786  0.9588 -1.5799  0.5861
 3402TIP3   OH210169   0.831   1.431   1.318 -0.4257  0.2510 -0.1996
 3402TIP3    H110170   0.814   1.506   1.376 -2.0212 -1.7082  2.0538
 3402TIP3    H210171   0.748   1.417   1.272 -0.5521 -0.8844  0.3520
 3403TIP3   OH210172   1.806   3.399   1.332  0.3166 -0.1053 -0.0299
 3403TIP3    H110173   1.882   3.437   1.377  0.5810 -2.3176  1.5411
 3403TIP3    H210174   1.815   3.305   1.345 -2.4283 -0.4732 -0.2279
 3404TIP3   OH210175   4.192   1.270   4.225 -0.2795  0.0536  0.0745
 3404TIP3    H110176   4.137   1.279   4.302 -1.2272  0.1942 -0.6045
 3404TIP3    H210177   4.225   1.359   4.209  2.5923 -0.4775  2.1871
 3405TIP3   OH210178   1.670   6.215   4.546  0.5011  0.5088 -0.2152
 3405TIP3    H110179   1.704   6.131   4.578 -0.6227  0.0763 -0.0940
 3405TIP3    H210180   1.731   6.280   4.579  0.6475 -0.1481  0.8552
 3406TIP3   OH210181   4.269   5.352   1.926 -0.0578 -0.8058  0.6236
 3406TIP3    H110182   4.348   5.305   1.951  0.6259  0.2557  0.5446
 3406TIP3    H210183   4.207   5.337   1.998  0.8420 -0.1964  1.5486
 3407TIP3   OH210184   1.184   1.273   1.605  0.3304  0.0724 -0.0721
 3407TIP3    H110185   1.205   1.262   1.697  0.6667  1.8331  0.1017
 3407TIP3    H210186   1.238   1.346   1.576 -2.5284  2.1484 -0.6454
 3408TIP3   OH210187   5.549   1.852   1.297 -0.2831  0.0012  0.5910
 3408TIP3    H110188   5.634   1.895   1.305 -0.7363  0.9141  0.6335
 3408TIP3    H210189   5.560   1.792   1.222  0.2255  0.5097  0.2478
 3409TIP3   OH210190   1.932   0.798   4.576  0.0475  0.0926  0.1045
 3409TIP3    H110191   2.020   0.762   4.583  0.1492  0.4633  0.8258
 3409TIP3    H210192   1.931   0.843   4.491 -0.3402 -2.2256 -1.2202
 3410TIP3   OH210193   6.031   0.842   0.827  0.1172  0.3830 -0.1859
 3410TIP3    H110194   6.063   0.754   0.851 -0.7399  0.0298 -0.3015
 3410TIP3    H210195   6.020   0.838   0.732 -0.5531  0.3939 -0.1138
 3411TIP3   OH210196   6.473   6.153   1.119  0.1243 -0.2950 -0.3736
 3411TIP3    H110197   6.530   6.141   1.195  0.4429  1.1281 -0.3531
 3411TIP3    H210198   6.520   6.216   1.064 -0.8030 -0.1318 -1.0063
 3412TIP3   OH210199   6.191   6.501   5.320 -0.0964  0.4130 -0.0126
 3412TIP3    H110200   6.223   6.550   5.244  1.5720  0.3831  0.6151
 3412TIP3    H210201   6.152   6.567   5.377  0.0162  0.6609 -0.2229
 3413TIP3   OH210202   5.611   6.766   1.002  0.4269  0.6840 -0.0603
 3413TIP3    H110203   5.519   6.793   1.005  0.5840  1.2422 -0.1350
 3413TIP3    H210204   5.609   6.671   1.011 -0.2927  0.4597 -2.1599
 3414TIP3   OH210205   6.098   0.405   3.172 -0.0455 -0.0334 -0.1997
 3414TIP3    H110206   6.141   0.378   3.091 -0.0504  0.3368 -0.3278
 3414TIP3    H210207   6.044   0.480   3.147 -0.7377 -0.4633 -0.0296
 3415TIP3   OH210208   0.762   4.657   5.084  0.3768 -0.0365 -0.4045
 3415TIP3    H110209   0.733   4.587   5.025  0.4189 -0.6553  0.2878
 3415TIP3    H210210   0.779   4.731   5.027 -0.3478 -0.3753 -1.0840
 3416TIP3   OH210211   7.029   2.766   1.196 -0.4964 -0.0083 -0.4684
 3416TIP3    H110212   6.961   2.715   1.239  1.2532 -1.4465  0.7849
 3416TIP3    H210213   7.024   2.853   1.237  1.4210 -1.4313  3.3194
 3417TIP3   OH210214   6.248   6.210   0.403  0.2738  0.7111 -0.5342
 3417TIP3    H110215   6.212   6.245   0.484  0.1416  0.0025 -0.2758
 3417TIP3    H210216   6.201   6.128   0.389  1.3734  0.0408 -0.4814
 3418TIP3   OH210217   6.512   5.791   4.824  0.0694  0.0298 -0.1642
 3418TIP3    H110218   6.458   5.855   4.778  1.6227  1.1711 -0.5088
 3418TIP3    H210219   6.459   5.762   4.898 -0.7522  1.6029 -0.1029
 3419TIP3   OH210220   5.899   2.031   5.407  0.3416  0.0601 -0.6817
 3419TIP3    H110221   5.906   1.948   5.360  0.1382 -0.3059 -0.0802
 3419TIP3    H210222   5.813   2.026   5.450  0.8266  0.0703  0.3127
 3420TIP3   OH210223   4.869   4.975   0.543  0.5319  0.6208 -0.2485
 3420TIP3    H110224   4.947   5.029   0.554  1.3661 -0.7368  0.7806
 3420TIP3    H210225   4.901   4.893   0.506 -0.5635  0.4197 -0.8070
 3421TIP3   OH210226   2.155   3.404   2.670 -0.3770  0.0713 -1.0664
 3421TIP3    H110227   2.139   3.384   2.762 -0.1333 -0.4200 -1.1280
 3421TIP3    H210228   2.217   3.477   2.671 -2.5024  1.9877 -0.8152
 3422TIP3   OH210229   5.681   5.175   3.067  0.1905 -0.1651  0.3660
 3422TIP3    H110230   5.753   5.120   3.038 -0.6195 -0.6753 -0.7774
 3422TIP3    H210231   5.602   5.127   3.041 -0.5387  1.0054  0.3317
 3423TIP3   OH210232   3.146   5.340   0.859  0.1220 -0.3176 -0.2835
 3423TIP3    H110233   3.122   5.253   0.828 -1.9109  0.4877 -1.1830
 3423TIP3    H210234   3.132   5.336   0.954 -0.4002 -0.8556 -0.3731
 3424TIP3   OH210235   3.603   4.423   1.553 -0.0404  0.4997  0.0493
 3424TIP3    H110236   3.657   4.496   1.525  1.6484 -0.4097  0.7953
 3424TIP3    H210237   3.582   4.442   1.645 -0.2800  0.4469  0.0066
 3425TIP3   OH210238   6.577   4.838   2.332 -0.0229 -0.8643  0.2250
 3425TIP3    H110239   6.558   4.835   2.426 -1.2293 -0.1682  0.0231
 3425TIP3    H210240   6.553   4.926   2.305  1.6437 -0.5917 -0.4868
 3426TIP3   OH210241   0.592   3.531   3.267  0.2788 -0.2004 -0.2665
 3426TIP3    H110242   0.540   3.456   3.297 -0.0666  0.6876  1.4412
 3426TIP3    H210243   0.586   3.526   3.171 -2.6226 -0.3887 -0.1724
 3427TIP3   OH210244   6.645   1.937   0.467  0.0821  0.6767 -0.3987
 3427TIP3    H110245   6.634   1.978   0.381 -1.3125  1.2888  0.0524
 3427TIP3    H210246   6.621   2.005   0.530  2.3323  0.6789  0.5820
 3428TIP3   OH210247   0.419   6.696   0.871 -0.2516  0.0772  0.3349
 3428TIP3    H110248   0.349   6.746   0.912  0.6048  2.7214 -1.1655
 3428TIP3    H210249   0.399   6.697   0.778  0.2590 -1.7310  0.1620
 3429TIP3   OH210250   6.686   1.585   0.947 -0.3274 -0.0916 -0.1387
 3429TIP3    H110251   6.714   1.630   0.868  3.4940 -2.4930 -0.3900
 3429TIP3    H210252   6.722   1.638   1.018 -1.4733  0.6064 -0.0327
 3430TIP3   OH210253   0.771   1.538   1.715  0.2886  0.5657  0.1179
 3430TIP3    H110254   0.779   1.457   1.766  2.5810  1.6691  1.6675
 3430TIP3    H210255   0.702   1.519   1.651  2.4444 -3.5119 -1.3322
 3431TIP3   OH210256   1.871   0.591   0.949 -0.0525  0.6497 -1.0830
 3431TIP3    H110257   1.776   0.580   0.943 -0.3458  2.4209 -0.1735
 3431TIP3    H210258   1.899   0.602   0.858 -0.7379  0.3288 -1.3423
 3432TIP3   OH210259   6.051   5.342   3.702 -0.3382  0.5429 -0.4166
 3432TIP3    H110260   6.058   5.275   3.771  0.4094  2.1023  1.1164
 3432TIP3    H210261   6.141   5.354   3.672 -0.3849  1.1610 -0.3360
 3433TIP3   OH210262   2.319   5.534   0.901 -0.7840 -0.2407 -0.4001
 3433TIP3    H110263   2.230   5.562   0.883 -0.8666  0.1863  0.6455
 3433TIP3    H210264   2.335   5.464   0.837 -2.7297 -2.0794  0.9933
 3434TIP3   OH210265   5.484   6.409   4.065 -0.0822 -0.5357 -0.3232
 3434TIP3    H110266   5.549   6.395   3.996  0.4248  2.0898 -0.4539
 3434TIP3    H210267   5.450   6.497   4.050 -1.8717 -0.8885  1.2485
 3435TIP3   OH210268   6.777   3.396   2.818 -0.6493 -0.3020  0.4503
 3435TIP3    H110269   6.764   3.465   2.753  0.4377 -1.6777 -1.3435
 3435TIP3    H210270   6.783   3.442   2.901 -3.5223  1.4306 -0.1528
 3436TIP3   OH210271   4.984   3.229   5.870  0.2754  0.1478  0.0057
 3436TIP3    H110272   4.970   3.137   5.848 -0.5482  0.2829 -0.0689
 3436TIP3    H210273   4.925   3.277   5.812  3.9538  1.1203 -3.3265
 3437TIP3   OH210274   6.655   0.126   1.695  0.3429  0.0441  0.0269
 3437TIP3    H110275   6.578   0.090   1.652  0.6330 -0.4649 -0.0769
 3437TIP3    H210276   6.631   0.132   1.787 -0.1121  0.6886 -0.1276
 3438TIP3   OH210277   2.828   1.517   5.703  0.0733 -0.0500  0.4232
 3438TIP3    H110278   2.920   1.541   5.689  0.2106  0.5022  2.0938
 3438TIP3    H210279   2.824   1.490   5.794 -1.8100  2.0450  1.0585
 3439TIP3   OH210280   0.180   1.043   5.089  0.1781  0.2597  0.2265
 3439TIP3    H110281   0.098   1.039   5.139 -0.2354  1.4069 -0.3218
 3439TIP3    H210282   0.151   1.054   4.998  0.9412  0.3054 -0.0125
 3440TIP3   OH210283   2.609   0.289   3.843 -0.2244  0.3087 -0.2453
 3440TIP3    H110284   2.693   0.323   3.811 -0.0436  2.3287  2.0258
 3440TIP3    H210285   2.577   0.234   3.772  2.5251  0.2723 -1.6179
 3441TIP3   OH210286   3.215   4.067   0.858 -0.2928  0.3106 -0.8228
 3441TIP3    H110287   3.169   4.096   0.779  0.9651  0.2120 -1.6199
 3441TIP3    H210288   3.185   3.977   0.871 -0.3846  0.2677 -1.2915
 3442TIP3   OH210289   5.035   0.465   0.175 -0.3649  0.3546 -0.1773
 3442TIP3    H110290   5.114   0.505   0.210  0.6540 -0.6355 -1.2508
 3442TIP3    H210291   5.028   0.499   0.086 -0.9934  0.2228 -0.1837
 3443TIP3   OH210292   3.706   0.912   5.233  0.2824  0.1751 -0.0884
 3443TIP3    H110293   3.792   0.950   5.252  0.6583 -0.7019  0.0369
 3443TIP3    H210294   3.677   0.956   5.153 -0.0275  1.8404  0.9012
 3444TIP3   OH210295   2.293   1.144   0.131 -0.0637 -0.3372  0.5836
 3444TIP3    H110296   2.278   1.114   0.221 -0.7437  0.6342  0.8076
 3444TIP3    H210297   2.206   1.155   0.095  0.1780  0.6929  0.2870
 3445TIP3   OH210298   6.538   1.688   0.501  0.4601 -0.2185 -1.0217
 3445TIP3    H110299   6.600   1.760   0.506 -0.5636  0.5900  0.7450
 3445TIP3    H210300   6.494   1.687   0.586 -2.7929  0.0461 -2.5373
 3446TIP3   OH210301   1.344   5.937   5.363  0.3740 -0.4975 -0.6587
 3446TIP3    H110302   1.426   5.978   5.392  0.4789  0.1074 -1.7612
 3446TIP3    H210303   1.365   5.845   5.352  0.7628 -0.4377 -0.4216
 3447TIP3   OH210304   2.212   2.196   5.575  0.3843  0.4526 -0.1986
 3447TIP3    H110305   2.135   2.240   5.612 -0.4910 -0.9321 -0.3106
 3447TIP3    H210306   2.178   2.150   5.498  1.1165 -0.9901  0.3177
 3448TIP3   OH210307   0.731   4.116   1.183 -0.5087 -0.2819 -0.3559
 3448TIP3    H110308   0.640   4.146   1.187  0.1354  1.6815  0.8708
 3448TIP3    H210309   0.729   4.046   1.118 -3.1228 -1.1921  0.5547
 3449TIP3   OH210310   2.924   5.743   0.068 -0.0490  0.1774 -0.0918
 3449TIP3    H110311   2.992   5.809   0.065  0.2470 -0.1673 -1.3631
 3449TIP3    H210312   2.936   5.691  -0.012  0.2457 -1.9258  1.2250
 3450TIP3   OH210313   0.110   1.527   5.558  0.2656 -0.4383  0.5120
 3450TIP3    H110314   0.077   1.502   5.644 -0.3737  1.3490  0.8256
 3450TIP3    H210315   0.032   1.548   5.507  0.6628 -1.0352 -0.3616
 3451TIP3   OH210316   1.438   2.606   3.126 -0.1383  0.2399  0.1111
 3451TIP3    H110317   1.370   2.598   3.059 -1.1381  0.3712  1.0818
 3451TIP3    H210318   1.398   2.659   3.195  1.6798  2.1249 -0.1929
 3452TIP3   OH210319   1.101   0.799   4.702 -0.1643  0.3602  0.1792
 3452TIP3    H110320   1.064   0.730   4.757 -0.3645 -0.1816 -0.6292
 3452TIP3    H210321   1.181   0.825   4.749 -0.5679  0.2354  0.9621
 3453TIP3   OH210322   1.156   0.258   2.564  0.1236  0.4513 -0.1429
 3453TIP3    H110323   1.143   0.350   2.586  1.2834  0.8452 -0.9866
 3453TIP3    H210324   1.217   0.259   2.490  1.7297 -1.0337  1.0598
 3454TIP3   OH210325   4.388   2.767   4.852 -0.7032  0.2255 -0.5511
 3454TIP3    H110326   4.309   2.788   4.901 -0.2382  0.9045 -0.0827
 3454TIP3    H210327   4.378   2.814   4.769 -1.1000 -0.2473 -0.7803
 3455TIP3   OH210328   7.152   4.258   5.180  0.4840 -0.0507 -1.0693
 3455TIP3    H110329   7.132   4.231   5.269 -1.4158 -1.0535 -1.7382
 3455TIP3    H210330   7.195   4.343   5.189 -0.6575  0.3749  0.7608
 3456TIP3   OH210331   3.000   2.823   1.216 -0.4316 -0.3562 -0.7327
 3456TIP3    H110332   3.025   2.892   1.155 -0.2878 -1.7297 -2.3259
 3456TIP3    H210333   3.045   2.745   1.183  0.1235 -1.0535  1.5097
 3457TIP3   OH210334   7.140   2.879   0.512 -0.0405 -0.3130 -0.5174
 3457TIP3    H110335   7.058   2.829   0.509 -0.1738 -0.1396  0.1196
 3457TIP3    H210336   7.162   2.883   0.605 -1.0542  2.4918 -0.3216
 3458TIP3   OH210337   5.061   1.333   2.765 -0.1587 -0.2822 -0.3039
 3458TIP3    H110338   5.117   1.258   2.749  1.2241  0.3351  1.3935
 3458TIP3    H210339   4.976   1.295   2.790 -0.2583 -1.2162 -1.9383
 3459TIP3   OH210340   4.603   4.592   0.469  0.0349 -0.1308  0.1356
 3459TIP3    H110341   4.617   4.632   0.555 -1.1910  0.0541  0.2796
 3459TIP3    H210342   4.632   4.658   0.406  2.9888 -1.0757  0.3593
 3460TIP3   OH210343   6.047   0.604   1.463  0.4729  0.0620 -0.3614
 3460TIP3    H110344   6.094   0.550   1.399  0.4237  0.3170 -0.6170
 3460TIP3    H210345   6.100   0.599   1.542  0.6318 -0.1097 -0.4756
 3461TIP3   OH210346   7.155   3.982   5.094 -0.2492 -0.1231 -0.0796
 3461TIP3    H110347   7.162   3.930   5.173  1.8662 -0.5864 -0.4992
 3461TIP3    H210348   7.147   4.073   5.125 -3.0897 -0.5455  0.6374
 3462TIP3   OH210349   5.316   6.579   2.377  0.3324 -0.2457 -0.0712
 3462TIP3    H110350   5.254   6.540   2.439 -0.4038  0.7681 -0.1330
 3462TIP3    H210351   5.269   6.578   2.294  0.6072  0.0662 -0.2296
 3463TIP3   OH210352   2.973   1.693   5.426  0.0139 -0.2214  0.3107
 3463TIP3    H110353   3.005   1.668   5.340 -2.9623 -1.3567 -0.5923
 3463TIP3    H210354   3.025   1.642   5.487  1.6172 -0.0162 -0.8400
 3464TIP3   OH210355   0.615   2.141   3.666  0.2713  0.2436  0.0115
 3464TIP3    H110356   0.566   2.064   3.696  1.7802 -0.8680 -0.2310
 3464TIP3    H210357   0.642   2.185   3.747 -0.4349  0.4110  0.1582
 3465TIP3   OH210358   2.498   1.655   1.667 -0.0042  0.8975  0.0384
 3465TIP3    H110359   2.412   1.648   1.624 -0.5261 -0.4453  1.2162
 3465TIP3    H210360   2.542   1.727   1.621 -0.9686  0.3042 -1.9354
 3466TIP3   OH210361   6.967   5.051   0.462  0.1969 -0.2368  0.3881
 3466TIP3    H110362   6.946   5.010   0.546 -0.1024 -1.1026 -0.0943
 3466TIP3    H210363   6.892   5.109   0.445 -1.2739 -2.3246 -0.6918
 3467TIP3   OH210364   6.237   0.769   4.049  0.0837 -0.3980 -0.2203
 3467TIP3    H110365   6.160   0.811   4.012  0.7740 -0.5897 -1.9662
 3467TIP3    H210366   6.223   0.675   4.036  1.0595 -0.3877 -1.5587
 3468TIP3   OH210367   4.450   1.816   0.215  0.3456 -0.1945  0.3561
 3468TIP3    H110368   4.372   1.788   0.167 -0.1954 -0.6346  1.4454
 3468TIP3    H210369   4.441   1.774   0.301  0.1910  2.2020  1.5962
 3469TIP3   OH210370   1.142   5.726   0.860 -0.0154  0.0853 -0.0959
 3469TIP3    H110371   1.095   5.804   0.890  0.9423  0.9179 -0.7137
 3469TIP3    H210372   1.103   5.705   0.775 -1.7264 -1.4086  0.9825
 3470TIP3   OH210373   3.006   5.186   5.353 -0.2269 -0.0938  0.2518
 3470TIP3    H110374   2.981   5.134   5.277  0.4212 -0.4979  0.3062
 3470TIP3    H210375   3.043   5.267   5.318 -1.7998  0.6301  0.1701
 3471TIP3   OH210376   3.799   4.165   0.816 -0.3623 -0.1862  0.8692
 3471TIP3    H110377   3.864   4.235   0.820  0.7211 -1.0837 -0.2097
 3471TIP3    H210378   3.798   4.128   0.904  1.6945 -1.0787  0.5797
 3472TIP3   OH210379   0.824   5.227   4.173 -0.7072 -0.0231 -0.4632
 3472TIP3    H110380   0.816   5.237   4.078 -2.3478 -0.2164 -0.3710
 3472TIP3    H210381   0.743   5.263   4.208 -0.1698 -0.0578  0.8698
 3473TIP3   OH210382   4.114   2.898   4.412 -0.5227  0.3844 -0.0881
 3473TIP3    H110383   4.026   2.919   4.444 -0.1489 -0.4614  1.6311
 3473TIP3    H210384   4.157   2.983   4.404 -1.7458  0.8946 -1.8709
 3474TIP3   OH210385   2.150   5.878   4.774 -0.0122  0.0911 -0.1723
 3474TIP3    H110386   2.189   5.907   4.691  0.1999 -0.3915 -0.2441
 3474TIP3    H210387   2.069   5.834   4.748 -0.0357  0.0973 -0.1096
 3475TIP3   OH210388   5.929   6.691   3.005  0.0799 -0.1785 -0.2190
 3475TIP3    H110389   5.874   6.769   3.011  1.2721  0.7385 -0.6867
 3475TIP3    H210390   5.928   6.653   3.093 -2.8674 -1.3674 -0.6295
 3476TIP3   OH210391   4.041   5.304   5.138 -0.6760  0.1726 -0.2025
 3476TIP3    H110392   4.021   5.288   5.231 -1.6951 -0.2364 -0.4768
 3476TIP3    H210393   4.014   5.224   5.094  1.1469 -0.1975 -0.6978
 3477TIP3   OH210394   3.034   6.176   3.592  0.1067 -0.0368  0.5520
 3477TIP3    H110395   3.036   6.138   3.504  0.6688  1.6966 -0.2245
 3477TIP3    H210396   2.951   6.224   3.595  0.5308  0.6930  0.6211
 3478TIP3   OH210397   5.635   6.528   3.001 -0.2041 -0.0619 -0.0152
 3478TIP3    H110398   5.668   6.483   2.923 -0.0285 -0.3222  0.2067
 3478TIP3    H210399   5.712   6.539   3.057 -0.5804 -1.1643  0.7475
 3479TIP3   OH210400   3.216   2.781   3.321  0.0958 -0.1404 -0.8164
 3479TIP3    H110401   3.176   2.721   3.258  0.5791  0.0231 -1.2789
 3479TIP3    H210402   3.229   2.862   3.273  1.7605 -0.4469 -0.9235
 3480TIP3   OH210403   6.862   3.285   2.542  0.2923  0.1491 -0.0369
 3480TIP3    H110404   6.833   3.356   2.600  0.1735  1.1189 -1.2404
 3480TIP3    H210405   6.785   3.260   2.493  0.4689 -0.4304 -0.0252
 3481TIP3   OH210406   5.914   4.010   2.793  0.1787 -0.4651  0.2684
 3481TIP3    H110407   5.905   3.985   2.701 -1.0538 -3.1574  1.0026
 3481TIP3    H210408   6.005   3.989   2.815  0.8913  1.4633 -0.5873
 3482TIP3   OH210409   6.885   4.157   5.772 -0.2277 -0.1473  0.1639
 3482TIP3    H110410   6.896   4.189   5.862  0.3391  3.3733 -1.0088
 3482TIP3    H210411   6.958   4.096   5.760  1.2217  1.2400  1.3549
 3483TIP3   OH210412   2.922   3.131   2.157 -0.1900 -0.3833  0.7269
 3483TIP3    H110413   2.969   3.206   2.120  0.2828 -0.9840  0.0869
 3483TIP3    H210414   2.880   3.166   2.236  0.7055  0.3529  0.8966
 3484TIP3   OH210415   4.462   5.052   2.360  0.0210 -0.0527  0.2811
 3484TIP3    H110416   4.372   5.068   2.330 -0.7454  1.3630  3.0140
 3484TIP3    H210417   4.516   5.098   2.296 -1.3922  1.3616  0.0181
 3485TIP3   OH210418   5.948   6.016   1.750 -0.3892 -0.3528 -0.3366
 3485TIP3    H110419   6.023   6.008   1.809  0.6247  1.6238 -1.2534
 3485TIP3    H210420   5.936   5.928   1.714  0.0589 -1.1972  1.4570
 3486TIP3   OH210421   7.005   3.621   3.143  0.2242  0.3143  0.1721
 3486TIP3    H110422   7.040   3.672   3.216  0.2174 -1.1445  1.2484
 3486TIP3    H210423   7.080   3.610   3.084  0.3947  0.9941  0.2537
 3487TIP3   OH210424   4.539   2.937   5.244  0.2574  0.1197 -0.3868
 3487TIP3    H110425   4.589   2.956   5.324  0.6404 -2.8577  0.2118
 3487TIP3    H210426   4.528   3.022   5.202  3.4979  1.3241  0.8185
 3488TIP3   OH210427   5.456   4.794   1.494  0.4116 -0.4698 -0.0259
 3488TIP3    H110428   5.532   4.828   1.445 -0.0497 -1.1289 -1.2414
 3488TIP3    H210429   5.426   4.868   1.545  1.4477  0.0084 -0.0765
 3489TIP3   OH210430  -0.021   6.788   3.863 -0.1288 -0.2724 -0.1102
 3489TIP3    H110431   0.017   6.852   3.803  0.4393  0.0552  0.5869
 3489TIP3    H210432   0.015   6.704   3.834 -0.9654 -0.3229 -1.1002
 3490TIP3   OH210433   6.180   1.687   2.208 -0.3636  0.5407  0.7301
 3490TIP3    H110434   6.162   1.603   2.251 -0.8048  0.7971  1.0536
 3490TIP3    H210435   6.198   1.747   2.280  0.2042  0.6654  0.4871
 3491TIP3   OH210436   0.769   0.935   3.963  0.1160 -0.4718  0.4138
 3491TIP3    H110437   0.696   0.973   4.011 -1.1356 -1.3784 -0.6967
 3491TIP3    H210438   0.739   0.931   3.872  1.0408 -2.0243  0.1349
 3492TIP3   OH210439   2.913   5.688   0.716 -0.0782  0.2311  0.0526
 3492TIP3    H110440   2.884   5.661   0.803 -1.3238 -0.0205 -0.4317
 3492TIP3    H210441   2.943   5.608   0.674 -1.1527  0.0344 -0.3750
 3493TIP3   OH210442   3.546   3.508   4.941  0.1711 -0.5691 -0.5500
 3493TIP3    H110443   3.479   3.446   4.967 -1.2495  0.9150 -0.5002
 3493TIP3    H210444   3.579   3.545   5.023  0.3651 -0.5942 -0.6148
 3494TIP3   OH210445   1.600   1.118   0.447  0.0271 -0.0696  0.5271
 3494TIP3    H110446   1.552   1.035   0.446  1.7692 -1.1360 -0.1002
 3494TIP3    H210447   1.548   1.175   0.504 -1.1318 -1.6446  1.1363
 3495TIP3   OH210448   0.794   4.639   2.300 -0.2246  0.1080 -0.4370
 3495TIP3    H110449   0.703   4.639   2.331 -0.2301  2.4823 -0.2680
 3495TIP3    H210450   0.845   4.666   2.376  0.4130  0.5249 -1.0053
 3496TIP3   OH210451   0.065   4.607   1.177  0.6606 -0.6891 -0.3985
 3496TIP3    H110452   0.140   4.572   1.129  2.9560  2.6826  0.3313
 3496TIP3    H210453   0.083   4.586   1.268 -0.9356 -2.4390 -0.4312
 3497TIP3   OH210454   5.669   0.666   5.415  0.1814 -0.2327 -0.1116
 3497TIP3    H110455   5.609   0.701   5.350  1.3319  0.0372 -1.0601
 3497TIP3    H210456   5.682   0.574   5.389 -1.0782 -0.7878  1.0666
 3498TIP3   OH210457   5.086   1.294   0.685  0.1244  0.0490  0.1282
 3498TIP3    H110458   5.155   1.336   0.736  1.0432 -0.7236 -0.4388
 3498TIP3    H210459   5.012   1.287   0.745  0.4621  1.0570  0.6934
 3499TIP3   OH210460   2.390   6.565   1.315  0.2216 -0.4144  0.2936
 3499TIP3    H110461   2.453   6.619   1.268 -0.0455 -1.0669 -0.8375
 3499TIP3    H210462   2.349   6.625   1.378  0.0158  0.6707 -0.8495
 3500TIP3   OH210463   2.074   5.194   2.455 -0.1833 -0.0196  0.2300
 3500TIP3    H110464   2.118   5.139   2.390  0.2135  1.0132 -0.4182
 3500TIP3    H210465   2.073   5.142   2.535  1.0598 -0.5877 -0.0942
 3501TIP3   OH210466   6.107   3.885   0.887  0.1174  0.3013 -0.7079
 3501TIP3    H110467   6.160   3.825   0.939 -2.7088 -0.7407  1.1898
 3501TIP3    H210468   6.106   3.966   0.937 -1.9291 -0.4445  0.5818
 3502TIP3   OH210469   1.576   0.050   5.496  0.4897  0.0986  0.5732
 3502TIP3    H110470   1.558   0.142   5.511 -0.7877 -0.0620  0.1187
 3502TIP3    H210471   1.609   0.017   5.579  5.5975  1.9570 -0.3569
 3503TIP3   OH210472   2.885   4.519   3.468 -0.3210 -0.3153 -0.2893
 3503TIP3    H110473   2.803   4.554   3.502  0.5312 -0.9083  2.6238
 3503TIP3    H210474   2.944   4.594   3.467  0.2459 -0.6930  1.6846
 3504TIP3   OH210475   6.909   6.483   2.524 -0.1701 -0.0253  0.0318
 3504TIP3    H110476   6.832   6.455   2.475 -1.2229 -0.6973  1.9297
 3504TIP3    H210477   6.983   6.444   2.478 -0.3151  3.9712 -4.3343
 3505TIP3   OH210478   3.040   3.681   5.810 -0.0056 -0.2429 -0.3438
 3505TIP3    H110479   3.052   3.586   5.808 -0.0334 -0.2383 -1.0172
 3505TIP3    H210480   2.963   3.697   5.755  1.1575  0.3332 -1.8730
 3506TIP3   OH210481   1.620   6.383   5.313 -0.4241 -0.5416  0.1664
 3506TIP3    H110482   1.625   6.394   5.218  1.3810 -0.6279  0.2088
 3506TIP3    H210483   1.532   6.348   5.329 -1.2774  0.8280 -1.3000
 3507TIP3   OH210484   0.434   0.645   0.837 -0.5950 -0.4604  0.4430
 3507TIP3    H110485   0.382   0.693   0.903 -0.9228 -2.0994  1.4343
 3507TIP3    H210486   0.369   0.610   0.777 -0.4787 -0.8330  0.5331
 3508TIP3   OH210487   1.764   0.325   5.714  0.0174 -0.3892 -0.1807
 3508TIP3    H110488   1.792   0.278   5.635  0.1782 -1.8256  0.6895
 3508TIP3    H210489   1.813   0.283   5.785 -1.3340 -0.2254  0.8830
 3509TIP3   OH210490   4.116   1.601   0.433  0.4680 -0.3197 -0.5480
 3509TIP3    H110491   4.161   1.663   0.490 -0.1571 -0.5418  0.2051
 3509TIP3    H210492   4.185   1.558   0.384  1.1771 -1.3300  1.2438
 3510TIP3   OH210493   7.061   3.302   1.768  0.1585  0.3914  0.5300
 3510TIP3    H110494   7.075   3.274   1.678 -0.0930  1.4710  0.1415
 3510TIP3    H210495   7.110   3.240   1.821 -1.0935 -1.3257 -0.2270
 3511TIP3   OH210496   0.519   4.055   4.017 -0.5131  0.0256 -0.6233
 3511TIP3    H110497   0.566   4.124   4.063  2.6140 -0.1661 -3.1819
 3511TIP3    H210498   0.507   3.986   4.083  1.5292  0.7342  0.5738
 3512TIP3   OH210499   5.091   3.657   0.190 -0.1742  0.5632 -0.3719
 3512TIP3    H110500   5.042   3.589   0.236  0.7695  1.0320  1.4231
 3512TIP3    H210501   5.175   3.615   0.168 -0.2125  0.6632 -0.7065
 3513TIP3   OH210502   1.876   2.612   4.206  0.4477  0.0256  0.1988
 3513TIP3    H110503   1.866   2.632   4.113 -1.1754 -1.3300  0.0416
 3513TIP3    H210504   1.786   2.607   4.239  0.9586  2.2695  2.2845
 3514TIP3   OH210505   7.153   6.120   3.140  0.2324 -0.4011 -0.7010
 3514TIP3    H110506   7.079   6.092   3.193  0.2658  1.4899  0.4315
 3514TIP3    H210507   7.226   6.066   3.170 -0.3346 -1.1891 -0.7244
 3515TIP3   OH210508   6.841   0.227   4.265  0.0371  0.2768 -0.3003
 3515TIP3    H110509   6.763   0.171   4.262  0.9703 -1.0232 -1.2453
 3515TIP3    H210510   6.902   0.180   4.321  1.0166  0.0630 -1.4960
 3516TIP3   OH210511   1.064   4.223   3.995 -0.2974  0.1226 -0.1399
 3516TIP3    H110512   1.082   4.198   4.086 -1.4380  0.2903  0.1550
 3516TIP3    H210513   0.971   4.200   3.983 -0.7064  1.9326 -0.6222
 3517TIP3   OH210514   7.130   4.110   1.303 -0.2719 -0.4736 -0.6058
 3517TIP3    H110515   7.085   4.192   1.281  2.1559  0.8300 -1.1169
 3517TIP3    H210516   7.125   4.105   1.398  0.6380  1.0367 -0.4309
 3518TIP3   OH210517   3.317   6.384   4.713  0.0454 -0.2628 -0.0967
 3518TIP3    H110518   3.376   6.420   4.779 -0.6242 -0.0141  0.3768
 3518TIP3    H210519   3.246   6.447   4.707 -1.2477 -1.5489  0.8966
 3519TIP3   OH210520   1.574   6.099   5.435  0.1454  0.4702 -0.0215
 3519TIP3    H110521   1.647   6.083   5.375 -0.9384 -0.2357 -1.1990
 3519TIP3    H210522   1.611   6.088   5.522  1.8347  1.7977 -0.5247
 3520TIP3   OH210523   7.226   2.674   2.069  0.7156 -0.1719  0.3200
 3520TIP3    H110524   7.252   2.612   2.137  1.0757 -0.8813 -0.4427
 3520TIP3    H210525   7.132   2.685   2.081  0.9289  0.4560  1.5206
 3521TIP3   OH210526   6.481   4.411   5.321  0.5808 -0.2377  0.1732
 3521TIP3    H110527   6.475   4.377   5.411  0.0833  0.3816  0.3844
 3521TIP3    H210528   6.487   4.333   5.266  0.6524 -0.6325  0.7299
 3522TIP3   OH210529   7.215   6.247   5.039 -0.4502  0.1154 -0.1693
 3522TIP3    H110530   7.218   6.248   4.943 -1.9968 -2.3658 -0.3314
 3522TIP3    H210531   7.122   6.250   5.060 -0.0966  2.6051  1.3956
 3523TIP3   OH210532   2.804   5.525   3.182 -0.2371 -0.1121 -0.2848
 3523TIP3    H110533   2.745   5.507   3.108 -0.2869  0.7516 -0.4679
 3523TIP3    H210534   2.884   5.477   3.161  0.2118  1.1334 -1.5469
 3524TIP3   OH210535   3.536   1.076   5.022  0.4649 -0.2750  0.8141
 3524TIP3    H110536   3.577   1.109   4.942  1.3250  0.6817  1.6264
 3524TIP3    H210537   3.462   1.134   5.037 -0.3076 -1.0675  0.1882
 3525TIP3   OH210538   5.969   0.048   5.675 -0.2577 -0.2514  0.4101
 3525TIP3    H110539   5.916   0.127   5.685 -1.7617 -1.3658  1.7900
 3525TIP3    H210540   5.930   0.003   5.600 -2.0439 -1.5664  2.0352
 3526TIP3   OH210541   3.420   6.411   2.744 -0.4395 -0.4961  0.2230
 3526TIP3    H110542   3.410   6.502   2.717  1.2490 -0.2730  0.2756
 3526TIP3    H210543   3.337   6.390   2.787 -0.4194  1.3742  1.2863
 3527TIP3   OH210544   2.946   2.469   0.669  0.3318  0.1579  0.0605
 3527TIP3    H110545   2.991   2.469   0.753 -0.1224  0.5152  0.3044
 3527TIP3    H210546   2.915   2.379   0.658  1.6477 -0.2644 -0.4084
 3528TIP3   OH210547   5.300   5.353   1.772 -0.5623 -0.5534 -0.0385
 3528TIP3    H110548   5.317   5.446   1.787  0.6585 -0.5966 -1.0036
 3528TIP3    H210549   5.330   5.310   1.852 -0.1660 -0.2179 -0.0018
 3529TIP3   OH210550   4.311   0.092   4.624  0.2160 -0.0484  0.1123
 3529TIP3    H110551   4.336   0.023   4.562 -1.0431 -2.0722  1.7339
 3529TIP3    H210552   4.371   0.164   4.605  1.7990 -1.6849 -1.4705
 3530TIP3   OH210553   6.004   4.007   1.367 -0.3852 -0.1733  0.0556
 3530TIP3    H110554   6.085   3.969   1.402  1.0432  1.3279 -1.4407
 3530TIP3    H210555   5.934   3.960   1.412  1.3066 -0.8507  2.1273
 3531TIP3   OH210556   2.371   6.310   2.529  0.1434 -0.0609 -0.4953
 3531TIP3    H110557   2.408   6.397   2.542  2.3190 -1.2127  1.7913
 3531TIP3    H210558   2.281   6.326   2.499  0.0150  2.9647  1.1513
 3532TIP3   OH210559   7.148   4.968   1.551 -0.4155  0.6996 -0.2526
 3532TIP3    H110560   7.163   4.908   1.623 -0.3350  1.2353  0.1851
 3532TIP3    H210561   7.179   5.053   1.583  0.4820  0.7749 -1.2453
 3533TIP3   OH210562   2.669   5.756   0.486  0.9333  0.4213  0.1986
 3533TIP3    H110563   2.644   5.730   0.575  0.6371  2.0700  0.6487
 3533TIP3    H210564   2.730   5.689   0.457  0.3624 -0.6173  1.3098
 3534TIP3   OH210565   5.352   5.452   3.210  0.0549  0.1329 -0.1041
 3534TIP3    H110566   5.292   5.419   3.143  1.1804 -0.3249 -0.9182
 3534TIP3    H210567   5.295   5.473   3.284 -1.2402  0.7753 -1.2310
 3535TIP3   OH210568   0.266   1.654   3.610 -0.2196 -0.1780 -0.6994
 3535TIP3    H110569   0.202   1.725   3.608 -0.9948 -0.8817 -2.0437
 3535TIP3    H210570   0.232   1.593   3.675 -0.6892 -0.3256 -1.0752
 3536TIP3   OH210571   0.515   2.068   5.049  0.7201 -0.0507  0.1229
 3536TIP3    H110572   0.526   1.995   4.989  0.9782  1.3604 -1.6196
 3536TIP3    H210573   0.421   2.088   5.045  0.6960 -0.1055  0.3908
 3537TIP3   OH210574   0.279   6.229   3.086  0.1559 -0.5318 -0.4311
 3537TIP3    H110575   0.201   6.271   3.121  0.6959 -1.3994  2.0477
 3537TIP3    H210576   0.335   6.215   3.163  2.1260 -1.2468 -1.9078
 3538TIP3   OH210577   4.145   4.575   2.724  0.1052 -0.0298  0.1047
 3538TIP3    H110578   4.188   4.631   2.788 -1.4294  2.4376 -0.8813
 3538TIP3    H210579   4.052   4.580   2.746 -0.1434 -1.6374 -0.4684
 3539TIP3   OH210580   6.738   4.315   0.194 -0.5336  0.0139  0.3082
 3539TIP3    H110581   6.822   4.334   0.237  0.0627 -0.1342 -0.7483
 3539TIP3    H210582   6.736   4.219   0.188 -1.2810 -0.0461  1.2686
 3540TIP3   OH210583   0.573   5.314   0.700  0.1744  0.0027 -0.0476
 3540TIP3    H110584   0.483   5.286   0.718  0.0958  0.1283 -0.2490
 3540TIP3    H210585   0.591   5.379   0.768  0.0573  0.0939 -0.1034
 3541TIP3   OH210586   2.268   3.112   1.579  0.3154  0.4524  0.9627
 3541TIP3    H110587   2.208   3.037   1.583  0.6633  0.1091 -0.0576
 3541TIP3    H210588   2.211   3.188   1.567  0.0217  0.2320  0.9635
 3542TIP3   OH210589   0.606   5.128   5.691 -0.4166  0.3976 -0.1509
 3542TIP3    H110590   0.647   5.153   5.608 -0.7809 -0.1869 -0.5154
 3542TIP3    H210591   0.677   5.093   5.743 -0.0152  1.5640  0.1297
 3543TIP3   OH210592   4.610   6.377   3.832  0.6057  0.5278 -0.1921
 3543TIP3    H110593   4.685   6.383   3.773 -1.5551  1.3127 -3.0690
 3543TIP3    H210594   4.559   6.456   3.814 -2.0906 -1.0741 -0.1125
 3544TIP3   OH210595   4.013   3.840   4.160 -0.2215 -0.3327  0.1488
 3544TIP3    H110596   4.012   3.814   4.068  2.2514 -1.7409  0.4141
 3544TIP3    H210597   4.040   3.760   4.206  0.3378  0.8048  1.8603
 3545TIP3   OH210598   6.497   3.235   3.794  0.0356 -0.2325  0.4866
 3545TIP3    H110599   6.447   3.199   3.867  0.3196  1.8993  1.8257
 3545TIP3    H210600   6.481   3.329   3.797  2.1108  0.2367 -0.5926
 3546TIP3   OH210601   0.468   3.748   4.790 -0.4038  0.3158  0.3434
 3546TIP3    H110602   0.387   3.793   4.812 -0.3936 -0.1912  1.5104
 3546TIP3    H210603   0.525   3.761   4.866  0.3709  0.1181 -0.1819
 3547TIP3   OH210604   6.535   3.416   5.325 -0.3769 -0.4444 -0.1557
 3547TIP3    H110605   6.526   3.493   5.381  2.3253  1.6101 -2.2576
 3547TIP3    H210606   6.617   3.375   5.352 -1.3252 -2.1416  0.3225
 3548TIP3   OH210607   5.505   2.782   1.246  0.0948 -0.2071 -0.2130
 3548TIP3    H110608   5.453   2.811   1.170 -0.6753 -1.0777 -0.0409
 3548TIP3    H210609   5.588   2.754   1.209 -0.1700 -0.3516 -0.7042
 3549TIP3   OH210610   5.323   1.519   3.299 -0.2557  0.3911  0.0463
 3549TIP3    H110611   5.242   1.569   3.300 -1.2129 -1.0920  0.8159
 3549TIP3    H210612   5.319   1.467   3.219  0.1963  0.7210 -0.1919
 3550TIP3   OH210613   6.516   1.180   1.245  0.3009  0.4614 -0.0330
 3550TIP3    H110614   6.597   1.193   1.294  1.1578  1.5120 -1.6422
 3550TIP3    H210615   6.517   1.248   1.177 -2.6204  1.3994  0.7251
 3551TIP3   OH210616   2.412   6.630   0.477 -0.0701  0.8457  0.1632
 3551TIP3    H110617   2.316   6.637   0.479 -0.1565 -0.2773  2.1900
 3551TIP3    H210618   2.433   6.619   0.384 -2.1455 -1.6264 -0.1352
 3552TIP3   OH210619   5.403   3.846   0.555  0.4035  0.3523  0.6433
 3552TIP3    H110620   5.372   3.852   0.465  0.7252  2.2958  0.6333
 3552TIP3    H210621   5.324   3.831   0.607 -0.8086  5.0744  0.6216
 3553TIP3   OH210622   3.164   3.326   3.495  0.2893  0.4426 -0.0103
 3553TIP3    H110623   3.174   3.263   3.567  0.8996  1.4124  0.7924
 3553TIP3    H210624   3.076   3.311   3.462  0.1236 -0.2767  0.7109
 3554TIP3   OH210625   2.284   6.267   4.832  0.3945  0.6693  0.4094
 3554TIP3    H110626   2.230   6.346   4.828  0.1645  0.4601 -1.8955
 3554TIP3    H210627   2.348   6.285   4.901  0.3029  2.8306 -0.0133
 3555TIP3   OH210628   6.983   1.976   5.127  0.4903 -0.1465 -0.9507
 3555TIP3    H110629   6.889   1.995   5.120  0.9004  1.8003 -2.1657
 3555TIP3    H210630   6.999   1.909   5.060 -0.1683 -1.2486 -0.0421
 3556TIP3   OH210631   0.875   3.560   2.799  0.4745  0.2507 -0.4563
 3556TIP3    H110632   0.890   3.623   2.728  1.2769 -0.0891 -0.6103
 3556TIP3    H210633   0.827   3.488   2.757 -1.2733  1.1429 -0.0685
 3557TIP3   OH210634   6.179   1.887   3.878 -0.2294 -0.1186 -0.4449
 3557TIP3    H110635   6.209   1.876   3.788 -0.4459  1.1112 -0.6875
 3557TIP3    H210636   6.087   1.861   3.876 -0.3387  0.2879 -0.6633
 3558TIP3   OH210637   1.565   3.179   5.393 -0.9866  0.9484 -0.4191
 3558TIP3    H110638   1.639   3.239   5.377  2.0238 -2.1344  0.8222
 3558TIP3    H210639   1.506   3.229   5.450  2.2550  2.2744  2.1263
 3559TIP3   OH210640   4.163   2.593   0.415  0.5049  0.1115  0.2189
 3559TIP3    H110641   4.244   2.618   0.369 -0.7191  1.6621 -1.1851
 3559TIP3    H210642   4.145   2.665   0.474  0.5501 -0.6070  1.1394
 3560TIP3   OH210643   5.679   4.436   2.206  0.3343 -0.6625  0.1633
 3560TIP3    H110644   5.643   4.454   2.119  0.6101  0.2876  0.2353
 3560TIP3    H210645   5.734   4.512   2.225 -1.1050 -0.0040  1.9132
 3561TIP3   OH210646   3.938   0.180   3.065  0.7773 -0.1466  0.3210
 3561TIP3    H110647   3.946   0.151   2.974  2.0960  0.8606  0.0796
 3561TIP3    H210648   4.003   0.250   3.073 -1.0531  1.5093  1.3600
 3562TIP3   OH210649   2.224   1.582   0.022  0.3677 -0.2750  0.0804
 3562TIP3    H110650   2.276   1.516   0.068 -1.6211 -1.4319  0.7816
 3562TIP3    H210651   2.159   1.532  -0.027 -1.6569  1.1431  1.1728
 3563TIP3   OH210652   0.650   1.866   4.631  0.3060  0.0471  0.5166
 3563TIP3    H110653   0.675   1.779   4.600 -0.4560 -0.5987  1.6724
 3563TIP3    H210654   0.734   1.912   4.640  0.6350 -0.0791 -1.3965
 3564TIP3   OH210655   1.668   3.941   5.791 -0.1113  0.2966  0.3570
 3564TIP3    H110656   1.665   3.899   5.705 -0.4609  0.3467  0.3438
 3564TIP3    H210657   1.687   3.869   5.852 -1.8072 -0.0887  0.4680
 3565TIP3   OH210658   4.916   6.744   4.511  0.4284  0.4693  0.3004
 3565TIP3    H110659   5.003   6.748   4.552  0.3123 -0.0402  0.6083
 3565TIP3    H210660   4.857   6.722   4.584  0.0892  0.4692  0.0259
 3566TIP3   OH210661   2.893   3.001   0.502 -0.3394 -0.3935 -0.0216
 3566TIP3    H110662   2.954   2.933   0.529  0.5251 -0.5976 -2.3294
 3566TIP3    H210663   2.808   2.957   0.501 -0.3608 -0.4748  1.8520
 3567TIP3   OH210664   5.704   2.673   3.966  0.2789  0.3074 -0.1672
 3567TIP3    H110665   5.667   2.759   3.944  3.0725  1.4232 -0.9756
 3567TIP3    H210666   5.753   2.688   4.046  0.0785 -0.7852  0.1793
 3568TIP3   OH210667   1.308   0.108   4.866 -0.5714  0.0841 -0.1933
 3568TIP3    H110668   1.217   0.096   4.891 -0.8256 -0.7074 -1.4140
 3568TIP3    H210669   1.331   0.027   4.821  0.9372  0.0036  0.6532
 3569TIP3   OH210670   6.996   5.381   5.647  0.1689 -0.1764  0.2077
 3569TIP3    H110671   7.089   5.361   5.635  0.2396  0.5488 -0.5640
 3569TIP3    H210672   6.985   5.393   5.741  1.5384  2.7478  0.1201
 3570TIP3   OH210673   6.576   3.864   3.567 -0.0205  0.1312  0.1052
 3570TIP3    H110674   6.490   3.862   3.525  0.6410  0.0776 -1.3159
 3570TIP3    H210675   6.612   3.777   3.551  0.1276  0.0032  1.0923
 3571TIP3   OH210676   2.192   5.291   4.134  0.1505 -0.0946  0.6745
 3571TIP3    H110677   2.129   5.361   4.118 -0.5356 -0.8966 -0.2275
 3571TIP3    H210678   2.175   5.263   4.224 -1.2978 -0.7964  0.2066
 3572TIP3   OH210679   0.155   5.452   1.103  0.0158  0.0940 -0.0859
 3572TIP3    H110680   0.201   5.527   1.140 -0.7011  0.1223  0.7736
 3572TIP3    H210681   0.225   5.396   1.069  0.6288  0.5656  0.3620
 3573TIP3   OH210682   6.992   5.396   0.080 -0.1737 -0.1266 -0.2003
 3573TIP3    H110683   6.982   5.423  -0.012 -2.6752  3.6859  0.9028
 3573TIP3    H210684   6.906   5.361   0.103  0.3194 -0.7052  0.8021
 3574TIP3   OH210685   0.317   6.187   0.187  0.2726  0.1674 -0.2628
 3574TIP3    H110686   0.265   6.184   0.267 -0.1382  1.3104 -0.4793
 3574TIP3    H210687   0.263   6.142   0.122  1.7765 -3.3986  0.6738
 3575TIP3   OH210688   2.966   6.637   4.952  0.0776 -0.3198  0.5465
 3575TIP3    H110689   2.988   6.583   4.875 -1.6018  0.5576 -0.5982
 3575TIP3    H210690   3.038   6.699   4.958  0.1642 -0.3122 -0.4111
 3576TIP3   OH210691   4.547   6.279   5.484  0.2920 -0.0641  0.6300
 3576TIP3    H110692   4.458   6.279   5.519  0.6972 -1.7757  1.7625
 3576TIP3    H210693   4.602   6.259   5.559  1.3998 -1.5576 -0.5253
 3577TIP3   OH210694   7.024   1.999   1.827  0.0813  0.4838  0.0826
 3577TIP3    H110695   6.959   2.039   1.885  0.1168 -1.7882  1.7907
 3577TIP3    H210696   6.980   1.921   1.792  1.0138  0.3345 -0.8247
 3578TIP3   OH210697   4.056   1.549   2.732 -0.0923 -0.0583  0.4113
 3578TIP3    H110698   4.150   1.552   2.751 -0.0132  1.9593 -0.1041
 3578TIP3    H210699   4.037   1.455   2.720  2.0286 -0.4474 -0.3784
 3579TIP3   OH210700   1.106   3.019   1.133 -0.7088  0.3299  0.3343
 3579TIP3    H110701   1.069   3.073   1.203 -1.5928  0.5447 -0.2838
 3579TIP3    H210702   1.163   3.078   1.084  0.4183  0.0265  1.2193
 3580TIP3   OH210703   4.822   0.380   3.305 -0.4108  0.6267  0.0625
 3580TIP3    H110704   4.896   0.367   3.245  0.2945  0.5571  0.9237
 3580TIP3    H210705   4.800   0.473   3.296  0.0308  0.7360  0.0778
 3581TIP3   OH210706   1.392   2.876   4.699 -0.1352 -0.7974 -0.0876
 3581TIP3    H110707   1.411   2.956   4.650  1.0303 -1.7887 -1.3151
 3581TIP3    H210708   1.326   2.903   4.763  0.9685  1.3760  0.2246
 3582TIP3   OH210709   1.566   4.798   5.196  0.2851 -0.0162  0.1668
 3582TIP3    H110710   1.534   4.709   5.208 -1.0008  0.6266  2.0178
 3582TIP3    H210711   1.661   4.789   5.197  0.1821 -1.3548  0.6364
 3583TIP3   OH210712   2.442   2.865   5.031  0.0641 -0.1788  0.1651
 3583TIP3    H110713   2.478   2.900   4.949 -0.8249  0.2630 -0.0481
 3583TIP3    H210714   2.512   2.809   5.065  0.3681 -0.5549 -1.0135
 3584TIP3   OH210715   5.511   5.321   5.845 -0.1478 -0.3406 -0.1007
 3584TIP3    H110716   5.562   5.341   5.767 -0.5120  0.8119 -0.0539
 3584TIP3    H210717   5.519   5.226   5.854  0.9543 -0.3388 -0.7966
 3585TIP3   OH210718   2.268   2.055   2.307  0.7887  0.2623  0.2393
 3585TIP3    H110719   2.205   2.022   2.371  1.3772  0.4938  0.9512
 3585TIP3    H210720   2.328   2.110   2.357  1.6486 -0.0605 -0.3915
 3586TIP3   OH210721   0.199   5.794   1.771  0.4420 -0.1484  0.5795
 3586TIP3    H110722   0.269   5.755   1.718  1.2219  0.1418  1.3650
 3586TIP3    H210723   0.193   5.737   1.848 -2.0832 -1.7799 -0.6665
 3587TIP3   OH210724   5.011   5.806   1.341 -0.0070  0.1493  0.9444
 3587TIP3    H110725   5.027   5.734   1.280 -3.3149  0.8399 -1.0111
 3587TIP3    H210726   5.001   5.763   1.427 -0.7476 -1.6238  0.0295
 3588TIP3   OH210727   3.242   3.125   3.702 -0.3937 -0.6147 -0.1549
 3588TIP3    H110728   3.317   3.090   3.749 -0.3500 -1.1866 -0.6287
 3588TIP3    H210729   3.196   3.048   3.669 -0.7589 -0.2480 -0.5283
 3589TIP3   OH210730   4.740   3.661   3.991 -0.2829  0.4105  0.8444
 3589TIP3    H110731   4.716   3.690   4.079 -1.5772 -0.6442  0.8774
 3589TIP3    H210732   4.776   3.739   3.949  0.4516  0.9106  2.3261
 3590TIP3   OH210733   3.604   3.301   0.051  0.5702  0.1262 -0.1265
 3590TIP3    H110734   3.672   3.337   0.109  3.2813 -2.1464 -1.6186
 3590TIP3    H210735   3.613   3.206   0.060 -2.6590 -0.2863 -0.2622
 3591TIP3   OH210736   1.747   5.992   4.977  0.4237  0.5513 -0.6115
 3591TIP3    H110737   1.670   6.020   5.028 -0.2546 -1.6754 -0.3262
 3591TIP3    H210738   1.711   5.965   4.893  0.6416 -1.8857  0.0214
 3592TIP3   OH210739   0.624   2.430   2.858  0.0766  0.2280  0.2156
 3592TIP3    H110740   0.625   2.378   2.939  2.8466 -2.8093 -1.5379
 3592TIP3    H210741   0.548   2.397   2.810  0.2886 -0.3114  0.2401
 3593TIP3   OH210742   3.425   0.114   5.857  0.2422 -0.1755  0.0630
 3593TIP3    H110743   3.488   0.105   5.785 -0.0253 -0.3194 -0.1566
 3593TIP3    H210744   3.453   0.192   5.904 -0.1869  0.5306 -0.8087
 3594TIP3   OH210745   6.775   1.639   1.230 -0.4011 -0.2494  0.4399
 3594TIP3    H110746   6.846   1.579   1.208 -1.0384 -0.8767  0.0194
 3594TIP3    H210747   6.715   1.586   1.283 -2.6799 -1.1394 -2.6871
 3595TIP3   OH210748   5.316   2.527   0.587  0.4007 -0.7004 -0.1217
 3595TIP3    H110749   5.393   2.471   0.591 -0.0208 -1.5830 -2.5533
 3595TIP3    H210750   5.325   2.574   0.503 -1.5485 -0.6364 -0.3446
 3596TIP3   OH210751   3.790   2.215   4.865 -0.6270  0.1800  0.0565
 3596TIP3    H110752   3.772   2.207   4.771 -0.6795  0.9207 -0.0075
 3596TIP3    H210753   3.708   2.245   4.902 -0.2106  1.2893  0.1166
 3597TIP3   OH210754   0.391   3.455   1.464 -0.1523 -0.5583  0.0140
 3597TIP3    H110755   0.318   3.517   1.461 -0.1349 -0.5657 -0.7071
 3597TIP3    H210756   0.353   3.377   1.504 -0.5731 -0.5868 -0.4166
 3598TIP3   OH210757   2.667   3.295   1.461 -0.3437  0.4103 -0.3340
 3598TIP3    H110758   2.619   3.217   1.490  0.1757  0.3674  0.4198
 3598TIP3    H210759   2.632   3.312   1.373 -1.5369  0.2121  0.0769
 3599TIP3   OH210760   5.128   6.480   3.397  0.4725 -0.0974  0.7173
 3599TIP3    H110761   5.208   6.525   3.371 -0.7163  1.8570  0.2013
 3599TIP3    H210762   5.090   6.536   3.464 -1.4957  0.2067 -0.5539
 3600TIP3   OH210763   3.960   6.104   1.427 -0.0918  0.2240 -0.0122
 3600TIP3    H110764   4.024   6.127   1.495 -1.3089  0.2424  1.1515
 3600TIP3    H210765   3.876   6.131   1.463 -0.8293 -0.2650 -1.3141
 3601TIP3   OH210766   0.492   0.669   3.310  0.0295  0.3782  0.0329
 3601TIP3    H110767   0.484   0.634   3.398  0.7339 -0.2703 -0.1486
 3601TIP3    H210768   0.484   0.593   3.253 -0.8065  0.8429 -0.4898
 3602TIP3   OH210769   0.538   2.604   3.084  0.7529  0.2185  0.0262
 3602TIP3    H110770   0.602   2.640   3.022  0.1922 -0.8840 -1.2424
 3602TIP3    H210771   0.558   2.510   3.087 -0.3949 -0.0341  0.1035
 3603TIP3   OH210772   1.470   1.205   2.574  0.3355  0.5938  0.1656
 3603TIP3    H110773   1.502   1.221   2.662  1.6721 -1.6664  0.1638
 3603TIP3    H210774   1.428   1.120   2.578 -0.4192  0.8642 -1.1851
 3604TIP3   OH210775   6.334   1.615   4.857 -0.4578 -0.3028 -0.5530
 3604TIP3    H110776   6.294   1.649   4.937  2.4928  2.2106  0.0992
 3604TIP3    H210777   6.390   1.543   4.887 -1.5494 -1.2996 -0.8617
 3605TIP3   OH210778   2.986   0.515   1.598  0.1675  0.7177  0.0873
 3605TIP3    H110779   2.966   0.602   1.562  2.0489  1.0101 -0.3667
 3605TIP3    H210780   3.081   0.507   1.590 -0.1160 -2.3310 -2.0529
 3606TIP3   OH210781   4.270   5.655   4.590  0.4718  0.4857 -0.1576
 3606TIP3    H110782   4.282   5.746   4.562  1.0234  0.2490 -0.7312
 3606TIP3    H210783   4.223   5.661   4.673  1.8759  1.3800  0.6220
 3607TIP3   OH210784   2.205   3.719   1.494 -0.3108 -0.3430 -0.1679
 3607TIP3    H110785   2.255   3.712   1.575 -1.2592 -0.6108  0.4070
 3607TIP3    H210786   2.197   3.814   1.479  0.6462 -0.2971 -0.4573
 3608TIP3   OH210787   5.122   2.555   2.487  0.1455  0.1248 -0.3189
 3608TIP3    H110788   5.140   2.641   2.524  1.6767 -0.3038 -0.0141
 3608TIP3    H210789   5.134   2.565   2.393 -1.3179  0.6139 -0.4859
 3609TIP3   OH210790   2.602   2.697   2.374 -0.2148  0.3093  0.0392
 3609TIP3    H110791   2.640   2.785   2.363  1.6155 -0.3743  0.5430
 3609TIP3    H210792   2.522   2.712   2.425 -0.1455  1.7140 -0.2179
 3610TIP3   OH210793   4.514   5.162   3.990  0.0314 -0.1537 -0.4677
 3610TIP3    H110794   4.524   5.249   4.029 -0.7736  0.3198 -1.2757
 3610TIP3    H210795   4.534   5.101   4.061 -1.6515  0.6846  0.7701
 3611TIP3   OH210796   6.279   5.961   5.201 -1.0856  0.5898  0.0919
 3611TIP3    H110797   6.300   5.938   5.292  0.6013 -0.0333 -0.4180
 3611TIP3    H210798   6.235   6.046   5.207 -0.5778  0.7776  1.4482
 3612TIP3   OH210799   1.191   4.771   5.760 -0.2260 -0.0761  0.2005
 3612TIP3    H110800   1.194   4.826   5.682 -0.9428  0.7162  0.6996
 3612TIP3    H210801   1.190   4.681   5.727 -1.9044  0.2607 -0.7653
 3613TIP3   OH210802   4.358   4.199   0.915  0.0184  0.3003 -0.0841
 3613TIP3    H110803   4.265   4.187   0.935  0.0414 -0.6262 -0.4629
 3613TIP3    H210804   4.404   4.143   0.978  0.2041 -0.7710 -1.1246
 3614TIP3   OH210805   2.958   4.936   1.664  0.5768 -0.1156  0.1571
 3614TIP3    H110806   2.945   4.846   1.692  1.1793 -0.3898 -0.4336
 3614TIP3    H210807   2.907   4.944   1.583  1.7380 -0.3821 -0.6262
 3615TIP3   OH210808   4.778   1.581   3.808 -0.5011  0.0062  0.2813
 3615TIP3    H110809   4.713   1.636   3.851 -0.9329 -0.9446  0.8923
 3615TIP3    H210810   4.747   1.573   3.718 -0.1952  1.1000  0.0645
 3616TIP3   OH210811   3.970   0.222   5.334  0.2261 -0.2973 -0.4936
 3616TIP3    H110812   3.876   0.233   5.346  0.3840  0.8310 -0.2564
 3616TIP3    H210813   4.002   0.308   5.310  1.3694 -0.4087  0.5235
 3617TIP3   OH210814   3.350   6.434   1.990  0.1361  0.3029  0.4873
 3617TIP3    H110815   3.274   6.488   1.969  0.5675  1.0220  0.7344
 3617TIP3    H210816   3.327   6.390   2.072  0.0570  0.6497  0.6512
 3618TIP3   OH210817   2.485   3.759   2.900 -0.1140  0.8709 -0.0815
 3618TIP3    H110818   2.487   3.789   2.991 -0.2237 -1.1690  0.6435
 3618TIP3    H210819   2.565   3.707   2.890 -1.4755 -1.3430 -0.2181
 3619TIP3   OH210820   4.743   6.515   4.391  0.1394  0.1679  0.2145
 3619TIP3    H110821   4.730   6.556   4.476 -0.6515 -1.3897  0.8850
 3619TIP3    H210822   4.655   6.487   4.364  0.4970 -0.1149 -0.7148
 3620TIP3   OH210823   6.855   5.458   2.566 -0.0946  0.4128 -0.1007
 3620TIP3    H110824   6.870   5.423   2.478  0.4707 -0.4430  0.3233
 3620TIP3    H210825   6.764   5.436   2.585 -0.4395  1.2309 -0.7429
 3621TIP3   OH210826   0.269   3.849   3.822 -0.2247  0.0686  0.2373
 3621TIP3    H110827   0.302   3.894   3.900  0.4271  1.3921 -0.7591
 3621TIP3    H210828   0.175   3.868   3.822 -0.2552 -0.0560  0.7561
 3622TIP3   OH210829   7.214   1.021   0.975  0.1737  0.5002 -0.0006
 3622TIP3    H110830   7.127   1.059   0.989 -0.3396 -1.3169  2.3881
 3622TIP3    H210831   7.274   1.082   1.018 -0.0702  0.9979 -0.3524
 3623TIP3   OH210832   3.499   4.964   3.567  0.2200  0.2823  0.2907
 3623TIP3    H110833   3.524   4.875   3.592 -1.0474 -0.0699  0.3488
 3623TIP3    H210834   3.574   5.018   3.594  1.3376 -0.8389 -0.4356
 3624TIP3   OH210835   0.142   5.163   4.798  0.0464 -0.0580  0.2627
 3624TIP3    H110836   0.054   5.195   4.777  0.2166  0.5095  0.3897
 3624TIP3    H210837   0.138   5.070   4.779 -0.8822 -0.2357  1.2089
 3625TIP3   OH210838   6.782   2.923   4.859  0.6586 -0.4731 -0.5159
 3625TIP3    H110839   6.690   2.907   4.838  0.2831 -0.0035  0.7164
 3625TIP3    H210840   6.820   2.956   4.777  0.0516 -1.8703 -1.4000
 3626TIP3   OH210841   6.683   2.057   5.769  0.1224 -0.2104  0.5564
 3626TIP3    H110842   6.701   2.063   5.676  0.3104  0.4897  0.6307
 3626TIP3    H210843   6.592   2.026   5.775  0.6670 -1.9590  0.1658
 3627TIP3   OH210844   1.247   1.769   5.297  0.5376  0.6102 -0.0723
 3627TIP3    H110845   1.288   1.684   5.282  0.9749  1.1032 -1.8202
 3627TIP3    H210846   1.301   1.831   5.249 -0.8031  1.6262 -0.3300
 3628TIP3   OH210847   7.094   0.154   5.770 -0.1792 -0.1379  0.3301
 3628TIP3    H110848   7.013   0.104   5.770 -0.5839  0.4782  1.7928
 3628TIP3    H210849   7.163   0.089   5.786 -0.4395 -0.5451 -0.1648
 3629TIP3   OH210850   5.570   5.849   5.279  0.0625  0.4430  0.0363
 3629TIP3    H110851   5.502   5.808   5.226  0.5073 -0.4297  0.1282
 3629TIP3    H210852   5.544   5.832   5.369  1.1446 -1.1854  0.0726
 3630TIP3   OH210853   1.490   6.067   5.054 -0.0119  0.2781 -0.7282
 3630TIP3    H110854   1.473   6.161   5.057 -0.6193  0.1937 -1.2931
 3630TIP3    H210855   1.454   6.032   5.135 -1.6527  0.2501 -1.4369
 3631TIP3   OH210856   6.936   6.570   4.007 -0.6510  0.0554 -0.0988
 3631TIP3    H110857   6.966   6.613   3.926 -1.6311  0.6176 -0.1832
 3631TIP3    H210858   6.955   6.477   3.993  2.6754  0.4925  0.5929
 3632TIP3   OH210859   4.755   6.673   1.890  0.3225 -0.2052  0.1240
 3632TIP3    H110860   4.843   6.704   1.911  0.3832 -0.3391  0.0689
 3632TIP3    H210861   4.765   6.579   1.878  0.4782 -0.0234 -1.4047
 3633TIP3   OH210862   7.136   0.242   2.043 -0.4281 -0.6718  0.3017
 3633TIP3    H110863   7.043   0.219   2.039 -0.3529 -1.1453  1.1279
 3633TIP3    H210864   7.174   0.178   2.103  1.4377 -3.8067 -3.7263
 3634TIP3   OH210865   6.914   6.427   5.136  0.4291  0.3702  0.7217
 3634TIP3    H110866   6.861   6.477   5.197  0.9877 -1.1023  2.5029
 3634TIP3    H210867   6.853   6.367   5.093  0.2985  0.2395  1.0929
 3635TIP3   OH210868   2.349   1.827   4.296 -0.2566  0.0298 -0.0084
 3635TIP3    H110869   2.416   1.805   4.231 -0.5203 -2.6958  0.5096
 3635TIP3    H210870   2.307   1.743   4.316 -1.9768  1.2185  1.7233
 3636TIP3   OH210871   1.848   3.150   2.474 -0.6175  0.0285  0.1323
 3636TIP3    H110872   1.777   3.182   2.419 -0.6522 -0.0785  0.1149
 3636TIP3    H210873   1.804   3.103   2.545 -0.5517 -3.6030 -1.9718
 3637TIP3   OH210874   6.028   3.988   3.388 -0.3922 -0.6291 -0.1457
 3637TIP3    H110875   5.963   4.058   3.396 -0.0082 -0.1740 -0.9468
 3637TIP3    H210876   6.047   3.983   3.295  2.0691  0.5024  0.2202
 3638TIP3   OH210877   6.204   1.730   3.307  0.7525 -0.1464 -0.5925
 3638TIP3    H110878   6.162   1.644   3.317 -0.1679  0.3669  0.0608
 3638TIP3    H210879   6.275   1.714   3.244  0.4039 -1.3146 -0.7222
 3639TIP3   OH210880   4.134   1.525   5.706  0.2586  0.1341 -0.4739
 3639TIP3    H110881   4.136   1.572   5.790 -1.3037  0.3072 -0.5140
 3639TIP3    H210882   4.128   1.433   5.731 -3.1237  0.2970 -0.2960
 3640TIP3   OH210883   0.176   0.806   5.582  0.1855  0.0114 -0.2272
 3640TIP3    H110884   0.125   0.726   5.598 -2.9337  1.6532 -1.1658
 3640TIP3    H210885   0.178   0.851   5.666  0.6661 -0.3331 -0.0476
 3641TIP3   OH210886   1.848   2.534   5.827 -0.1916  0.5631 -0.3150
 3641TIP3    H110887   1.768   2.516   5.779 -0.7845  3.0289 -0.3844
 3641TIP3    H210888   1.820   2.583   5.904  1.1802  1.0972 -0.1170
 3642TIP3   OH210889   3.807   2.181   4.015  0.4272 -0.6034  0.0383
 3642TIP3    H110890   3.818   2.086   4.028 -0.8910 -0.6156  1.1649
 3642TIP3    H210891   3.747   2.188   3.941 -0.3846 -0.6809  0.6768
 3643TIP3   OH210892   1.263   5.136   1.191  0.6547  0.0957  0.5769
 3643TIP3    H110893   1.179   5.177   1.209  1.3562  1.1486  1.6479
 3643TIP3    H210894   1.281   5.083   1.269  0.3944 -1.1691 -0.2064
 3644TIP3   OH210895   1.239   0.146   1.071  0.0975 -0.1411 -0.2252
 3644TIP3    H110896   1.184   0.105   1.005 -0.1470  2.7679 -1.9929
 3644TIP3    H210897   1.328   0.116   1.053  0.1046  0.9617 -2.2812
 3645TIP3   OH210898   4.287   0.193   5.606  0.5597 -0.2007  0.0858
 3645TIP3    H110899   4.290   0.098   5.621  1.7406 -0.2710 -0.4360
 3645TIP3    H210900   4.242   0.228   5.683 -0.7701 -1.2602 -0.1626
 3646TIP3   OH210901   6.742   3.506   2.154  0.0667  0.2988 -0.4679
 3646TIP3    H110902   6.691   3.564   2.210  0.4564  0.7018 -0.5247
 3646TIP3    H210903   6.693   3.504   2.071 -1.0194 -1.0483  0.1719
 3647TIP3   OH210904   4.547   2.498   2.245  0.2210 -0.1838 -0.1922
 3647TIP3    H110905   4.536   2.587   2.210  0.0936 -0.5799 -1.1863
 3647TIP3    H210906   4.458   2.471   2.268  0.1316 -0.3907 -0.7571
 3648TIP3   OH210907   3.017   6.685   5.751 -0.2162  0.2796  0.5893
 3648TIP3    H110908   2.995   6.656   5.840  0.9725 -0.3165  0.7088
 3648TIP3    H210909   2.945   6.652   5.697 -0.8066  0.3983  1.2864
 3649TIP3   OH210910   7.223   0.049   0.818 -0.0578 -0.8251  0.1756
 3649TIP3    H110911   7.185   0.010   0.740  0.5181  0.2304 -0.6547
 3649TIP3    H210912   7.232  -0.024   0.880 -0.2828 -1.7241 -0.8284
 3650TIP3   OH210913   0.750   6.656   2.778 -0.2646 -0.0438 -0.4585
 3650TIP3    H110914   0.795   6.740   2.775 -0.5832  0.1127 -1.0847
 3650TIP3    H210915   0.812   6.594   2.740 -0.4556  0.1227 -1.0640
 3651TIP3   OH210916   2.082   2.858   2.623  0.3463  0.0983 -0.7689
 3651TIP3    H110917   2.080   2.946   2.585 -1.8897  0.7747  0.6739
 3651TIP3    H210918   1.995   2.823   2.606  0.8403 -1.3973 -0.3284
 3652TIP3   OH210919   1.638   6.644   1.326  0.2419  0.0936  0.2187
 3652TIP3    H110920   1.716   6.589   1.330  0.0919 -0.0901  0.6237
 3652TIP3    H210921   1.628   6.680   1.414  0.6567  1.2277 -0.1812
 3653TIP3   OH210922   5.026   1.272   5.687  0.3083 -0.2925  0.0789
 3653TIP3    H110923   5.078   1.342   5.727 -0.7504 -1.1621  3.3031
 3653TIP3    H210924   5.080   1.194   5.696 -0.4954 -0.7501  1.1725
 3654TIP3   OH210925   2.082   6.309   1.917 -0.9043 -0.1069  0.0805
 3654TIP3    H110926   2.035   6.256   1.853 -2.1404  1.6257 -0.5066
 3654TIP3    H210927   2.133   6.370   1.864 -0.0424 -0.2247  0.7515
 3655TIP3   OH210928   2.064   5.467   2.489  0.1792 -0.1279  0.0698
 3655TIP3    H110929   1.987   5.460   2.544  0.6700 -1.6777  0.5980
 3655TIP3    H210930   2.088   5.377   2.468  0.9258  0.3675 -1.3974
 3656TIP3   OH210931   5.130   1.151   5.204 -0.2097  0.6666 -0.2037
 3656TIP3    H110932   5.107   1.148   5.297  0.7313 -1.0005  0.0184
 3656TIP3    H210933   5.225   1.164   5.203 -0.2571  1.0330 -0.9530
 3657TIP3   OH210934   4.070   2.175   4.855  0.0389  0.6762  0.2124
 3657TIP3    H110935   3.976   2.178   4.875 -0.3230  0.6876 -1.4046
 3657TIP3    H210936   4.109   2.239   4.915 -0.6296 -0.9151  2.5254
 3658TIP3   OH210937   3.523   5.445   3.954 -0.2559  0.3431  0.0904
 3658TIP3    H110938   3.487   5.450   4.042  0.5257 -0.9939  0.5287
 3658TIP3    H210939   3.583   5.519   3.948  0.0772  0.1446  0.8744
 3659TIP3   OH210940   1.307   3.288   1.396  0.5075  0.4339  0.0805
 3659TIP3    H110941   1.354   3.344   1.334  0.7141 -0.1072 -0.2728
 3659TIP3    H210942   1.215   3.313   1.387  0.6074  0.7616 -0.0228
 3660TIP3   OH210943   7.075   6.325   4.025  0.2188 -0.1796  0.0193
 3660TIP3    H110944   7.082   6.251   4.085  0.3449 -0.3843 -0.2477
 3660TIP3    H210945   7.161   6.368   4.027 -0.1550  0.5612  0.9418
 3661TIP3   OH210946   2.604   6.231   2.906  0.2179  0.1827  0.5312
 3661TIP3    H110947   2.529   6.270   2.951  0.4436  1.5150 -0.1764
 3661TIP3    H210948   2.567   6.159   2.856 -0.4079  0.1417  1.0403
 3662TIP3   OH210949   2.490   4.619   4.272  0.5530  0.1716  0.6887
 3662TIP3    H110950   2.574   4.656   4.248  0.0738  1.7704  1.3223
 3662TIP3    H210951   2.487   4.534   4.228  2.5652 -0.0223  0.8248
 3663TIP3   OH210952   1.491   3.972   2.183  0.2673 -0.3837 -0.5550
 3663TIP3    H110953   1.395   3.970   2.173  0.4922 -1.4101 -3.7903
 3663TIP3    H210954   1.522   4.009   2.101  2.7286 -3.3717 -1.1390
 3664TIP3   OH210955   3.119   2.940   4.644 -0.5930  0.2393  0.3224
 3664TIP3    H110956   3.097   2.859   4.690 -0.8981 -0.1205 -0.4315
 3664TIP3    H210957   3.151   2.911   4.559 -1.3341  0.9308 -0.2132
 3665TIP3   OH210958   1.743   3.084   4.147  0.0230  0.4926 -0.2676
 3665TIP3    H110959   1.800   3.042   4.083  1.6782 -0.9682  1.9960
 3665TIP3    H210960   1.771   3.176   4.147  2.6975 -0.2228  0.9336
 3666TIP3   OH210961   0.772   5.656   5.235  0.2793  0.1888  0.5582
 3666TIP3    H110962   0.849   5.708   5.258 -0.0570  0.2020  1.7152
 3666TIP3    H210963   0.699   5.717   5.239  0.1747  0.1421 -0.3997
 3667TIP3   OH210964   3.529   4.951   3.979 -0.1177 -0.8607 -0.1028
 3667TIP3    H110965   3.587   4.937   4.054 -0.1481 -1.9235 -0.2512
 3667TIP3    H210966   3.576   5.012   3.923  0.7311 -1.4682 -0.0741
 3668TIP3   OH210967   5.394   4.744   4.330  0.6956  0.1096 -0.2706
 3668TIP3    H110968   5.308   4.708   4.351  0.9257 -0.9037 -1.0153
 3668TIP3    H210969   5.443   4.739   4.412 -0.1522  1.3565  0.3521
 3669TIP3   OH210970   1.642   0.722   1.249  0.3604  0.0752 -0.7644
 3669TIP3    H110971   1.585   0.799   1.255 -0.0310 -0.3162  2.0515
 3669TIP3    H210972   1.730   0.758   1.248  0.1586  0.5883 -0.4360
 3670TIP3   OH210973   5.080   5.828   3.746  0.3364 -0.1021  0.0912
 3670TIP3    H110974   5.067   5.828   3.651 -0.1624 -1.2658  0.1443
 3670TIP3    H210975   5.083   5.921   3.770 -2.3937  0.2731 -0.6932
 3671TIP3   OH210976   0.580   5.048   3.818 -0.1699  0.3309  0.6212
 3671TIP3    H110977   0.642   5.121   3.815 -0.0165  0.2155  0.9227
 3671TIP3    H210978   0.573   5.026   3.911  1.4144 -1.3940  0.4110
 3672TIP3   OH210979   1.228   2.006   3.982 -0.5294  0.2407 -0.6299
 3672TIP3    H110980   1.261   2.074   4.040 -3.0044  0.3868  0.7434
 3672TIP3    H210981   1.298   1.992   3.919  1.3394  1.7507  0.9873
 3673TIP3   OH210982   6.556   4.578   1.868 -0.3066  0.1275 -0.3058
 3673TIP3    H110983   6.637   4.622   1.840 -0.7655  0.7239 -0.7293
 3673TIP3    H210984   6.498   4.650   1.894  0.0366 -0.4004  2.0687
 3674TIP3   OH210985   5.632   1.534   2.500  0.2485  0.7022  0.5950
 3674TIP3    H110986   5.683   1.530   2.581  0.8580  0.9170  0.2265
 3674TIP3    H210987   5.697   1.538   2.431 -0.2355 -1.3044 -0.0428
 3675TIP3   OH210988   2.222   4.002   2.598 -0.2857 -0.0402  0.3650
 3675TIP3    H110989   2.224   3.968   2.508 -1.8368  0.1559  0.2284
 3675TIP3    H210990   2.242   4.095   2.588  2.0256 -0.4644  0.5288
 3676TIP3   OH210991   6.847   5.794   0.579 -0.0622  0.4499  0.0358
 3676TIP3    H110992   6.812   5.883   0.575 -0.0563  0.4221 -2.2049
 3676TIP3    H210993   6.937   5.802   0.548  0.1912 -0.2295  0.5775
 3677TIP3   OH210994   6.526   2.121   0.288  0.3075  0.1698  0.2620
 3677TIP3    H110995   6.590   2.163   0.232  1.2808 -1.5814 -0.0119
 3677TIP3    H210996   6.543   2.156   0.375 -0.5274  2.1170 -0.3053
 3678TIP3   OH210997   2.910   1.868   2.654 -0.0639  0.2803 -0.3068
 3678TIP3    H110998   2.919   1.857   2.748 -1.1788  2.6798  0.1673
 3678TIP3    H210999   2.879   1.784   2.622 -2.6649  0.2568  1.9598
 3679TIP3   OH211000   4.261   6.463   5.304 -0.0640 -0.0251  0.1450
 3679TIP3    H111001   4.169   6.488   5.318 -1.1064 -0.9472 -3.8345
 3679TIP3    H211002   4.262   6.368   5.316  0.4726  0.0134  0.4391
 3680TIP3   OH211003   0.864   5.745   4.061 -0.0757  0.6141  0.2747
 3680TIP3    H111004   0.779   5.701   4.064 -0.0176  0.4277 -0.7346
 3680TIP3    H211005   0.927   5.676   4.082  0.0334  0.1270 -1.5063
 3681TIP3   OH211006   5.171   5.155   4.968  0.1780  0.7764 -0.1256
 3681TIP3    H111007   5.092   5.115   4.933 -0.2541  0.8758  0.7293
 3681TIP3    H211008   5.207   5.204   4.894 -0.8711  1.2135 -0.3692
 3682TIP3   OH211009   1.533   6.328   2.952  0.0597 -0.8283 -0.1542
 3682TIP3    H111010   1.617   6.373   2.954 -0.7266  0.7337 -0.3931
 3682TIP3    H211011   1.549   6.244   2.995  1.9944 -1.0560 -1.1920
 3683TIP3   OH211012   2.901   2.909   2.639  0.9155  0.8511  0.1155
 3683TIP3    H111013   2.867   2.822   2.620 -0.1391  0.2114  4.0831
 3683TIP3    H211014   2.916   2.948   2.553  0.2968 -2.7605 -1.8251
 3684TIP3   OH211015   4.040   6.421   4.291  0.8545 -0.9235  0.4150
 3684TIP3    H111016   4.016   6.495   4.235  1.5335 -0.5148  0.6491
 3684TIP3    H211017   3.980   6.351   4.266 -0.4212 -0.0072  0.8298
 3685TIP3   OH211018   0.954   6.183   3.908  0.0259 -0.1434 -1.1363
 3685TIP3    H111019   1.030   6.127   3.889 -0.3801 -0.5317 -1.6794
 3685TIP3    H211020   0.880   6.122   3.913 -0.0943  0.0938  0.5360
 3686TIP3   OH211021   2.506   0.960   5.005  0.4422  0.3257 -0.6043
 3686TIP3    H111022   2.587   0.941   5.052  0.3189  1.3798  0.0594
 3686TIP3    H211023   2.530   1.027   4.941  0.0617  0.8197 -0.2428
 3687TIP3   OH211024   0.573   6.117   4.138 -0.2513  0.1179  0.0809
 3687TIP3    H111025   0.667   6.102   4.127 -0.1895  1.2776 -1.1709
 3687TIP3    H211026   0.532   6.038   4.103  0.2449 -1.1017  2.0693
 3688TIP3   OH211027   0.601   4.311   4.131  0.0629  0.3932  0.1314
 3688TIP3    H111028   0.639   4.386   4.177 -0.0673  0.5109  0.0433
 3688TIP3    H211029   0.661   4.295   4.058  0.4895 -0.0397  0.5652
 3689TIP3   OH211030   6.573   2.225   2.757  0.4493  0.0707 -0.0873
 3689TIP3    H111031   6.519   2.194   2.684 -0.8975 -1.0049  1.2858
 3689TIP3    H211032   6.651   2.262   2.715 -0.7237  0.4460 -2.0920
 3690TIP3   OH211033   1.499   2.593   2.035 -0.4699 -0.0701  0.0944
 3690TIP3    H111034   1.557   2.668   2.017  0.5071 -1.0374 -0.9700
 3690TIP3    H211035   1.502   2.584   2.130 -0.2693  0.9734  0.2092
 3691TIP3   OH211036   4.596   4.881   1.259 -0.9878  0.1340  0.2044
 3691TIP3    H111037   4.659   4.808   1.260 -0.5294  0.5199  1.3524
 3691TIP3    H211038   4.577   4.894   1.166  0.5838 -0.0514 -0.1843
 3692TIP3   OH211039   6.421   5.653   2.928  0.3919 -0.1146 -0.1844
 3692TIP3    H111040   6.351   5.655   2.863 -0.2935  2.7518  0.5253
 3692TIP3    H211041   6.382   5.611   3.005  0.4506 -1.2624 -0.7533
 3693TIP3   OH211042   2.118   4.335   3.378 -0.4695 -0.3433 -0.7103
 3693TIP3    H111043   2.165   4.388   3.314  1.5882 -0.9027  0.2391
 3693TIP3    H211044   2.188   4.295   3.431 -2.0572 -0.9350  1.0263
 3694TIP3   OH211045   2.804   1.480   1.998  0.7427  0.5444  0.7255
 3694TIP3    H111046   2.884   1.453   1.953 -1.4330 -2.9000 -1.5336
 3694TIP3    H211047   2.771   1.553   1.945  0.1817 -0.9824 -1.1351
 3695TIP3   OH211048   6.560   4.559   1.318 -0.4774 -0.6261 -0.1459
 3695TIP3    H111049   6.585   4.525   1.232  2.5119  1.4068 -0.2082
 3695TIP3    H211050   6.527   4.647   1.301 -1.4767 -0.8127  0.6769
 3696TIP3   OH211051   0.120   5.154   4.062 -0.0561  0.5023  0.7088
 3696TIP3    H111052   0.136   5.218   3.994  0.1577 -0.5621 -0.2752
 3696TIP3    H211053   0.150   5.071   4.024 -1.6574 -0.4232  1.3981
 3697TIP3   OH211054   2.784   4.365   3.216 -0.3201 -0.0490  0.1153
 3697TIP3    H111055   2.829   4.329   3.293 -1.4109 -2.2715 -0.2332
 3697TIP3    H211056   2.840   4.438   3.189  1.0889 -0.3791  1.8894
 3698TIP3   OH211057   5.106   4.026   3.174  0.1566 -0.2181 -0.2945
 3698TIP3    H111058   5.190   4.061   3.143  0.5836 -0.7325  0.2632
 3698TIP3    H211059   5.130   3.968   3.246 -0.8336  1.1819  1.2179
 3699TIP3   OH211060   5.336   6.625   2.706  0.4023  0.1012  0.4503
 3699TIP3    H111061   5.430   6.640   2.705  0.4665  0.0543  2.6486
 3699TIP3    H211062   5.325   6.538   2.745 -0.5502 -0.0968 -0.2068
 3700TIP3   OH211063   6.930   1.138   0.996  0.1429  0.0317 -0.3218
 3700TIP3    H111064   6.898   1.216   1.039  0.9588 -0.3896  1.1181
 3700TIP3    H211065   6.887   1.065   1.041  1.1890 -0.4300 -0.0395
 3701TIP3   OH211066   4.691   4.823   2.704 -0.0659  0.2011 -0.0513
 3701TIP3    H111067   4.645   4.899   2.668  0.1715 -0.6500 -2.2964
 3701TIP3    H211068   4.662   4.818   2.795 -0.4786  2.6549  0.0163
 3702TIP3   OH211069   5.963   2.748   2.459 -0.2617 -0.2958 -0.8387
 3702TIP3    H111070   5.898   2.803   2.502  1.3185  0.2206  1.0258
 3702TIP3    H211071   5.946   2.660   2.491 -0.8147 -0.3729 -1.3385
 3703TIP3   OH211072   2.898   6.410   3.625  1.0083  0.0603  0.7803
 3703TIP3    H111073   2.861   6.441   3.543 -0.6947  0.4895  1.6605
 3703TIP3    H211074   2.992   6.430   3.619  0.7358  1.0420 -0.5987
 3704TIP3   OH211075   0.788   3.871   0.391  0.0965  0.3791 -0.5479
 3704TIP3    H111076   0.780   3.782   0.425  2.0696  0.6091  0.6596
 3704TIP3    H211077   0.799   3.860   0.296 -1.2225 -0.5329 -0.6164
 3705TIP3   OH211078   5.096   3.691   4.059  0.4560 -0.1354 -0.3298
 3705TIP3    H111079   5.040   3.719   4.131  0.9920  0.3575 -0.0941
 3705TIP3    H211080   5.156   3.765   4.046  1.2477 -0.7736 -0.3746
 3706TIP3   OH211081   6.906   2.032   2.302  0.2111  0.4452 -0.2542
 3706TIP3    H111082   6.962   2.022   2.379  1.2971  0.6771 -0.9991
 3706TIP3    H211083   6.902   2.127   2.288  2.1049  0.3307 -1.9481
 3707TIP3   OH211084   6.957   5.032   0.155 -0.0218 -0.6817  0.3172
 3707TIP3    H111085   6.962   5.072   0.242  1.5023 -1.3745  0.5783
 3707TIP3    H211086   6.902   4.955   0.167 -2.8177  1.0950 -0.1495
 3708TIP3   OH211087   4.472   3.336   2.405  0.0445  0.4032 -0.1034
 3708TIP3    H111088   4.551   3.328   2.353 -0.4051  0.1130 -0.7535
 3708TIP3    H211089   4.401   3.321   2.343 -0.5843  2.1240  0.1475
 3709TIP3   OH211090   4.602   3.214   3.223 -0.4347 -0.7328  0.0643
 3709TIP3    H111091   4.516   3.255   3.236  0.6572  2.0121 -0.5787
 3709TIP3    H211092   4.590   3.123   3.250 -2.7574  0.2741  2.8897
 3710TIP3   OH211093   1.084   2.111   4.382 -0.2893 -0.5087 -0.5126
 3710TIP3    H111094   1.030   2.152   4.449 -0.7706 -1.3133 -0.3954
 3710TIP3    H211095   1.056   2.020   4.381  0.3372 -0.7044 -1.1879
 3711TIP3   OH211096   1.504   3.665   1.463 -0.3387 -0.4200  0.7381
 3711TIP3    H111097   1.548   3.703   1.387  0.6356 -0.0051  1.4865
 3711TIP3    H211098   1.446   3.734   1.495  0.0399 -0.2086  0.9844
 3712TIP3   OH211099   6.735   6.498   5.317  0.3033  0.0462  0.0927
 3712TIP3    H111100   6.685   6.424   5.351  0.4447  0.5654  1.5061
 3712TIP3    H211101   6.691   6.576   5.353  1.1046  0.5790 -0.0500
 3713TIP3   OH211102   3.459   0.858   5.424  0.4104  0.2505  0.1435
 3713TIP3    H111103   3.461   0.763   5.440 -0.9105  0.3599  1.1938
 3713TIP3    H211104   3.543   0.878   5.384  1.6058 -1.0342  1.8701
 3714TIP3   OH211105   3.693   5.243   0.791 -0.5632  0.2161  0.4786
 3714TIP3    H111106   3.729   5.280   0.710 -2.0661  0.3270 -0.1789
 3714TIP3    H211107   3.684   5.319   0.849 -1.7391  0.5934 -0.1466
 3715TIP3   OH211108   3.395   5.624   2.431  0.2719  0.1013  0.0574
 3715TIP3    H111109   3.433   5.692   2.487  0.5333 -0.2369  0.2919
 3715TIP3    H211110   3.466   5.562   2.417  0.2643  0.2846 -0.8153
 3716TIP3   OH211111   4.817   5.019  -0.021 -0.2102  0.1751  0.1475
 3716TIP3    H111112   4.779   5.104   0.001  0.1713  0.5277 -0.5238
 3716TIP3    H211113   4.876   4.999   0.051  0.3031  0.8607 -0.0707
 3717TIP3   OH211114   6.897   3.708   4.088 -0.4436 -0.4845  0.9065
 3717TIP3    H111115   6.892   3.712   3.993 -0.5767 -3.9735  0.6423
 3717TIP3    H211116   6.889   3.800   4.116  1.3102  0.8971 -2.4479
 3718TIP3   OH211117   4.444   0.172   4.298 -0.1774  0.2368  0.6072
 3718TIP3    H111118   4.359   0.215   4.299 -1.4103 -2.0695  1.3911
 3718TIP3    H211119   4.446   0.123   4.216  0.8017  0.9542  0.1765
 3719TIP3   OH211120   5.911   1.608   5.841  0.4317  0.4163 -0.0038
 3719TIP3    H111121   5.994   1.569   5.870  0.6944  0.7028 -0.3581
 3719TIP3    H211122   5.864   1.535   5.800  0.5724  0.2849  0.0670
 3720TIP3   OH211123   5.527   1.226   1.110 -0.0240 -0.0229 -0.3633
 3720TIP3    H111124   5.605   1.175   1.085 -0.2157  0.6523 -2.5222
 3720TIP3    H211125   5.552   1.317   1.095 -0.7816  0.3050  0.2874
 3721TIP3   OH211126   4.644   2.764   5.037  0.0501 -0.0993  0.7244
 3721TIP3    H111127   4.593   2.830   5.082 -0.7671 -2.1207  3.0270
 3721TIP3    H211128   4.724   2.756   5.090  1.3258  0.7751 -0.9912
 3722TIP3   OH211129   6.668   4.822   4.593  1.3945  0.0335 -0.1801
 3722TIP3    H111130   6.719   4.775   4.658  0.1573 -0.0977  0.7465
 3722TIP3    H211131   6.638   4.901   4.639  0.0532 -0.3263 -0.3991
 3723TIP3   OH211132   0.583   5.599   5.033  0.0367 -0.0711 -0.4487
 3723TIP3    H111133   0.643   5.621   5.105 -1.7593  0.8310  0.8558
 3723TIP3    H211134   0.503   5.570   5.077 -0.8173 -0.3384 -2.1113
 3724TIP3   OH211135   0.996   5.008   0.624  0.0859 -0.1750  0.4036
 3724TIP3    H111136   0.907   5.026   0.652 -0.4317 -0.6675 -0.8477
 3724TIP3    H211137   1.007   5.059   0.543  0.1858 -1.7651 -0.6257
 3725TIP3   OH211138   2.776   0.010   0.203 -0.6155 -0.0737  0.4406
 3725TIP3    H111139   2.860  -0.001   0.248  2.3280  1.2213 -4.0098
 3725TIP3    H211140   2.742   0.093   0.237  1.6262  1.0343  0.2123
 3726TIP3   OH211141   3.077   3.442   5.452 -0.1153 -0.4598  0.4178
 3726TIP3    H111142   3.002   3.498   5.473 -0.1584 -0.6091  0.6624
 3726TIP3    H211143   3.111   3.415   5.537  0.5815  0.0927  0.3254
 3727TIP3   OH211144   6.024   2.498   2.545 -0.2939  0.2682  0.0613
 3727TIP3    H111145   6.060   2.436   2.482 -2.8391 -2.1991  0.8068
 3727TIP3    H211146   6.035   2.455   2.630 -0.8231  1.5017  0.7771
 3728TIP3   OH211147   6.898   5.768   2.620  0.4841  0.2584 -0.2116
 3728TIP3    H111148   6.895   5.713   2.698  0.3199  0.5521 -0.0077
 3728TIP3    H211149   6.910   5.857   2.653 -2.1685  0.7577 -0.3271
 3729TIP3   OH211150   1.644   1.500   1.462  0.1029 -0.3440  0.6191
 3729TIP3    H111151   1.697   1.577   1.481  0.2187 -0.7944  2.3558
 3729TIP3    H211152   1.687   1.459   1.387  2.1375 -0.5499  1.8007
 3730TIP3   OH211153   2.434   5.793   3.996  0.0948  0.1119 -0.0868
 3730TIP3    H111154   2.440   5.872   3.943  0.3137  0.0441 -0.1653
 3730TIP3    H211155   2.373   5.815   4.066  1.5677  0.9795  0.9904
 3731TIP3   OH211156   5.413   4.490   5.260  0.1308  0.4075 -0.5790
 3731TIP3    H111157   5.466   4.563   5.291 -1.4557  0.9179  1.1114
 3731TIP3    H211158   5.440   4.416   5.314  1.1635 -0.0987 -1.7413
 3732TIP3   OH211159   5.602   1.211   3.431  0.0674 -0.5603 -0.3135
 3732TIP3    H111160   5.695   1.214   3.450 -0.0087  1.7380  0.0211
 3732TIP3    H211161   5.596   1.199   3.336  0.8092  1.9894 -0.7377
 3733TIP3   OH211162   5.127   6.526   2.182  0.2252  0.8671 -0.1426
 3733TIP3    H111163   5.148   6.497   2.094  1.6902 -1.3879  0.8487
 3733TIP3    H211164   5.062   6.464   2.214 -0.5235  1.8385  0.2774
 3734TIP3   OH211165   6.814   2.617   4.740  0.1434  0.0039 -0.5741
 3734TIP3    H111166   6.800   2.680   4.670 -1.6142 -0.7013 -0.9040
 3734TIP3    H211167   6.802   2.531   4.698  0.4546 -0.4775  0.2914
 3735TIP3   OH211168   2.266   2.348   3.819  0.2711 -0.6803 -0.9435
 3735TIP3    H111169   2.196   2.394   3.771  0.8624 -0.5207 -1.6775
 3735TIP3    H211170   2.229   2.333   3.906 -0.9896 -1.3161 -1.5486
 3736TIP3   OH211171   6.185   2.462   5.099  0.4847 -0.3261  0.3885
 3736TIP3    H111172   6.183   2.375   5.137 -1.1105  0.6748  2.8443
 3736TIP3    H211173   6.266   2.501   5.132  1.1699 -0.8106 -0.6663
 3737TIP3   OH211174   3.729   2.752   4.304 -0.1340  0.0517 -0.3962
 3737TIP3    H111175   3.789   2.785   4.237 -0.0789 -0.4051 -0.5719
 3737TIP3    H211176   3.786   2.719   4.373 -0.1909  0.4854 -0.1417
 3738TIP3   OH211177   0.997   1.261   2.495  0.4995 -0.2195 -0.0356
 3738TIP3    H111178   0.945   1.305   2.428  0.9545  0.8760  0.3203
 3738TIP3    H211179   0.944   1.185   2.519 -1.1226  1.0548  0.5808
 3739TIP3   OH211180   0.432   3.179   2.047  0.1632  0.3970  0.4357
 3739TIP3    H111181   0.353   3.230   2.028  0.3260  0.3777 -0.3144
 3739TIP3    H211182   0.422   3.153   2.139 -1.7850 -1.4617 -0.2039
 3740TIP3   OH211183   4.025   4.594   0.298  0.2937  0.1496 -0.5634
 3740TIP3    H111184   4.019   4.604   0.203  1.5368  0.8642 -0.5967
 3740TIP3    H211185   3.940   4.559   0.325 -0.0284 -0.1651 -1.9462
 3741TIP3   OH211186   1.298   2.593   1.193 -0.1355  0.4754  0.4441
 3741TIP3    H111187   1.288   2.601   1.288  1.9657  3.8659  0.5345
 3741TIP3    H211188   1.392   2.580   1.180 -0.3602  0.2654 -1.1933
 3742TIP3   OH211189   6.634   5.593   4.661 -0.1513 -0.3412 -0.1669
 3742TIP3    H111190   6.672   5.647   4.591  0.4092 -1.1614 -0.5097
 3742TIP3    H211191   6.606   5.656   4.727  1.5343  0.3253 -0.0429
 3743TIP3   OH211192   0.563   2.562   3.363  0.1202 -0.1618 -0.0733
 3743TIP3    H111193   0.565   2.604   3.277  1.1162 -1.5857 -0.7797
 3743TIP3    H211194   0.655   2.548   3.385 -0.1226  0.1348  1.2157
 3744TIP3   OH211195   5.441   3.050   2.298 -0.0186  0.3708  0.5636
 3744TIP3    H111196   5.510   3.085   2.354  1.1819 -0.4661 -0.3418
 3744TIP3    H211197   5.411   3.124   2.247  2.4340  0.2113 -1.2834
 3745TIP3   OH211198   4.413   5.323   2.537  0.2039 -0.2320  0.1230
 3745TIP3    H111199   4.329   5.369   2.536 -0.1477 -0.8668 -0.3589
 3745TIP3    H211200   4.409   5.268   2.616 -0.0839 -0.7039 -0.2160
 3746TIP3   OH211201   0.977   2.192   2.157  0.3825 -0.8293 -0.6258
 3746TIP3    H111202   1.026   2.120   2.198 -0.3281 -0.9566  0.0313
 3746TIP3    H211203   1.038   2.265   2.156  0.8692 -1.2245 -0.6100
 3747TIP3   OH211204   5.744   6.058   4.607  0.4396  0.0700  0.4099
 3747TIP3    H111205   5.649   6.059   4.618  0.4921 -0.0166  0.9094
 3747TIP3    H211206   5.759   5.994   4.537  0.1318  0.0503  0.3601
 3748TIP3   OH211207   5.268   3.270   1.595  0.7336 -0.1977  0.3398
 3748TIP3    H111208   5.302   3.181   1.589 -0.2530 -0.4787 -2.8098
 3748TIP3    H211209   5.344   3.323   1.619  1.9130 -1.6045 -0.1682
 3749TIP3   OH211210   2.958   2.454   4.553  0.0034 -0.8160 -0.7947
 3749TIP3    H111211   3.024   2.470   4.621 -1.3378 -0.2043  0.4048
 3749TIP3    H211212   2.990   2.376   4.508 -0.3059 -2.8452  2.1857
 3750TIP3   OH211213   3.600   0.285   0.622 -0.2208 -0.5604 -0.4408
 3750TIP3    H111214   3.681   0.295   0.671 -0.1092 -1.4587 -0.4290
 3750TIP3    H211215   3.531   0.295   0.688 -0.1348  0.1229 -0.4386
 3751TIP3   OH211216   6.824   1.948   4.354  0.9344  0.2581 -0.3376
 3751TIP3    H111217   6.770   1.982   4.282  0.7756  0.0171 -0.3327
 3751TIP3    H211218   6.895   1.901   4.311  0.9220  0.2395 -0.3374
 3752TIP3   OH211219   7.172   3.563   5.036 -0.0678 -0.4339 -0.6029
 3752TIP3    H111220   7.151   3.572   4.943  2.3835  1.1638 -1.1106
 3752TIP3    H211221   7.117   3.628   5.080  0.8875  0.9635 -1.3837
 3753TIP3   OH211222   4.296   5.199   4.188 -0.2228  0.1110 -0.6217
 3753TIP3    H111223   4.374   5.159   4.226 -0.4152  0.4530  0.1498
 3753TIP3    H211224   4.230   5.130   4.188 -0.2024  0.0914 -0.3834
 3754TIP3   OH211225   3.965   4.768   3.539 -0.1792  0.0543  0.1600
 3754TIP3    H111226   3.993   4.853   3.506  0.3453 -0.9765 -2.2714
 3754TIP3    H211227   3.891   4.787   3.597  0.4538  2.1977  0.3205
 3755TIP3   OH211228   4.278   4.789   1.220  0.0132 -0.1605 -0.0305
 3755TIP3    H111229   4.247   4.708   1.260 -0.2175 -0.4793 -0.8560
 3755TIP3    H211230   4.290   4.769   1.128  2.8021 -0.0773  0.2244
 3756TIP3   OH211231   0.004   4.403   1.569 -0.4194  0.3214  0.2620
 3756TIP3    H111232   0.078   4.432   1.515 -1.4328  1.5834 -0.5024
 3756TIP3    H211233   0.012   4.453   1.650 -0.3468  0.3222  0.2548
 3757TIP3   OH211234   6.161   4.130   5.003 -0.2933 -0.4897  0.0345
 3757TIP3    H111235   6.081   4.087   4.972 -0.7619  1.0305 -1.0429
 3757TIP3    H211236   6.203   4.162   4.923 -1.2233  3.0859  0.7890
 3758TIP3   OH211237   4.012   1.884   3.577 -0.2101  0.6003 -0.4772
 3758TIP3    H111238   3.923   1.883   3.542 -0.4247  0.2794  0.0621
 3758TIP3    H211239   4.000   1.888   3.672  0.3456  0.0560 -0.3768
 3759TIP3   OH211240   4.792   4.482   2.761  0.3567 -0.2973  0.1899
 3759TIP3    H111241   4.800   4.547   2.691  0.8317 -1.6629 -1.1021
 3759TIP3    H211242   4.698   4.477   2.778  0.3104  0.6347  0.2092
 3760TIP3   OH211243   3.178   5.091   1.682 -0.1350 -0.3397 -0.3053
 3760TIP3    H111244   3.091   5.054   1.667 -1.2598  1.4461  1.3755
 3760TIP3    H211245   3.230   5.062   1.606 -1.6490 -2.9290 -0.4543
 3761TIP3   OH211246   5.213   3.965   4.055  0.1905  0.0148  0.0145
 3761TIP3    H111247   5.285   4.023   4.082  0.0265  0.1614  0.1389
 3761TIP3    H211248   5.211   3.974   3.959 -2.4749  3.4575  0.2067
 3762TIP3   OH211249   3.612   6.315   3.094 -0.8316 -0.0464 -0.2566
 3762TIP3    H111250   3.666   6.394   3.089  1.3746 -1.3426  1.0309
 3762TIP3    H211251   3.610   6.281   3.005  1.4479 -0.4779 -0.2084
 3763TIP3   OH211252   1.065   0.341   1.033 -0.3635 -0.2478  0.6743
 3763TIP3    H111253   1.129   0.289   1.082 -0.3039  0.0661  0.9311
 3763TIP3    H211254   0.983   0.328   1.080 -0.4029 -0.3143  0.5880
 3764TIP3   OH211255   2.303   4.542   5.003  0.3290 -0.0196  0.4344
 3764TIP3    H111256   2.292   4.616   5.062 -0.7459 -0.5685  0.9535
 3764TIP3    H211257   2.277   4.575   4.917  2.8584  1.0722  0.0018
 3765TIP3   OH211258   4.343   1.065   5.117  0.3168  0.1193  0.1017
 3765TIP3    H111259   4.363   1.021   5.034 -0.0004 -1.4145  0.7892
 3765TIP3    H211260   4.403   1.139   5.121  0.6763 -0.0817 -1.2597
 3766TIP3   OH211261   2.661   6.310   1.150 -0.1838  0.2389 -0.1131
 3766TIP3    H111262   2.653   6.389   1.097 -1.6111 -0.2950 -0.7411
 3766TIP3    H211263   2.746   6.319   1.193  1.2354  0.5218 -2.7663
 3767TIP3   OH211264   6.358   3.426   2.966  0.2224  0.0328  0.2731
 3767TIP3    H111265   6.272   3.465   2.975  0.1603 -0.2794  1.2567
 3767TIP3    H211266   6.404   3.481   2.903 -1.0925 -0.5249 -1.2450
 3768TIP3   OH211267   7.181   1.595   3.028  0.1209  0.0482  0.6031
 3768TIP3    H111268   7.220   1.511   3.052  3.4923  2.1214  3.3390
 3768TIP3    H211269   7.129   1.619   3.105 -2.1871 -0.1009 -0.7965
 3769TIP3   OH211270   6.776   3.524   4.936  0.2451  0.3556 -0.2605
 3769TIP3    H111271   6.838   3.597   4.941 -0.0371  0.5196  2.0537
 3769TIP3    H211272   6.762   3.510   4.842  1.4407  2.2982 -0.7816
 3770TIP3   OH211273   0.281   2.353   4.270  0.2441  0.6672 -0.2808
 3770TIP3    H111274   0.276   2.381   4.179  0.1054  0.0475 -0.4715
 3770TIP3    H211275   0.313   2.262   4.266  3.1633  1.5646  0.4445
 3771TIP3   OH211276   0.081   4.719   2.601  0.2734 -0.1960  0.3438
 3771TIP3    H111277   0.174   4.720   2.621  0.2128  3.9196  1.2491
 3771TIP3    H211278   0.037   4.735   2.685 -1.0840 -0.0143 -0.3593
 3772TIP3   OH211279   5.110   5.899   4.264 -0.2651  0.3224 -0.1036
 3772TIP3    H111280   5.051   5.851   4.206 -0.5138  1.6365 -0.9707
 3772TIP3    H211281   5.072   5.887   4.351 -1.0262 -0.0131 -0.4715
 3773TIP3   OH211282   5.722   6.319   2.798 -0.3408 -0.3835  0.1358
 3773TIP3    H111283   5.694   6.229   2.782  2.2524 -1.3138  0.2400
 3773TIP3    H211284   5.727   6.358   2.711  1.0668 -1.2277 -0.1932
 3774TIP3   OH211285   0.703   5.410   2.124  0.1499  0.0943  0.8363
 3774TIP3    H111286   0.641   5.460   2.177  0.0242 -1.9004  2.7172
 3774TIP3    H211287   0.781   5.465   2.119 -0.4989  1.1101  1.5389
 3775TIP3   OH211288   3.327   5.351   1.638  0.5419  0.0246 -0.5113
 3775TIP3    H111289   3.252   5.291   1.634 -0.2763  1.0672 -1.5532
 3775TIP3    H211290   3.403   5.294   1.648 -0.4507 -1.0277  1.9732
 3776TIP3   OH211291   2.954   2.850   2.929 -0.5667  0.2730 -0.2090
 3776TIP3    H111292   2.912   2.892   2.854  3.3583  0.2789 -2.6929
 3776TIP3    H211293   3.012   2.917   2.964 -0.0084 -0.7190  0.8054
 3777TIP3   OH211294   5.564   0.741   3.785  0.0446  0.7014 -0.1988
 3777TIP3    H111295   5.557   0.826   3.740 -0.1318 -0.1482 -1.8501
 3777TIP3    H211296   5.473   0.718   3.806  0.1414  1.1869  0.8244
 3778TIP3   OH211297   5.518   5.576   4.477  0.6553 -0.2316  0.2312
 3778TIP3    H111298   5.431   5.596   4.442  0.1611 -1.7993  0.4681
 3778TIP3    H211299   5.574   5.645   4.441 -0.3639 -0.1449 -1.3336
 3779TIP3   OH211300   3.668   0.114   2.856 -0.5366 -0.2890  0.5220
 3779TIP3    H111301   3.693   0.199   2.819 -0.4636 -1.3213 -1.9320
 3779TIP3    H211302   3.750   0.065   2.862 -0.9733 -1.3311 -1.2809
 3780TIP3   OH211303   3.745   3.045   2.531  0.9729  0.0479  0.9702
 3780TIP3    H111304   3.697   2.994   2.466  1.0978 -0.4548  1.2631
 3780TIP3    H211305   3.747   2.988   2.608  0.4068  0.8318  1.5679
 3781TIP3   OH211306   2.230   0.362   2.555  0.1224  0.5517 -0.2396
 3781TIP3    H111307   2.264   0.279   2.588 -1.3531  0.1532  0.3821
 3781TIP3    H211308   2.208   0.411   2.635 -3.8091 -0.5444 -0.4133
 3782TIP3   OH211309   2.534   6.138   4.383  0.3663 -0.2969  0.5962
 3782TIP3    H111310   2.551   6.195   4.459  1.3113 -0.6128  0.6398
 3782TIP3    H211311   2.575   6.184   4.309 -2.1189  0.9314 -0.1334
 3783TIP3   OH211312   1.201   5.600   1.725  0.0313  0.2309 -0.6931
 3783TIP3    H111313   1.150   5.562   1.653  0.2983 -0.1464 -0.6869
 3783TIP3    H211314   1.138   5.656   1.771 -0.4331 -0.3591 -0.5848
 3784TIP3   OH211315   0.722   3.096   3.839  0.3718  0.3873  0.2696
 3784TIP3    H111316   0.734   3.162   3.908  0.3169 -0.5585  1.2125
 3784TIP3    H211317   0.794   3.110   3.778 -0.5884  2.4323 -0.4971
 3785TIP3   OH211318   5.342   5.066   3.655  0.1805 -0.2883  0.0074
 3785TIP3    H111319   5.418   5.114   3.689  0.1000 -0.3200  0.2283
 3785TIP3    H211320   5.303   5.126   3.591  1.1917 -0.8058 -1.1364
 3786TIP3   OH211321   2.549   2.855   2.002 -0.3243  0.1887 -0.0501
 3786TIP3    H111322   2.634   2.896   2.020 -0.0293 -0.3579 -0.1760
 3786TIP3    H211323   2.505   2.916   1.943 -0.0724  0.5330  0.1107
 3787TIP3   OH211324   0.408   2.307   2.737  0.1541  0.4626  0.1665
 3787TIP3    H111325   0.408   2.365   2.661  1.0999  3.2535  2.1155
 3787TIP3    H211326   0.374   2.224   2.704 -0.3520  1.7956 -3.0550
 3788TIP3   OH211327   3.654   3.756   3.977 -0.3419  0.6050 -0.3079
 3788TIP3    H111328   3.586   3.796   3.923 -1.9250  0.0619  1.2000
 3788TIP3    H211329   3.664   3.668   3.941  0.7996  1.2017 -1.5587
 3789TIP3   OH211330   3.643   1.711   4.709  0.6823 -0.5799  0.2940
 3789TIP3    H111331   3.637   1.641   4.773 -0.4194  0.0515  0.9094
 3789TIP3    H211332   3.555   1.717   4.672  1.4600 -1.4335 -1.8476
 3790TIP3   OH211333   1.877   3.139   5.650 -0.0322  0.0895  0.1818
 3790TIP3    H111334   1.785   3.144   5.678 -0.2321  0.1833 -0.4724
 3790TIP3    H211335   1.879   3.189   5.568  0.5930  0.0351  0.1656
 3791TIP3   OH211336   5.624   6.000   0.782  0.2005 -0.2235 -0.6281
 3791TIP3    H111337   5.623   6.001   0.686  0.3810 -0.9802 -0.6457
 3791TIP3    H211338   5.714   5.974   0.804  0.0282 -0.5168 -0.2646
 3792TIP3   OH211339   0.895   3.609   1.466 -0.4479  0.0788 -0.3333
 3792TIP3    H111340   0.872   3.654   1.548  0.7116 -0.4665  0.3150
 3792TIP3    H211341   0.876   3.673   1.398 -0.6858  0.8395  0.4210
 3793TIP3   OH211342   1.620   0.786   5.912 -0.2697 -0.3437 -0.2586
 3793TIP3    H111343   1.647   0.700   5.878 -2.1298 -1.2604  0.4818
 3793TIP3    H211344   1.614   0.842   5.835 -0.4210 -1.2670 -0.9248
 3794TIP3   OH211345   4.502   3.887   5.244  0.2697  0.5672 -0.3800
 3794TIP3    H111346   4.565   3.852   5.181  0.3524 -0.1012  0.0581
 3794TIP3    H211347   4.421   3.898   5.194  0.6015  0.9942 -0.8354
 3795TIP3   OH211348   1.443   0.380   4.906  0.0086  0.3434 -0.5861
 3795TIP3    H111349   1.385   0.455   4.923 -1.4661 -0.6606 -1.0073
 3795TIP3    H211350   1.385   0.304   4.905  1.2523 -0.6483 -1.6116
 3796TIP3   OH211351   4.792   5.941   0.460 -0.6897  0.6905 -0.0564
 3796TIP3    H111352   4.788   5.888   0.381  2.5446 -2.3037  1.5015
 3796TIP3    H211353   4.728   5.903   0.519 -0.9147  0.9006 -0.1637
 3797TIP3   OH211354   4.786   6.121   2.303  0.2424 -0.1948  0.4690
 3797TIP3    H111355   4.718   6.120   2.370  1.8694  0.3114  2.2181
 3797TIP3    H211356   4.802   6.029   2.284  0.7438 -0.4102  1.8527
 3798TIP3   OH211357   2.990   3.568   0.562  0.1438  0.0407  0.0660
 3798TIP3    H111358   3.028   3.656   0.555  0.2437 -0.1086 -1.6027
 3798TIP3    H211359   3.008   3.541   0.652  2.1716  0.8105 -0.0623
 3799TIP3   OH211360   4.297   2.722   1.212  0.0064  0.4418 -0.5245
 3799TIP3    H111361   4.376   2.717   1.265  0.3988  0.9088 -1.0504
 3799TIP3    H211362   4.325   2.766   1.131 -1.0028  1.5485 -0.2951
 3800TIP3   OH211363   5.891   1.786   5.306 -0.3062 -0.1383 -0.3777
 3800TIP3    H111364   5.914   1.734   5.229 -0.1015 -0.9230  0.2006
 3800TIP3    H211365   5.835   1.728   5.358  0.4218 -0.0151  0.5677
 3801TIP3   OH211366   6.026   0.996   0.557 -0.2873  0.2281  0.4415
 3801TIP3    H111367   6.105   1.048   0.575 -1.6163  2.1261  1.1085
 3801TIP3    H211368   6.055   0.931   0.493  1.9657  0.4324  1.1484
 3802TIP3   OH211369   6.455   4.556   3.278  0.8241 -0.0957  0.5980
 3802TIP3    H111370   6.479   4.625   3.218 -0.7617 -0.5318 -0.6014
 3802TIP3    H211371   6.509   4.481   3.253  0.6584 -0.0658  0.1528
 3803TIP3   OH211372   4.828   1.319   0.438 -0.1334 -0.0556  0.4596
 3803TIP3    H111373   4.808   1.226   0.448 -1.0625  0.0746 -0.0844
 3803TIP3    H211374   4.923   1.321   0.423  0.1232 -0.7855  1.8246
 3804TIP3   OH211375   3.857   1.386   4.241  0.2175 -0.1160  0.4548
 3804TIP3    H111376   3.798   1.312   4.226 -2.5731  1.7462  1.4315
 3804TIP3    H211377   3.900   1.367   4.324  0.5151 -1.1799  0.0765
 3805TIP3   OH211378   2.645   4.851   2.175 -0.0474  0.4606  0.0666
 3805TIP3    H111379   2.661   4.943   2.154  0.0485  0.8182  1.6330
 3805TIP3    H211380   2.701   4.833   2.250  1.1787 -1.3611 -1.1932
 3806TIP3   OH211381   4.374   5.897   4.500  0.4850  0.8375 -0.5301
 3806TIP3    H111382   4.425   5.884   4.420  0.3228 -0.2020 -0.4841
 3806TIP3    H211383   4.405   5.980   4.535 -0.2014  1.8667 -2.2351
 3807TIP3   OH211384   4.691   5.540   0.250  0.0097 -0.6669 -0.2698
 3807TIP3    H111385   4.635   5.524   0.326 -0.1811  1.0863 -0.0149
 3807TIP3    H211386   4.632   5.530   0.175  0.0525 -1.7547 -0.1744
 3808TIP3   OH211387   6.082   2.601   0.070 -0.4439 -0.4811 -0.3876
 3808TIP3    H111388   6.154   2.558   0.024 -1.5982 -0.4209 -2.3643
 3808TIP3    H211389   6.078   2.557   0.155 -0.2532 -2.8968 -1.5415
 3809TIP3   OH211390   6.238   1.067   5.580 -0.1855  0.2239 -0.1675
 3809TIP3    H111391   6.170   1.073   5.512 -0.6929  2.7058  0.4377
 3809TIP3    H211392   6.191   1.083   5.662  0.7862 -0.3977  0.5320
 3810TIP3   OH211393   1.397   4.217   0.975  0.0566 -0.2890  0.4355
 3810TIP3    H111394   1.348   4.158   0.918  0.4035 -2.1363  1.9031
 3810TIP3    H211395   1.488   4.186   0.969  0.5538  1.1725  0.0095
 3811TIP3   OH211396   1.413   4.109   4.233  0.2517  0.1532  0.6772
 3811TIP3    H111397   1.447   4.114   4.143 -0.1499  3.0631  0.5742
 3811TIP3    H211398   1.318   4.123   4.223  0.3197  1.3608  1.5874
 3812TIP3   OH211399   5.135   6.078   0.178 -0.0097 -0.3294 -0.1221
 3812TIP3    H111400   5.137   5.994   0.225  1.7719  0.0801  0.6184
 3812TIP3    H211401   5.049   6.080   0.137  0.5124 -3.3002 -1.6065
 3813TIP3   OH211402   4.281   3.385   0.654  0.2387 -0.3633 -0.0314
 3813TIP3    H111403   4.330   3.459   0.620 -1.4459  0.6377 -0.4340
 3813TIP3    H211404   4.230   3.420   0.727 -1.5237 -0.7582 -0.9989
 3814TIP3   OH211405   6.540   2.939   0.166  0.0399  0.0206  0.2527
 3814TIP3    H111406   6.465   2.911   0.114 -1.7641  1.4351  1.9773
 3814TIP3    H211407   6.589   2.998   0.108 -1.8999  1.5286  0.0483
 3815TIP3   OH211408   6.049   2.105   1.446 -0.3101  0.1698  0.1296
 3815TIP3    H111409   6.113   2.102   1.375  0.4815  1.0187  0.7866
 3815TIP3    H211410   5.971   2.063   1.409  0.8785 -1.7138 -0.4196
 3816TIP3   OH211411   7.151   6.612   3.444 -0.0423  0.5567  0.8178
 3816TIP3    H111412   7.140   6.524   3.408  1.4302  0.9805 -0.7510
 3816TIP3    H211413   7.242   6.615   3.474  0.0886  1.7230  0.3413
 3817TIP3   OH211414   3.731   3.084   2.013 -0.5798 -0.5338 -0.3129
 3817TIP3    H111415   3.670   3.031   2.065  0.3883 -0.7680  0.6049
 3817TIP3    H211416   3.702   3.174   2.028 -0.7931 -0.6508 -0.0106
 3818TIP3   OH211417   4.612   4.974   1.870 -0.3485  0.1020 -0.1750
 3818TIP3    H111418   4.652   4.891   1.896 -0.1149  0.2220 -0.1487
 3818TIP3    H211419   4.587   4.961   1.778 -2.7546 -0.9429  0.5391
 3819TIP3   OH211420   2.463   0.693   2.027  0.0553  0.3029 -0.5190
 3819TIP3    H111421   2.471   0.760   2.094 -1.5283  0.6930 -0.6847
 3819TIP3    H211422   2.546   0.696   1.980  1.0141  0.3436  1.0898
 3820TIP3   OH211423   3.929   6.354   0.272 -0.5611  0.3201 -0.1675
 3820TIP3    H111424   3.883   6.429   0.234  0.5213  1.1572  0.0974
 3820TIP3    H211425   3.992   6.329   0.204  0.7945  1.2787  0.6826
 3821TIP3   OH211426   6.210   5.185   2.289 -0.4036  0.7433  0.6119
 3821TIP3    H111427   6.199   5.132   2.367  0.7678 -0.6741 -0.1395
 3821TIP3    H211428   6.126   5.229   2.278 -1.1020 -0.2341  1.7870
 3822TIP3   OH211429   2.126   1.633   3.819 -0.1284  0.1180  0.0289
 3822TIP3    H111430   2.147   1.652   3.728 -1.0843  0.3987 -0.1460
 3822TIP3    H211431   2.172   1.551   3.838  1.7915  1.1258 -0.0509
 3823TIP3   OH211432   2.867   5.877   1.017  0.0115  0.0742  0.3302
 3823TIP3    H111433   2.823   5.792   1.028  0.2419  0.1004  1.6139
 3823TIP3    H211434   2.796   5.940   1.011 -0.1461 -0.0730  0.6436
 3824TIP3   OH211435   0.386   6.019   5.077 -0.1395  0.4509  0.4537
 3824TIP3    H111436   0.299   6.052   5.053 -0.6525  1.1174  2.9841
 3824TIP3    H211437   0.436   6.022   4.995 -1.7838  2.3754 -0.5617
 3825TIP3   OH211438   1.516   2.916   3.828 -0.0546 -0.0300  0.0107
 3825TIP3    H111439   1.611   2.916   3.816 -0.2028  0.9118 -1.3882
 3825TIP3    H211440   1.480   2.913   3.739 -1.3239  0.5962  0.4766
 3826TIP3   OH211441   7.115   5.289   4.685  0.0697 -0.8493 -0.6115
 3826TIP3    H111442   7.083   5.266   4.598 -0.5116  0.0762 -0.6612
 3826TIP3    H211443   7.039   5.280   4.742  0.5002 -1.6568 -0.1528
 3827TIP3   OH211444   1.602   3.647   0.750 -0.4518  0.3045 -0.3168
 3827TIP3    H111445   1.681   3.658   0.803 -0.0101  1.2019 -1.1323
 3827TIP3    H211446   1.555   3.730   0.758 -2.2160 -0.7654  1.5119
 3828TIP3   OH211447   1.460   3.757   3.732  0.2966 -0.3589 -0.0225
 3828TIP3    H111448   1.470   3.665   3.756  1.9363 -0.2668 -0.2335
 3828TIP3    H211449   1.366   3.772   3.731  0.0296 -1.4526  2.2656
 3829TIP3   OH211450   4.489   2.578   3.847 -0.5451 -0.4998 -0.0747
 3829TIP3    H111451   4.396   2.582   3.869 -0.5644  0.0360 -0.2402
 3829TIP3    H211452   4.502   2.490   3.814 -0.7416 -0.9847  1.0859
 3830TIP3   OH211453   2.021   1.604   4.073  0.4054 -0.2062 -0.3045
 3830TIP3    H111454   2.053   1.637   3.990 -0.5950  0.8174 -0.3122
 3830TIP3    H211455   2.095   1.556   4.111  1.8767  1.8711 -0.3928
 3831TIP3   OH211456   1.548   3.755   0.073  0.2086 -0.2816 -0.1343
 3831TIP3    H111457   1.577   3.725   0.159  2.0012 -1.1850 -1.0210
 3831TIP3    H211458   1.457   3.726   0.067  1.4357 -4.7146 -0.4544
 3832TIP3   OH211459   5.342   4.110   1.306  0.4851 -0.1871 -0.0554
 3832TIP3    H111460   5.269   4.056   1.274 -0.8815  0.7661  1.3603
 3832TIP3    H211461   5.313   4.200   1.292  0.4556  0.2491  2.3984
 3833TIP3   OH211462   0.147   5.377   0.475 -0.2611 -0.0061 -0.1126
 3833TIP3    H111463   0.084   5.448   0.463 -0.5327 -0.4728 -1.6756
 3833TIP3    H211464   0.141   5.355   0.567 -0.8579  1.3680  0.2029
 3834TIP3   OH211465   1.849   4.778   4.900 -0.2014 -0.3054  0.1086
 3834TIP3    H111466   1.919   4.814   4.846 -1.2244  1.1341 -0.3301
 3834TIP3    H211467   1.787   4.741   4.837 -0.1197 -1.0877  0.4685
 3835TIP3   OH211468   5.637   4.681   3.897  0.1499 -0.2255 -0.6352
 3835TIP3    H111469   5.566   4.743   3.884  1.2618  1.4129  0.6495
 3835TIP3    H211470   5.681   4.677   3.812  0.6444  1.5842 -0.5176
 3836TIP3   OH211471   2.591   6.028   3.497  0.1722 -0.0696 -0.1454
 3836TIP3    H111472   2.504   6.007   3.530  0.8379 -0.9415  1.1873
 3836TIP3    H211473   2.635   6.070   3.571  0.2968  2.1669 -1.4120
 3837TIP3   OH211474   7.227   3.516   2.630 -0.6386 -0.0190 -0.1508
 3837TIP3    H111475   7.237   3.490   2.538 -2.2763 -0.0594 -0.3559
 3837TIP3    H211476   7.144   3.563   2.632 -1.1663 -0.9489  1.5006
 3838TIP3   OH211477   7.214   4.103   2.374 -1.0025  0.0482 -0.5098
 3838TIP3    H111478   7.183   4.127   2.286  0.4594 -0.2871 -1.1378
 3838TIP3    H211479   7.164   4.025   2.396 -2.0059  0.6235 -0.6601
 3839TIP3   OH211480   2.957   3.361   4.244  0.3236  0.2939 -0.3757
 3839TIP3    H111481   2.992   3.272   4.240 -1.3737 -0.4327 -0.0748
 3839TIP3    H211482   2.995   3.405   4.168  1.9929 -0.3589  0.0476
 3840TIP3   OH211483   6.264   4.324   3.965  0.2917 -0.3120 -0.5977
 3840TIP3    H111484   6.236   4.365   4.047 -0.3524 -0.9193 -0.4975
 3840TIP3    H211485   6.183   4.292   3.925  0.6967 -0.8418 -1.0199
 3841TIP3   OH211486   1.971   5.630   3.225 -0.1850 -0.2776 -0.0878
 3841TIP3    H111487   2.033   5.667   3.163 -0.1569 -1.3916 -0.7437
 3841TIP3    H211488   2.009   5.546   3.251 -0.0239  0.2996  1.7264
 3842TIP3   OH211489   6.378   3.752   4.100 -0.6199 -0.0266 -0.5987
 3842TIP3    H111490   6.462   3.722   4.135 -0.7015 -0.4202 -0.7281
 3842TIP3    H211491   6.320   3.755   4.176 -0.5342  0.0773 -0.5378
 3843TIP3   OH211492   0.052   4.049   0.955 -0.0867 -0.2241  0.0599
 3843TIP3    H111493   0.111   4.118   0.924  1.0417 -1.2708 -0.1888
 3843TIP3    H211494   0.107   3.992   1.008 -0.6535 -1.7390 -0.9194
 3844TIP3   OH211495   6.054   2.885   4.264  0.0836  0.3468  0.0321
 3844TIP3    H111496   6.041   2.977   4.239  0.3228  0.5336  0.5859
 3844TIP3    H211497   6.149   2.875   4.270  0.1892 -0.4962 -2.0464
 3845TIP3   OH211498   6.842   2.237   3.169  0.0859 -0.4800  0.2912
 3845TIP3    H111499   6.932   2.267   3.153 -1.3503  3.5531 -1.3320
 3845TIP3    H211500   6.818   2.277   3.252 -0.5856 -0.4704  0.0980
 3846TIP3   OH211501   4.957   5.007   4.861 -0.3975 -0.3127 -0.1464
 3846TIP3    H111502   4.942   5.049   4.776 -0.0646 -1.3764 -0.7530
 3846TIP3    H211503   4.895   5.050   4.920  1.3414  2.4887 -0.2186
 3847TIP3   OH211504   6.482   6.392   2.651  0.8759 -0.1909 -0.2831
 3847TIP3    H111505   6.435   6.473   2.630  0.1764 -0.2798  0.8752
 3847TIP3    H211506   6.462   6.334   2.578 -0.3661 -0.0257 -0.1005
 3848TIP3   OH211507   3.528   5.791   1.524  0.8284  0.0989 -0.4826
 3848TIP3    H111508   3.444   5.747   1.511 -0.4416  1.8976  1.1525
 3848TIP3    H211509   3.552   5.771   1.614  2.6675 -1.0901 -1.1547
 3849TIP3   OH211510  -0.011   5.802   4.817 -0.0646  0.0689  0.6538
 3849TIP3    H111511   0.084   5.808   4.819 -0.1492  1.8764  1.4632
 3849TIP3    H211512  -0.039   5.877   4.764 -1.0575  0.5331  1.7747
 3850TIP3   OH211513   3.841   5.488   0.264 -0.0074  0.7573 -0.2798
 3850TIP3    H111514   3.924   5.451   0.294 -0.1611 -1.1671 -2.0741
 3850TIP3    H211515   3.785   5.486   0.342  1.2738  1.0827  0.6822
 3851TIP3   OH211516   6.471   3.116   5.597  0.4965  0.3440  0.1457
 3851TIP3    H111517   6.410   3.090   5.528 -0.5548  0.8592  0.8501
 3851TIP3    H211518   6.556   3.086   5.567 -0.2820 -1.5895 -0.2563
 3852TIP3   OH211519   4.058   3.086   0.810  0.4290  0.5035  0.2214
 3852TIP3    H111520   4.034   3.033   0.886  0.7272 -0.2421 -0.1963
 3852TIP3    H211521   3.990   3.153   0.805  1.5967  2.0125  2.5056
 3853TIP3   OH211522   6.743   4.126   2.112 -0.6615 -0.4319  0.0127
 3853TIP3    H111523   6.681   4.193   2.140  0.2111  0.9008 -1.1078
 3853TIP3    H211524   6.827   4.170   2.109 -0.5739 -0.4738 -4.1441
 3854TIP3   OH211525   4.597   6.346   4.717  0.4435  0.1379  0.3358
 3854TIP3    H111526   4.540   6.421   4.698 -0.3551 -0.3683  0.6753
 3854TIP3    H211527   4.579   6.326   4.808  2.9185  1.4248  1.1822
 3855TIP3   OH211528   5.884   0.222   5.378  0.4138  0.9273 -0.0521
 3855TIP3    H111529   5.862   0.130   5.391 -1.5152  1.1335 -1.3952
 3855TIP3    H211530   5.955   0.220   5.314  0.7757  0.3663  0.3537
 3856TIP3   OH211531   4.333   6.653   4.124  0.2256 -1.1684  0.5644
 3856TIP3    H111532   4.287   6.727   4.165  0.2363 -0.9860  0.2449
 3856TIP3    H211533   4.273   6.620   4.058 -0.3674 -2.3487  1.6624
 3857TIP3   OH211534   3.055   1.377   3.925  0.6909 -0.3132 -0.3238
 3857TIP3    H111535   3.004   1.336   3.995  1.4746 -1.6735 -0.4997
 3857TIP3    H211536   3.117   1.435   3.970  0.7485 -0.6763  0.0693
 3858TIP3   OH211537   0.097   0.947   3.912  0.5416 -0.0763 -0.4457
 3858TIP3    H111538   0.075   0.880   3.977 -0.0137  1.7165  1.2758
 3858TIP3    H211539   0.021   0.948   3.853  0.7673 -1.2718 -0.7871
 3859TIP3   OH211540   6.126   1.621   4.485 -0.0232  0.2838  0.0233
 3859TIP3    H111541   6.061   1.674   4.439 -2.1454 -0.6615  1.7518
 3859TIP3    H211542   6.184   1.686   4.527  0.6626  1.1366 -2.1054
 3860TIP3   OH211543   6.659   2.971   5.224 -0.0372 -0.4583 -0.0379
 3860TIP3    H111544   6.746   2.955   5.187 -0.3224 -2.4448  0.0789
 3860TIP3    H211545   6.632   3.054   5.184  1.3162 -0.5210 -1.1811
 3861TIP3   OH211546   3.005   2.664   5.148  0.5195 -0.0411  0.7068
 3861TIP3    H111547   2.982   2.735   5.208 -0.5403  1.4101 -1.3124
 3861TIP3    H211548   2.948   2.676   5.072  0.6534 -2.7769  0.0497
 3862TIP3   OH211549   4.269   2.957   0.722 -0.5172 -0.3606 -0.0930
 3862TIP3    H111550   4.231   3.028   0.774 -1.6836 -0.0434 -1.3132
 3862TIP3    H211551   4.276   2.884   0.783 -1.8453 -0.0010  0.5365
 3863TIP3   OH211552   2.254   1.728   4.581 -0.5362  0.2582  0.4791
 3863TIP3    H111553   2.206   1.690   4.506 -1.6020  0.6838  0.9311
 3863TIP3    H211554   2.287   1.812   4.548  0.7950 -0.4598 -0.1415
 3864TIP3   OH211555   4.411   4.480   0.925  0.3020  0.1530  0.1764
 3864TIP3    H111556   4.337   4.513   0.977 -0.4401  0.2416 -0.9032
 3864TIP3    H211557   4.391   4.388   0.910 -0.9004  0.7069 -2.1849
 3865TIP3   OH211558   6.864   2.761   3.815 -0.0664 -0.1587  0.1635
 3865TIP3    H111559   6.946   2.809   3.827 -0.3066  1.2088 -2.9048
 3865TIP3    H211560   6.796   2.829   3.811 -1.1435 -1.1514  0.7587
 3866TIP3   OH211561   0.355   5.330   4.861  0.4026 -0.0346 -0.4233
 3866TIP3    H111562   0.275   5.279   4.851  0.1839 -0.3460  2.1727
 3866TIP3    H211563   0.326   5.421   4.864  0.5062  0.1034 -2.2883
 3867TIP3   OH211564   0.705   3.514   0.669  0.0985  0.3692 -0.0845
 3867TIP3    H111565   0.735   3.427   0.695 -0.0241  0.9427  2.2108
 3867TIP3    H211566   0.753   3.574   0.726  0.9023  1.9146 -2.2612
 3868TIP3   OH211567   6.550   1.375   5.744 -0.0086  0.1024 -0.5343
 3868TIP3    H111568   6.632   1.373   5.794 -0.0860  2.9576 -0.1241
 3868TIP3    H211569   6.555   1.299   5.686  2.5554 -0.2583  0.0517
 3869TIP3   OH211570   4.017   3.279   5.137  0.2365 -0.1821  0.0049
 3869TIP3    H111571   3.971   3.348   5.184 -0.6155 -0.5044 -0.3317
 3869TIP3    H211572   4.079   3.243   5.202  0.5431  0.7442  0.2360
 3870TIP3   OH211573   0.939   0.563   3.597 -0.2229  0.0882 -0.2366
 3870TIP3    H111574   0.889   0.571   3.679 -1.7003 -2.1778 -0.8413
 3870TIP3    H211575   0.901   0.630   3.540  1.1217  2.0086  0.9631
 3871TIP3   OH211576   1.639   3.383   3.072  0.1507 -0.1873 -0.1707
 3871TIP3    H111577   1.621   3.325   2.999 -0.7589 -3.1734  2.2208
 3871TIP3    H211578   1.660   3.467   3.032 -0.2747 -1.6569 -3.7898
 3872TIP3   OH211579   5.076   4.904   1.312  0.2919  0.1349 -0.2258
 3872TIP3    H111580   5.156   4.955   1.323  0.3078  0.0354  0.1396
 3872TIP3    H211581   5.007   4.970   1.298  0.6464  0.1764 -2.0000
 3873TIP3   OH211582   4.358   4.378   4.427 -0.3778 -0.0353 -0.7971
 3873TIP3    H111583   4.282   4.325   4.451 -0.4908  0.8705  0.9977
 3873TIP3    H211584   4.336   4.413   4.341 -0.9174 -1.7166 -1.3794
 3874TIP3   OH211585   4.573   0.783   2.838  0.1395  0.5393 -0.8037
 3874TIP3    H111586   4.600   0.875   2.843 -1.4614  1.0336  3.0122
 3874TIP3    H211587   4.655   0.734   2.833  1.2257  2.1510  0.2102
 3875TIP3   OH211588   7.151   6.752   0.157 -0.0405  0.2797  0.7870
 3875TIP3    H111589   7.207   6.725   0.084  0.2177  1.9284  0.3465
 3875TIP3    H211590   7.185   6.704   0.232  0.4057 -0.5855  0.0590
 3876TIP3   OH211591   6.321   4.987   2.907 -0.4548  0.2712 -0.4247
 3876TIP3    H111592   6.333   4.936   2.826 -0.6194 -0.5631  0.0649
 3876TIP3    H211593   6.230   5.014   2.904 -0.6715 -0.4038 -0.1640
 3877TIP3   OH211594   5.165   2.637   4.397  0.2751  0.1794 -0.3497
 3877TIP3    H111595   5.249   2.678   4.417  1.4104 -2.1918  0.1567
 3877TIP3    H211596   5.126   2.618   4.482 -1.3768  2.2580 -0.5675
 3878TIP3   OH211597   3.737   0.429   3.656 -0.2566  0.0138 -0.3781
 3878TIP3    H111598   3.793   0.402   3.583 -0.4290  0.6994 -0.7721
 3878TIP3    H211599   3.661   0.469   3.614 -0.5759 -0.0116  0.1727
 3879TIP3   OH211600   4.949   0.522   1.124  0.3069  0.1280 -0.3965
 3879TIP3    H111601   5.002   0.548   1.049 -0.4089  0.0314 -0.9523
 3879TIP3    H211602   5.001   0.455   1.168  0.7527  0.2166 -0.7791
 3880TIP3   OH211603   2.867   5.582   5.154 -0.4784 -0.7306 -0.5623
 3880TIP3    H111604   2.817   5.516   5.108  0.0318 -0.9885 -0.7592
 3880TIP3    H211605   2.806   5.620   5.217 -1.4512  0.2599 -2.0517
 3881TIP3   OH211606   5.749   0.239   1.891  0.7569  0.6889 -0.4648
 3881TIP3    H111607   5.829   0.284   1.862  2.4141 -2.2058 -0.8079
 3881TIP3    H211608   5.695   0.235   1.812  0.8850  1.4207 -0.6007
 3882TIP3   OH211609   0.583   6.272   0.594  0.8084 -0.5479  0.2894
 3882TIP3    H111610   0.548   6.184   0.584  1.9451 -0.9817  0.0628
 3882TIP3    H211611   0.529   6.311   0.662 -2.1501 -0.1152 -2.0924
 3883TIP3   OH211612   6.795   4.063   1.260  0.6440 -0.0013  0.3546
 3883TIP3    H111613   6.848   4.139   1.238  0.5099  0.3179  1.1062
 3883TIP3    H211614   6.776   4.022   1.176  0.6634  0.8260 -0.0636
 3884TIP3   OH211615   0.446   2.802   3.764  0.1123 -0.6992 -0.7481
 3884TIP3    H111616   0.503   2.820   3.839  0.1730 -1.5571 -0.5740
 3884TIP3    H211617   0.505   2.803   3.688  0.6024 -2.6272 -0.4554
 3885TIP3   OH211618   5.325   0.671   4.932  0.4186  0.2438  0.6033
 3885TIP3    H111619   5.324   0.576   4.928 -1.6144  0.2465 -0.1599
 3885TIP3    H211620   5.252   0.694   4.988 -0.6697  1.3737 -1.1732
 3886TIP3   OH211621   0.450   5.806   1.577  0.0859  0.2357 -0.9450
 3886TIP3    H111622   0.489   5.838   1.496  0.4343  0.8636 -0.5364
 3886TIP3    H211623   0.511   5.740   1.609 -1.0906 -1.5681 -2.2722
 3887TIP3   OH211624   6.347   2.886   2.423 -0.2531 -0.3467  0.4901
 3887TIP3    H111625   6.276   2.873   2.360  1.1058 -1.0759 -0.9620
 3887TIP3    H211626   6.372   2.977   2.412  0.0078 -0.4791 -0.1112
 3888TIP3   OH211627   2.927   4.102   2.691  0.3363  0.2497  0.1052
 3888TIP3    H111628   2.981   4.076   2.765  2.5053  3.5029 -0.1716
 3888TIP3    H211629   2.864   4.164   2.727  0.1300  0.3665 -0.4429
 3889TIP3   OH211630   0.077   3.957   3.457 -0.5726  0.1483 -0.4161
 3889TIP3    H111631   0.103   4.017   3.388  0.6123  0.2452  0.0937
 3889TIP3    H211632   0.152   3.900   3.470 -1.2090 -0.6275 -0.0085
 3890TIP3   OH211633   6.012   2.223   0.667  0.6393 -0.2029 -0.0563
 3890TIP3    H111634   5.929   2.268   0.650  0.5771 -0.8618 -1.6869
 3890TIP3    H211635   6.015   2.153   0.602  1.7646 -1.1674  0.9941
 3891TIP3   OH211636   0.457   1.567   4.788  0.4942  0.5482 -0.0935
 3891TIP3    H111637   0.514   1.588   4.861  0.9656 -0.5499 -0.1314
 3891TIP3    H211638   0.372   1.549   4.828  0.6743  0.2439  0.1488
 3892TIP3   OH211639   6.906   1.624   5.711  0.1709 -0.2255 -0.0800
 3892TIP3    H111640   6.999   1.604   5.700  0.4094  0.3676  0.7011
 3892TIP3    H211641   6.901   1.663   5.799 -0.6587  0.6353 -0.4949
 3893TIP3   OH211642   1.446   6.500   1.555 -0.2838  0.0157  0.2014
 3893TIP3    H111643   1.481   6.585   1.527 -1.1208  0.8521  1.5542
 3893TIP3    H211644   1.484   6.437   1.495  2.2205  1.0638  0.5592
 3894TIP3   OH211645   3.824   1.495   1.277 -0.3904  0.2924  0.0497
 3894TIP3    H111646   3.918   1.489   1.256 -0.6073 -1.0867 -0.6010
 3894TIP3    H211647   3.822   1.503   1.372  0.3500 -1.6236  0.2714
 3895TIP3   OH211648   2.479   5.578   5.823  0.1404  0.5251  0.0122
 3895TIP3    H111649   2.442   5.634   5.754  0.1457  0.6372  0.1010
 3895TIP3    H211650   2.569   5.608   5.832  0.7286 -0.7252 -1.2584
 3896TIP3   OH211651   4.894   3.619   2.099  0.2360  0.0510  0.5030
 3896TIP3    H111652   4.972   3.592   2.050  0.1246 -0.3964  0.5692
 3896TIP3    H211653   4.854   3.537   2.128 -0.2994  0.2760  0.4110
 3897TIP3   OH211654   0.248   2.128   2.499  0.0749 -0.4113 -0.1140
 3897TIP3    H111655   0.334   2.095   2.527 -0.0989 -1.0549 -0.3281
 3897TIP3    H211656   0.187   2.095   2.566 -0.1373 -0.7500 -0.4722
 3898TIP3   OH211657   6.421   2.966   4.504 -0.2781  0.0094 -0.1949
 3898TIP3    H111658   6.374   2.893   4.544  1.4558 -0.3683  1.3211
 3898TIP3    H211659   6.357   3.009   4.448 -1.8536 -1.5691  0.3118
 3899TIP3   OH211660   6.242   3.851   0.152  0.3090  0.5959 -0.2722
 3899TIP3    H111661   6.315   3.910   0.134 -0.7583  2.0016 -0.1215
 3899TIP3    H211662   6.225   3.862   0.246 -0.3946  0.6419 -0.4016
 3900TIP3   OH211663   1.330   2.914   1.265 -0.3505 -0.0553 -0.0052
 3900TIP3    H111664   1.382   2.984   1.224  0.5181  0.0586  1.2401
 3900TIP3    H211665   1.252   2.907   1.210  1.0919 -0.4242 -2.1244
 3901TIP3   OH211666   3.066   5.761   4.983  0.0716  0.6280 -0.3162
 3901TIP3    H111667   3.144   5.766   5.037 -1.6305  1.3631  2.2359
 3901TIP3    H211668   3.018   5.686   5.016 -0.8117  0.8139 -1.1268
 3902TIP3   OH211669   0.736   2.957   2.005  0.1064 -0.2156  0.1847
 3902TIP3    H111670   0.724   2.871   1.964 -1.5395  0.7238 -1.4497
 3902TIP3    H211671   0.771   3.012   1.935  2.9115  0.1196  1.6744
 3903TIP3   OH211672   1.187   0.656   3.651  0.2770  0.3323  0.2058
 3903TIP3    H111673   1.103   0.610   3.662  0.8058 -0.3164  1.8417
 3903TIP3    H211674   1.242   0.594   3.603  0.3055  0.1316  0.4958
 3904TIP3   OH211675   6.646   0.767   3.386  0.2219  0.2477 -0.8180
 3904TIP3    H111676   6.592   0.695   3.354 -0.3846  0.1421  0.3643
 3904TIP3    H211677   6.617   0.780   3.477  1.7265  0.6378 -0.3602
 3905TIP3   OH211678   0.475   4.267   1.596 -0.0299 -0.5547 -1.1478
 3905TIP3    H111679   0.519   4.183   1.578  0.6708 -0.2809 -0.7366
 3905TIP3    H211680   0.545   4.324   1.628 -0.9371 -0.5563  0.9928
 3906TIP3   OH211681   5.583   5.455   5.099  0.1951 -0.2451 -0.0860
 3906TIP3    H111682   5.645   5.434   5.169 -0.0641 -0.6159  0.0398
 3906TIP3    H211683   5.612   5.539   5.065  0.0119  0.2040  0.8321
 3907TIP3   OH211684   3.537   5.946   3.227 -0.3838 -0.4576 -0.2644
 3907TIP3    H111685   3.461   5.991   3.262 -0.3393 -0.9589  0.4849
 3907TIP3    H211686   3.505   5.907   3.145 -0.8151 -0.3129 -0.1702
 3908TIP3   OH211687   5.429   3.926   3.371 -0.1819 -0.0093  0.2040
 3908TIP3    H111688   5.352   3.875   3.346  0.6860 -0.6107 -1.3447
 3908TIP3    H211689   5.463   3.960   3.289  0.6375  1.1095  0.9765
 3909TIP3   OH211690   5.517   1.719   4.332  0.0042 -0.5500  0.2015
 3909TIP3    H111691   5.509   1.624   4.340 -2.4389 -0.3198  1.3398
 3909TIP3    H211692   5.431   1.753   4.358  0.5467  1.9476 -0.9625
 3910TIP3   OH211693   4.549   4.532   1.825  0.0804 -0.1757 -0.3206
 3910TIP3    H111694   4.496   4.548   1.747 -1.3072  0.4424  0.7168
 3910TIP3    H211695   4.505   4.581   1.894  0.4410 -1.9097  1.1936
 3911TIP3   OH211696   6.048   3.145   4.173  0.2338 -0.0762  0.3851
 3911TIP3    H111697   5.957   3.152   4.201  0.0465  0.7719 -0.3850
 3911TIP3    H211698   6.097   3.192   4.241 -0.0296  0.4408  0.2262
 3912TIP3   OH211699   6.923   4.054   3.891  0.1272 -0.2983 -0.2767
 3912TIP3    H111700   6.968   4.032   3.972  0.4038 -0.8074 -0.5631
 3912TIP3    H211701   6.951   3.986   3.829 -0.6299 -0.3261 -0.5990
 3913TIP3   OH211702   6.905   1.405   4.277  0.0772 -0.0282  0.0976
 3913TIP3    H111703   6.814   1.414   4.307  0.4116 -1.0631  1.5233
 3913TIP3    H211704   6.940   1.494   4.280 -0.5812  0.2266  0.5777
 3914TIP3   OH211705   6.536   5.105   3.702 -0.0609  0.8923  0.1120
 3914TIP3    H111706   6.579   5.175   3.751  1.9009 -0.5713  0.6005
 3914TIP3    H211707   6.495   5.050   3.769  0.6072  0.1839 -0.0459
 3915TIP3   OH211708   5.899   5.084   4.536  0.7397 -0.4426  0.3507
 3915TIP3    H111709   5.837   5.139   4.489  1.4223 -0.5308 -0.6881
 3915TIP3    H211710   5.918   5.012   4.475 -0.5565 -2.1681  1.8800
 3916TIP3   OH211711   1.917   2.155   5.443 -0.0222  0.4641 -0.7119
 3916TIP3    H111712   1.918   2.250   5.453 -0.3545  0.7758 -2.9765
 3916TIP3    H211713   2.001   2.135   5.400  0.4156 -0.3970  0.4962
 3917TIP3   OH211714   5.000   4.389   5.679  0.6849 -0.2854  0.6058
 3917TIP3    H111715   4.962   4.366   5.594  0.3091 -0.1704  0.7388
 3917TIP3    H211716   4.940   4.351   5.743  0.7469 -0.0227  0.8221
 3918TIP3   OH211717   3.209   5.685   4.269 -0.0841 -0.0716 -0.0997
 3918TIP3    H111718   3.194   5.608   4.324 -3.2422  2.0686  2.4299
 3918TIP3    H211719   3.141   5.679   4.201 -0.4164  0.5197  0.1774
 3919TIP3   OH211720   1.126   4.679   0.204  0.1592 -0.1357  0.4487
 3919TIP3    H111721   1.129   4.717   0.292  1.7994  0.0672  0.3363
 3919TIP3    H211722   1.033   4.665   0.188 -0.1842 -0.2126  2.2263
 3920TIP3   OH211723   5.784   2.465   1.868 -0.7784  0.2370 -0.4006
 3920TIP3    H111724   5.849   2.396   1.854 -0.5044  0.5992 -0.9289
 3920TIP3    H211725   5.704   2.418   1.891  0.0008 -0.1813  1.6949
 3921TIP3   OH211726   1.419   0.975   4.844  0.4018  0.6610 -0.6004
 3921TIP3    H111727   1.440   0.932   4.761 -0.2233 -0.3654 -0.2427
 3921TIP3    H211728   1.454   1.063   4.834  1.1795  0.2670 -1.5918
 3922TIP3   OH211729   4.652   2.016   2.921  0.5938 -0.2260  0.1667
 3922TIP3    H111730   4.737   2.060   2.920  0.6929 -0.3402  1.8778
 3922TIP3    H211731   4.643   1.981   3.009 -1.6843  0.6636  0.3600
 3923TIP3   OH211732   4.707   1.539   3.557  0.2989 -0.1686  0.7098
 3923TIP3    H111733   4.695   1.596   3.481 -2.6486 -0.9750  0.4229
 3923TIP3    H211734   4.763   1.468   3.526 -0.3602 -0.1562 -0.5467
 3924TIP3   OH211735   2.658   6.223   4.761 -1.1124  0.1345  0.2296
 3924TIP3    H111736   2.705   6.167   4.699  1.7324  1.0866  1.3598
 3924TIP3    H211737   2.632   6.299   4.709  0.1482  0.3631 -0.0990
 3925TIP3   OH211738   5.140   4.708   1.775 -0.2638  0.8010  0.0825
 3925TIP3    H111739   5.158   4.615   1.765  0.5370  1.0659 -1.3558
 3925TIP3    H211740   5.058   4.712   1.823 -1.6494 -0.7203 -1.9740
 3926TIP3   OH211741   3.751   3.398   0.249  0.0040 -0.2258  0.0225
 3926TIP3    H111742   3.669   3.433   0.284  0.3253  0.7854 -0.1983
 3926TIP3    H211743   3.816   3.416   0.318  0.1175 -0.6520  0.0274
 3927TIP3   OH211744   3.181   0.398   5.226  0.1059  0.2375  0.2126
 3927TIP3    H111745   3.251   0.461   5.212  0.4632 -0.3609 -0.7762
 3927TIP3    H211746   3.171   0.394   5.322  1.6442  0.0855  0.3864
 3928TIP3   OH211747   2.501   0.991   5.433 -0.1830 -0.2510 -0.1044
 3928TIP3    H111748   2.502   0.903   5.395 -1.4302 -0.5392  0.4707
 3928TIP3    H211749   2.519   0.977   5.526  1.5103  0.3153 -0.3058
 3929TIP3   OH211750   2.606   1.187   5.237  0.3311  0.0130 -0.5211
 3929TIP3    H111751   2.559   1.116   5.280 -0.2293 -0.4726 -1.8854
 3929TIP3    H211752   2.686   1.197   5.289  0.1655 -1.2348  0.0193
 3930TIP3   OH211753   0.961   1.089   4.123 -0.7986 -0.3150  0.3438
 3930TIP3    H111754   1.046   1.080   4.080 -0.8021  0.4043  0.1656
 3930TIP3    H211755   0.902   1.032   4.073 -0.6074 -0.1682 -0.0555
 3931TIP3   OH211756   3.686   4.313   0.560 -0.4115  0.1102  0.0094
 3931TIP3    H111757   3.636   4.351   0.633  0.5890  0.0752  0.7392
 3931TIP3    H211758   3.744   4.250   0.602 -0.2043 -0.3093 -0.8960
 3932TIP3   OH211759   5.755   2.200   0.619 -0.5855  0.1617 -0.5511
 3932TIP3    H111760   5.745   2.166   0.708 -0.5650  3.4408  0.8323
 3932TIP3    H211761   5.721   2.130   0.563 -0.8132 -1.9349  2.0041
 3933TIP3   OH211762   0.780   1.186   2.853 -0.7800  0.3074  0.2240
 3933TIP3    H111763   0.814   1.163   2.767 -0.4803 -0.8421  0.6350
 3933TIP3    H211764   0.793   1.108   2.906 -0.2992  1.2297  1.5218
 3934TIP3   OH211765   0.239   2.220   5.668  0.0500  0.1390 -0.2436
 3934TIP3    H111766   0.213   2.312   5.673  0.2487  0.1949 -0.2303
 3934TIP3    H211767   0.165   2.172   5.705 -0.5983  0.1949 -1.4156
 3935TIP3   OH211768   5.608   3.657   0.639  0.3375  0.2948 -0.2479
 3935TIP3    H111769   5.530   3.644   0.584  0.2276  2.6096 -0.7483
 3935TIP3    H211770   5.633   3.748   0.622  0.9541  0.7577  2.7229
 3936TIP3   OH211771   4.317   6.316   5.672 -0.2395  0.3682 -0.2376
 3936TIP3    H111772   4.367   6.384   5.718 -1.2915  2.8784 -2.5303
 3936TIP3    H211773   4.230   6.355   5.660 -0.9027 -1.4254 -1.6123
 3937TIP3   OH211774   5.343   0.937   3.505  0.1561  0.6232  0.1211
 3937TIP3    H111775   5.342   0.938   3.409 -1.5799 -0.2942  0.0875
 3937TIP3    H211776   5.434   0.957   3.528  0.7377  0.3152 -1.7173
 3938TIP3   OH211777   6.030   6.408   4.233  0.2351 -1.2414  0.1645
 3938TIP3    H111778   6.012   6.497   4.203  0.3297 -1.8019 -1.6832
 3938TIP3    H211779   5.966   6.392   4.302  0.6709  0.4886  1.0056
 3939TIP3   OH211780   5.430   6.041   1.994 -0.3308  0.7545  0.0318
 3939TIP3    H111781   5.500   5.999   1.944 -1.0401 -1.0138  0.4515
 3939TIP3    H211782   5.375   6.082   1.927  0.5281  1.2648 -0.3730
 3940TIP3   OH211783   1.006   0.187   2.938  0.0094  0.2279  0.2947
 3940TIP3    H111784   1.082   0.177   2.880 -0.6120  0.9785 -0.6923
 3940TIP3    H211785   0.931   0.190   2.878 -0.6280  1.3609  1.1221
 3941TIP3   OH211786   6.397   4.538   0.991 -0.0781  0.3150 -0.0673
 3941TIP3    H111787   6.323   4.521   1.048  0.3923 -1.7774  0.0237
 3941TIP3    H211788   6.360   4.583   0.915 -1.6880 -1.5758 -0.4905
 3942TIP3   OH211789   6.744   4.670   1.616 -0.4167  0.3512  0.4542
 3942TIP3    H111790   6.776   4.760   1.618 -0.3637  0.3561 -0.2905
 3942TIP3    H211791   6.742   4.648   1.523  0.3369 -0.6945  0.6720
 3943TIP3   OH211792   0.216   4.942   3.907  0.4076  0.0097  0.6189
 3943TIP3    H111793   0.293   4.927   3.852  1.1318  0.9246  1.3592
 3943TIP3    H211794   0.142   4.922   3.850  1.0838  1.9603 -1.0711
 3944TIP3   OH211795   1.236   0.602   2.019  0.2274  0.1901 -0.1170
 3944TIP3    H111796   1.249   0.645   1.934  1.8273  3.6183  1.6890
 3944TIP3    H211797   1.162   0.648   2.058  1.1321  0.4433  1.3605
 3945TIP3   OH211798   2.846   1.607   3.873 -0.0355 -0.8862 -0.4112
 3945TIP3    H111799   2.805   1.624   3.789 -0.2248  0.5470 -0.0541
 3945TIP3    H211800   2.930   1.651   3.868  0.0630 -1.0145  0.0578
 3946TIP3   OH211801   6.399   4.933   5.099 -0.0727  0.2288  0.1555
 3946TIP3    H111802   6.376   4.922   5.192 -0.1688  1.1301  0.2507
 3946TIP3    H211803   6.339   4.875   5.052 -0.5668  0.3635  0.6071
 3947TIP3   OH211804   3.412   2.310   2.092 -0.3200  0.1366 -0.2195
 3947TIP3    H111805   3.447   2.351   2.172 -0.3933  1.4376 -0.8248
 3947TIP3    H211806   3.324   2.280   2.117 -0.3204  0.4764  0.2037
 3948TIP3   OH211807   1.540   3.536   0.243  0.1195 -0.2199 -0.3861
 3948TIP3    H111808   1.502   3.464   0.193 -0.0782 -0.1833 -0.2902
 3948TIP3    H211809   1.491   3.537   0.325 -0.2935  0.4017 -0.6302
 3949TIP3   OH211810   4.777   2.342   4.136 -0.0545 -0.3046  0.0859
 3949TIP3    H111811   4.827   2.423   4.136  0.4237 -0.5677  1.5480
 3949TIP3    H211812   4.841   2.274   4.116  0.4870 -0.7678  3.0356
 3950TIP3   OH211813   1.382   3.656   4.102  0.2879 -0.2832  0.0865
 3950TIP3    H111814   1.302   3.706   4.122  1.3088  0.4339  2.9082
 3950TIP3    H211815   1.362   3.567   4.129 -0.4061 -0.7123 -1.7486
 3951TIP3   OH211816   4.316   5.603   2.413 -0.3908  0.2873  0.1722
 3951TIP3    H111817   4.412   5.597   2.420 -0.2882  0.5690 -0.8163
 3951TIP3    H211818   4.298   5.585   2.321 -1.5546 -2.5539  0.8729
 3952TIP3   OH211819   2.937   0.089   5.316 -0.0997  0.3009 -0.0968
 3952TIP3    H111820   2.908   0.154   5.379 -0.4965  0.5802 -0.5571
 3952TIP3    H211821   2.955   0.139   5.236 -0.1996 -0.1221 -0.3898
 3953TIP3   OH211822   6.670   4.437   3.745  0.3596  0.1313 -0.1720
 3953TIP3    H111823   6.632   4.397   3.667 -0.1201 -0.0189  0.1345
 3953TIP3    H211824   6.597   4.485   3.785  0.1751 -1.1092  1.0563
 3954TIP3   OH211825   5.043   0.686   2.060  0.5119 -0.1380  0.6218
 3954TIP3    H111826   5.071   0.776   2.042 -0.3650  0.1649  0.7505
 3954TIP3    H211827   5.048   0.678   2.155 -1.7806  0.5996  0.8646
 3955TIP3   OH211828   4.237   5.929   5.046  0.9029 -0.6465  0.4845
 3955TIP3    H111829   4.222   5.876   4.967  1.3969 -2.8639  1.7950
 3955TIP3    H211830   4.332   5.928   5.057  0.8252 -0.5523  1.2090
 3956TIP3   OH211831   2.078   3.533   0.776  0.4137  0.4193  0.0187
 3956TIP3    H111832   2.005   3.551   0.717 -0.3982  1.1455  1.1964
 3956TIP3    H211833   2.132   3.469   0.730 -0.5348  0.4900 -1.2189
 3957TIP3   OH211834   0.199   5.249   3.811 -0.6644 -0.0532 -0.4442
 3957TIP3    H111835   0.163   5.323   3.762 -0.7823 -0.1333 -0.4784
 3957TIP3    H211836   0.287   5.237   3.775 -0.2491  0.7235  0.2613
 3958TIP3   OH211837   6.237   3.580   0.169 -0.4494  0.1888  0.1965
 3958TIP3    H111838   6.323   3.561   0.207 -0.3763 -1.8489 -0.8414
 3958TIP3    H211839   6.232   3.676   0.167  0.8860  0.3686  2.2129
 3959TIP3   OH211840   3.892   1.793   2.394 -0.1671  0.1474 -0.5833
 3959TIP3    H111841   3.872   1.703   2.371 -0.8661  0.0772  0.2559
 3959TIP3    H211842   3.825   1.845   2.351  0.4030  0.3052 -1.3033
 3960TIP3   OH211843   5.634   1.094   5.325 -0.1289 -0.5830 -0.3225
 3960TIP3    H111844   5.703   1.041   5.285  0.1322  1.5208 -3.0011
 3960TIP3    H211845   5.678   1.177   5.346 -1.7919  1.0589 -2.7071
 3961TIP3   OH211846   0.535   5.384   5.465 -0.1572  0.1041 -0.2134
 3961TIP3    H111847   0.546   5.363   5.372 -1.0325  0.8793 -0.5044
 3961TIP3    H211848   0.440   5.382   5.479 -0.0642  0.5780  0.5262
 3962TIP3   OH211849   7.058   4.731   0.323  0.0013  0.3520  0.4583
 3962TIP3    H111850   7.074   4.698   0.235  0.3103  0.4283  0.4858
 3962TIP3    H211851   6.981   4.787   0.314  0.9839  1.6583 -0.0781
 3963TIP3   OH211852   4.276   2.405   2.260 -0.3633  0.3105 -0.4397
 3963TIP3    H111853   4.286   2.317   2.223  1.0437  0.5926 -0.7860
 3963TIP3    H211854   4.242   2.458   2.188  1.0255  0.5452 -0.9510
 3964TIP3   OH211855   3.570   3.832   0.841  0.2866 -0.5952 -0.4989
 3964TIP3    H111856   3.583   3.829   0.936  1.9738  1.9381 -0.5520
 3964TIP3    H211857   3.558   3.740   0.816  1.4143 -1.5156  1.9586
 3965TIP3   OH211858   1.308   3.449   2.906 -0.8558 -0.0828  0.3320
 3965TIP3    H111859   1.345   3.433   2.993 -0.4902 -0.4176  0.1196
 3965TIP3    H211860   1.384   3.451   2.848 -1.1576 -0.6522 -0.0948
 3966TIP3   OH211861   2.888   4.724   5.759 -0.2251 -0.0130  0.1136
 3966TIP3    H111862   2.971   4.765   5.737 -0.7777  1.1427  0.1291
 3966TIP3    H211863   2.835   4.794   5.797 -2.3421  0.0834 -2.7101
 3967TIP3   OH211864   3.930   2.319   1.466 -0.4885 -0.0627 -0.4636
 3967TIP3    H111865   3.842   2.311   1.503 -0.1419 -0.1641  0.3753
 3967TIP3    H211866   3.947   2.235   1.425  0.0241 -0.8513  1.2493
 3968TIP3   OH211867   5.965   0.328   0.516 -0.1500  0.4015  0.2507
 3968TIP3    H111868   5.913   0.407   0.499  0.7916  1.0683  0.3839
 3968TIP3    H211869   5.971   0.284   0.432 -0.7250  0.4423  0.1863
 3969TIP3   OH211870   0.252   1.774   4.100 -0.3559 -0.1258  0.4308
 3969TIP3    H111871   0.261   1.679   4.089 -0.2663 -0.1482  0.6837
 3969TIP3    H211872   0.331   1.800   4.147  0.6358  0.4028 -1.4588
 3970TIP3   OH211873   4.042   4.669   1.818 -0.9877 -0.2396 -0.4060
 3970TIP3    H111874   3.997   4.704   1.895 -0.0782  1.2791 -0.5126
 3970TIP3    H211875   4.131   4.704   1.825 -0.6468 -0.7837 -1.7009
 3971TIP3   OH211876   1.460   1.776   1.711 -0.3587 -0.1413 -0.0134
 3971TIP3    H111877   1.381   1.740   1.750 -1.5449  0.7613 -1.4657
 3971TIP3    H211878   1.510   1.700   1.681 -1.7364 -0.6931 -1.0148
 3972TIP3   OH211879   6.485   1.449   2.835  0.2159  0.3286 -0.3403
 3972TIP3    H111880   6.465   1.461   2.928 -0.6270 -2.4464 -0.0927
 3972TIP3    H211881   6.580   1.441   2.831  0.2939  0.8871  0.1870
 3973TIP3   OH211882   4.012   0.244   0.050 -0.7460  0.0361  0.2426
 3973TIP3    H111883   3.989   0.248   0.143 -0.0989  1.3250  0.3725
 3973TIP3    H211884   3.995   0.154   0.025  1.0515 -0.9072  2.1290
 3974TIP3   OH211885   5.569   0.096   5.856  0.2064  0.6136 -0.0019
 3974TIP3    H111886   5.532   0.019   5.812 -0.6546 -0.6744  2.7436
 3974TIP3    H211887   5.648   0.063   5.899  0.6351  1.6313  0.0036
 3975TIP3   OH211888   2.742   5.335   5.114 -0.0353 -0.0389  0.0075
 3975TIP3    H111889   2.796   5.257   5.127  0.6297  0.3361 -0.4491
 3975TIP3    H211890   2.652   5.304   5.122  0.2207 -0.8757 -0.2976
 3976TIP3   OH211891   4.019   1.301   4.442  0.3613 -0.3728 -0.2812
 3976TIP3    H111892   4.076   1.291   4.519  2.4818 -1.7163 -1.9057
 3976TIP3    H211893   3.966   1.222   4.440  0.1411 -0.2316 -0.0903
 3977TIP3   OH211894   5.162   6.460   0.712  0.1110 -0.1423 -0.3640
 3977TIP3    H111895   5.239   6.403   0.711  0.4051  0.2081  0.8386
 3977TIP3    H211896   5.141   6.473   0.620  0.7477 -1.2372 -0.6848
 3978TIP3   OH211897   0.609   3.614   1.334  0.1038 -1.0172  0.1137
 3978TIP3    H111898   0.560   3.591   1.414  1.5203 -1.8132  0.7949
 3978TIP3    H211899   0.643   3.530   1.303  0.8002 -0.5144 -0.4988
 3979TIP3   OH211900   6.486   6.225   2.423 -0.1281 -0.1205  0.1547
 3979TIP3    H111901   6.505   6.159   2.356  1.5350  1.4496 -1.0087
 3979TIP3    H211902   6.391   6.235   2.421 -0.2249 -1.0831 -0.9952
 3980TIP3   OH211903   2.167   6.196   0.585 -0.6278 -0.4517  0.6503
 3980TIP3    H111904   2.108   6.225   0.655  1.9897  1.3786  2.2759
 3980TIP3    H211905   2.228   6.137   0.628 -0.2184 -0.9953 -0.6199
 3981TIP3   OH211906   5.822   0.831   1.613 -0.3100 -0.5099 -0.0875
 3981TIP3    H111907   5.799   0.808   1.523  0.6779 -0.7825 -0.2869
 3981TIP3    H211908   5.896   0.892   1.604  0.5852 -1.4586  0.5497
 3982TIP3   OH211909   3.113   5.455   4.712 -0.7163 -0.6461 -0.4258
 3982TIP3    H111910   3.026   5.464   4.672 -0.5019 -0.7287 -0.9149
 3982TIP3    H211911   3.146   5.371   4.679 -0.6569 -0.8582  0.1641
 3983TIP3   OH211912   6.707   0.535   5.757 -0.2795 -0.6430 -0.2566
 3983TIP3    H111913   6.629   0.481   5.744  0.3791 -2.1447  1.5895
 3983TIP3    H211914   6.673   0.621   5.781 -1.3498 -0.1058 -3.2417
 3984TIP3   OH211915   0.376   1.444   3.447 -0.3967  0.5967  0.4680
 3984TIP3    H111916   0.372   1.482   3.535  0.8529 -0.9715  1.2553
 3984TIP3    H211917   0.467   1.415   3.438 -1.2170 -1.9791 -0.1345
 3985TIP3   OH211918   0.172   5.195   0.273 -0.2183  0.0917  0.4056
 3985TIP3    H111919   0.159   5.261   0.341 -0.7456 -1.1600  1.5657
 3985TIP3    H211920   0.138   5.235   0.193 -0.5866  1.1891  1.0983
 3986TIP3   OH211921   4.652   0.907   1.947 -0.0930 -0.1003 -0.3644
 3986TIP3    H111922   4.564   0.916   1.984  0.0913  1.3270 -0.2210
 3986TIP3    H211923   4.644   0.939   1.857  0.1477 -0.6052 -0.5739
 3987TIP3   OH211924   2.255   1.052   1.773  0.1728  0.0723 -0.6691
 3987TIP3    H111925   2.194   0.980   1.757  0.2397 -0.0742 -0.2707
 3987TIP3    H211926   2.259   1.059   1.869 -0.0710  0.8013 -0.7109
 3988TIP3   OH211927   2.979   6.343   4.854  0.4637 -0.0890  0.4408
 3988TIP3    H111928   2.903   6.358   4.910 -1.2792 -2.8605 -0.9731
 3988TIP3    H211929   2.946   6.359   4.765  2.6711  2.4429 -0.0425
 3989TIP3   OH211930   6.502   1.252   4.758 -0.0326 -0.5321 -0.7394
 3989TIP3    H111931   6.447   1.222   4.686 -0.9455 -0.9524  0.1058
 3989TIP3    H211932   6.539   1.172   4.795  0.5851 -0.3049 -0.8454
 3990TIP3   OH211933   2.099   4.306   0.970 -0.1700  0.2777  0.2154
 3990TIP3    H111934   2.032   4.256   1.018  0.2073 -2.5163 -1.9000
 3990TIP3    H211935   2.059   4.391   0.955 -2.4245 -0.5855  0.8758
 3991TIP3   OH211936   1.146   4.495   4.346 -0.1428 -0.2648 -0.3215
 3991TIP3    H111937   1.161   4.589   4.342  0.4754 -0.3782 -0.8584
 3991TIP3    H211938   1.102   4.480   4.430 -3.3565  0.9429 -1.6028
 3992TIP3   OH211939   5.297   4.878   0.490 -0.0436  0.0907 -0.3201
 3992TIP3    H111940   5.204   4.865   0.509  0.5605 -1.2251  2.2162
 3992TIP3    H211941   5.342   4.814   0.545  2.4320  1.5204 -0.5042
 3993TIP3   OH211942   5.009   4.289   0.340  0.3716  0.5312  0.3729
 3993TIP3    H111943   4.940   4.223   0.332 -0.0112  0.9122  0.5063
 3993TIP3    H211944   5.088   4.244   0.312  0.1321 -0.0200  0.5658
 3994TIP3   OH211945   1.056   0.618   1.779  0.1047  0.2393  0.4070
 3994TIP3    H111946   1.060   0.530   1.817  0.9798  0.6365  1.2751
 3994TIP3    H211947   1.038   0.676   1.854  3.1108  1.1884  0.5176
 3995TIP3   OH211948   1.876   6.162   0.429 -0.0911 -0.0593 -0.2597
 3995TIP3    H111949   1.971   6.151   0.427 -0.0256  0.4412 -0.1766
 3995TIP3    H211950   1.845   6.123   0.347  0.0090 -1.7019  0.4463
 3996TIP3   OH211951   5.307   5.381   5.530 -0.1373 -0.2488 -0.2001
 3996TIP3    H111952   5.240   5.366   5.596  1.6104 -0.4203  1.6192
 3996TIP3    H211953   5.346   5.465   5.554  0.6775 -0.4191 -0.8759
 3997TIP3   OH211954   2.278   5.409   2.802  0.0963  0.6359  0.0967
 3997TIP3    H111955   2.186   5.387   2.816 -0.3605  2.7546  0.8532
 3997TIP3    H211956   2.318   5.327   2.772 -2.7074  0.3782 -3.8262
 3998TIP3   OH211957   3.587   3.813   4.520 -0.5646 -0.0593 -0.0850
 3998TIP3    H111958   3.602   3.771   4.605  0.8922 -0.0832 -0.3225
 3998TIP3    H211959   3.621   3.902   4.531  1.1313 -0.5325 -1.0631
 3999TIP3   OH211960   5.535   2.083   4.410 -0.5586 -0.0937 -0.1868
 3999TIP3    H111961   5.488   2.131   4.478 -0.5804  0.5045 -0.6126
 3999TIP3    H211962   5.595   2.148   4.372 -0.9905 -0.2416 -1.1585
 4000TIP3   OH211963   7.064   3.870   1.164  0.0813 -0.4590  0.6544
 4000TIP3    H111964   7.067   3.882   1.069  0.7470 -1.7121  0.4899
 4000TIP3    H211965   7.078   3.958   1.200  1.4293 -0.2056 -0.4034
 4001TIP3   OH211966   0.059   6.671   2.997  0.1991 -0.1959  0.0111
 4001TIP3    H111967   0.036   6.746   2.942 -0.2122  0.7494  1.4204
 4001TIP3    H211968   0.154   6.680   3.010  0.6372 -1.4261 -1.9308
 4002TIP3   OH211969   3.882   4.187   5.349 -0.3257 -0.4754  0.1113
 4002TIP3    H111970   3.918   4.184   5.437  0.5026  1.2283 -0.1264
 4002TIP3    H211971   3.933   4.123   5.300  0.6043 -0.0065  0.4256
 4003TIP3   OH211972   4.808   5.720   4.911  0.0663 -0.2399  0.0237
 4003TIP3    H111973   4.745   5.781   4.949  1.3725  0.1115  1.7796
 4003TIP3    H211974   4.766   5.686   4.832 -2.0308  0.4466  0.7992
 4004TIP3   OH211975   6.987   4.863   3.220 -0.8064 -0.6073  0.3766
 4004TIP3    H111976   6.952   4.891   3.135 -0.3228  0.4237  0.5030
 4004TIP3    H211977   6.909   4.839   3.271 -1.3516  1.1736  0.4810
 4005TIP3   OH211978   1.297   2.629   5.522  0.1368 -0.0855  0.1787
 4005TIP3    H111979   1.358   2.642   5.448  0.5188 -2.0640  0.0933
 4005TIP3    H211980   1.321   2.698   5.584  0.2453  1.2260 -1.2460
 4006TIP3   OH211981   0.131   4.528   4.465  0.0760 -0.0040  0.5873
 4006TIP3    H111982   0.121   4.605   4.409  1.9189  0.2252  0.5296
 4006TIP3    H211983   0.059   4.536   4.528 -1.8109 -0.0677 -1.4281
 4007TIP3   OH211984   1.387   1.631   2.433  0.2767 -0.0783  0.1195
 4007TIP3    H111985   1.417   1.710   2.388  0.3372  0.7888  1.6086
 4007TIP3    H211986   1.299   1.653   2.462  0.9722  0.2347  2.2138
 4008TIP3   OH211987   1.140   0.751   0.492 -0.5941 -0.2872  0.1434
 4008TIP3    H111988   1.218   0.733   0.545 -0.6674 -1.4405 -0.1087
 4008TIP3    H211989   1.152   0.698   0.413 -1.2157  0.2171 -0.2965
 4009TIP3   OH211990   4.457   0.875   1.104 -0.1716  0.0144 -0.5134
 4009TIP3    H111991   4.412   0.934   1.164  0.2978 -1.0701  0.9718
 4009TIP3    H211992   4.464   0.924   1.022 -0.8308  1.5448  0.3102
 4010TIP3   OH211993   6.240   4.513   1.222  0.3326 -0.1414 -0.2054
 4010TIP3    H111994   6.279   4.434   1.260 -1.2994 -0.4183  1.0259
 4010TIP3    H211995   6.307   4.581   1.234  0.9414 -0.8666  0.6649
 4011TIP3   OH211996   4.027   5.723   5.082 -0.3798 -0.5320  0.8845
 4011TIP3    H111997   4.077   5.645   5.105 -0.8739 -0.7080  1.4003
 4011TIP3    H211998   4.083   5.796   5.106  0.3037 -0.7193 -0.0882
 4012TIP3   OH211999   5.038   4.689   3.380 -0.2412  1.1094 -0.4149
 4012TIP3    H112000   5.114   4.726   3.424  0.7666 -1.2683 -0.0028
 4012TIP3    H212001   5.069   4.664   3.294 -0.7075  0.6324 -0.4509
 4013TIP3   OH212002   3.432   2.588   0.052 -0.6140  0.4165 -0.4651
 4013TIP3    H112003   3.379   2.566   0.129 -0.9833  1.1975 -0.4889
 4013TIP3    H212004   3.368   2.613  -0.015 -0.2869 -0.0783 -0.9753
 4014TIP3   OH212005   1.032   1.058   5.178  0.4269  0.8459  0.5233
 4014TIP3    H112006   1.002   1.008   5.102 -0.6599 -1.1876  2.1742
 4014TIP3    H212007   0.954   1.070   5.231  0.8635  3.5885  0.6645
 4015TIP3   OH212008   1.226   4.249   2.855 -0.0434  0.3283  0.1488
 4015TIP3    H112009   1.213   4.307   2.929  0.0230 -0.0088  0.4247
 4015TIP3    H212010   1.182   4.167   2.880 -0.1785  0.2735 -0.2555
 4016TIP3   OH212011   3.582   1.368   2.094 -0.1258  0.0329  0.2514
 4016TIP3    H112012   3.619   1.379   2.181 -0.6604  0.9882  0.3661
 4016TIP3    H212013   3.553   1.277   2.091  2.1153 -0.7465  0.1871
 4017TIP3   OH212014   6.608   5.898   5.369  0.0552  0.4365 -0.1328
 4017TIP3    H112015   6.539   5.838   5.394  0.0785  0.7811  0.8042
 4017TIP3    H212016   6.660   5.910   5.449  1.0905  0.3274 -0.7617
 4018TIP3   OH212017   0.083   1.321   2.378 -0.2480  0.1434  0.0101
 4018TIP3    H112018   0.100   1.275   2.295  0.2703  0.8858 -0.3051
 4018TIP3    H212019   0.170   1.342   2.412 -0.4722  1.0087  0.0738
 4019TIP3   OH212020   3.974   5.490   4.656  0.0240 -0.2559  0.1561
 4019TIP3    H112021   3.925   5.513   4.735  0.0650  2.2084 -0.4448
 4019TIP3    H212022   3.937   5.546   4.588  0.3374 -1.9473 -1.4963
 4020TIP3   OH212023   1.066   2.196   2.550  0.3978  0.2791 -0.1093
 4020TIP3    H112024   1.153   2.228   2.526  0.4860 -1.8137 -3.3006
 4020TIP3    H212025   1.082   2.108   2.584 -0.4183  0.0052 -0.4103
 4021TIP3   OH212026   1.770   2.448   4.737 -0.3182  0.2231 -0.3192
 4021TIP3    H112027   1.785   2.492   4.821 -0.1266 -0.4430  0.0031
 4021TIP3    H212028   1.778   2.355   4.757 -0.1724  0.0620 -1.0985
 4022TIP3   OH212029   4.303   6.402   3.232  0.1230  0.0287 -0.4455
 4022TIP3    H112030   4.233   6.366   3.178  0.6203 -1.7831  0.0454
 4022TIP3    H212031   4.383   6.376   3.187  0.5207  1.6584 -0.7424
 4023TIP3   OH212032   3.439   3.452   4.060  0.4538  0.4344  0.8520
 4023TIP3    H112033   3.402   3.535   4.089  1.1804  1.0422  0.0403
 4023TIP3    H212034   3.379   3.422   3.991 -0.6677 -0.4879  2.1669
 4024TIP3   OH212035  -0.012   0.507   5.307  0.0629 -0.6245 -0.6175
 4024TIP3    H112036  -0.002   0.584   5.251 -1.3816 -0.6740 -0.9855
 4024TIP3    H212037   0.060   0.450   5.283  0.6273  0.2249 -0.9794
 4025TIP3   OH212038   6.466   1.748   0.821 -0.5033  0.5586 -0.6066
 4025TIP3    H112039   6.451   1.657   0.847 -1.5140  0.8191 -0.1917
 4025TIP3    H212040   6.378   1.785   0.814 -0.2139  2.6277  3.3896
 4026TIP3   OH212041   5.514   3.254   4.964 -0.2040 -0.6919 -0.3996
 4026TIP3    H112042   5.535   3.309   4.888  2.0962 -1.1975 -0.1999
 4026TIP3    H212043   5.576   3.281   5.031  0.5437 -3.0092 -0.0728
 4027TIP3   OH212044   6.914   4.482   0.873 -0.1964  0.6741 -0.0276
 4027TIP3    H112045   6.940   4.548   0.937 -0.8541  0.3995  0.5432
 4027TIP3    H212046   6.954   4.401   0.904  0.9632  0.8634 -0.9599
 4028TIP3   OH212047   5.884   1.946   3.552 -0.1019  0.2409 -0.3740
 4028TIP3    H112048   5.971   1.985   3.554 -0.0047  0.0396 -0.6169
 4028TIP3    H212049   5.852   1.952   3.642 -0.0691  0.8344 -0.4014
 4029TIP3   OH212050   6.921   5.485   3.853 -0.1934 -0.0095  0.4247
 4029TIP3    H112051   6.878   5.457   3.772 -0.2914  0.7972  0.1873
 4029TIP3    H212052   6.943   5.404   3.898  1.1570 -0.5490 -1.0950
 4030TIP3   OH212053   2.940   2.195   1.673 -0.5227  0.1049 -0.0007
 4030TIP3    H112054   2.930   2.103   1.646 -1.6629  0.2485 -0.1304
 4030TIP3    H212055   2.854   2.218   1.708 -0.2105  1.0967  0.1213
 4031TIP3   OH212056   1.061   6.804   4.938 -0.4239 -0.1681 -0.6312
 4031TIP3    H112057   1.040   6.716   4.966 -0.6536  0.3240  0.7920
 4031TIP3    H212058   1.156   6.802   4.921 -0.1454 -0.3464  0.8084
 4032TIP3   OH212059   0.527   0.398   3.442  0.0504 -0.0246 -0.2687
 4032TIP3    H112060   0.432   0.413   3.441 -0.2143 -1.3872  0.9586
 4032TIP3    H212061   0.551   0.386   3.350 -1.4364 -2.2115 -0.4405
 4033TIP3   OH212062   6.836   0.953   5.340 -0.1028  0.7575 -0.4437
 4033TIP3    H112063   6.771   1.020   5.322  0.6692  0.9407 -2.9792
 4033TIP3    H212064   6.887   0.987   5.413 -0.3250  2.4994 -1.0664
 4034TIP3   OH212065   6.938   4.517   4.566  0.6220  0.4845  0.4202
 4034TIP3    H112066   6.879   4.441   4.567 -0.7566  1.4794 -0.5033
 4034TIP3    H212067   6.967   4.524   4.476 -0.3077  1.7677  0.1793
 4035TIP3   OH212068   0.734   4.184   4.952 -0.0893 -0.1304 -0.3749
 4035TIP3    H112069   0.745   4.265   5.001  0.7725  0.4112 -1.4086
 4035TIP3    H212070   0.639   4.175   4.941 -0.4721 -1.1788  2.7796
 4036TIP3   OH212071   6.778   6.010   5.875  0.5698 -0.0888 -0.0790
 4036TIP3    H112072   6.864   6.047   5.852 -0.2757 -0.0187 -3.7751
 4036TIP3    H212073   6.795   5.916   5.887  0.9939 -0.3685 -2.4351
 4037TIP3   OH212074   1.803   3.212   0.180  0.1044 -0.9024 -0.1491
 4037TIP3    H112075   1.765   3.286   0.229  0.8788 -2.4055  3.0082
 4037TIP3    H212076   1.728   3.161   0.152 -0.4611 -1.8569  2.7283
 4038TIP3   OH212077   2.988   3.870   1.192  0.1482 -0.2592  0.1768
 4038TIP3    H112078   2.968   3.816   1.269 -0.5212 -1.3676 -0.7279
 4038TIP3    H212079   2.956   3.817   1.118  3.0905 -0.4293 -1.0980
 4039TIP3   OH212080   4.203   4.666   3.091  0.1716  0.1464 -0.2747
 4039TIP3    H112081   4.172   4.713   3.168 -0.7423  1.9752 -1.6960
 4039TIP3    H212082   4.242   4.733   3.035  2.7854 -1.4585 -0.5081
 4040TIP3   OH212083   2.291   3.766   5.551  0.6859 -0.2778  0.4326
 4040TIP3    H112084   2.377   3.803   5.532  1.1303 -1.1991  0.5881
 4040TIP3    H212085   2.254   3.823   5.619  1.3092 -0.0644  0.5917
 4041TIP3   OH212086   1.661   0.511   5.052 -0.1488 -0.2083  0.3046
 4041TIP3    H112087   1.676   0.597   5.012 -1.1146 -0.0117  0.3355
 4041TIP3    H212088   1.583   0.478   5.008 -0.0615 -0.8637  0.6316
 4042TIP3   OH212089   3.691   3.190   3.603  0.4182 -0.0653  0.5059
 4042TIP3    H112090   3.621   3.235   3.556  2.0374  1.2711 -0.7600
 4042TIP3    H212091   3.681   3.098   3.579 -0.8716  0.0961  0.3562
 4043TIP3   OH212092   2.815   4.647   4.543 -0.0984  0.5344  0.0236
 4043TIP3    H112093   2.724   4.664   4.565 -0.2584 -0.1119 -0.1223
 4043TIP3    H212094   2.856   4.734   4.540 -0.6338  0.8021  0.3927
 4044TIP3   OH212095   1.114   1.474   1.342  0.3385 -0.4135  0.0813
 4044TIP3    H112096   1.044   1.413   1.365  1.7344 -1.2576  2.5496
 4044TIP3    H212097   1.089   1.510   1.257 -2.2454 -1.8598  0.1462
 4045TIP3   OH212098   6.072   1.398   4.311  0.1012 -0.4234  0.4197
 4045TIP3    H112099   6.085   1.478   4.362 -1.7559  0.2323 -0.0326
 4045TIP3    H212100   6.077   1.427   4.220 -0.9356 -0.7179  0.2524
 4046TIP3   OH212101   1.943   5.976   3.850 -0.5409  0.5553  0.1851
 4046TIP3    H112102   1.947   6.015   3.937 -2.2404  1.0712  0.0753
 4046TIP3    H212103   1.993   6.035   3.794  1.0064 -0.0535  0.8682
 4047TIP3   OH212104   0.372   5.628   1.335  0.4593  0.0900  0.0310
 4047TIP3    H112105   0.355   5.598   1.425 -1.1420  1.8305  0.3761
 4047TIP3    H212106   0.459   5.669   1.339  1.6081 -2.2194  0.0964
 4048TIP3   OH212107   1.597   5.673   4.057  0.2669 -0.2365  0.2512
 4048TIP3    H112108   1.659   5.689   3.987 -3.0816  0.1506 -2.9165
 4048TIP3    H212109   1.610   5.746   4.118  3.1599 -0.5084  0.1027
 4049TIP3   OH212110   3.505   5.160   1.672  0.1211 -0.2925  0.1074
 4049TIP3    H112111   3.525   5.072   1.705  2.8144 -0.9711 -2.8164
 4049TIP3    H212112   3.569   5.216   1.717 -0.6793 -0.0327  0.9440
 4050TIP3   OH212113   1.652   2.615   3.358  0.6015 -0.1566 -0.3202
 4050TIP3    H112114   1.618   2.532   3.324  0.2789 -0.7300  1.3147
 4050TIP3    H212115   1.707   2.649   3.287  0.7524 -1.7664 -1.0241
 4051TIP3   OH212116   0.169   0.307   5.231  0.1733 -0.3371  0.8629
 4051TIP3    H112117   0.249   0.331   5.278 -0.5757 -0.3006  2.1395
 4051TIP3    H212118   0.183   0.216   5.206  1.3573  0.1826 -0.5271
 4052TIP3   OH212119   0.839   4.672   4.109  0.5390  0.5236 -0.1811
 4052TIP3    H112120   0.907   4.617   4.150 -0.3873  0.6095  1.5639
 4052TIP3    H212121   0.881   4.757   4.098  1.4123 -0.0072 -1.2459
 4053TIP3   OH212122   1.719   0.166   3.968  0.2344 -0.0206 -0.6443
 4053TIP3    H112123   1.726   0.073   3.948 -0.0443 -0.2922  0.4168
 4053TIP3    H212124   1.768   0.210   3.899 -2.9506 -0.6353 -3.5904
 4054TIP3   OH212125   4.379   2.055   3.578  0.4298  0.2278  0.4629
 4054TIP3    H112126   4.309   2.100   3.626  0.9604  0.0264  1.4515
 4054TIP3    H212127   4.339   2.031   3.494 -0.0822  1.8835  0.1936
 4055TIP3   OH212128   1.649   4.821   1.410  0.8320 -0.1113  0.3450
 4055TIP3    H112129   1.638   4.913   1.436 -1.1962  0.0138 -0.7453
 4055TIP3    H212130   1.728   4.821   1.356  0.8420  1.0180  0.3340
 4056TIP3   OH212131   5.809   6.334   5.419 -1.0101  0.1255  0.0579
 4056TIP3    H112132   5.840   6.360   5.506 -1.4946 -0.4787  0.4280
 4056TIP3    H212133   5.781   6.243   5.431 -0.2945 -0.2342 -0.9450
 4057TIP3   OH212134   2.264   0.680   1.642 -0.2498 -0.3408  0.0945
 4057TIP3    H112135   2.272   0.706   1.734  2.9743  1.4617 -0.5100
 4057TIP3    H212136   2.211   0.749   1.602 -0.0869 -0.0980  0.2909
 4058TIP3   OH212137   0.965   5.508   3.895 -0.1596 -0.8640  0.4161
 4058TIP3    H112138   0.891   5.538   3.948  0.9521  0.8782  1.0712
 4058TIP3    H212139   0.964   5.566   3.818  1.1161 -0.1014  0.9472
 4059TIP3   OH212140   4.909   0.320   2.475  0.8634  0.3002 -0.3272
 4059TIP3    H112141   4.839   0.365   2.429  0.2313 -1.8059 -1.5443
 4059TIP3    H212142   4.987   0.335   2.422  1.1901  1.8384  0.5211
 4060TIP3   OH212143   7.006   2.893   1.567 -0.7798  0.7923 -0.3666
 4060TIP3    H112144   6.967   2.932   1.489 -1.1720 -1.0457 -1.1234
 4060TIP3    H212145   6.936   2.894   1.632 -1.0349  0.5802 -0.6414
 4061TIP3   OH212146   0.597   2.300   2.301 -0.4579 -0.6741  0.3293
 4061TIP3    H112147   0.647   2.292   2.383 -1.1917 -1.4657  0.7124
 4061TIP3    H212148   0.610   2.217   2.257  1.9296  0.5789 -1.5738
 4062TIP3   OH212149   4.432   4.080   5.436 -0.4016  0.6138 -0.6054
 4062TIP3    H112150   4.433   4.039   5.350  0.8050  0.9922 -0.7962
 4062TIP3    H212151   4.391   4.166   5.421 -2.0163 -0.0909 -0.3950
 4063TIP3   OH212152   3.198   4.879   1.008 -0.4177 -0.6906 -0.0268
 4063TIP3    H112153   3.166   4.947   1.067  1.5264  0.4348 -0.2141
 4063TIP3    H212154   3.252   4.823   1.063 -1.7215 -1.9362  0.0453
 4064TIP3   OH212155   3.416   0.983   3.588 -0.0653 -0.7844  0.2190
 4064TIP3    H112156   3.341   1.040   3.604  0.0250 -0.9772  1.4310
 4064TIP3    H212157   3.377   0.899   3.561 -0.1763  0.3020 -3.5141
 4065TIP3   OH212158   5.132   2.321   0.669 -0.1776  0.3325 -0.5111
 4065TIP3    H112159   5.163   2.239   0.632  0.5619  0.6612 -0.6319
 4065TIP3    H212160   5.190   2.388   0.633 -0.8195  0.9253 -0.4810
 4066TIP3   OH212161   5.940   0.188   3.705  1.1263 -0.6431 -0.0757
 4066TIP3    H112162   5.993   0.267   3.708  0.6301 -0.3295  0.6738
 4066TIP3    H212163   5.877   0.204   3.635  1.9110 -0.9603 -0.8749
 4067TIP3   OH212164   6.824   2.541   3.231  0.1120 -0.0338  0.2942
 4067TIP3    H112165   6.841   2.480   3.302  0.4304  1.7463  1.8334
 4067TIP3    H212166   6.735   2.521   3.203  0.0434 -0.8841  1.0691
 4068TIP3   OH212167   4.461   3.615   1.116 -0.4745 -0.3050 -0.0200
 4068TIP3    H112168   4.496   3.552   1.178  0.3884  1.2907  1.1950
 4068TIP3    H212169   4.392   3.661   1.164  0.1152  0.8715 -0.2430
 4069TIP3   OH212170   4.357   1.116   4.638  0.3712  0.6113  0.0699
 4069TIP3    H112171   4.309   1.033   4.630 -0.1632  0.9359 -0.0905
 4069TIP3    H212172   4.449   1.089   4.647  0.0006 -0.0985  2.5011
 4070TIP3   OH212173   2.139   1.060   2.972  0.4035  0.1290 -0.0074
 4070TIP3    H112174   2.163   0.974   3.005  0.6342  0.0618 -0.3433
 4070TIP3    H212175   2.043   1.064   2.981  0.2289 -0.6982 -1.2412
 4071TIP3   OH212176   1.778   6.475   4.618  0.0444  0.3051  0.2009
 4071TIP3    H112177   1.833   6.454   4.694  1.2263  1.5732 -0.2603
 4071TIP3    H212178   1.734   6.556   4.642 -1.2147 -0.4034  0.3362
 4072TIP3   OH212179   6.517   6.648   1.373 -0.0023  0.5213  0.0955
 4072TIP3    H112180   6.521   6.743   1.380  0.0489  0.4370  1.6298
 4072TIP3    H212181   6.474   6.620   1.454 -0.1674 -0.7574 -0.4081
 4073TIP3   OH212182   5.946   6.647   4.118 -0.0985 -0.3859 -0.3895
 4073TIP3    H112183   5.881   6.618   4.054 -0.3003  0.2826 -0.4898
 4073TIP3    H212184   5.898   6.703   4.178  0.6593  1.3394 -1.3226
 4074TIP3   OH212185   1.604   1.849   0.161 -0.1055 -0.0580 -0.1995
 4074TIP3    H112186   1.677   1.795   0.194  0.0230  0.7927  0.9814
 4074TIP3    H212187   1.644   1.934   0.142 -1.0702  1.0590  2.3203
 4075TIP3   OH212188   4.526   5.039   2.629  0.2824  0.1671 -0.4814
 4075TIP3    H112189   4.508   5.035   2.535 -0.5022 -1.2549 -0.2959
 4075TIP3    H212190   4.449   5.081   2.667 -0.1471 -0.7390 -0.3159
 4076TIP3   OH212191   5.284   5.088   1.302 -0.0049 -0.1982 -0.2147
 4076TIP3    H112192   5.375   5.062   1.285  0.1580  0.7948 -1.0099
 4076TIP3    H212193   5.288   5.135   1.385 -0.2567 -2.3492  1.0831
 4077TIP3   OH212194   5.840   6.260   5.717  0.4109 -0.3103 -0.1226
 4077TIP3    H112195   5.933   6.280   5.730  0.6569 -0.8151 -1.0182
 4077TIP3    H212196   5.795   6.342   5.735  0.9607 -0.2381  1.0249
 4078TIP3   OH212197   1.491   1.248   4.892 -0.7995  0.2493 -0.2479
 4078TIP3    H112198   1.466   1.334   4.857  0.5837  1.1611  0.8704
 4078TIP3    H212199   1.505   1.264   4.986  0.5351 -0.9388 -0.2121
 4079TIP3   OH212200   7.022   5.733   5.536  0.0657 -0.5442 -0.1097
 4079TIP3    H112201   6.961   5.668   5.500 -2.0085  1.1920  0.0142
 4079TIP3    H212202   7.047   5.698   5.621 -1.2681 -1.0491  0.0955
 4080TIP3   OH212203   6.066   2.613   0.552 -0.1289 -0.1088  0.4232
 4080TIP3    H112204   6.088   2.598   0.460 -1.9645 -1.8817  0.2077
 4080TIP3    H212205   6.019   2.697   0.552  2.2079  1.2906  0.2206
 4081TIP3   OH212206   2.365   0.001   0.524  1.3762  0.1026  0.8889
 4081TIP3    H112207   2.302   0.064   0.490  0.3951 -0.2419  2.0232
 4081TIP3    H212208   2.399   0.041   0.604  0.5524 -0.8846  1.7593
 4082TIP3   OH212209   1.152   4.232   5.601 -0.3522  0.1750  0.0064
 4082TIP3    H112210   1.115   4.163   5.545  0.8919 -0.9517  0.5403
 4082TIP3    H212211   1.246   4.225   5.589 -0.1455  0.9535  1.0526
 4083TIP3   OH212212   0.573   4.452   2.530  0.1085 -0.1791 -0.1440
 4083TIP3    H112213   0.661   4.461   2.564 -0.0605 -1.0055  0.5364
 4083TIP3    H212214   0.545   4.364   2.557 -0.3426 -0.5455 -1.6771
 4084TIP3   OH212215   5.842   5.796   4.095  0.0725 -0.1052  0.5688
 4084TIP3    H112216   5.801   5.749   4.167  1.4003 -1.5512  0.4315
 4084TIP3    H212217   5.935   5.774   4.102  0.3555  0.4507 -1.0468
 4085TIP3   OH212218   3.352   5.523   0.805  0.0447 -0.3494 -0.2825
 4085TIP3    H112219   3.399   5.470   0.741  0.2242 -1.2956  0.6076
 4085TIP3    H212220   3.281   5.467   0.835  0.9332 -0.5641  1.5338
 4086TIP3   OH212221   1.479   3.555   5.828  0.5072  0.5480 -0.0702
 4086TIP3    H112222   1.463   3.645   5.797 -0.3237  0.5350  0.3032
 4086TIP3    H212223   1.552   3.564   5.889 -1.6239  1.5566  2.5502
 4087TIP3   OH212224   4.746   6.536   3.355 -0.5977  0.0064 -0.3944
 4087TIP3    H112225   4.688   6.578   3.290 -1.4637 -0.3931  0.1047
 4087TIP3    H212226   4.762   6.449   3.319  2.0075  0.9928 -1.9323
 4088TIP3   OH212227   2.934   4.741   1.174  0.1244  0.1931  0.3100
 4088TIP3    H112228   3.006   4.683   1.198 -0.9405 -0.9674  0.8609
 4088TIP3    H212229   2.909   4.714   1.085 -2.1734 -2.2443  1.5453
 4089TIP3   OH212230   6.165   5.642   3.142  0.1864 -0.5943  0.3892
 4089TIP3    H112231   6.128   5.562   3.104 -0.1346 -0.8458  1.2281
 4089TIP3    H212232   6.244   5.613   3.188  0.8228 -0.2239 -0.4188
 4090TIP3   OH212233   1.295   0.944   3.014 -0.0355 -0.7925  0.1007
 4090TIP3    H112234   1.299   0.851   3.038  2.0104 -1.7668 -3.2878
 4090TIP3    H212235   1.386   0.974   3.023 -0.5733  0.7450  0.6075
 4091TIP3   OH212236   4.436   3.380   0.130  0.2298  0.3416 -0.1331
 4091TIP3    H112237   4.463   3.403   0.219 -1.4607  0.9039  0.2704
 4091TIP3    H212238   4.366   3.315   0.143  0.5365 -0.1849 -1.0767
 4092TIP3   OH212239   4.865   6.835   2.731  0.3718 -0.1658 -0.1699
 4092TIP3    H112240   4.943   6.818   2.784 -0.1985 -0.2496  0.6709
 4092TIP3    H212241   4.829   6.749   2.713 -0.6964 -0.0729  1.2900
 4093TIP3   OH212242   5.306   6.609   3.052  0.5218 -0.5632  0.3059
 4093TIP3    H112243   5.369   6.665   3.006 -1.1848  1.4941  0.3314
 4093TIP3    H212244   5.331   6.615   3.144 -0.1869  0.9395  0.4175
 4094TIP3   OH212245   3.674   3.284   5.667  0.4527 -0.6130 -0.5491
 4094TIP3    H112246   3.593   3.243   5.697  0.5453  0.8763  1.9510
 4094TIP3    H212247   3.648   3.371   5.637  1.0710 -0.2174  0.0290
 4095TIP3   OH212248   1.616   6.288   4.023  0.1359 -0.8180 -0.5711
 4095TIP3    H112249   1.525   6.314   4.014 -0.1602 -2.1000 -1.4525
 4095TIP3    H212250   1.622   6.253   4.112  0.2194  0.8912  0.1336
 4096TIP3   OH212251   0.510   6.713   1.780  0.7102  0.2802  0.0896
 4096TIP3    H112252   0.493   6.634   1.728 -2.5679  0.6306  0.4380
 4096TIP3    H212253   0.437   6.717   1.842  1.3444  3.0407  0.7946
 4097TIP3   OH212254   6.377   6.342   0.648  0.2271 -0.2473  0.3405
 4097TIP3    H112255   6.400   6.396   0.723  0.3041  0.4780 -0.1946
 4097TIP3    H212256   6.453   6.347   0.591  0.5235 -1.5040  0.5946
 4098TIP3   OH212257   3.262   1.612   1.513  0.4260 -0.0222 -0.3669
 4098TIP3    H112258   3.189   1.628   1.572 -0.5967 -0.2892 -1.5207
 4098TIP3    H212259   3.242   1.664   1.435 -0.0791 -2.3483 -1.8887
 4099TIP3   OH212260   4.787   5.007   3.781 -0.2492 -0.0143  0.1656
 4099TIP3    H112261   4.820   4.979   3.695 -1.8935  0.6542 -0.7173
 4099TIP3    H212262   4.699   5.038   3.764 -0.3330  0.8693  1.9920
 4100TIP3   OH212263   1.403   4.633   2.958 -0.1921 -0.0455 -0.2504
 4100TIP3    H112264   1.475   4.572   2.937 -2.3740 -2.7037 -0.6167
 4100TIP3    H212265   1.384   4.616   3.050 -0.6888  0.2242 -0.3020
 4101TIP3   OH212266   3.590   4.353   3.619  0.3654  0.4423 -0.4317
 4101TIP3    H112267   3.531   4.381   3.690  0.6138 -0.0377 -0.0324
 4101TIP3    H212268   3.665   4.314   3.664  1.2102  1.4481 -0.9226
 4102TIP3   OH212269   2.660   4.620   1.503  0.5119 -0.4453  0.1325
 4102TIP3    H112270   2.688   4.671   1.579  0.7635 -0.0304 -0.2308
 4102TIP3    H212271   2.635   4.686   1.438 -1.1059 -0.7935  0.3557
 4103TIP3   OH212272   5.121   0.306   2.297 -0.2333 -0.0226  0.1649
 4103TIP3    H112273   5.149   0.342   2.213 -0.4103 -1.4124 -0.5017
 4103TIP3    H212274   5.202   0.295   2.347  0.0123 -0.5035 -0.3437
 4104TIP3   OH212275   5.110   0.649   5.567 -0.1580  0.1459  0.0695
 4104TIP3    H112276   5.189   0.703   5.558 -0.4342  0.7526  1.0854
 4104TIP3    H212277   5.043   0.709   5.599 -1.7612  0.2241 -3.0034
 4105TIP3   OH212278   3.605   2.150   3.808  0.1018 -0.0378 -0.1128
 4105TIP3    H112279   3.539   2.110   3.752 -0.1291 -0.0349  0.1572
 4105TIP3    H212280   3.577   2.130   3.897  0.2032  0.3822  0.0140
 4106TIP3   OH212281   5.922   5.851   3.205  0.5214  0.2941 -0.2122
 4106TIP3    H112282   5.913   5.933   3.254 -0.6319 -0.4894  0.9970
 4106TIP3    H212283   5.950   5.787   3.271  0.0089 -0.5734 -0.8118
 4107TIP3   OH212284   3.311   3.196   4.441 -0.2428 -0.1859 -0.0407
 4107TIP3    H112285   3.386   3.232   4.393 -1.7168  3.2665 -0.0489
 4107TIP3    H212286   3.310   3.103   4.417  3.5007 -0.2194 -0.6416
 4108TIP3   OH212287   1.859   0.289   1.906 -0.1487  1.0934 -0.4036
 4108TIP3    H112288   1.941   0.338   1.903 -0.0968  0.9558 -1.4975
 4108TIP3    H212289   1.874   0.220   1.971  0.0395  2.0363  0.5846
 4109TIP3   OH212290   6.692   0.609   4.038 -0.7830  0.6135 -0.0161
 4109TIP3    H112291   6.693   0.550   3.963 -1.1038  0.1325  0.3548
 4109TIP3    H212292   6.784   0.616   4.064 -0.8587 -0.6689  0.6677
 4110TIP3   OH212293   5.842   5.347   1.387 -0.7792 -0.0225  0.2929
 4110TIP3    H112294   5.752   5.316   1.372 -0.4299 -1.3744  0.8579
 4110TIP3    H212295   5.835   5.401   1.465 -1.1735  0.1951  0.1097
 4111TIP3   OH212296   0.665   0.984   4.537  0.1726 -0.5883 -0.0136
 4111TIP3    H112297   0.585   1.033   4.552  0.5788  1.1460 -2.8859
 4111TIP3    H212298   0.636   0.894   4.521 -1.0557 -0.2449  0.2047
 4112TIP3   OH212299   3.977   5.028   3.458  0.0850  0.1970 -0.2572
 4112TIP3    H112300   3.904   5.076   3.497 -0.5966 -0.3712 -0.8107
 4112TIP3    H212301   4.055   5.065   3.500 -0.3034  2.6795 -1.5363
 4113TIP3   OH212302   1.342   3.448   4.466 -0.9276  0.6547  0.2339
 4113TIP3    H112303   1.399   3.513   4.424  1.8882 -1.7346  0.0085
 4113TIP3    H212304   1.370   3.447   4.558  0.1786 -1.1887 -0.0683
 4114TIP3   OH212305   4.776   4.403   3.448  0.2158  0.1091  0.4680
 4114TIP3    H112306   4.828   4.478   3.420 -0.8058  0.4434 -0.5772
 4114TIP3    H212307   4.807   4.330   3.394  0.8282 -0.1165  1.1043
 4115TIP3   OH212308   1.826   5.954   1.033 -0.1153 -0.5317 -0.0841
 4115TIP3    H112309   1.868   5.998   0.959  0.9289 -0.5886  0.4561
 4115TIP3    H212310   1.896   5.902   1.073 -0.0599  1.1613  2.2344
 4116TIP3   OH212311   3.031   6.015   2.981 -0.0664  0.7646 -0.1923
 4116TIP3    H112312   2.972   6.018   2.906 -0.2384  0.8726 -0.0550
 4116TIP3    H212313   2.973   5.998   3.056  0.1423  0.3466 -0.1262
 4117TIP3   OH212314   5.125   5.322   0.850  0.4113 -0.2562  0.2672
 4117TIP3    H112315   5.117   5.237   0.806 -0.5277 -0.1317  0.1927
 4117TIP3    H212316   5.036   5.347   0.872  0.7178  0.5184  0.6729
 4118TIP3   OH212317   1.944   0.449   4.337  0.2698 -0.7291  0.3336
 4118TIP3    H112318   1.870   0.418   4.286  0.2716  1.3262 -1.0342
 4118TIP3    H212319   1.906   0.476   4.420  0.1172 -3.1569  1.1359
 4119TIP3   OH212320   6.068   1.739   0.172 -0.0625  0.2428 -1.1671
 4119TIP3    H112321   6.147   1.745   0.225 -0.5617  0.1147 -0.4049
 4119TIP3    H212322   6.100   1.742   0.081  0.8232 -0.0280 -0.8684
 4120TIP3   OH212323   6.018   5.594   0.072 -0.2607 -0.3730  0.2699
 4120TIP3    H112324   6.058   5.534   0.010  1.1875 -0.0457  0.8356
 4120TIP3    H212325   5.956   5.645   0.020  0.2726 -0.7038 -0.7180
 4121TIP3   OH212326   7.200   6.320   1.568  0.5409 -0.0546 -0.2282
 4121TIP3    H112327   7.204   6.226   1.548 -0.4776 -0.1532 -0.0061
 4121TIP3    H212328   7.225   6.325   1.660  1.8042  0.0343 -0.5584
 4122TIP3   OH212329   0.027   1.379   1.738  0.0851 -0.3721  0.6659
 4122TIP3    H112330   0.095   1.437   1.770 -1.4227  2.7620 -1.3080
 4122TIP3    H212331  -0.034   1.371   1.811 -0.2470  1.5636  0.6458
 4123TIP3   OH212332   1.949   3.879   1.672  0.6938 -0.5672  0.8030
 4123TIP3    H112333   1.981   3.931   1.598 -1.7924 -0.0759  0.0014
 4123TIP3    H212334   2.024   3.824   1.696  2.0173  0.2606 -1.1499
 4124TIP3   OH212335   0.111   5.504   4.680  0.2254  0.0224  0.1644
 4124TIP3    H112336   0.119   5.528   4.772 -0.7629  0.6218  0.1127
 4124TIP3    H212337   0.063   5.422   4.680  0.2321  0.0186  0.1864
 4125TIP3   OH212338   1.941   0.325   3.503 -0.9209  0.7493  0.3771
 4125TIP3    H112339   1.907   0.408   3.468  0.3742  1.0299 -0.2647
 4125TIP3    H212340   2.025   0.313   3.459 -2.4911 -2.6142 -2.1278
 4126TIP3   OH212341   1.179   4.438   2.048  0.9931  0.0283 -0.2746
 4126TIP3    H112342   1.140   4.521   2.018  1.1069  0.3470  0.4416
 4126TIP3    H212343   1.270   4.460   2.066  0.8023 -0.0282  0.8020
 4127TIP3   OH212344   7.021   5.190   4.958 -0.5198 -0.0944 -0.3418
 4127TIP3    H112345   7.064   5.129   5.018 -1.8224 -0.1960  0.5220
 4127TIP3    H212346   6.996   5.137   4.883  1.2591  0.0645 -1.1002
 4128TIP3   OH212347   0.181   3.953   4.965 -0.6204 -0.1896 -0.3511
 4128TIP3    H112348   0.094   3.955   5.005 -0.1922  0.0312  0.5979
 4128TIP3    H212349   0.228   4.026   5.006  0.2174 -0.7126 -0.3635
 4129TIP3   OH212350   5.514   4.828   1.947  0.0089 -0.3566  0.3251
 4129TIP3    H112351   5.464   4.836   1.866 -1.6709 -0.1138  1.3248
 4129TIP3    H212352   5.605   4.818   1.919 -0.2815  1.5564 -1.5316
 4130TIP3   OH212353   3.951   1.154   4.803  0.3301 -0.3824 -0.6090
 4130TIP3    H112354   3.864   1.115   4.809  0.0314  0.2084 -1.0119
 4130TIP3    H212355   4.011   1.082   4.824 -0.1476 -1.3637 -2.3559
 4131TIP3   OH212356   4.458   3.840   2.709  0.2294  0.2144 -0.3247
 4131TIP3    H112357   4.540   3.815   2.750  0.1340 -1.2190 -0.9368
 4131TIP3    H212358   4.450   3.781   2.634 -1.9491 -0.5657  0.4406
 4132TIP3   OH212359   3.311   4.734   3.265  0.0219  0.7315 -0.3421
 4132TIP3    H112360   3.267   4.801   3.316  2.5280  1.0176  1.6501
 4132TIP3    H212361   3.337   4.668   3.329 -1.9847 -2.0326 -2.1753
 4133TIP3   OH212362   4.551   5.866   2.267 -0.3649  0.5802 -0.1091
 4133TIP3    H112363   4.573   5.791   2.323  1.8797  0.6324 -0.7902
 4133TIP3    H212364   4.491   5.918   2.319 -0.2027 -0.5568  1.2953
 4134TIP3   OH212365   6.083   5.731   4.443  0.2452  0.1604  0.3240
 4134TIP3    H112366   6.171   5.708   4.471  0.9687  1.4386 -0.7842
 4134TIP3    H212367   6.084   5.720   4.348 -1.5756 -2.2851  0.4820
 4135TIP3   OH212368   4.782   3.770   5.363 -0.0647  0.0231 -0.2823
 4135TIP3    H112369   4.708   3.760   5.422  0.3716  0.0598  0.2827
 4135TIP3    H212370   4.858   3.747   5.416  0.2546 -0.9188 -1.1113
 4136TIP3   OH212371   1.545   0.144   4.471  0.1315  0.6027 -0.2763
 4136TIP3    H112372   1.478   0.205   4.501  0.3894  1.1053 -0.7123
 4136TIP3    H212373   1.496   0.069   4.437 -0.1748  0.2006  0.9931
 4137TIP3   OH212374   4.156   1.318   4.679 -0.2093  0.0144  0.3340
 4137TIP3    H112375   4.083   1.276   4.725  0.1317 -1.7892 -0.6320
 4137TIP3    H212376   4.225   1.252   4.680  0.5183  0.7236 -0.9051
 4138TIP3   OH212377   2.780   0.458   1.784  0.0919 -0.2319  0.7842
 4138TIP3    H112378   2.796   0.425   1.695  1.4870 -0.6875  1.1859
 4138TIP3    H212379   2.865   0.488   1.815 -0.3933  0.0172  1.9409
 4139TIP3   OH212380   6.642   0.394   2.902 -0.4353 -0.9538  0.1323
 4139TIP3    H112381   6.617   0.302   2.890  1.4684 -1.3617 -1.1877
 4139TIP3    H212382   6.737   0.392   2.916 -0.5275  0.7462  1.3308
 4140TIP3   OH212383   1.782   0.742   1.496 -0.8669 -0.4366 -0.9880
 4140TIP3    H112384   1.752   0.651   1.500  0.0634 -0.7161  0.5544
 4140TIP3    H212385   1.752   0.781   1.579  0.8744 -0.0772 -0.4865
 4141TIP3   OH212386   1.409   4.625   1.392 -0.1249 -0.0463 -0.6058
 4141TIP3    H112387   1.340   4.661   1.447 -0.9594 -0.5137 -1.3263
 4141TIP3    H212388   1.490   4.645   1.439 -0.7657  0.2005  0.4209
 4142TIP3   OH212389   6.542   1.899   3.464 -0.3592 -0.6705 -0.7024
 4142TIP3    H112390   6.578   1.961   3.527  0.3387 -2.1515  0.4218
 4142TIP3    H212391   6.599   1.909   3.387 -0.7441  0.6064 -0.8522
 4143TIP3   OH212392   3.924   3.284   0.064 -0.1947 -0.6759  0.0637
 4143TIP3    H112393   3.949   3.194   0.089 -0.4147 -0.7473  0.0264
 4143TIP3    H212394   3.872   3.315   0.138  2.1708  0.4290  1.3904
 4144TIP3   OH212395   3.710   4.281   4.291 -0.2368  0.7759  0.4592
 4144TIP3    H112396   3.755   4.213   4.241  0.9402  0.6583  1.6339
 4144TIP3    H212397   3.638   4.309   4.234  0.9372  0.5296 -1.2143
 4145TIP3   OH212398   6.714   5.583   4.283 -0.9269  0.0703 -0.3764
 4145TIP3    H112399   6.763   5.519   4.335  0.5504  0.8649 -0.7527
 4145TIP3    H212400   6.709   5.661   4.339  1.6975  1.3469 -1.7627
 4146TIP3   OH212401   3.952   1.073   0.287 -0.2007  0.3004  0.0236
 4146TIP3    H112402   4.000   0.994   0.263 -0.3384  0.4959 -0.8963
 4146TIP3    H212403   3.879   1.041   0.341 -0.0295 -0.1553 -0.0103
 4147TIP3   OH212404   0.635   4.370   5.132 -0.0961 -0.2064  0.1873
 4147TIP3    H112405   0.585   4.418   5.065 -1.5755 -0.1256  1.3123
 4147TIP3    H212406   0.645   4.432   5.204  1.0197 -0.4709  0.2752
 4148TIP3   OH212407   3.362   5.138   0.971  0.5361  0.3595 -0.3466
 4148TIP3    H112408   3.302   5.067   0.948  1.2714 -0.3204 -0.1932
 4148TIP3    H212409   3.308   5.217   0.966 -0.3473 -0.2249 -0.3058
 4149TIP3   OH212410   0.123   1.716   3.307 -0.2081 -0.5034 -0.4552
 4149TIP3    H112411   0.028   1.711   3.293 -0.2380  0.0831 -0.4957
 4149TIP3    H212412   0.141   1.652   3.376 -0.6283 -0.6403 -0.4702
 4150TIP3   OH212413   5.661   4.415   4.617  0.1501 -0.1584 -0.1220
 4150TIP3    H112414   5.676   4.366   4.699 -1.8566 -0.8531 -0.1107
 4150TIP3    H212415   5.570   4.444   4.624  0.3201  0.7809 -1.6108
 4151TIP3   OH212416   2.129   2.423   3.549 -0.2668 -0.2354  0.4041
 4151TIP3    H112417   2.127   2.329   3.565  0.7401  0.2264  4.0350
 4151TIP3    H212418   2.044   2.443   3.511 -1.5933 -2.2697  2.1108
 4152TIP3   OH212419   5.861   6.078   0.042 -0.3483  0.6326  0.0800
 4152TIP3    H112420   5.870   5.988   0.010  0.2830  0.8906 -0.5010
 4152TIP3    H212421   5.902   6.132  -0.026 -0.7003  1.3585  0.4310
 4153TIP3   OH212422   5.514   1.516   2.877  0.0044  0.0520 -0.0239
 4153TIP3    H112423   5.597   1.558   2.901  0.1355  0.3607 -0.9933
 4153TIP3    H212424   5.495   1.549   2.789 -1.6787  0.7991  0.5800
 4154TIP3   OH212425   3.015   2.162   2.922  0.6072 -0.6307 -0.3252
 4154TIP3    H112426   3.027   2.154   2.828  1.1709 -0.4204 -0.2754
 4154TIP3    H212427   3.050   2.248   2.944 -1.8343  0.4281 -0.2736
 4155TIP3   OH212428   2.992   3.983   5.691 -0.2119 -0.9104  0.0500
 4155TIP3    H112429   2.941   3.903   5.704 -1.1563 -0.3172  0.0779
 4155TIP3    H212430   2.976   4.035   5.769  0.8298 -0.9111  0.2760
 4156TIP3   OH212431   1.869   5.798   2.562 -0.1113  0.4683 -0.0272
 4156TIP3    H112432   1.934   5.825   2.497 -0.9418  2.2179 -0.1809
 4156TIP3    H212433   1.786   5.832   2.528 -0.9611 -0.7869  0.7093
 4157TIP3   OH212434   2.418   1.388   3.568  0.0284 -0.6917  0.0528
 4157TIP3    H112435   2.461   1.307   3.596 -0.5059 -0.7679  0.6691
 4157TIP3    H212436   2.443   1.453   3.634  0.0769 -0.4587 -0.1875
 4158TIP3   OH212437   4.316   5.075   5.239  0.0242 -0.1358  0.0590
 4158TIP3    H112438   4.380   5.138   5.205 -0.5723  2.0335  2.6506
 4158TIP3    H212439   4.231   5.116   5.221 -0.4538 -0.9106  0.5113
 4159TIP3   OH212440   4.147   3.472   0.878  0.4651 -0.5755 -0.5464
 4159TIP3    H112441   4.167   3.566   0.885  3.6256 -1.1028 -1.1687
 4159TIP3    H212442   4.096   3.453   0.957 -0.2513  1.6301 -0.3987
 4160TIP3   OH212443   6.612   1.408   2.280 -0.0777  0.5927 -0.1257
 4160TIP3    H112444   6.596   1.482   2.222  1.7162  0.4901 -0.8170
 4160TIP3    H212445   6.557   1.338   2.245  0.6114  0.6782 -1.4414
 4161TIP3   OH212446   6.933   5.501   5.219  0.3274 -0.7076 -0.3833
 4161TIP3    H112447   6.909   5.521   5.309  2.9793 -1.2956  0.5587
 4161TIP3    H212448   6.904   5.411   5.205 -0.4294 -0.4869 -0.2695
 4162TIP3   OH212449   6.348   4.199   3.368 -0.0606  0.5471  0.6347
 4162TIP3    H112450   6.433   4.194   3.412  0.6236  2.8066 -0.2790
 4162TIP3    H212451   6.287   4.227   3.436 -0.4949 -2.5591  1.6739
 4163TIP3   OH212452   0.566   5.820   2.179  0.2341  0.4736 -0.3018
 4163TIP3    H112453   0.606   5.902   2.148  1.3288  0.2001  0.3567
 4163TIP3    H212454   0.587   5.816   2.272 -2.9055  1.2171  0.5694
 4164TIP3   OH212455   0.836   2.847   5.482  0.2390  0.4717 -0.5618
 4164TIP3    H112456   0.900   2.779   5.505 -0.3083  0.0850 -0.1418
 4164TIP3    H212457   0.781   2.806   5.415 -1.0471 -0.0736  0.7753
 4165TIP3   OH212458   4.492   1.237   1.468 -0.4171  0.2984 -0.0077
 4165TIP3    H112459   4.454   1.158   1.429 -1.1625  2.0365 -3.2091
 4165TIP3    H212460   4.431   1.261   1.538 -2.0571 -0.1624 -1.2215
 4166TIP3   OH212461   4.660   6.166   3.599  0.2938  1.0170 -0.1967
 4166TIP3    H112462   4.702   6.240   3.555 -0.2000  2.2337  1.2877
 4166TIP3    H212463   4.616   6.205   3.674  2.6416 -1.1607  2.5244
 4167TIP3   OH212464   5.769   3.380   0.221 -0.5775 -0.4062  0.6144
 4167TIP3    H112465   5.751   3.405   0.131  2.5765  0.7980  0.1793
 4167TIP3    H212466   5.707   3.431   0.273 -0.2640  1.4786 -0.7461
 4168TIP3   OH212467   4.022   3.367   3.861 -0.7863 -0.2842 -0.3815
 4168TIP3    H112468   4.059   3.289   3.820  0.2122  0.3014 -0.6437
 4168TIP3    H212469   3.933   3.342   3.886 -0.7387 -1.2592 -1.1418
 4169TIP3   OH212470   1.922   3.101   3.054  0.3348 -0.9163 -0.6743
 4169TIP3    H112471   1.937   3.050   2.974 -1.1589 -3.0229  0.3127
 4169TIP3    H212472   1.827   3.100   3.066  0.1265  2.7168 -0.8965
 4170TIP3   OH212473   5.801   3.524   2.079  0.0286  0.2355 -0.0093
 4170TIP3    H112474   5.835   3.536   1.991  2.2784  0.9812  0.8928
 4170TIP3    H212475   5.770   3.433   2.081 -0.2022  0.2639 -1.5876
 4171TIP3   OH212476   4.369   4.861   0.547  0.5519 -0.3239  0.0679
 4171TIP3    H112477   4.331   4.911   0.475  0.1790  3.1344  2.4153
 4171TIP3    H212478   4.463   4.876   0.539  0.6146 -0.9044 -0.3256
 4172TIP3   OH212479   1.505   5.698   1.569 -0.4110 -0.0479  0.5496
 4172TIP3    H112480   1.439   5.670   1.506  0.0051  0.3636 -0.0914
 4172TIP3    H212481   1.548   5.617   1.597 -0.1190 -0.1815 -0.2515
 4173TIP3   OH212482   7.063   1.811   1.017 -0.2981 -0.1571  0.6028
 4173TIP3    H112483   7.002   1.752   0.973 -1.6196  1.8438 -0.4509
 4173TIP3    H212484   7.011   1.890   1.035  2.1708  2.1594 -1.3992
 4174TIP3   OH212485   2.999   0.331   1.024 -0.4625 -0.3414 -0.0364
 4174TIP3    H112486   2.976   0.402   0.964 -0.3307 -0.6846 -0.5035
 4174TIP3    H212487   2.919   0.281   1.034  0.0425 -1.5698 -1.7088
 4175TIP3   OH212488   2.988   3.436   0.818 -0.0026 -0.1098 -0.5834
 4175TIP3    H112489   2.901   3.400   0.836 -0.1138  1.0592  1.5908
 4175TIP3    H212490   3.048   3.367   0.846 -0.2049 -0.5321 -1.1606
 4176TIP3   OH212491   3.118   4.405   0.268 -0.0264 -0.1117 -0.2111
 4176TIP3    H112492   3.161   4.480   0.230  1.0583 -0.1566  0.8664
 4176TIP3    H212493   3.169   4.329   0.238 -0.4812 -0.3324 -0.4404
 4177TIP3   OH212494   5.623   0.610   4.973  0.3539 -0.0426 -0.6192
 4177TIP3    H112495   5.613   0.696   5.015 -0.8063 -0.3998 -0.1187
 4177TIP3    H212496   5.557   0.555   5.015  1.1710 -1.2296 -0.8426
 4178TIP3   OH212497   0.946   3.029   0.234  0.0990 -0.3163 -0.0917
 4178TIP3    H112498   0.886   3.050   0.305  0.4090  0.2210  0.0155
 4178TIP3    H212499   0.950   2.933   0.233 -0.2455 -0.3360  0.3267
 4179TIP3   OH212500   4.504   3.209   2.892 -0.4373  0.3977 -0.5479
 4179TIP3    H112501   4.488   3.283   2.834  2.0056  2.4796  1.1955
 4179TIP3    H212502   4.454   3.230   2.972 -0.4869 -0.3505 -0.3725
 4180TIP3   OH212503   2.022   4.715   1.495 -0.4480 -0.7289  0.2196
 4180TIP3    H112504   2.085   4.785   1.512 -0.1930 -0.4430 -1.6597
 4180TIP3    H212505   2.039   4.649   1.562  1.2164 -0.2222  0.3275
 4181TIP3   OH212506   1.389   5.411   1.791 -0.0245 -0.7267 -0.0992
 4181TIP3    H112507   1.328   5.481   1.772  1.3509  0.5067 -0.1497
 4181TIP3    H212508   1.380   5.395   1.884  0.1811  0.0692  0.0656
 4182TIP3   OH212509   2.634   4.396   1.340  0.3433  0.4053 -0.2577
 4182TIP3    H112510   2.630   4.452   1.263  2.1019 -0.2178 -0.8526
 4182TIP3    H212511   2.621   4.456   1.414  0.0297  1.2264 -0.9633
 4183TIP3   OH212512   0.630   4.828   4.820  0.2273  0.3654  0.1617
 4183TIP3    H112513   0.598   4.898   4.762 -0.9390  0.8647  1.3437
 4183TIP3    H212514   0.624   4.748   4.767 -3.7262  0.2924  0.3763
 4184TIP3   OH212515   1.776   5.480   0.545 -0.3432 -0.0029  0.1250
 4184TIP3    H112516   1.830   5.494   0.622 -1.6532  0.8029  0.9305
 4184TIP3    H212517   1.794   5.389   0.520 -0.2699 -0.4454  1.6797
 4185TIP3   OH212518   2.557   4.954   0.188  0.4882 -0.1154 -0.8130
 4185TIP3    H112519   2.469   4.929   0.157 -0.0522  1.7315 -0.8784
 4185TIP3    H212520   2.543   5.033   0.239  2.0737 -0.1195 -0.3224
 4186TIP3   OH212521   5.796   6.454   0.204  0.4385  0.4916  0.2514
 4186TIP3    H112522   5.827   6.382   0.260 -0.3432  1.1193  1.5089
 4186TIP3    H212523   5.877   6.496   0.174  0.8649  0.3605  1.1839
 4187TIP3   OH212524   1.919   6.431   3.258 -0.2288 -0.1797  0.0704
 4187TIP3    H112525   1.907   6.395   3.346  0.9092  1.2930  0.8691
 4187TIP3    H212526   1.866   6.511   3.258  0.8448  0.5417 -0.1095
 4188TIP3   OH212527   1.941   5.371   2.169  0.4948  0.0202 -0.6102
 4188TIP3    H112528   1.971   5.452   2.211 -0.4649  0.5710 -0.9418
 4188TIP3    H212529   2.007   5.306   2.193  1.0169  0.7756  0.0944
 4189TIP3   OH212530   1.021   2.760   4.032 -0.0601 -0.3297 -0.5117
 4189TIP3    H112531   1.086   2.808   4.084 -0.9075 -0.6396  0.8798
 4189TIP3    H212532   1.057   2.672   4.024  0.2454 -0.1846 -0.7948
 4190TIP3   OH212533   2.430   1.267   1.472 -0.0720 -0.0657 -0.4964
 4190TIP3    H112534   2.449   1.342   1.415  0.7274 -0.5540 -0.8983
 4190TIP3    H212535   2.441   1.301   1.561  0.7028  0.1976 -0.6823
 4191TIP3   OH212536   3.747   2.049   4.656  0.4218 -0.4021  0.6992
 4191TIP3    H112537   3.759   2.050   4.561  2.1682 -1.0297  0.8871
 4191TIP3    H212538   3.796   1.973   4.686 -0.8021 -0.7075  2.0470
 4192TIP3   OH212539   2.510   0.636   3.103  0.0724 -0.1921 -0.1531
 4192TIP3    H112540   2.538   0.679   3.022  1.4382  0.1396  0.4547
 4192TIP3    H212541   2.475   0.552   3.075 -1.4971  0.7903 -1.2580
 4193TIP3   OH212542   3.903   3.206   1.291 -0.2730  0.4062  0.0648
 4193TIP3    H112543   3.847   3.129   1.290 -0.0455  0.2351 -0.7813
 4193TIP3    H212544   3.896   3.241   1.380 -1.1058 -0.0507  0.1806
 4194TIP3   OH212545   6.006   6.471   3.795 -0.0009  0.6744 -0.1809
 4194TIP3    H112546   5.969   6.392   3.756 -0.7767  1.6697 -1.5728
 4194TIP3    H212547   5.930   6.524   3.818  0.4403  0.2925  2.4641
 4195TIP3   OH212548   2.650   3.648   0.993  0.2490 -0.2623  0.8156
 4195TIP3    H112549   2.662   3.669   1.085  1.2435  1.3625  0.3709
 4195TIP3    H212550   2.627   3.556   0.991 -2.4646  0.2739  2.8586
 4196TIP3   OH212551   1.536   5.597   0.556 -0.4079  0.1777 -0.5578
 4196TIP3    H112552   1.611   5.544   0.527  1.4083  0.9949  2.2332
 4196TIP3    H212553   1.459   5.549   0.525  1.2254 -1.2085 -2.7250
 4197TIP3   OH212554   6.972   2.077   1.254  0.1655 -0.3080  0.0420
 4197TIP3    H112555   6.901   2.055   1.192  1.0586 -0.8532 -0.8213
 4197TIP3    H212556   6.990   1.994   1.299 -0.6020  0.1260  1.2047
 4198TIP3   OH212557   6.612   6.474   3.777 -0.3361 -0.2402  0.4823
 4198TIP3    H112558   6.540   6.417   3.806 -0.2153 -0.5620  0.1603
 4198TIP3    H212559   6.671   6.415   3.730  1.8893 -0.7310  3.5713
 4199TIP3   OH212560   4.177   5.424   4.921 -0.0158 -0.2003 -0.4393
 4199TIP3    H112561   4.151   5.366   4.849  2.6095 -1.8512 -0.1775
 4199TIP3    H212562   4.121   5.398   4.994 -0.8490 -0.3787 -1.1251
 4200TIP3   OH212563   3.977   2.147   0.208 -0.1174  0.3155  0.2111
 4200TIP3    H112564   4.031   2.090   0.264 -1.4017 -0.7058  0.4701
 4200TIP3    H212565   4.022   2.147   0.124  0.3974 -0.3630  0.4715
 4201TIP3   OH212566   0.455   5.213   1.678 -0.1783 -0.3640  0.1294
 4201TIP3    H112567   0.526   5.217   1.741 -0.0287 -2.9667  0.2171
 4201TIP3    H212568   0.493   5.249   1.597  0.9502 -0.8435  0.4236
 4202TIP3   OH212569   3.429   2.107   0.853 -0.4126  0.0067  0.2474
 4202TIP3    H112570   3.519   2.120   0.821 -0.1682 -2.4353 -0.3038
 4202TIP3    H212571   3.374   2.148   0.787  0.2395 -1.3827 -1.2375
 4203TIP3   OH212572   4.013   3.552   3.652  0.5221 -0.0687  1.0444
 4203TIP3    H112573   3.967   3.627   3.690  0.0905 -0.3534  1.0871
 4203TIP3    H212574   4.014   3.486   3.722 -0.0607 -0.5063  0.6470
 4204TIP3   OH212575   4.215   6.416   0.174  0.0315  0.1545  0.4790
 4204TIP3    H112576   4.304   6.405   0.143 -0.5483 -0.6410 -0.9983
 4204TIP3    H212577   4.224   6.434   0.268  1.8674  2.6785 -0.0594
 4205TIP3   OH212578   6.204   0.208   0.610  0.0534 -0.1286 -0.2447
 4205TIP3    H112579   6.179   0.116   0.614 -1.7073  0.2875 -0.7844
 4205TIP3    H212580   6.123   0.254   0.587  0.9380  1.5359 -0.1910
 4206TIP3   OH212581   2.486   0.895   2.669 -0.4753  0.3932 -0.0371
 4206TIP3    H112582   2.442   0.935   2.594 -0.6233  0.0243 -0.1500
 4206TIP3    H212583   2.568   0.861   2.632 -1.3576 -1.3869 -0.4269
 4207TIP3   OH212584   4.302   2.181   0.116  0.0444 -0.0047  0.0542
 4207TIP3    H112585   4.235   2.157   0.053 -0.0113  1.6109 -0.5376
 4207TIP3    H212586   4.280   2.130   0.194 -1.8089  0.3852 -0.1600
 4208TIP3   OH212587   5.900   6.255   3.653 -0.5331 -0.7454  0.3728
 4208TIP3    H112588   5.820   6.293   3.617 -1.2879 -2.2376  0.3731
 4208TIP3    H212589   5.884   6.160   3.653  0.1698 -0.9451  2.8836
 4209TIP3   OH212590   1.607   3.308   3.344 -0.3845 -0.0338 -0.0486
 4209TIP3    H112591   1.563   3.386   3.376 -4.6356 -1.6601 -1.2609
 4209TIP3    H212592   1.605   3.317   3.248 -0.0327 -1.1802 -0.1801
 4210TIP3   OH212593   4.483   1.386   4.690 -0.0579  0.5055  0.2792
 4210TIP3    H112594   4.416   1.347   4.633  0.3626  0.3829 -0.1334
 4210TIP3    H212595   4.495   1.322   4.760  0.7467 -0.1879 -0.4801
 4211TIP3   OH212596   0.256   6.343   4.433  0.1339 -0.1227 -0.0267
 4211TIP3    H112597   0.269   6.296   4.516  1.4860 -0.2236 -0.2751
 4211TIP3    H212598   0.244   6.434   4.458 -2.1069 -0.4712  0.4345
 4212TIP3   OH212599   5.888   1.184   3.478  0.1183  0.4715  0.0539
 4212TIP3    H112600   5.953   1.117   3.498  0.0376  0.1746 -0.6476
 4212TIP3    H212601   5.910   1.214   3.390 -0.1695  0.9901  0.1499
 4213TIP3   OH212602   4.242   5.039   1.872  0.0222 -0.6631  0.2618
 4213TIP3    H112603   4.248   5.080   1.785 -0.9202 -2.1548 -0.5537
 4213TIP3    H212604   4.306   5.085   1.925  0.4246  0.4789 -1.1564
 4214TIP3   OH212605   5.074   4.133   0.996  0.4357 -0.0190 -0.0153
 4214TIP3    H112606   4.997   4.084   0.967  1.5623 -1.6251 -0.4217
 4214TIP3    H212607   5.114   4.076   1.063  0.8252  1.1775  0.7992
 4215TIP3   OH212608   7.013   2.780   4.423 -0.8816 -0.3269 -0.3624
 4215TIP3    H112609   7.055   2.694   4.432 -0.0750  0.1050  0.0561
 4215TIP3    H212610   7.034   2.807   4.333  0.0174  0.0216 -0.0585
 4216TIP3   OH212611   7.106   3.074   2.258  0.0008 -0.4373  0.2911
 4216TIP3    H112612   7.027   3.074   2.203  0.0057 -0.5160  0.2838
 4216TIP3    H212613   7.179   3.070   2.195  0.0709  1.4738  0.2112
 4217TIP3   OH212614   4.875   3.450   5.720 -0.2241 -0.0774  0.2846
 4217TIP3    H112615   4.814   3.472   5.649 -0.5908 -0.3535  0.5123
 4217TIP3    H212616   4.959   3.438   5.676 -0.6646 -1.3080 -0.2601
 4218TIP3   OH212617   2.728   1.392   4.001  0.6824  0.4102 -0.0416
 4218TIP3    H112618   2.797   1.374   4.064  0.2320  2.1247  1.0271
 4218TIP3    H212619   2.750   1.479   3.965 -0.7306  0.8636  0.1220
 4219TIP3   OH212620   4.189   2.813   4.109 -0.6954 -0.4304  0.1699
 4219TIP3    H112621   4.226   2.841   4.192  1.2626 -0.2547 -0.7198
 4219TIP3    H212622   4.099   2.846   4.111  0.6219  3.8585  0.2737
 4220TIP3   OH212623   2.663   0.087   4.084 -0.4857  0.0316  0.4273
 4220TIP3    H112624   2.602   0.120   4.017 -0.5837  1.0283  0.9949
 4220TIP3    H212625   2.744   0.071   4.036 -0.8770 -0.2894 -0.1363
 4221TIP3   OH212626   0.808   1.798   3.657  0.5500  0.4408 -0.2071
 4221TIP3    H112627   0.804   1.727   3.593 -0.8057  0.6241 -0.3578
 4221TIP3    H212628   0.727   1.790   3.707  1.1189  0.9262  0.8181
 4222TIP3   OH212629   4.442   4.539   5.093  0.6938 -0.0539  0.4661
 4222TIP3    H112630   4.383   4.573   5.160  1.4271 -0.4747  1.3574
 4222TIP3    H212631   4.479   4.460   5.133  1.3597 -0.1557 -0.3350
 4223TIP3   OH212632   6.769   2.861   5.757  0.3595 -0.1377 -0.0834
 4223TIP3    H112633   6.827   2.936   5.758  0.4594 -0.2186  0.3222
 4223TIP3    H212634   6.816   2.793   5.806 -0.5381  0.1445  1.2004
 4224TIP3   OH212635   4.265   1.736   3.911  0.3919  0.3663 -0.6975
 4224TIP3    H112636   4.326   1.804   3.883 -0.3269  0.7745 -1.3024
 4224TIP3    H212637   4.210   1.720   3.835  0.3468 -0.6716 -0.4592
 4225TIP3   OH212638   1.600   1.745   1.272 -0.1919  0.3228 -0.3233
 4225TIP3    H112639   1.613   1.701   1.189 -0.2138 -0.7149  0.2122
 4225TIP3    H212640   1.524   1.702   1.311  0.5719 -0.0734  0.7872
 4226TIP3   OH212641   3.913   5.873   3.519  0.3985  0.9035  0.3227
 4226TIP3    H112642   3.948   5.943   3.464  0.7199  0.0696 -0.5498
 4226TIP3    H212643   3.818   5.880   3.509  0.4256  1.2930  0.3374
 4227TIP3   OH212644   6.409   4.471   2.111  0.1474  0.7092  0.2094
 4227TIP3    H112645   6.355   4.402   2.073  1.6267 -1.3611  1.6213
 4227TIP3    H212646   6.496   4.458   2.072  1.2121 -0.2556  2.7099
 4228TIP3   OH212647   5.442   0.998   2.125 -0.0203 -0.2504 -0.2136
 4228TIP3    H112648   5.348   0.990   2.143 -0.1987  0.0471 -0.9608
 4228TIP3    H212649   5.482   0.926   2.174 -0.7993 -1.2629 -1.0043
 4229TIP3   OH212650   2.343   2.853   0.275 -0.1145  0.2488 -0.1100
 4229TIP3    H112651   2.335   2.822   0.366 -0.3897  0.6398  0.0000
 4229TIP3    H212652   2.417   2.803   0.240 -0.4046 -0.3706  0.1347
 4230TIP3   OH212653   6.387   5.864   3.313 -0.1532  0.4477  0.5302
 4230TIP3    H112654   6.401   5.954   3.342 -1.1572  1.6930 -2.4411
 4230TIP3    H212655   6.463   5.843   3.259 -0.1558 -0.3328  0.8045
 4231TIP3   OH212656   3.646   6.440   4.094  0.1237  0.1055  0.2028
 4231TIP3    H112657   3.591   6.446   4.016 -0.4719  1.9877  0.7223
 4231TIP3    H212658   3.729   6.479   4.068 -0.2040  1.0960  0.5876
 4232TIP3   OH212659   7.172   2.202   3.473  0.7345 -0.1681 -0.7176
 4232TIP3    H112660   7.262   2.170   3.469  1.3176  1.5144 -2.1413
 4232TIP3    H212661   7.177   2.294   3.447 -1.1730  0.4853  0.9381
 4233TIP3   OH212662   6.542   2.549   5.805  0.5565  0.1826 -0.0207
 4233TIP3    H112663   6.559   2.489   5.733 -0.5288  0.0697 -0.1905
 4233TIP3    H212664   6.550   2.636   5.766 -2.2387  0.1344 -0.8583
 4234TIP3   OH212665   0.971   1.905   5.181 -0.2423 -0.2910  0.3846
 4234TIP3    H112666   1.026   1.857   5.118 -1.7293 -1.3714 -0.1547
 4234TIP3    H212667   1.024   1.980   5.206  3.0730 -3.1100  2.7748
 4235TIP3   OH212668   3.404   1.339   4.898  0.5557 -0.0402 -0.2076
 4235TIP3    H112669   3.310   1.340   4.920  0.4053 -1.4181 -0.6598
 4235TIP3    H212670   3.406   1.343   4.803  0.9366 -0.3257 -0.2150
 4236TIP3   OH212671   4.945   3.943   4.703  0.0620 -0.5675 -0.3718
 4236TIP3    H112672   4.862   3.907   4.735 -0.0816  0.2341  0.1621
 4236TIP3    H212673   4.919   4.006   4.636  0.3192 -1.4702 -1.3609
 4237TIP3   OH212674   5.154   1.861   3.150 -0.1960 -0.1941 -0.3364
 4237TIP3    H112675   5.231   1.810   3.124  0.0913 -1.3493  2.4800
 4237TIP3    H212676   5.098   1.860   3.072  2.2983  0.1749 -2.2884
 4238TIP3   OH212677   4.000   5.194   4.388 -0.4876 -0.2477 -0.1788
 4238TIP3    H112678   4.010   5.277   4.341 -0.0463  0.3119  0.8619
 4238TIP3    H212679   4.052   5.206   4.467 -3.5667 -0.0133  1.9577
 4239TIP3   OH212680   0.836   1.345   2.278  0.3479 -0.4443  0.4308
 4239TIP3    H112681   0.852   1.288   2.203  2.0588  0.4837  0.0534
 4239TIP3    H212682   0.741   1.340   2.292 -0.1484 -0.0292 -2.2994
 4240TIP3   OH212683   2.064   6.364   3.045 -0.5291 -0.2742 -0.5483
 4240TIP3    H112684   2.018   6.290   3.004  0.4266 -1.8729  1.1167
 4240TIP3    H212685   2.020   6.377   3.128  1.0528 -0.8912  0.4310
 4241TIP3   OH212686   7.188   2.255   1.146 -0.5848  0.3541 -0.3945
 4241TIP3    H112687   7.251   2.229   1.213  0.1523 -1.2086 -1.6398
 4241TIP3    H212688   7.104   2.259   1.193  0.5773  5.2561  2.0111
 4242TIP3   OH212689   4.472   1.327   5.121 -0.0256  0.3499 -0.0633
 4242TIP3    H112690   4.445   1.290   5.205 -0.7505 -1.3038 -0.9815
 4242TIP3    H212691   4.459   1.421   5.131  0.4477  0.2589  1.8592
 4243TIP3   OH212692   4.666   6.223   0.159  0.4707  0.1279  0.5517
 4243TIP3    H112693   4.756   6.202   0.135  0.4511  0.3442  0.2809
 4243TIP3    H212694   4.622   6.242   0.076  0.6104  1.6714  0.7996
 4244TIP3   OH212695   5.964   6.402   1.362 -0.5422 -0.1284  0.0404
 4244TIP3    H112696   5.876   6.370   1.344 -0.1364 -1.8815  0.9238
 4244TIP3    H212697   5.997   6.345   1.431  2.1214 -1.0682 -1.8263
 4245TIP3   OH212698   3.388   3.806   2.903  0.0292 -0.4377 -0.1898
 4245TIP3    H112699   3.452   3.750   2.858  1.4908  2.1247 -1.5507
 4245TIP3    H212700   3.425   3.818   2.991  1.8339  1.4090 -1.1091
 4246TIP3   OH212701   5.607   6.673   2.637 -0.6749  1.0715 -0.5964
 4246TIP3    H112702   5.644   6.593   2.601 -0.7785  1.0418 -0.6364
 4246TIP3    H212703   5.584   6.726   2.560 -0.4516  1.2104 -0.5681
 4247TIP3   OH212704   6.518   6.651   3.527 -0.0346 -0.0726 -0.4453
 4247TIP3    H112705   6.543   6.736   3.490  0.0160 -0.3336 -1.0129
 4247TIP3    H212706   6.512   6.667   3.621  0.2486  0.4932 -0.5204
 4248TIP3   OH212707   0.389   1.088   0.860  0.3833  0.3190  0.2335
 4248TIP3    H112708   0.426   0.999   0.866  1.5618  0.8474  1.1205
 4248TIP3    H212709   0.337   1.098   0.939 -0.7470  0.0138 -0.4424
 4249TIP3   OH212710   2.251   4.181   0.686  0.1930 -0.0539  0.0588
 4249TIP3    H112711   2.297   4.248   0.737  0.9237 -0.9290  0.5699
 4249TIP3    H212712   2.203   4.129   0.750 -0.5770  0.1139 -0.3620
 4250TIP3   OH212713   2.601   0.897   3.788  0.4803  0.2547  0.2164
 4250TIP3    H112714   2.636   0.842   3.718  1.2269  0.0892  0.7078
 4250TIP3    H212715   2.555   0.836   3.846 -0.4428  0.4376 -0.2947
 4251TIP3   OH212716   1.598   0.546   0.948 -0.0614  0.3052  0.5119
 4251TIP3    H112717   1.550   0.606   1.005 -0.4099  2.7551 -2.1487
 4251TIP3    H212718   1.545   0.466   0.947 -1.3158  1.0815  1.6706
 4252TIP3   OH212719   4.903   2.646   4.025  0.3386 -0.2327 -0.2084
 4252TIP3    H112720   4.817   2.639   4.066  0.0376 -1.1263 -0.9658
 4252TIP3    H212721   4.964   2.614   4.091  0.0231 -0.1709  0.1138
 4253TIP3   OH212722   1.400   3.883   0.896 -0.7883 -0.2654 -0.4799
 4253TIP3    H112723   1.377   3.818   0.963 -0.9963 -0.3903 -0.6715
 4253TIP3    H212724   1.476   3.928   0.932 -0.6731 -0.5802 -0.3232
 4254TIP3   OH212725   5.749   4.211   5.604  0.2130 -0.0792 -0.3254
 4254TIP3    H112726   5.693   4.135   5.619  0.3282 -0.2451 -0.7259
 4254TIP3    H212727   5.822   4.198   5.665  0.3087 -0.3676 -0.4978
 4255TIP3   OH212728   1.591   5.128   0.701 -0.1241 -0.1721  0.0085
 4255TIP3    H112729   1.617   5.215   0.731  0.7926 -0.9809  1.7441
 4255TIP3    H212730   1.635   5.068   0.762 -1.1210 -1.8308 -0.8379
 4256TIP3   OH212731   2.119   1.214   5.242  0.5257 -0.1046 -0.2043
 4256TIP3    H112732   2.119   1.213   5.338  1.7227  2.4805 -0.1070
 4256TIP3    H212733   2.201   1.172   5.217  0.2300 -0.7464 -0.1264
 4257TIP3   OH212734   1.884   3.156   1.431  0.7250 -0.3498  0.0787
 4257TIP3    H112735   1.887   3.060   1.428 -1.0677 -0.4372  0.0245
 4257TIP3    H212736   1.882   3.177   1.525 -0.0937 -0.4478  0.0934
 4258TIP3   OH212737   3.005   4.014   3.618 -0.1871 -0.2049  0.4441
 4258TIP3    H112738   2.962   4.098   3.631 -1.7093 -1.0832  1.3637
 4258TIP3    H212739   3.068   4.030   3.548  0.1029  1.8782  1.1031
 4259TIP3   OH212740   4.051   2.494   1.629  0.2406  0.5304  0.0900
 4259TIP3    H112741   4.016   2.439   1.560 -0.1634 -0.5634  1.1342
 4259TIP3    H212742   3.995   2.572   1.628 -1.0725 -0.3692  0.4956
 4260TIP3   OH212743   4.275   3.209   1.287 -0.2762 -0.1288 -0.0294
 4260TIP3    H112744   4.231   3.281   1.243  0.4372 -0.1069 -0.7380
 4260TIP3    H212745   4.235   3.204   1.374  0.7474  2.1452  0.6339
 4261TIP3   OH212746   0.634   6.356   4.002 -0.0695 -0.3922 -0.2267
 4261TIP3    H112747   0.590   6.278   4.035 -1.6771 -0.0109 -1.3661
 4261TIP3    H212748   0.660   6.333   3.913  0.1098  0.1157 -0.3074
 4262TIP3   OH212749   1.787   2.954   3.813 -0.1877 -0.5944 -0.2753
 4262TIP3    H112750   1.841   2.983   3.887 -0.4022  0.6184 -0.5750
 4262TIP3    H212751   1.842   2.970   3.737 -0.0656 -1.6071 -0.4125
 4263TIP3   OH212752   1.237   6.658   4.265 -0.1626 -0.2684 -0.1508
 4263TIP3    H112753   1.301   6.705   4.319 -0.0910  0.4730 -0.8547
 4263TIP3    H212754   1.276   6.657   4.178 -1.4089  0.8643 -0.7600
 4264TIP3   OH212755   2.119   5.633   4.504  0.4719 -1.0334 -0.0824
 4264TIP3    H112756   2.202   5.622   4.457  1.1568 -0.5597  0.9848
 4264TIP3    H212757   2.092   5.544   4.525  0.8823 -1.1804 -0.1576
 4265TIP3   OH212758   1.736   0.412   3.227  0.1637  0.6334  0.5690
 4265TIP3    H112759   1.745   0.453   3.141  3.5821 -0.3520  0.3044
 4265TIP3    H212760   1.785   0.469   3.286  1.8906 -1.0627  0.8749
 4266TIP3   OH212761   0.935   2.073   0.659  0.1311  0.4108  0.3909
 4266TIP3    H112762   0.899   2.007   0.718  1.0353 -0.1852  0.2846
 4266TIP3    H212763   0.864   2.137   0.649 -0.7311 -0.5002  0.5476
 4267TIP3   OH212764   6.040   0.642   3.596  0.1725 -0.0771  0.1683
 4267TIP3    H112765   5.996   0.672   3.516  0.3071 -1.2897 -0.3840
 4267TIP3    H212766   6.112   0.703   3.609 -0.8234  1.0962  0.2829
 4268TIP3   OH212767   6.197   0.657   4.351  1.1690  0.3271  0.0314
 4268TIP3    H112768   6.265   0.670   4.416  1.3979  1.8528 -0.4773
 4268TIP3    H212769   6.229   0.702   4.273 -0.6436  1.5710 -0.0588
 4269TIP3   OH212770   4.029   2.688   0.864 -0.0577  0.1858 -0.6042
 4269TIP3    H112771   3.979   2.715   0.941 -0.9591 -1.1474 -0.6923
 4269TIP3    H212772   4.116   2.667   0.899 -0.8679 -1.8230  0.3413
 4270TIP3   OH212773   4.689   2.238   4.917 -0.1710 -0.1088  0.2054
 4270TIP3    H112774   4.610   2.235   4.864 -0.8081 -1.7253  1.1686
 4270TIP3    H212775   4.728   2.151   4.906  0.9282  0.3189  0.5699
 4271TIP3   OH212776   4.065   5.201   2.485 -0.0656 -0.1185  0.1486
 4271TIP3    H112777   4.056   5.293   2.461  1.4086 -0.3038 -1.3369
 4271TIP3    H212778   4.049   5.153   2.404  1.2729 -1.0273  0.3805
 4272TIP3   OH212779   0.355   3.222   1.625 -0.2017 -0.3497 -0.0278
 4272TIP3    H112780   0.331   3.131   1.606 -2.1775 -0.3321  1.9584
 4272TIP3    H212781   0.278   3.258   1.668  1.1136  1.8302  0.6250
 4273TIP3   OH212782   5.725   6.808   0.753 -0.2527  0.1053  0.0128
 4273TIP3    H112783   5.710   6.801   0.847 -1.3211 -0.5473 -0.1866
 4273TIP3    H212784   5.641   6.783   0.714 -0.0743  1.1403 -1.0964
 4274TIP3   OH212785   1.071   3.137   4.372  0.0431 -0.0382  0.5117
 4274TIP3    H112786   0.982   3.105   4.355 -0.5605  1.0974  1.3906
 4274TIP3    H212787   1.128   3.063   4.350 -1.0794 -0.6507 -0.4727
 4275TIP3   OH212788   6.678   5.392   1.703  0.0163 -0.1701  0.0199
 4275TIP3    H112789   6.725   5.453   1.760  1.8048 -1.8911  0.4913
 4275TIP3    H212790   6.593   5.379   1.747 -1.0871  3.0847 -0.9176
 4276TIP3   OH212791   3.538   3.281   4.276 -0.0480  0.7158  0.2392
 4276TIP3    H112792   3.500   3.357   4.233  0.5280  1.3568  0.8589
 4276TIP3    H212793   3.569   3.226   4.204  0.9023  1.7742 -0.1879
 4277TIP3   OH212794   6.509   2.192   3.253  0.2310  0.1772 -0.7702
 4277TIP3    H112795   6.459   2.153   3.182  0.5686 -1.0494 -0.3532
 4277TIP3    H212796   6.576   2.127   3.274  0.4344  0.7240  0.3515
 4278TIP3   OH212797   6.719   1.989   5.057 -0.3032 -0.0436  0.0885
 4278TIP3    H112798   6.657   1.939   5.111 -0.2239  1.5770  1.7682
 4278TIP3    H212799   6.681   1.986   4.969 -2.7575  0.7576  1.0116
 4279TIP3   OH212800   0.951   6.182   4.315  0.0522 -0.2756 -0.3028
 4279TIP3    H112801   0.981   6.219   4.398 -1.0276 -0.0426  0.0024
 4279TIP3    H212802   0.927   6.258   4.262  0.9061 -0.4178 -0.9061
 4280TIP3   OH212803   0.931   5.412   2.841  0.3582  0.2845  0.6310
 4280TIP3    H112804   1.025   5.409   2.860  0.4115 -1.8403  0.2676
 4280TIP3    H212805   0.926   5.400   2.746 -0.3043  0.0313  0.6996
 4281TIP3   OH212806   5.773   1.599   2.961 -0.1176  0.1241  0.6225
 4281TIP3    H112807   5.756   1.692   2.979  1.1119  0.9024 -1.8081
 4281TIP3    H212808   5.812   1.567   3.042  1.7638  2.4258  0.7685
 4282TIP3   OH212809   0.085   6.397   5.636  0.3673  0.5872 -0.0877
 4282TIP3    H112810   0.056   6.413   5.546 -1.1634  1.4782  0.5221
 4282TIP3    H212811   0.058   6.475   5.684  0.2126 -0.3161  1.3451
 4283TIP3   OH212812   4.044   2.460   2.789 -0.5311 -0.2172  0.6383
 4283TIP3    H112813   4.072   2.448   2.699 -0.2500  0.5105  0.6225
 4283TIP3    H212814   4.028   2.371   2.821 -2.9761 -0.3979 -0.8481
 4284TIP3   OH212815   4.079   2.906   4.899  0.5749 -0.1920  0.0380
 4284TIP3    H112816   4.007   2.849   4.923  0.8120  0.2685  2.0295
 4284TIP3    H212817   4.038   2.980   4.854 -0.3017  0.3184  1.5929
 4285TIP3   OH212818   1.212   2.327   5.347  0.0060  0.4815  0.3470
 4285TIP3    H112819   1.143   2.393   5.339 -0.2149  0.1314 -0.8878
 4285TIP3    H212820   1.223   2.293   5.258  0.6151 -0.6361  0.8253
 4286TIP3   OH212821   6.394   5.206   4.687 -0.2307 -0.5584  0.3835
 4286TIP3    H112822   6.480   5.181   4.719  0.4042  0.7650 -0.2150
 4286TIP3    H212823   6.333   5.168   4.750  0.8852  0.1181  1.9190
 4287TIP3   OH212824   7.110   4.436   2.887 -0.5532 -0.4384 -0.0516
 4287TIP3    H112825   7.092   4.512   2.830  0.5168 -0.0961  0.0429
 4287TIP3    H212826   7.181   4.390   2.843  0.1704 -0.2672  0.9051
 4288TIP3   OH212827   2.273   2.744   5.714 -0.4826  0.1045 -0.2841
 4288TIP3    H112828   2.207   2.705   5.656 -0.3387  0.0780 -0.4323
 4288TIP3    H212829   2.305   2.821   5.666  1.4092 -1.2728 -1.3872
 4289TIP3   OH212830   6.642   2.944   3.792 -0.6674 -0.8556 -0.2888
 4289TIP3    H112831   6.655   3.036   3.814  1.3379 -0.6280 -2.0851
 4289TIP3    H212832   6.578   2.945   3.721 -2.2778 -1.0708  1.1080
 4290TIP3   OH212833   5.121   3.354   5.315  0.3737 -0.2090 -0.4715
 4290TIP3    H112834   5.081   3.267   5.317 -0.2630  0.0754 -0.5560
 4290TIP3    H212835   5.213   3.338   5.294  0.5790 -0.9702  0.8716
 4291TIP3   OH212836   6.651   2.370   1.980  0.2178 -0.7648  0.0140
 4291TIP3    H112837   6.678   2.320   1.903  0.6334 -2.1061  1.0163
 4291TIP3    H212838   6.646   2.306   2.051 -1.9870  0.1012  0.7152
 4292TIP3   OH212839   2.419   2.919   1.124  0.1851 -0.1967  0.5352
 4292TIP3    H112840   2.515   2.921   1.120  0.3531 -1.7464  2.2338
 4292TIP3    H212841   2.400   2.910   1.217 -1.7242  2.0596  0.4434
 4293TIP3   OH212842   3.345   4.669   2.992  0.2581  0.6478  0.7408
 4293TIP3    H112843   3.394   4.590   2.970 -1.1628  0.0709 -0.5487
 4293TIP3    H212844   3.361   4.682   3.086  0.5481 -1.1457  0.9808
 4294TIP3   OH212845   7.030   0.805   3.988 -0.1955  0.1675 -0.3755
 4294TIP3    H112846   6.967   0.873   4.012  0.0611  0.6837 -1.1081
 4294TIP3    H212847   7.040   0.752   4.067 -1.8475 -0.1802 -0.3470
 4295TIP3   OH212848   4.649   1.489   1.143  0.5602  0.0119 -0.2147
 4295TIP3    H112849   4.731   1.514   1.185  0.5226 -0.4853  0.1659
 4295TIP3    H212850   4.669   1.405   1.100 -0.0973 -0.8008  1.0070
 4296TIP3   OH212851   0.825   6.370   4.853  0.5582  0.3680  0.6632
 4296TIP3    H112852   0.825   6.279   4.883  1.1267 -0.7106 -2.3087
 4296TIP3    H212853   0.759   6.373   4.784  2.2789  1.4991 -1.0646
 4297TIP3   OH212854   1.006   3.451   1.680  0.3373 -0.1650 -0.0619
 4297TIP3    H112855   0.982   3.360   1.694 -2.7551  0.4476 -0.5624
 4297TIP3    H212856   0.958   3.476   1.600  1.2455  1.8362 -0.0292
 4298TIP3   OH212857   6.820   2.387   4.616 -0.3873 -0.2258 -0.8355
 4298TIP3    H112858   6.911   2.398   4.645 -1.6195  1.3265  3.0586
 4298TIP3    H212859   6.806   2.292   4.619  0.8096 -0.4159 -0.5240
 4299TIP3   OH212860   0.651   0.318   3.694 -0.1096 -0.1501  0.1835
 4299TIP3    H112861   0.612   0.393   3.740  0.2728  0.2054 -0.0724
 4299TIP3    H212862   0.658   0.345   3.603 -3.6432 -1.9024 -0.7904
 4300TIP3   OH212863   4.989   3.037   2.627  0.4806 -0.1548  0.3994
 4300TIP3    H112864   4.951   3.052   2.713 -1.2435  1.7906 -0.6036
 4300TIP3    H212865   5.067   3.093   2.625 -0.0189  0.5469  0.3749
 4301TIP3   OH212866   1.751   6.444   1.741  0.1670  0.2649  0.5257
 4301TIP3    H112867   1.824   6.390   1.709  0.8741  0.1083  2.3024
 4301TIP3    H212868   1.673   6.393   1.718  0.7584 -0.8829  0.9768
 4302TIP3   OH212869   4.249   4.662   4.892 -0.0519 -0.4315  0.4336
 4302TIP3    H112870   4.284   4.596   4.952  3.0014  0.4414 -0.2240
 4302TIP3    H212871   4.226   4.613   4.813  1.6098 -0.8460  0.1692
 4303TIP3   OH212872   2.774   2.908   1.710 -0.4991  0.1107 -0.2903
 4303TIP3    H112873   2.756   2.922   1.803  0.1764 -1.2023  0.0742
 4303TIP3    H212874   2.695   2.864   1.677 -0.6593  0.3973 -0.2887
 4304TIP3   OH212875   6.242   5.146   4.473  0.1317  0.5146 -0.4645
 4304TIP3    H112876   6.295   5.158   4.552  0.9533 -0.4285 -0.8493
 4304TIP3    H212877   6.214   5.234   4.450 -1.3632  0.6882  1.6890
 4305TIP3   OH212878   2.965   6.443   1.478 -0.4229  0.5237 -0.1166
 4305TIP3    H112879   2.931   6.511   1.421  0.7661  0.4478 -0.9458
 4305TIP3    H212880   3.029   6.488   1.533 -1.6826  0.6423  1.3501
 4306TIP3   OH212881   5.786   0.683   4.564  0.6072 -0.1158 -0.4237
 4306TIP3    H112882   5.798   0.602   4.613 -0.9961 -1.2259 -1.7697
 4306TIP3    H212883   5.811   0.661   4.474 -0.0511  0.8227 -0.8604
 4307TIP3   OH212884   4.157   6.068   0.144  0.2091  0.6667  0.3421
 4307TIP3    H112885   4.145   6.048   0.237 -1.9661 -0.3478 -0.0820
 4307TIP3    H212886   4.068   6.081   0.111  0.8567  0.0814 -1.7824
 4308TIP3   OH212887   1.929   1.694   2.648 -1.0448 -0.1547 -0.3193
 4308TIP3    H112888   1.907   1.601   2.648 -1.9638  0.0256  0.9533
 4308TIP3    H212889   1.846   1.738   2.629 -0.3100  0.4048 -2.5443
 4309TIP3   OH212890   1.219   4.207   1.887  0.3863  0.2588 -0.5376
 4309TIP3    H112891   1.192   4.271   1.953  0.1602 -0.6820  0.3177
 4309TIP3    H212892   1.198   4.248   1.803  2.4837  2.3506 -0.1686
 4310TIP3   OH212893   1.082   5.750   3.591  0.1119 -0.5143 -0.4687
 4310TIP3    H112894   1.106   5.660   3.616  0.6707 -0.9660 -2.4335
 4310TIP3    H212895   1.131   5.766   3.510  0.2088  1.6710 -0.0317
 4311TIP3   OH212896   6.058   0.383   5.764  0.4781  0.2527 -0.1602
 4311TIP3    H112897   5.986   0.383   5.700  0.1859  1.3466  0.1450
 4311TIP3    H212898   6.021   0.426   5.842  1.3440  0.4719  0.1447
 4312TIP3   OH212899   3.456   0.593   5.429 -0.1678 -0.1140 -0.3388
 4312TIP3    H112900   3.536   0.568   5.474  1.0428  0.7181 -1.9434
 4312TIP3    H212901   3.391   0.528   5.457  1.4196 -1.6462 -0.0811
 4313TIP3   OH212902   6.773   0.457   5.228  0.5004  0.0987  0.7720
 4313TIP3    H112903   6.708   0.481   5.162  1.8482  1.8429 -0.0429
 4313TIP3    H212904   6.757   0.518   5.300  2.1145  1.6212 -0.0775
 4314TIP3   OH212905   5.464   0.879   1.422 -0.1978  0.4161 -0.6667
 4314TIP3    H112906   5.395   0.880   1.488  0.4622 -1.4271  0.1035
 4314TIP3    H212907   5.507   0.965   1.430  0.3914 -0.0541  1.8867
 4315TIP3   OH212908   6.729   3.220   1.445 -0.2050  0.0443 -0.8827
 4315TIP3    H112909   6.704   3.145   1.391 -0.1653 -1.8106  1.5018
 4315TIP3    H212910   6.678   3.209   1.526  1.5734  1.2516  0.4829
 4316TIP3   OH212911   2.089   2.699   5.513  0.0931 -0.9128 -0.0721
 4316TIP3    H112912   2.086   2.693   5.418 -0.6791  1.5225 -0.2758
 4316TIP3    H212913   2.027   2.769   5.535  2.6370  0.9262  1.9195
 4317TIP3   OH212914   2.186   2.801   1.909 -0.2239  0.3723  0.5226
 4317TIP3    H112915   2.152   2.865   1.846  1.0419 -0.9211 -1.6140
 4317TIP3    H212916   2.183   2.718   1.862  1.2730 -0.5823  2.0095
 4318TIP3   OH212917   2.341   6.175   2.199 -0.4075 -0.1112  0.4224
 4318TIP3    H112918   2.408   6.243   2.210  0.5836 -1.0979  0.6210
 4318TIP3    H212919   2.381   6.112   2.140 -1.7625  0.0203 -0.6904
 4319TIP3   OH212920   5.039   4.067   1.442 -0.5920  0.4237 -0.2625
 4319TIP3    H112921   4.951   4.031   1.446 -0.6731 -0.0442 -3.4736
 4319TIP3    H212922   5.046   4.105   1.354  2.6190 -0.2362 -0.4443
 4320TIP3   OH212923   5.652   6.132   5.552 -0.3400 -0.1434 -0.3038
 4320TIP3    H112924   5.696   6.140   5.636 -0.5239  2.7936 -0.3804
 4320TIP3    H212925   5.569   6.089   5.572 -0.8025  1.3674  1.2317
 4321TIP3   OH212926   7.065   0.854   4.953  0.3642 -0.3386 -0.4754
 4321TIP3    H112927   7.001   0.820   5.015  1.1515  0.9011  1.0785
 4321TIP3    H212928   7.061   0.793   4.879 -2.6576 -0.2388 -0.5178
 4322TIP3   OH212929   7.209   3.905   3.751  0.3517  0.2254  0.4862
 4322TIP3    H112930   7.215   3.994   3.784  0.5631  0.5082 -0.3006
 4322TIP3    H212931   7.207   3.914   3.656  0.0125 -0.5880  0.4058
 4323TIP3   OH212932   2.624   1.931   4.499 -0.2633  0.1899 -0.2341
 4323TIP3    H112933   2.536   1.962   4.479  0.0366  2.1117  1.1315
 4323TIP3    H212934   2.682   1.999   4.465  0.7921 -1.3371 -1.6812
 4324TIP3   OH212935   2.382   0.646   1.003  0.2813  0.2425 -0.1152
 4324TIP3    H112936   2.367   0.689   1.087 -0.6854  2.0120 -1.1320
 4324TIP3    H212937   2.434   0.709   0.953  2.3757 -1.5069 -0.2980
 4325TIP3   OH212938   0.888   2.339   1.697  0.8152  0.8806 -0.6464
 4325TIP3    H112939   0.826   2.280   1.654  1.2227  0.2035 -0.3271
 4325TIP3    H212940   0.878   2.319   1.790 -0.4225  2.6764 -0.3405
 4326TIP3   OH212941   1.493   4.930   3.551 -0.0518 -0.0286 -0.2539
 4326TIP3    H112942   1.519   4.918   3.642 -0.0358 -0.4280 -0.3090
 4326TIP3    H212943   1.456   5.018   3.548 -0.3186 -0.1199  0.2022
 4327TIP3   OH212944   2.498   3.323   1.237  0.0046 -0.2260  0.0926
 4327TIP3    H112945   2.476   3.415   1.248  2.4272  0.6891 -1.8580
 4327TIP3    H212946   2.414   3.280   1.218 -0.7837  2.1894 -2.3961
 4328TIP3   OH212947   0.671   2.845   3.904  0.5867 -0.0807  0.2686
 4328TIP3    H112948   0.661   2.937   3.878 -0.2385 -0.0911  0.5102
 4328TIP3    H212949   0.748   2.844   3.960 -0.3460  0.7689  1.6128
 4329TIP3   OH212950   4.276   5.502   1.019 -0.4171 -0.4778 -0.4539
 4329TIP3    H112951   4.204   5.511   0.957 -1.1625 -1.4948  0.2352
 4329TIP3    H212952   4.236   5.465   1.097  0.8717 -1.1467 -0.0853
 4330TIP3   OH212953   2.266   4.060   0.429 -0.0881  0.5656  0.2761
 4330TIP3    H112954   2.213   4.075   0.508 -0.2372  0.7975  0.1339
 4330TIP3    H212955   2.289   3.967   0.433 -0.0010  0.5990  0.6517
 4331TIP3   OH212956   2.124   5.588   5.473 -0.1621  0.2780 -0.0202
 4331TIP3    H112957   2.128   5.656   5.406  0.2473  1.5585  1.2436
 4331TIP3    H212958   2.030   5.577   5.491 -0.1972  2.7895  1.8944
 4332TIP3   OH212959   6.150   5.390   4.365 -0.5779 -0.4015 -0.5953
 4332TIP3    H112960   6.238   5.425   4.354 -0.8702  0.1459 -1.1922
 4332TIP3    H212961   6.121   5.368   4.277 -1.2332 -0.1033 -0.4608
 4333TIP3   OH212962   0.391   4.229   3.458  0.3486 -0.2290  0.4554
 4333TIP3    H112963   0.422   4.147   3.497 -0.5474  0.2038  2.1593
 4333TIP3    H212964   0.296   4.226   3.469 -0.0979 -0.5317 -2.6723
 4334TIP3   OH212965   6.219   1.440   4.041  0.0002 -0.0002  0.7369
 4334TIP3    H112966   6.223   1.414   3.949 -1.6287  1.6293  0.1289
 4334TIP3    H212967   6.308   1.429   4.073  0.3649 -1.6945 -0.7049
 4335TIP3   OH212968   6.614   2.624   4.260 -0.2242 -0.1516 -0.5587
 4335TIP3    H112969   6.598   2.680   4.184 -1.8194  1.1010  0.6391
 4335TIP3    H212970   6.558   2.548   4.247 -0.2736 -0.0774 -0.7748
 4336TIP3   OH212971   0.400   3.002   2.963 -0.0627  0.1654  0.0766
 4336TIP3    H112972   0.393   2.913   2.929  0.8615 -0.1532  0.6836
 4336TIP3    H212973   0.415   2.991   3.057 -1.3489  1.0026  0.4070
 4337TIP3   OH212974   4.447   2.211   2.896 -0.0403  0.0463 -0.0107
 4337TIP3    H112975   4.532   2.166   2.891 -0.0914  0.0716 -1.4679
 4337TIP3    H212976   4.466   2.292   2.943  1.4018  1.3888 -2.6753
 4338TIP3   OH212977   6.160   0.632   0.671  0.5205 -0.0158 -0.1020
 4338TIP3    H112978   6.085   0.656   0.617  1.0910  2.3218  0.0078
 4338TIP3    H212979   6.232   0.622   0.609  0.7846  0.9034  0.0391
 4339TIP3   OH212980   1.257   4.994   3.367  0.1199  0.0705  0.0532
 4339TIP3    H112981   1.280   4.936   3.295  0.3839  0.5519 -0.2555
 4339TIP3    H212982   1.326   4.981   3.432  0.9081  0.9857 -0.5685
 4340TIP3   OH212983   5.517   2.348   0.620 -0.1433 -0.2783  0.1137
 4340TIP3    H112984   5.497   2.259   0.649 -0.6220 -0.2942 -0.2635
 4340TIP3    H212985   5.611   2.356   0.634 -0.5439  0.2737  3.2228
 4341TIP3   OH212986   0.885   6.122   4.740 -0.8648 -0.3717  0.4279
 4341TIP3    H112987   0.914   6.030   4.740 -1.2770 -0.5102  0.0457
 4341TIP3    H212988   0.823   6.126   4.667 -0.8947  0.1991  0.4872
 4342TIP3   OH212989   0.637   3.866   1.853  0.1047  0.0638 -0.2491
 4342TIP3    H112990   0.675   3.929   1.913  1.1003  0.3592 -1.1595
 4342TIP3    H212991   0.543   3.865   1.874  0.4744 -0.0965  1.5045
 4343TIP3   OH212992   0.450   2.900   0.719  0.0463 -0.0674  0.3087
 4343TIP3    H112993   0.536   2.858   0.726  1.1349  1.7579 -0.9662
 4343TIP3    H212994   0.402   2.846   0.656  1.4268  0.5172 -1.3338
 4344TIP3   OH212995   3.255   0.672   0.089  0.7056  0.8305  0.1487
 4344TIP3    H112996   3.338   0.654   0.044  0.6225  0.7422  0.0288
 4344TIP3    H212997   3.196   0.702   0.019 -0.7332 -3.2909 -0.6671
 4345TIP3   OH212998   4.294   0.641   1.545  0.1595  0.0965  0.2568
 4345TIP3    H112999   4.210   0.599   1.528  0.8770 -1.2357 -0.1044
 4345TIP3    H213000   4.359   0.579   1.514  1.2939  2.6578 -3.1264
 4346TIP3   OH213001   5.239   4.336   4.589 -0.4811 -0.4284 -0.3141
 4346TIP3    H113002   5.265   4.269   4.652 -2.6427 -0.2341  0.9105
 4346TIP3    H213003   5.208   4.288   4.513 -0.5699 -0.7797 -0.0586
 4347TIP3   OH213004   2.361   6.620   2.430 -0.7771 -0.1434  0.0902
 4347TIP3    H113005   2.287   6.599   2.487 -0.6207  0.6305  0.5992
 4347TIP3    H213006   2.359   6.716   2.424 -0.0031 -0.1393 -0.1352
 4348TIP3   OH213007   6.535   1.102   5.100 -0.3240 -0.5149 -0.6146
 4348TIP3    H113008   6.510   1.044   5.028 -0.8933 -1.3536  0.2285
 4348TIP3    H213009   6.473   1.174   5.096 -3.0822 -2.5759  1.4597
 4349TIP3   OH213010   1.814   4.633   3.573 -0.1486  0.4395 -0.6742
 4349TIP3    H113011   1.874   4.586   3.515  0.3895 -1.5962  1.3817
 4349TIP3    H213012   1.730   4.631   3.528  0.1494 -1.4969 -1.2204
 4350TIP3   OH213013   6.440   6.663   0.461  0.3448 -0.5641  0.0363
 4350TIP3    H113014   6.347   6.680   0.446  0.5030  1.5883  1.2365
 4350TIP3    H213015   6.443   6.614   0.543  0.1901 -2.5963 -1.1034
 4351TIP3   OH213016   1.588   1.467   2.119 -0.0453 -0.0580  0.0764
 4351TIP3    H113017   1.599   1.561   2.108  1.1180 -0.0070  1.5230
 4351TIP3    H213018   1.572   1.454   2.212 -1.8395 -1.1681 -0.3254
 4352TIP3   OH213019   0.750   0.117   5.017  0.5899 -0.2700  0.5539
 4352TIP3    H113020   0.716   0.116   5.107 -0.8706 -1.7099  0.0408
 4352TIP3    H213021   0.671   0.115   4.963  1.4587  0.6053 -0.7770
 4353TIP3   OH213022   0.661   3.666   2.434  0.0777 -0.5803  0.2468
 4353TIP3    H113023   0.601   3.620   2.493 -1.2044  1.0067  0.2484
 4353TIP3    H213024   0.661   3.613   2.354 -0.8351 -0.9577  0.4785
 4354TIP3   OH213025   7.214   3.238   0.440 -0.1607  0.1639  0.4687
 4354TIP3    H113026   7.124   3.205   0.447 -0.1596  0.3089  1.1720
 4354TIP3    H213027   7.234   3.273   0.526  0.1986  1.1066  0.0177
 4355TIP3   OH213028   3.724   4.598   5.443 -0.0488  0.0593 -0.1543
 4355TIP3    H113029   3.686   4.520   5.403 -0.1166 -0.3883  0.7469
 4355TIP3    H213030   3.650   4.657   5.458 -0.1076 -0.0137 -0.1582
 4356TIP3   OH213031   0.714   1.568   3.492  0.2418 -0.1261 -0.2043
 4356TIP3    H113032   0.745   1.491   3.539 -0.4550 -0.4782 -0.3126
 4356TIP3    H213033   0.670   1.533   3.415 -0.2091  0.3692 -0.1765
 4357TIP3   OH213034   2.681   6.003   0.333 -0.2986 -0.4161  0.2495
 4357TIP3    H113035   2.775   6.020   0.325  0.0003 -2.1541 -0.4739
 4357TIP3    H213036   2.676   5.922   0.383 -1.5019  0.4087  1.5317
 4358TIP3   OH213037   0.692   3.511   5.863 -0.2859 -0.3156 -0.0830
 4358TIP3    H113038   0.746   3.447   5.817 -1.8791 -0.2629 -2.2208
 4358TIP3    H213039   0.610   3.513   5.813 -1.4625  1.1348  1.7603
 4359TIP3   OH213040   4.978   3.352   1.640  0.0341  0.1900 -0.2333
 4359TIP3    H113041   5.026   3.300   1.575 -1.5862 -3.0843  0.9284
 4359TIP3    H213042   5.036   3.355   1.716  0.1311  0.0290 -0.3013
 4360TIP3   OH213043   1.740   0.113   1.417  0.1941  0.6154  0.0627
 4360TIP3    H113044   1.747   0.138   1.509 -2.4339  0.2244  0.4406
 4360TIP3    H213045   1.825   0.135   1.380  1.7000 -0.1018  2.7745
 4361TIP3   OH213046   2.871   4.190   0.893  0.4075 -0.1530 -0.2318
 4361TIP3    H113047   2.914   4.202   0.978  0.2319 -0.5178 -0.0855
 4361TIP3    H213048   2.818   4.111   0.905 -0.3030  0.2913 -0.4061
 4362TIP3   OH213049   3.296   5.289   2.190 -0.6312  0.1540  0.6709
 4362TIP3    H113050   3.276   5.238   2.112  1.2989  0.8898 -0.3675
 4362TIP3    H213051   3.250   5.372   2.176 -1.4347 -0.2180  1.0148
 4363TIP3   OH213052   6.641   2.446   0.628  0.3648 -0.5586 -1.0349
 4363TIP3    H113053   6.711   2.432   0.564  1.0834 -1.0476 -0.1639
 4363TIP3    H213054   6.685   2.488   0.702 -0.4582  0.0056 -0.8594
 4364TIP3   OH213055   1.551   4.498   5.246  0.7893 -0.2413  0.1689
 4364TIP3    H113056   1.615   4.467   5.182 -1.1450 -0.7740 -1.5898
 4364TIP3    H213057   1.483   4.431   5.247 -0.4550  0.9833  0.9172
 4365TIP3   OH213058   5.455   0.472   5.853  0.2993  0.3442  0.0308
 4365TIP3    H113059   5.374   0.463   5.802  2.0963 -0.2388 -2.9087
 4365TIP3    H213060   5.436   0.543   5.915 -3.3585 -1.6015  1.5128
 4366TIP3   OH213061   0.918   3.374   4.319 -0.6899  0.2736  0.2683
 4366TIP3    H113062   0.955   3.379   4.231 -2.3626 -1.4482 -0.6207
 4366TIP3    H213063   0.949   3.290   4.353 -0.4164  0.7249  1.1634
 4367TIP3   OH213064   6.884   5.835   4.758  0.0506 -0.9189 -0.1041
 4367TIP3    H113065   6.810   5.878   4.802  0.1377 -0.5252 -0.3338
 4367TIP3    H213066   6.951   5.903   4.754 -0.5476 -0.3826 -2.3518
 4368TIP3   OH213067   4.185   3.102   2.913 -0.0450  0.3095 -0.1434
 4368TIP3    H113068   4.176   3.127   3.005  1.4934 -0.2166  0.1865
 4368TIP3    H213069   4.157   3.179   2.864  2.5046  1.9757  0.8206
 4369TIP3   OH213070   5.297   2.733   0.823 -0.0710  0.1419 -0.4917
 4369TIP3    H113071   5.223   2.765   0.771  0.3476  1.1202 -0.5248
 4369TIP3    H213072   5.314   2.645   0.790 -2.4696 -0.9261  0.8580
 4370TIP3   OH213073   4.280   4.343   2.837 -0.1961  0.1952  0.1251
 4370TIP3    H113074   4.221   4.400   2.787 -1.2402 -0.4086  0.6193
 4370TIP3    H213075   4.255   4.254   2.811 -1.4481 -0.1968  2.3326
 4371TIP3   OH213076   0.330   3.543   2.389  0.0829  0.4384 -0.0185
 4371TIP3    H113077   0.237   3.524   2.384  0.5593 -2.1784 -0.0456
 4371TIP3    H213078   0.354   3.573   2.301 -0.3560 -0.8661 -0.5951
 4372TIP3   OH213079   5.191   3.551   4.284 -0.4150 -0.2415 -0.1112
 4372TIP3    H113080   5.237   3.635   4.287  0.7704 -0.8738  0.4221
 4372TIP3    H213081   5.123   3.563   4.218 -0.3417  1.1661  0.0403
 4373TIP3   OH213082   2.470   0.053   5.868  0.3215  0.1015 -0.4649
 4373TIP3    H113083   2.474   0.083   5.777  0.5370  0.2022 -0.4219
 4373TIP3    H213084   2.388   0.003   5.873 -0.7733  1.8472 -0.1698
 4374TIP3   OH213085   4.091   0.024   4.350  0.3788  0.3251  0.4317
 4374TIP3    H113086   4.122   0.073   4.274  0.9482 -0.4022  0.1908
 4374TIP3    H213087   4.170  -0.002   4.397  0.0448  0.4806  1.1012
 4375TIP3   OH213088   5.194   6.013   5.731  0.1362  0.3454 -0.2528
 4375TIP3    H113089   5.289   6.011   5.745  0.3635 -1.4665 -1.6424
 4375TIP3    H213090   5.169   5.921   5.727 -1.1618  0.7181 -2.8339
 4376TIP3   OH213091   0.199   2.498   4.794 -0.4887 -0.3213 -0.4362
 4376TIP3    H113092   0.259   2.507   4.869 -1.5937 -0.1237  0.4488
 4376TIP3    H213093   0.199   2.404   4.776 -0.2794 -0.3822 -0.1361
 4377TIP3   OH213094   1.867   5.065   5.235  0.3869 -0.4155 -0.6404
 4377TIP3    H113095   1.926   5.004   5.279 -0.5978 -0.4466  0.7109
 4377TIP3    H213096   1.818   5.106   5.306 -0.9102 -0.0689 -1.6901
 4378TIP3   OH213097   1.479   5.196   3.530  0.3889  0.0474  0.0182
 4378TIP3    H113098   1.491   5.266   3.594  0.2681 -0.8566  1.0706
 4378TIP3    H213099   1.413   5.230   3.469 -1.7666 -0.1459  2.0707
 4379TIP3   OH213100   4.902   4.491   4.509  0.1125  0.1988 -0.2252
 4379TIP3    H113101   4.815   4.472   4.545  0.1441  2.0714  1.0116
 4379TIP3    H213102   4.900   4.456   4.421 -0.5755 -3.1666  0.9832
 4380TIP3   OH213103   2.780   3.236   0.776  0.6920  1.0501  0.4715
 4380TIP3    H113104   2.741   3.270   0.695  0.8548  0.4033  0.1156
 4380TIP3    H213105   2.807   3.147   0.754  1.7971  1.2613  0.8866
 4381TIP3   OH213106   2.163   4.122   5.321  0.1886 -0.7615  0.2607
 4381TIP3    H113107   2.155   4.069   5.242 -0.5243  0.1428 -0.2989
 4381TIP3    H213108   2.212   4.199   5.293  1.0287 -1.0041  1.0116
 4382TIP3   OH213109   3.523   0.383   4.703 -0.5469 -0.0508 -0.7901
 4382TIP3    H113110   3.515   0.352   4.793  0.5946  0.9076 -0.3364
 4382TIP3    H213111   3.534   0.303   4.651 -1.0310 -0.5970 -0.0756
 4383TIP3   OH213112   1.736   3.687   1.967  0.1785  0.5139  0.0478
 4383TIP3    H113113   1.753   3.781   1.964  1.8722  0.2146 -2.3532
 4383TIP3    H213114   1.727   3.661   1.875 -1.1881 -1.5530  0.6810
 4384TIP3   OH213115   0.927   0.149   3.193  0.3678 -0.3002  0.5733
 4384TIP3    H113116   0.945   0.199   3.114 -1.5204  0.6342  0.6821
 4384TIP3    H213117   0.931   0.213   3.264 -1.0001 -0.4968  0.8454
 4385TIP3   OH213118   5.295   5.844   1.193  0.0277  0.0577  0.1670
 4385TIP3    H113119   5.335   5.922   1.234 -0.7059  1.1820 -1.1950
 4385TIP3    H213120   5.337   5.771   1.238 -0.6180  1.1810  2.8737
 4386TIP3   OH213121   3.896   2.248   1.789  0.0447  0.3688  0.5109
 4386TIP3    H113122   3.962   2.230   1.856  1.0126  1.9529  0.0526
 4386TIP3    H213123   3.889   2.343   1.788 -1.2378  0.2847 -0.4360
 4387TIP3   OH213124   3.297   6.416   4.007 -0.6048  0.6691  0.2049
 4387TIP3    H113125   3.295   6.352   4.078  0.1514  1.3322  0.8524
 4387TIP3    H213126   3.215   6.403   3.960 -0.8134 -0.2405  0.7983
 4388TIP3   OH213127   5.201   4.185   1.880  0.3150 -0.3444  0.1067
 4388TIP3    H113128   5.188   4.223   1.794 -1.7491  1.7133  1.2257
 4388TIP3    H213129   5.126   4.128   1.894 -2.2181  3.1384  2.3225
 4389TIP3   OH213130   1.616   3.347   4.554  0.3487 -0.5309 -0.1123
 4389TIP3    H113131   1.554   3.389   4.614 -0.9403 -3.2769  0.6334
 4389TIP3    H213132   1.701   3.360   4.596  0.0335  1.3359  0.0264
 4390TIP3   OH213133   1.838   4.450   2.503  0.6246 -0.1814  0.0386
 4390TIP3    H113134   1.765   4.389   2.493  0.2036  0.5235 -1.4678
 4390TIP3    H213135   1.898   4.406   2.563 -0.1864 -1.5672 -0.1225
 4391TIP3   OH213136   5.964   6.430   5.198 -0.5534 -0.0875 -0.5141
 4391TIP3    H113137   6.053   6.441   5.233 -0.3546 -0.3562 -0.9213
 4391TIP3    H213138   5.917   6.382   5.266 -0.0826 -0.8801 -0.7383
 4392TIP3   OH213139   3.193   4.992   0.105  0.0507 -0.6184 -0.0838
 4392TIP3    H113140   3.219   5.084   0.102 -1.1825 -0.2128  0.6579
 4392TIP3    H213141   3.231   4.954   0.026  2.0241  0.1076  0.4470
 4393TIP3   OH213142   5.066   4.048   0.542 -0.2736  0.2009  0.0499
 4393TIP3    H113143   5.012   4.110   0.591 -1.0297 -0.4062  0.0138
 4393TIP3    H213144   5.015   4.029   0.463  1.0843  1.4318 -1.1837
 4394TIP3   OH213145   4.852   0.067   4.734 -0.4147  0.3835  0.0604
 4394TIP3    H113146   4.858  -0.003   4.799  0.0180  0.0391 -0.3422
 4394TIP3    H213147   4.918   0.045   4.669 -1.0003  0.6005 -0.6189
 4395TIP3   OH213148   0.214   4.447   5.681 -0.5232  0.2181  0.0049
 4395TIP3    H113149   0.172   4.448   5.767 -0.5306 -1.4090  0.0439
 4395TIP3    H213150   0.244   4.537   5.668  0.5410  0.2405  2.2397
 4396TIP3   OH213151   7.036   2.336   5.593  0.1909  0.5063 -0.2437
 4396TIP3    H113152   7.118   2.347   5.640  1.0014 -2.3850 -0.8127
 4396TIP3    H213153   6.981   2.409   5.623  2.2060  1.2988  1.7499
 4397TIP3   OH213154   7.157   5.238   1.637  0.2145 -0.6294  0.5977
 4397TIP3    H113155   7.069   5.260   1.606  0.9850  0.2497 -1.1624
 4397TIP3    H213156   7.148   5.228   1.731 -2.1595 -2.5378  0.2759
 4398TIP3   OH213157   3.561   2.800   2.460 -0.3901 -1.0035 -0.4392
 4398TIP3    H113158   3.492   2.774   2.399 -0.4468 -0.4898 -0.5942
 4398TIP3    H213159   3.531   2.769   2.545 -0.7906 -0.8198 -0.5147
 4399TIP3   OH213160   3.865   1.091   1.452  0.0384  0.3651  0.5154
 4399TIP3    H113161   3.793   1.062   1.396  1.0463  1.1861 -1.2975
 4399TIP3    H213162   3.897   1.011   1.493  0.4880 -0.5846 -1.6024
 4400TIP3   OH213163   5.226   5.069   2.269 -0.1399  0.2411  0.4571
 4400TIP3    H113164   5.260   5.107   2.350 -0.2918  0.2989  0.4943
 4400TIP3    H213165   5.299   5.019   2.234  0.0391  0.5063  0.4470
 4401TIP3   OH213166   2.463   0.621   5.068  0.2372  0.1367  0.1438
 4401TIP3    H113167   2.421   0.653   5.148 -0.0735 -1.3059  0.5932
 4401TIP3    H213168   2.401   0.558   5.032  0.5544  0.4722 -1.0305
 4402TIP3   OH213169   2.412   5.533   2.989  0.3360 -0.1774 -0.1232
 4402TIP3    H113170   2.348   5.504   2.924 -0.2573  1.9505 -0.5678
 4402TIP3    H213171   2.495   5.498   2.957 -0.3627 -1.6813 -0.3733
 4403TIP3   OH213172   4.105   0.068   1.836  0.3946 -0.4454  0.4431
 4403TIP3    H113173   4.083   0.006   1.905 -0.8332 -1.1194 -0.5177
 4403TIP3    H213174   4.033   0.131   1.836  0.6848 -0.1087  0.1588
 4404TIP3   OH213175   0.132   2.154   0.578  0.0755  0.6261  0.1692
 4404TIP3    H113176   0.048   2.112   0.560  1.0362 -2.7100  2.5361
 4404TIP3    H213177   0.117   2.205   0.657  0.4027 -0.7048  1.1258
 4405TIP3   OH213178   5.197   5.293   3.048  0.1075 -0.3166  0.3209
 4405TIP3    H113179   5.124   5.294   3.109  0.8607  1.5139  1.2860
 4405TIP3    H213180   5.159   5.324   2.965 -0.3508 -0.0999  0.6075
 4406TIP3   OH213181   0.223   3.327   1.981 -0.2864 -0.2029 -0.2119
 4406TIP3    H113182   0.222   3.375   1.898 -1.3524 -0.3742 -0.3033
 4406TIP3    H213183   0.147   3.359   2.028  1.6279  1.7548  1.8059
 4407TIP3   OH213184   1.412   3.133   4.592 -0.0014  0.3627  0.2610
 4407TIP3    H113185   1.468   3.163   4.520 -0.4885 -1.9514 -1.1930
 4407TIP3    H213186   1.326   3.170   4.572 -0.2386 -0.6275 -0.6456
 4408TIP3   OH213187   1.018   4.606   1.180  0.0192 -0.2591  0.7316
 4408TIP3    H113188   0.949   4.540   1.186 -0.9586  0.5897 -0.5247
 4408TIP3    H213189   1.030   4.619   1.086  0.5864  0.9277  0.9459
 4409TIP3   OH213190   7.135   1.908   5.735 -0.2784  0.2314 -0.2855
 4409TIP3    H113191   7.185   1.990   5.743 -0.3684  0.3617 -1.0289
 4409TIP3    H213192   7.203   1.841   5.725 -0.1376  0.0181  1.6272
 4410TIP3   OH213193   1.139   5.282   0.809 -0.2529  0.1040  0.1234
 4410TIP3    H113194   1.062   5.332   0.836  0.0529  0.1827  0.8653
 4410TIP3    H213195   1.137   5.203   0.862 -0.1115 -0.1396 -0.2317
 4411TIP3   OH213196   0.326   5.141   2.365  0.5225 -0.9619  0.5169
 4411TIP3    H113197   0.406   5.166   2.320 -0.0805 -1.3688 -0.8326
 4411TIP3    H213198   0.322   5.045   2.357 -1.0838 -0.8094 -1.2498
 4412TIP3   OH213199   7.160   6.013   2.246  0.4739 -0.6097 -0.7472
 4412TIP3    H113200   7.181   5.964   2.325  0.0264  0.8228  0.2857
 4412TIP3    H213201   7.086   6.069   2.270  1.2120  0.8759 -1.7363
 4413TIP3   OH213202   1.970   1.099   4.542  0.1616 -0.3707 -0.0410
 4413TIP3    H113203   2.026   1.097   4.620 -0.2088 -0.9886  0.2170
 4413TIP3    H213204   2.028   1.125   4.471  0.4190  0.6050  0.5039
 4414TIP3   OH213205   3.378   5.428   1.915  0.5324 -0.2482  0.0521
 4414TIP3    H113206   3.461   5.393   1.881  0.0146 -1.7654  0.2786
 4414TIP3    H213207   3.311   5.380   1.866 -0.2809  2.3235 -1.5340
 4415TIP3   OH213208   3.221   0.735   2.397  0.2584  0.4848 -0.1034
 4415TIP3    H113209   3.257   0.671   2.336 -0.8884  0.0552 -0.3548
 4415TIP3    H213210   3.297   0.780   2.433  1.2124 -1.9720  1.1541
 4416TIP3   OH213211   0.536   0.379   5.740 -0.0316 -0.0309 -0.2283
 4416TIP3    H113212   0.469   0.323   5.778 -0.9765  1.2031 -0.0088
 4416TIP3    H213213   0.511   0.468   5.766  1.3060  0.5208 -0.7287
 4417TIP3   OH213214   1.382   4.361   4.562 -0.0643  0.7165 -0.6464
 4417TIP3    H113215   1.401   4.268   4.578  0.5956  1.0278  0.4139
 4417TIP3    H213216   1.287   4.368   4.574  0.2393  0.7682  2.6039
 4418TIP3   OH213217   2.112   1.134   4.313  0.3344  0.3044  0.1312
 4418TIP3    H113218   2.139   1.067   4.251  2.5019  2.0887 -1.0203
 4418TIP3    H213219   2.057   1.194   4.261 -1.4503 -0.4241  1.0982
 4419TIP3   OH213220   1.388   4.582   5.457 -0.1917  0.0285 -0.2569
 4419TIP3    H113221   1.442   4.561   5.381  2.5948 -4.7467  2.6111
 4419TIP3    H213222   1.441   4.643   5.508 -0.6328  0.6756 -0.5527
 4420TIP3   OH213223   1.339   2.869   3.217  0.2040  0.1190 -0.3306
 4420TIP3    H113224   1.283   2.892   3.142  0.4501  0.4169 -0.4266
 4420TIP3    H213225   1.378   2.952   3.243  0.6022 -0.0878 -0.2652
 4421TIP3   OH213226   5.460   2.475   4.787  0.0406  0.2745 -1.0681
 4421TIP3    H113227   5.402   2.545   4.758 -1.7723 -0.5737  0.3343
 4421TIP3    H213228   5.498   2.508   4.869 -0.5852 -0.2303 -0.5634
 4422TIP3   OH213229   1.393   2.121   4.574  0.2610  0.2603 -0.1182
 4422TIP3    H113230   1.371   2.033   4.606  1.5173  0.4792  1.4766
 4422TIP3    H213231   1.365   2.180   4.644 -1.3882  1.2802 -1.5337
 4423TIP3   OH213232   1.221   3.725   3.162 -0.4590 -0.3682 -0.5317
 4423TIP3    H113233   1.209   3.723   3.067  0.8477 -0.2207 -0.7182
 4423TIP3    H213234   1.147   3.777   3.195  0.4824  1.8559 -1.7292
 4424TIP3   OH213235   0.655   5.280   3.146  0.5591  0.3970  0.6219
 4424TIP3    H113236   0.603   5.294   3.225  0.8248  1.6832  0.5808
 4424TIP3    H213237   0.615   5.204   3.104 -1.1828  1.2575  0.6627
 4425TIP3   OH213238   1.064   5.344   4.263  0.1493 -0.0747  0.1935
 4425TIP3    H113239   1.113   5.358   4.181  0.2405 -1.6429 -0.0538
 4425TIP3    H213240   0.990   5.290   4.237  1.2101 -2.2397  1.4160
 4426TIP3   OH213241   2.460   1.803   3.975 -0.5666  0.2151  0.8105
 4426TIP3    H113242   2.534   1.771   4.027 -0.1699  0.4996  0.4287
 4426TIP3    H213243   2.392   1.737   3.987  0.1402 -0.6476  0.2599
 4427TIP3   OH213244   6.970   2.456   1.729 -0.1291 -0.5402  0.5514
 4427TIP3    H113245   7.052   2.441   1.775 -0.4506  0.0479  1.3459
 4427TIP3    H213246   6.937   2.369   1.710  0.2454 -0.7927  1.0226
 4428TIP3   OH213247   5.926   4.487   4.816  0.0455  0.3506  0.0314
 4428TIP3    H113248   5.967   4.449   4.738 -1.4957 -3.2273  0.7392
 4428TIP3    H213249   5.999   4.527   4.864  2.7485 -4.3045  0.5114
 4429TIP3   OH213250   4.311   1.656   3.079 -0.4735  0.0456  0.0631
 4429TIP3    H113251   4.258   1.601   3.136 -1.4427  0.9698  0.0893
 4429TIP3    H213252   4.249   1.720   3.042  0.4052  0.4098 -0.8454
 4430TIP3   OH213253   3.012   4.573   2.672  0.1312 -0.1681  0.0391
 4430TIP3    H113254   2.992   4.496   2.726 -4.5164  0.6990  0.0372
 4430TIP3    H213255   3.057   4.633   2.731 -1.3363 -0.7581  1.8673
 4431TIP3   OH213256   1.454   0.323   1.105 -0.3632 -0.4894  0.4444
 4431TIP3    H113257   1.368   0.315   1.145 -0.2924 -1.8449  0.3671
 4431TIP3    H213258   1.509   0.361   1.174 -0.3539 -2.3404  1.5286
 4432TIP3   OH213259   2.605   1.543   3.418  0.2757 -0.2243 -0.3917
 4432TIP3    H113260   2.528   1.503   3.459  0.5392 -0.3693 -0.0239
 4432TIP3    H213261   2.624   1.487   3.344 -0.0881 -0.0768 -0.5994
 4433TIP3   OH213262   4.404   1.240   0.366  0.3950  0.2384 -0.4176
 4433TIP3    H113263   4.315   1.209   0.384  0.6988  0.3119  1.3827
 4433TIP3    H213264   4.419   1.217   0.274 -1.3531 -0.0622 -0.6671
 4434TIP3   OH213265   2.448   4.611   0.718 -0.2705 -0.5415 -0.5038
 4434TIP3    H113266   2.407   4.639   0.636 -0.2280 -0.6434 -0.5593
 4434TIP3    H213267   2.529   4.662   0.722 -0.2889 -0.5116 -0.5073
 4435TIP3   OH213268   3.032   2.610   2.823 -0.7099 -0.1108 -0.3499
 4435TIP3    H113269   3.093   2.654   2.764 -0.2229  0.0058  0.2347
 4435TIP3    H213270   2.978   2.680   2.860 -0.1038 -0.0225  0.3855
 4436TIP3   OH213271   1.608   0.451   1.281 -0.2182  0.1707 -0.4280
 4436TIP3    H113272   1.617   0.546   1.283  1.5097  0.0332  0.0161
 4436TIP3    H213273   1.591   0.426   1.371  0.4396 -0.0030 -0.3411
 4437TIP3   OH213274   4.539   3.274   1.996  0.2338  0.4523 -0.5826
 4437TIP3    H113275   4.613   3.324   1.959 -0.5353  1.3056 -0.9996
 4437TIP3    H213276   4.463   3.302   1.944 -0.4733 -0.0254  0.1839
 4438TIP3   OH213277   4.959   6.741   3.374 -0.6258  0.6277 -0.0661
 4438TIP3    H113278   4.902   6.668   3.396  0.3648 -0.2447 -0.2824
 4438TIP3    H213279   4.948   6.753   3.279  1.8026 -1.6339 -0.7530
 4439TIP3   OH213280   2.146   0.110   1.105 -0.1194  0.1151 -0.2792
 4439TIP3    H113281   2.113   0.053   1.036 -1.1398 -0.1247  0.3726
 4439TIP3    H213282   2.108   0.074   1.186 -0.7597  1.6732  0.1575
 4440TIP3   OH213283   0.582   3.922   2.699  0.6358  0.7195  0.7132
 4440TIP3    H113284   0.607   3.949   2.787 -1.6641 -1.4059  2.1466
 4440TIP3    H213285   0.561   3.829   2.707  0.6543  0.3719 -2.1908
 4441TIP3   OH213286   4.650   4.191   0.161  0.0153  0.1587 -0.6745
 4441TIP3    H113287   4.591   4.138   0.107 -0.2171  0.4913 -0.7484
 4441TIP3    H213288   4.620   4.281   0.149  1.7164  0.5823 -2.2345
 4442TIP3   OH213289   4.760   3.079   2.153  0.4101 -0.1178 -0.1312
 4442TIP3    H113290   4.773   3.171   2.178 -0.9737  0.8790 -2.7151
 4442TIP3    H213291   4.849   3.043   2.149  1.0065  1.1953  0.5286
 4443TIP3   OH213292   5.609   0.870   5.060 -0.5363 -0.0948  0.2645
 4443TIP3    H113293   5.540   0.866   5.126 -0.8575  2.0216  0.1389
 4443TIP3    H213294   5.573   0.928   4.992  0.3768 -1.0190 -1.0504
 4444TIP3   OH213295   0.855   6.762   5.548  0.2569 -0.1929 -0.0478
 4444TIP3    H113296   0.854   6.852   5.513 -1.7041  0.0649  0.5492
 4444TIP3    H213297   0.938   6.756   5.595  0.5630  1.2067 -0.3558
 4445TIP3   OH213298   1.250   3.057   3.990  0.6887 -0.0763 -0.2111
 4445TIP3    H113299   1.320   3.103   4.035 -0.9854  1.8805  0.5247
 4445TIP3    H213300   1.212   3.122   3.930 -0.6279 -1.0019 -0.4404
 4446TIP3   OH213301   3.976   2.287   4.282 -0.0864  0.0487 -0.2304
 4446TIP3    H113302   4.003   2.269   4.372 -1.7437  1.3852  0.5968
 4446TIP3    H213303   3.956   2.201   4.246 -1.0068 -0.4068  1.2508
 4447TIP3   OH213304   2.814   3.942   2.330 -0.1880 -0.1352 -0.0549
 4447TIP3    H113305   2.864   3.861   2.320  0.0990 -0.0675  0.7028
 4447TIP3    H213306   2.751   3.923   2.400  0.2703  0.4660  0.5351
 4448TIP3   OH213307   7.179   5.563   0.934  0.3710 -0.1976  0.0790
 4448TIP3    H113308   7.165   5.656   0.952 -1.2847 -0.5016  0.5216
 4448TIP3    H213309   7.241   5.534   1.001 -1.1638  0.0117  1.6379
 4449TIP3   OH213310   1.398   2.862   0.884 -1.1110 -0.1326  0.2346
 4449TIP3    H113311   1.316   2.845   0.930 -1.4567 -2.7183 -1.1336
 4449TIP3    H213312   1.372   2.901   0.801 -1.0686 -1.4707 -0.4403
 4450TIP3   OH213313   0.300   2.604   3.572  0.3997  0.2800 -0.8493
 4450TIP3    H113314   0.243   2.640   3.639  0.1711  1.1855 -1.5056
 4450TIP3    H213315   0.338   2.525   3.611 -2.5777 -1.3453 -0.9799
 4451TIP3   OH213316   6.544   1.947   5.473 -0.1348  0.2306 -0.5514
 4451TIP3    H113317   6.543   1.946   5.377 -2.6552 -0.4301 -0.6033
 4451TIP3    H213318   6.499   1.866   5.498 -5.5410  3.1859  0.9295
 4452TIP3   OH213319   1.761   0.665   0.692  0.3299  0.0518  0.3454
 4452TIP3    H113320   1.697   0.711   0.746 -0.1262 -1.0495  0.7708
 4452TIP3    H213321   1.710   0.599   0.645  0.8041  0.6208 -1.0400
 4453TIP3   OH213322   0.197   3.131   4.368 -0.7638  0.4459  0.1056
 4453TIP3    H113323   0.225   3.041   4.381  0.3640  0.5694 -1.2361
 4453TIP3    H213324   0.244   3.181   4.435  0.6447  0.3668 -0.7962
 4454TIP3   OH213325   4.913   5.101   3.357 -0.0124  0.5832  0.6691
 4454TIP3    H113326   4.959   5.055   3.428  1.0748  2.4301  1.2126
 4454TIP3    H213327   4.964   5.079   3.278 -0.4923 -0.4553  0.6217
 4455TIP3   OH213328   6.033   6.014   2.609 -0.6430 -0.3926  0.2508
 4455TIP3    H113329   6.128   6.009   2.614 -0.6417 -0.3192  0.2867
 4455TIP3    H213330   6.012   6.105   2.629 -0.8208 -0.7618  1.8995
 4456TIP3   OH213331   1.160   1.844   2.553  0.1981  0.4679 -0.0579
 4456TIP3    H113332   1.096   1.829   2.622  1.7438  1.6135  1.7317
 4456TIP3    H213333   1.109   1.844   2.472 -1.8715  0.2589  1.1767
 4457TIP3   OH213334   1.339   5.096   1.450  0.4062  0.2747  0.4110
 4457TIP3    H113335   1.256   5.127   1.485  0.7017  0.6532  0.7921
 4457TIP3    H213336   1.405   5.131   1.510  0.7926 -0.6345  0.5376
 4458TIP3   OH213337   1.059   5.096   0.994  0.4280 -0.4851  0.4159
 4458TIP3    H113338   0.966   5.089   0.971  0.5328 -0.1912 -0.1181
 4458TIP3    H213339   1.060   5.145   1.076  0.0539 -1.3777  0.9659
 4459TIP3   OH213340   2.391   5.282   3.462  0.1535 -0.1429 -0.1914
 4459TIP3    H113341   2.439   5.363   3.442  0.3513 -0.4011 -0.7707
 4459TIP3    H213342   2.358   5.252   3.377 -0.4831 -0.3214  0.1099
 4460TIP3   OH213343   3.892   3.026   5.314 -0.0171 -0.5295 -0.0539
 4460TIP3    H113344   3.872   3.079   5.237 -0.0370  3.0121  2.1711
 4460TIP3    H213345   3.846   2.943   5.299  0.1635 -0.1022 -3.8651
 4461TIP3   OH213346   3.074   0.906   4.087 -0.1129 -0.9579 -0.1223
 4461TIP3    H113347   3.039   0.898   4.175 -0.9124 -0.0601 -0.3343
 4461TIP3    H213348   2.999   0.889   4.030 -0.0295  0.1811 -0.5994
 4462TIP3   OH213349   1.799   4.915   2.688 -0.4340 -0.0959  0.3565
 4462TIP3    H113350   1.856   4.840   2.671  0.5260  0.2251  1.9551
 4462TIP3    H213351   1.726   4.903   2.627  1.7310 -0.0173 -2.5218
 4463TIP3   OH213352   5.566   3.830   1.211  0.0583 -0.3724 -0.1703
 4463TIP3    H113353   5.542   3.801   1.123 -0.3321 -1.2313  0.2024
 4463TIP3    H213354   5.657   3.858   1.203 -0.2997  0.5755 -1.0721
 4464TIP3   OH213355   3.696   1.508   1.034  0.3452 -0.3616  0.0824
 4464TIP3    H113356   3.748   1.447   0.982  1.3862  2.1419 -2.0779
 4464TIP3    H213357   3.746   1.521   1.114  2.9591  1.5183 -1.6890
 4465TIP3   OH213358   3.994   5.801   1.021  0.1218  0.7822 -0.2176
 4465TIP3    H113359   4.022   5.739   1.088  0.2627  2.1091  1.0078
 4465TIP3    H213360   4.020   5.887   1.056 -2.1443  1.7545 -0.7286
 4466TIP3   OH213361   5.028   2.046   3.434 -0.1850  0.1631  0.2427
 4466TIP3    H113362   4.990   2.088   3.357 -2.8953 -1.2241  0.6974
 4466TIP3    H213363   4.999   1.955   3.429  0.6069 -0.2608  2.2588
 4467TIP3   OH213364   2.854   4.333   5.400  0.5867 -0.1422  0.4876
 4467TIP3    H113365   2.803   4.398   5.448 -2.2007 -0.5447 -1.6200
 4467TIP3    H213366   2.839   4.251   5.446  0.0666 -0.0890  0.4202
 4468TIP3   OH213367   3.756   1.045   5.541 -0.3298  0.5478  0.2365
 4468TIP3    H113368   3.809   1.106   5.592 -0.6649 -0.1937  1.5398
 4468TIP3    H213369   3.754   1.082   5.453  1.6584  1.0115  0.3458
 4469TIP3   OH213370   2.885   6.185   1.884  0.0022  0.8784 -0.0115
 4469TIP3    H113371   2.934   6.189   1.966 -3.2132  2.2844  2.0799
 4469TIP3    H213372   2.839   6.101   1.887  0.5659  0.5255 -0.8654
 4470TIP3   OH213373   5.352   1.648   3.531 -0.4831 -0.6118  0.0761
 4470TIP3    H113374   5.278   1.624   3.588  0.5135 -1.0011  1.2476
 4470TIP3    H213375   5.341   1.592   3.454  0.0995 -2.7259  1.4439
 4471TIP3   OH213376   3.282   4.156   2.740 -0.0295  0.1460  0.3556
 4471TIP3    H113377   3.218   4.227   2.740 -0.6346 -0.3805 -0.3696
 4471TIP3    H213378   3.248   4.094   2.676 -0.2259 -1.4609  1.9594
 4472TIP3   OH213379   4.593   6.264   4.987 -0.5747 -0.0110  0.5374
 4472TIP3    H113380   4.571   6.307   5.069 -1.1952  0.4372  0.1400
 4472TIP3    H213381   4.587   6.170   5.007 -0.2334  0.0879  1.1283
 4473TIP3   OH213382   6.943   4.063   4.495 -0.0666  0.5082 -0.4996
 4473TIP3    H113383   6.986   4.105   4.570 -1.8260  0.2273  0.7418
 4473TIP3    H213384   7.014   4.041   4.436  1.2699  1.9214  0.4897
 4474TIP3   OH213385   2.125   0.091   2.954  0.0738 -0.3709  0.3453
 4474TIP3    H113386   2.056   0.083   3.020  0.3881  0.9451  0.8695
 4474TIP3    H213387   2.080   0.078   2.871 -0.6158 -0.5765  0.7412
 4475TIP3   OH213388   5.676   3.235   4.557  0.0040 -0.6151  0.2114
 4475TIP3    H113389   5.698   3.325   4.532  1.3789 -0.7513  0.8653
 4475TIP3    H213390   5.622   3.204   4.485 -3.2002  1.7120  1.3875
 4476TIP3   OH213391   5.623   3.975   3.562  0.0401  0.6429 -0.8394
 4476TIP3    H113392   5.685   3.912   3.599 -0.9584 -0.1343 -0.4526
 4476TIP3    H213393   5.563   3.922   3.509 -2.3178  0.8418  1.4406
 4477TIP3   OH213394   1.957   0.262   2.168 -0.0443  0.2501 -0.0089
 4477TIP3    H113395   1.865   0.240   2.184 -0.0689  0.2890 -0.1001
 4477TIP3    H213396   1.979   0.322   2.240  1.0955 -2.9376  2.5327
 4478TIP3   OH213397   3.790   6.592   1.749 -0.1211  0.3357 -0.6435
 4478TIP3    H113398   3.782   6.561   1.659  0.3712 -1.1241 -0.2032
 4478TIP3    H213399   3.745   6.677   1.749 -2.3471 -0.7567 -1.6809
 4479TIP3   OH213400   0.772   4.540   2.021 -0.3780  0.0768 -0.0117
 4479TIP3    H113401   0.701   4.491   1.980  0.2070 -0.5600 -0.2818
 4479TIP3    H213402   0.773   4.510   2.112 -1.1615  0.9055  0.2869
 4480TIP3   OH213403   6.873   2.123   4.594  0.1524  0.4354  0.4707
 4480TIP3    H113404   6.887   2.089   4.506 -1.0931  1.0281  0.0070
 4480TIP3    H213405   6.946   2.090   4.645  1.2746  0.6225 -0.9389
 4481TIP3   OH213406   5.907   2.076   0.029 -0.2110 -0.1140 -0.2418
 4481TIP3    H113407   5.868   2.029   0.102 -3.0907  0.1382 -1.4622
 4481TIP3    H213408   5.896   2.017  -0.046  1.7647  0.0349 -0.7174
 4482TIP3   OH213409   5.949   6.023   1.349 -0.1570  0.4618 -0.3896
 4482TIP3    H113410   5.966   6.081   1.423 -1.5032  1.1261 -0.5657
 4482TIP3    H213411   5.942   5.936   1.388 -0.4959  0.7554  0.2208
 4483TIP3   OH213412   1.134   6.234   3.117  0.0493 -0.0703 -0.3754
 4483TIP3    H113413   1.142   6.221   3.022  0.2802 -1.2006 -0.2228
 4483TIP3    H213414   1.062   6.177   3.143  0.5431 -0.4241  0.2468
 4484TIP3   OH213415   1.225   3.801   5.239  0.5287  0.3537 -0.3659
 4484TIP3    H113416   1.206   3.800   5.145  0.1432 -2.0418 -0.3120
 4484TIP3    H213417   1.300   3.742   5.250 -0.8170 -1.1910  1.0557
 4485TIP3   OH213418   5.952   3.233   2.682 -0.0185 -0.2777 -0.7932
 4485TIP3    H113419   6.027   3.240   2.741  0.3007  0.5453 -1.2782
 4485TIP3    H213420   5.880   3.275   2.730 -0.9434 -3.3444  0.8073
 4486TIP3   OH213421   5.541   3.175   2.546  0.2007 -0.8805  0.1883
 4486TIP3    H113422   5.600   3.115   2.500  1.7824 -0.2689  1.3306
 4486TIP3    H213423   5.544   3.147   2.637 -0.8578 -0.4783  0.3615
 4487TIP3   OH213424   2.951   5.123   5.082  0.3000  0.2337  0.2040
 4487TIP3    H113425   2.949   5.033   5.048  1.7779  0.3317 -0.2157
 4487TIP3    H213426   3.032   5.160   5.046 -1.7666  2.7637 -2.2281
 4488TIP3   OH213427   0.853   1.869   2.633 -0.0602  0.0082 -0.1219
 4488TIP3    H113428   0.837   1.901   2.722 -1.7249  0.8519 -0.6827
 4488TIP3    H213429   0.793   1.795   2.623 -0.8805  0.7512 -0.9558
 4489TIP3   OH213430   2.482   2.393   3.471  0.5602 -0.2567 -0.2868
 4489TIP3    H113431   2.469   2.323   3.535 -0.4060  1.2120  1.2107
 4489TIP3    H213432   2.554   2.362   3.416  1.5384 -1.5245  1.5826
 4490TIP3   OH213433   3.833   0.589   0.160  0.1473  0.6694  0.8676
 4490TIP3    H113434   3.772   0.642   0.211 -1.6014 -0.8463  0.4592
 4490TIP3    H213435   3.837   0.506   0.206  2.3990  0.8931  1.1828
 4491TIP3   OH213436   3.294   3.802   4.127 -0.1279  0.0255 -0.0621
 4491TIP3    H113437   3.231   3.764   4.066 -0.1108 -2.2300  1.1864
 4491TIP3    H213438   3.241   3.837   4.198 -0.0617  0.0192 -0.0095
 4492TIP3   OH213439   7.042   6.109   4.181 -0.0371  0.0134 -0.3980
 4492TIP3    H113440   7.053   6.143   4.270 -0.3863 -1.7070  0.3375
 4492TIP3    H213441   6.962   6.056   4.186  0.1573 -0.4097 -1.6417
 4493TIP3   OH213442   6.933   3.659   2.809 -0.2075 -0.3118  0.5367
 4493TIP3    H113443   7.017   3.687   2.846  0.4881 -0.2138 -1.0229
 4493TIP3    H213444   6.948   3.659   2.715 -1.8331 -0.7669  0.2554
 4494TIP3   OH213445   2.416   5.669   0.295 -0.4869 -0.1233 -0.2789
 4494TIP3    H113446   2.455   5.595   0.342 -2.1935 -0.7789  0.1818
 4494TIP3    H213447   2.486   5.700   0.237  0.8579 -0.8951  0.8699
 4495TIP3   OH213448   4.471   0.837   0.119  0.1066 -0.0195 -0.0132
 4495TIP3    H113449   4.428   0.764   0.164  0.5319 -0.7149 -0.7080
 4495TIP3    H213450   4.454   0.913   0.174 -1.7573 -0.3265 -0.1101
 4496TIP3   OH213451   5.954   6.183   0.296  0.2122  0.1998 -0.5685
 4496TIP3    H113452   5.929   6.112   0.237 -1.1210 -1.8187  2.2167
 4496TIP3    H213453   6.030   6.149   0.344 -0.4271  0.6140  0.7979
 4497TIP3   OH213454   4.123   4.256   4.420  0.4078  0.1090 -0.1220
 4497TIP3    H113455   4.065   4.285   4.350 -0.5246  0.3427  0.7390
 4497TIP3    H213456   4.118   4.161   4.417 -0.8153  0.1354  0.5890
 4498TIP3   OH213457   4.164   1.187   5.469  0.2089 -0.4362  0.5438
 4498TIP3    H113458   4.069   1.189   5.469  0.1863 -1.1125 -0.2522
 4498TIP3    H213459   4.189   1.232   5.550 -0.7782 -0.2703  0.7658
 4499TIP3   OH213460   4.480   2.301   0.918  0.2248 -0.0182 -0.0080
 4499TIP3    H113461   4.449   2.213   0.899  1.5814 -0.6627  0.5895
 4499TIP3    H213462   4.452   2.354   0.843 -0.6572 -0.9364 -0.3413
 4500TIP3   OH213463   4.436   1.341   1.219 -0.6723  0.5108  0.1090
 4500TIP3    H113464   4.460   1.316   1.308  0.3775 -2.0408 -0.7991
 4500TIP3    H213465   4.500   1.408   1.194  0.1881 -0.0791  0.6721
 4501TIP3   OH213466   2.443   2.204   2.067  0.3369 -0.5631  0.0311
 4501TIP3    H113467   2.535   2.228   2.083  0.5113 -0.2647 -1.3220
 4501TIP3    H213468   2.393   2.271   2.114  0.8117 -0.4027  0.3217
 4502TIP3   OH213469   6.962   0.250   0.656  0.4999 -0.5217 -0.2956
 4502TIP3    H113470   6.923   0.305   0.723 -0.7119 -0.1719 -1.2401
 4502TIP3    H213471   6.981   0.167   0.700  0.1856 -0.1343  0.5850
 4503TIP3   OH213472   5.970   3.629   4.407  0.5885  0.1000 -0.2579
 4503TIP3    H113473   6.032   3.564   4.439  1.1445  1.3665  1.3525
 4503TIP3    H213474   5.887   3.607   4.450  0.5753 -0.0205 -0.3450
 4504TIP3   OH213475   3.518   1.713   2.591  0.0585  0.3876 -0.0503
 4504TIP3    H113476   3.449   1.702   2.656 -0.1007  2.4688  0.2033
 4504TIP3    H213477   3.580   1.643   2.609 -1.5037 -0.9619  0.3091
 4505TIP3   OH213478   5.608   2.678   2.385  0.2722  0.0209 -0.2642
 4505TIP3    H113479   5.571   2.692   2.472 -0.1568 -2.2878  0.0043
 4505TIP3    H213480   5.552   2.729   2.326 -0.4581  0.2806  0.6427
 4506TIP3   OH213481   5.952   3.034   4.536  0.4828 -0.0390 -0.5316
 4506TIP3    H113482   6.040   3.015   4.568  0.4992 -0.5377 -0.8740
 4506TIP3    H213483   5.950   3.000   4.446  0.3131  0.9981 -0.9420
 4507TIP3   OH213484   3.006   3.187   0.314  0.9953 -0.3697 -0.5313
 4507TIP3    H113485   2.936   3.134   0.353  0.2452  1.3346  0.5156
 4507TIP3    H213486   3.053   3.225   0.389  1.8771  0.0127 -1.2519
 4508TIP3   OH213487   4.217   5.557   3.373 -0.1696  0.7334  0.3845
 4508TIP3    H113488   4.269   5.628   3.337 -0.4247  0.0707 -1.3993
 4508TIP3    H213489   4.130   5.568   3.333  0.0964 -1.2099 -0.8828
 4509TIP3   OH213490   2.813   4.614   0.935  0.0166  0.5899  0.3585
 4509TIP3    H113491   2.776   4.528   0.918  0.8244  0.0703  1.1161
 4509TIP3    H213492   2.774   4.671   0.869  1.4122 -0.8572 -1.8568
 4510TIP3   OH213493   3.588   4.782   2.830  0.5423  0.2191 -0.1575
 4510TIP3    H113494   3.494   4.787   2.843  0.4364  0.5993 -0.9761
 4510TIP3    H213495   3.624   4.763   2.917 -0.2948 -0.1050  0.1273
 4511TIP3   OH213496   0.571   2.428   1.797 -0.6657 -0.2674  0.2377
 4511TIP3    H113497   0.637   2.359   1.789 -0.5881 -0.2313  0.5551
 4511TIP3    H213498   0.510   2.411   1.726 -0.0415 -0.0004 -0.3804
 4512TIP3   OH213499   1.087   0.946   2.620  0.5815  0.3348  0.2720
 4512TIP3    H113500   1.139   1.003   2.677  0.7711  1.0979 -0.6518
 4512TIP3    H213501   1.092   0.860   2.662  0.7754  0.8665  1.3653
 4513TIP3   OH213502   5.323   4.351   2.642  0.5593 -0.5043  0.0466
 4513TIP3    H113503   5.395   4.343   2.580  0.4733 -0.6824 -0.0318
 4513TIP3    H213504   5.261   4.282   2.616 -1.0103  1.4244 -1.7256
 4514TIP3   OH213505   0.049   0.446   4.985 -0.4777 -0.7113 -0.3137
 4514TIP3    H113506   0.082   0.398   5.061 -0.0022  1.5775  1.0228
 4514TIP3    H213507   0.044   0.537   5.014 -1.9537 -0.0019 -2.5043
 4515TIP3   OH213508   0.717   5.914   3.194 -0.3428  0.6477  0.3352
 4515TIP3    H113509   0.799   5.961   3.209  0.5400 -0.6902 -0.1293
 4515TIP3    H213510   0.742   5.822   3.194 -1.9326  0.1838  0.6475
 4516TIP3   OH213511   1.032   5.788   1.397  0.1127 -0.0372 -0.1532
 4516TIP3    H113512   1.078   5.720   1.348 -1.3632 -1.7176  0.6888
 4516TIP3    H213513   0.967   5.741   1.449 -1.3333  2.0646  0.0831
 4517TIP3   OH213514   6.609   1.722   0.007 -0.4081 -0.0547 -0.2027
 4517TIP3    H113515   6.539   1.787   0.020 -0.7448 -0.3188 -0.6875
 4517TIP3    H213516   6.580   1.646   0.057  0.4828  0.5008  1.2423
 4518TIP3   OH213517   3.388   4.094   3.369  0.7901  0.1689  0.3324
 4518TIP3    H113518   3.474   4.135   3.372  0.8299  0.0479  1.1474
 4518TIP3    H213519   3.360   4.103   3.278  2.7206 -2.0071 -0.5926
 4519TIP3   OH213520   2.785   6.739   5.372 -0.0043 -0.3936 -0.7178
 4519TIP3    H113521   2.784   6.761   5.466  1.2016 -0.8285 -0.5881
 4519TIP3    H213522   2.860   6.680   5.362 -1.0064 -1.5621 -1.7014
 4520TIP3   OH213523   2.725   0.076   4.747 -0.1607  0.0832  0.0826
 4520TIP3    H113524   2.694   0.160   4.779 -1.0485 -0.7439  1.4842
 4520TIP3    H213525   2.651   0.016   4.761  0.6322 -1.0415 -0.3881
 4521TIP3   OH213526   0.327   0.934   2.647  0.1198 -0.1016 -0.0016
 4521TIP3    H113527   0.284   0.924   2.731 -0.7679 -1.6740 -0.6044
 4521TIP3    H213528   0.262   0.908   2.582 -0.1971  3.6413 -1.4708
 4522TIP3   OH213529   0.647   1.324   5.025  0.5813 -0.6349 -0.5072
 4522TIP3    H113530   0.664   1.294   4.935  0.5086 -1.7017 -0.1768
 4522TIP3    H213531   0.592   1.256   5.063 -2.9990  1.7102 -0.9102
 4523TIP3   OH213532   5.402   1.752   1.690 -0.0502  0.2290 -0.2052
 4523TIP3    H113533   5.356   1.831   1.661  1.0774  0.8171 -0.4690
 4523TIP3    H213534   5.455   1.726   1.615 -0.0071 -0.4773  0.0631
 4524TIP3   OH213535   4.864   4.303   3.814  0.1050 -0.6178 -0.2497
 4524TIP3    H113536   4.869   4.351   3.896 -1.2849 -0.8866  0.0166
 4524TIP3    H213537   4.887   4.367   3.747 -0.7655  0.1779  0.1859
 4525TIP3   OH213538   0.964   0.585   4.817  0.6503 -0.2154  0.1127
 4525TIP3    H113539   0.888   0.530   4.800 -0.4675  1.6854 -1.5150
 4525TIP3    H213540   0.956   0.610   4.909  1.0925 -2.5159  0.8402
 4526TIP3   OH213541   2.881   6.758   0.941 -0.8411  0.5580  0.3797
 4526TIP3    H113542   2.906   6.844   0.974 -1.2444  0.4766  0.9214
 4526TIP3    H213543   2.952   6.732   0.882  0.0905  0.5389  1.4908
 4527TIP3   OH213544   1.080   2.593   1.866  0.3792  0.1683  0.1412
 4527TIP3    H113545   1.132   2.658   1.819  0.2497  0.2448  0.1050
 4527TIP3    H213546   1.143   2.525   1.889  0.5641  0.4226  0.3947
 4528TIP3   OH213547   6.409   3.486   2.199 -0.7102 -0.2165  0.6745
 4528TIP3    H113548   6.407   3.572   2.157 -2.4397 -0.3503  0.4301
 4528TIP3    H213549   6.415   3.505   2.293  0.4014  0.1161  0.5568
 4529TIP3   OH213550   2.318   5.729   5.652 -0.0146 -0.3113  0.0949
 4529TIP3    H113551   2.265   5.672   5.597 -0.6050  1.7524 -1.6507
 4529TIP3    H213552   2.260   5.804   5.671  0.1741 -0.8855  3.5977
 4530TIP3   OH213553   1.859   2.012   2.682  0.4733 -0.1848 -0.1192
 4530TIP3    H113554   1.793   2.053   2.626 -0.5363 -0.8962  0.5083
 4530TIP3    H213555   1.942   2.028   2.637 -0.2917 -0.7442 -1.8251
 4531TIP3   OH213556   4.446   1.319   4.317 -0.0016 -0.6636  0.2443
 4531TIP3    H113557   4.482   1.246   4.368 -0.2462 -1.4306 -0.6479
 4531TIP3    H213558   4.364   1.285   4.282  0.2302 -0.2116 -0.7777
 4532TIP3   OH213559   5.276   1.222   1.033  0.0164  0.0079 -0.7041
 4532TIP3    H113560   5.239   1.304   0.999 -0.1181  0.3855  0.3273
 4532TIP3    H213561   5.368   1.243   1.050  0.7305 -0.8551 -3.0186
 4533TIP3   OH213562   1.603   1.774   3.589  0.2562  0.5138 -0.8555
 4533TIP3    H113563   1.645   1.857   3.565  0.3080  0.6785 -0.2166
 4533TIP3    H213564   1.601   1.776   3.685 -0.4523  0.1227 -0.8625
 4534TIP3   OH213565   2.658   6.596   5.090  0.1735 -0.0792 -0.2219
 4534TIP3    H113566   2.697   6.508   5.093  0.7419  0.1420 -0.7765
 4534TIP3    H213567   2.631   6.614   5.180 -0.0797 -0.8786 -0.1313
 4535TIP3   OH213568   0.294   1.402   5.210 -0.2923 -0.4494  0.0512
 4535TIP3    H113569   0.268   1.471   5.271 -1.0871  0.0002 -0.7547
 4535TIP3    H213570   0.215   1.386   5.158  0.3781 -0.7350 -0.9161
 4536TIP3   OH213571   2.420   4.650   0.182  0.2856  0.7316 -0.3719
 4536TIP3    H113572   2.381   4.674   0.098  2.7927  1.1007 -1.5151
 4536TIP3    H213573   2.508   4.621   0.161  0.1823 -1.6256  1.9058
 4537TIP3   OH213574   2.361   0.992   2.425 -0.0570  0.0942  0.1407
 4537TIP3    H113575   2.400   0.948   2.349 -0.1058  2.1448 -1.1504
 4537TIP3    H213576   2.393   1.082   2.419 -1.2922  0.6827  1.7203
 4538TIP3   OH213577   5.588   1.153   4.400  0.3035  0.8558 -0.2923
 4538TIP3    H113578   5.678   1.150   4.367  0.5097  1.2984  0.2116
 4538TIP3    H213579   5.549   1.070   4.371  0.9977  0.4759 -0.1600
 4539TIP3   OH213580   3.831   5.287   4.094  0.1657  0.0039 -0.0637
 4539TIP3    H113581   3.908   5.236   4.072  0.3872  0.0171  0.6578
 4539TIP3    H213582   3.765   5.259   4.031  0.7960  0.0947 -0.7689
 4540TIP3   OH213583   1.597   0.766   5.505 -0.7247 -0.2360 -0.0882
 4540TIP3    H113584   1.679   0.815   5.495 -1.3636  1.3899  1.8933
 4540TIP3    H213585   1.580   0.730   5.418  1.9593 -0.4844 -0.6101
 4541TIP3   OH213586   4.644   5.349   2.375  0.0571 -0.0082  0.5934
 4541TIP3    H113587   4.656   5.269   2.323  0.4560  0.0456  0.6006
 4541TIP3    H213588   4.554   5.343   2.406 -1.2997  1.4224 -2.5889
 4542TIP3   OH213589   1.226   6.457   4.719 -0.3282 -0.0797 -0.2099
 4542TIP3    H113590   1.242   6.551   4.710  1.7074 -0.2496  1.1895
 4542TIP3    H213591   1.298   6.415   4.673 -1.1689 -0.9914 -0.7441
 4543TIP3   OH213592   1.560   1.368   0.131  0.2252 -0.0937 -0.5763
 4543TIP3    H113593   1.494   1.337   0.193  0.7088  0.1940  0.0875
 4543TIP3    H213594   1.512   1.375   0.048 -0.0560 -1.9990 -0.6363
 4544TIP3   OH213595   4.063   0.432   0.978 -0.1369 -0.7320 -0.7483
 4544TIP3    H113596   4.118   0.511   0.980  0.5759 -1.1939 -1.6733
 4544TIP3    H213597   4.018   0.433   1.063 -0.2451  0.7365 -0.7993
 4545TIP3   OH213598   0.544   0.453   0.350  0.3526  0.1135 -0.1101
 4545TIP3    H113599   0.502   0.444   0.264 -2.0335  3.3889  0.5092
 4545TIP3    H213600   0.560   0.547   0.359  2.0232 -0.3287  2.3997
 4546TIP3   OH213601   3.451   2.046   4.330  0.3515 -0.5219  0.2479
 4546TIP3    H113602   3.422   2.137   4.342 -2.3409 -0.8632 -2.4153
 4546TIP3    H213603   3.410   1.998   4.402  0.3995  0.1318  0.7187
 4547TIP3   OH213604   0.966   6.135   5.003  0.1451 -0.2150 -0.4164
 4547TIP3    H113605   0.974   6.141   4.908 -1.3121 -0.0581 -0.5595
 4547TIP3    H213606   0.895   6.072   5.017  0.5682 -0.4874  0.5816
 4548TIP3   OH213607   6.677   6.339   4.995 -0.1204 -0.1341 -0.3939
 4548TIP3    H113608   6.635   6.419   4.963 -2.1163 -2.0240 -2.9946
 4548TIP3    H213609   6.627   6.316   5.074 -0.6369  0.3173 -0.5821
 4549TIP3   OH213610   4.534   0.359   2.985  0.4161  1.0109  0.1574
 4549TIP3    H113611   4.486   0.310   3.052  0.5440  0.7312  0.0455
 4549TIP3    H213612   4.605   0.300   2.958  0.0123  0.8884 -0.6540
 4550TIP3   OH213613   6.250   2.582   4.235  0.3916 -0.3871 -0.6159
 4550TIP3    H113614   6.161   2.587   4.270  0.2497 -1.5687 -0.7750
 4550TIP3    H213615   6.239   2.560   4.143  0.8546 -1.0286 -0.5254
 4551TIP3   OH213616   6.481   6.299   5.175  0.3407  0.2115 -0.3033
 4551TIP3    H113617   6.396   6.307   5.217  0.2941 -0.6511 -0.2167
 4551TIP3    H213618   6.485   6.207   5.147  1.3968  0.1422  0.0380
 4552TIP3   OH213619   6.043   1.538   5.492  0.0068 -0.7354 -0.2891
 4552TIP3    H113620   6.079   1.499   5.572  1.5021  0.3343 -0.4157
 4552TIP3    H213621   5.964   1.583   5.522  2.0262  2.0958  1.2170
 4553TIP3   OH213622   2.521   0.144   2.106  0.0937  0.1804 -0.7879
 4553TIP3    H113623   2.523   0.088   2.028  1.2007  0.9444 -1.3394
 4553TIP3    H213624   2.440   0.194   2.098 -0.1679 -0.2819 -1.0597
 4554TIP3   OH213625   6.584   4.203   4.052 -0.1145  0.4231  0.8445
 4554TIP3    H113626   6.579   4.129   3.990 -0.5681  0.6670  0.5839
 4554TIP3    H213627   6.678   4.213   4.069 -0.0746 -0.4998  1.2355
 4555TIP3   OH213628   7.219   0.096   0.208 -0.5158 -0.1503  0.0137
 4555TIP3    H113629   7.214   0.004   0.233  1.1741 -0.1671  0.3787
 4555TIP3    H213630   7.190   0.098   0.116  0.4294 -1.2034 -0.3222
 4556TIP3   OH213631   2.143   5.962   5.641 -0.0658  0.0199  0.0838
 4556TIP3    H113632   2.140   6.004   5.727  0.5047 -1.3908  0.8291
 4556TIP3    H213633   2.109   6.028   5.581 -1.3067  0.7531  1.5096
 4557TIP3   OH213634   6.316   2.693   4.670 -0.2180  0.4219 -0.2781
 4557TIP3    H113635   6.391   2.664   4.619 -1.7123  0.2202 -2.4897
 4557TIP3    H213636   6.291   2.617   4.722  1.0491  0.4826  0.4584
 4558TIP3   OH213637   0.075   3.458   0.661 -0.2288 -0.3119 -0.4609
 4558TIP3    H113638   0.155   3.473   0.710 -1.2377 -0.1404  1.2337
 4558TIP3    H213639   0.005   3.478   0.723 -1.6169 -2.6063 -1.1589
 4559TIP3   OH213640   1.638   2.414   3.852 -0.8279 -0.1802  0.8490
 4559TIP3    H113641   1.689   2.350   3.901  0.6074  0.0168 -0.3037
 4559TIP3    H213642   1.703   2.477   3.819 -1.9049  0.5081 -0.0531
 4560TIP3   OH213643   4.683   3.365   1.610 -0.2392 -0.3437 -0.1152
 4560TIP3    H113644   4.611   3.414   1.570 -0.3047 -1.4937 -1.4866
 4560TIP3    H213645   4.680   3.389   1.703 -0.9300  1.3817 -0.5447
 4561TIP3   OH213646   3.663   1.616   3.593 -0.6249  0.4542  0.5260
 4561TIP3    H113647   3.714   1.694   3.569  0.2602 -0.0956  0.5850
 4561TIP3    H213648   3.627   1.585   3.511 -1.8539  1.5211  0.6429
 4562TIP3   OH213649   0.598   0.256   2.954 -0.3685 -0.2084 -0.5436
 4562TIP3    H113650   0.597   0.160   2.952  0.5534 -0.2406  0.0215
 4562TIP3    H213651   0.679   0.281   2.910  0.3589  0.2341  0.9789
 4563TIP3   OH213652   5.632   6.050   2.261 -0.3151  0.2777 -0.2604
 4563TIP3    H113653   5.638   6.137   2.221  0.0424 -0.6931 -2.4387
 4563TIP3    H213654   5.576   6.000   2.201  1.2238 -1.5933 -0.2158
 4564TIP3   OH213655   6.273   2.734   3.989 -0.0535 -0.1056  0.0947
 4564TIP3    H113656   6.214   2.801   3.954 -0.1062 -0.4692 -0.5305
 4564TIP3    H213657   6.263   2.660   3.929  1.0925 -0.1486 -0.0633
 4565TIP3   OH213658   1.412   4.579   4.953 -0.5647  0.1743  0.3896
 4565TIP3    H113659   1.388   4.601   4.863  0.6443  3.3316  0.6868
 4565TIP3    H213660   1.485   4.518   4.945  2.0576  3.2371 -1.0298
 4566TIP3   OH213661   1.278   5.656   2.233 -0.4723 -0.4618 -0.2991
 4566TIP3    H113662   1.252   5.602   2.307  0.2636  0.2995  0.5442
 4566TIP3    H213663   1.317   5.734   2.272  1.3084 -0.6951 -1.4568
 4567TIP3   OH213664   0.093   1.912   1.181  0.2385 -0.1113  0.4087
 4567TIP3    H113665   0.048   1.994   1.198  0.6692  0.1898  0.1242
 4567TIP3    H213666   0.028   1.857   1.137  0.3451  0.5779 -0.6677
 4568TIP3   OH213667   3.999   4.522   5.577 -0.1646  0.4831  0.4530
 4568TIP3    H113668   3.941   4.512   5.502 -0.4475 -0.6871  0.8221
 4568TIP3    H213669   3.997   4.616   5.596 -0.3081  0.7523 -0.8155
 4569TIP3   OH213670   1.482   6.577   5.822 -0.0596 -0.7032 -0.0086
 4569TIP3    H113671   1.439   6.501   5.785 -0.9007 -0.5915  0.7070
 4569TIP3    H213672   1.461   6.574   5.915  1.8914 -0.9125  0.4817
 4570TIP3   OH213673   3.699   5.566   3.553 -0.1003 -0.4083 -0.8053
 4570TIP3    H113674   3.794   5.571   3.561 -0.2475 -0.0404  1.6682
 4570TIP3    H213675   3.673   5.651   3.516  0.4043  0.5142  0.8622
 4571TIP3   OH213676   1.969   5.873   0.392 -1.0480  0.2309 -0.5636
 4571TIP3    H113677   1.897   5.904   0.337 -0.1670  0.5144 -1.5904
 4571TIP3    H213678   1.963   5.777   0.387 -1.4753  0.2496 -0.4774
 4572TIP3   OH213679   0.308   4.857   2.408 -0.1802  0.4336  0.1817
 4572TIP3    H113680   0.331   4.809   2.488  0.4579  0.1511 -0.1579
 4572TIP3    H213681   0.339   4.801   2.337 -0.7554  0.6755 -0.2683
 4573TIP3   OH213682   3.828   3.463   4.998 -0.1315  0.6669 -0.0702
 4573TIP3    H113683   3.843   3.557   4.991  1.0702  0.5536  0.6832
 4573TIP3    H213684   3.738   3.455   5.031  0.1256  1.5887  0.9160
 4574TIP3   OH213685   4.421   6.610   1.005 -0.1505  0.4017 -0.3663
 4574TIP3    H113686   4.409   6.681   1.068 -0.3097  0.3200 -0.3051
 4574TIP3    H213687   4.516   6.602   0.995 -0.0618 -0.5706  0.9893
 4575TIP3   OH213688   6.363   0.049   3.901 -0.0861 -0.3267 -0.0563
 4575TIP3    H113689   6.446   0.032   3.858  0.7587  0.8184  1.0564
 4575TIP3    H213690   6.302  -0.014   3.861  1.3126 -1.2539 -0.8100
 4576TIP3   OH213691   1.035   2.581   4.881  0.4812 -0.1656 -0.3785
 4576TIP3    H113692   1.026   2.673   4.903  2.5234  0.0693 -0.3220
 4576TIP3    H213693   1.027   2.578   4.786 -1.3274 -0.2204 -0.2688
 4577TIP3   OH213694   5.539   3.487   0.342 -0.5619 -0.2157  0.0776
 4577TIP3    H113695   5.484   3.476   0.420  0.9265 -0.5102  1.1250
 4577TIP3    H213696   5.560   3.580   0.341  0.9927 -0.5110  1.1865
 4578TIP3   OH213697   0.022   5.206   5.379 -0.6617  0.2481 -0.6347
 4578TIP3    H113698  -0.053   5.146   5.381 -0.6958  0.2910 -0.6304
 4578TIP3    H213699   0.063   5.195   5.465 -0.6227  0.1742 -0.6621
 4579TIP3   OH213700   6.561   1.876   2.230  0.1476  0.2402  0.0317
 4579TIP3    H113701   6.565   1.824   2.310  0.9687 -0.6188 -0.5400
 4579TIP3    H213702   6.475   1.917   2.232 -1.1108 -2.1860 -0.0987
 4580TIP3   OH213703   2.263   5.950   0.862 -0.0202 -0.3780  0.3304
 4580TIP3    H113704   2.323   6.010   0.820 -0.4467  2.5350  3.4609
 4580TIP3    H213705   2.188   6.004   0.887 -0.4837 -2.1295  3.2650
 4581TIP3   OH213706   1.246   5.730   5.662 -0.4143  0.7004  0.1607
 4581TIP3    H113707   1.264   5.685   5.744 -0.5117 -0.7156 -0.5655
 4581TIP3    H213708   1.332   5.752   5.627 -0.3292  0.2919  0.1060
 4582TIP3   OH213709   6.647   3.726   4.270 -0.8808 -0.1720 -0.3306
 4582TIP3    H113710   6.691   3.810   4.256 -0.0728 -0.7135 -1.2144
 4582TIP3    H213711   6.718   3.662   4.272 -1.4687 -0.8144  0.5853
 4583TIP3   OH213712   4.300   5.884   0.753  0.2583  0.1239 -0.0216
 4583TIP3    H113713   4.329   5.888   0.661  1.1759  0.5308  0.2666
 4583TIP3    H213714   4.252   5.965   0.766 -1.2237 -0.6368 -0.5551
 4584TIP3   OH213715   5.921   6.593   1.554  0.0956  0.2146 -0.3442
 4584TIP3    H113716   5.948   6.552   1.472 -0.6551 -0.0457 -0.4673
 4584TIP3    H213717   5.990   6.657   1.573  1.1703 -0.9234 -0.2715
 4585TIP3   OH213718   2.131   3.967   0.810 -0.2500  0.0089  0.0125
 4585TIP3    H113719   2.042   3.944   0.838 -0.7438 -1.1863 -2.2545
 4585TIP3    H213720   2.170   3.884   0.785  0.8138  0.7413 -0.8355
 4586TIP3   OH213721   6.276   0.046   4.404  0.2151  0.7876 -0.6665
 4586TIP3    H113722   6.261   0.010   4.317 -0.2097 -1.0901  0.1468
 4586TIP3    H213723   6.209   0.006   4.459  1.3657  0.8072  0.8176
 4587TIP3   OH213724   1.788   2.656   1.031 -0.1220  0.0153  0.0855
 4587TIP3    H113725   1.859   2.602   1.068  0.3040  0.2762 -0.3364
 4587TIP3    H213726   1.788   2.634   0.938  0.1948  0.8965 -0.1294
 4588TIP3   OH213727   6.974   4.328   1.521  0.6046  0.2952 -0.4206
 4588TIP3    H113728   6.972   4.382   1.600  1.5980 -1.5689  0.9607
 4588TIP3    H213729   7.066   4.320   1.498  0.3443  0.6580 -1.6869
 4589TIP3   OH213730   1.331   1.203   1.868  0.2027 -0.1149 -0.0023
 4589TIP3    H113731   1.254   1.169   1.913 -1.2432  2.9491  0.1020
 4589TIP3    H213732   1.387   1.235   1.939  0.5458 -0.3453 -0.1682
 4590TIP3   OH213733   6.199   2.560   3.680 -0.3049 -0.4677  0.2247
 4590TIP3    H113734   6.105   2.550   3.695 -0.3945 -0.1219 -0.0982
 4590TIP3    H213735   6.238   2.481   3.716 -0.7550 -0.7743  0.0358
 4591TIP3   OH213736   6.324   3.240   4.881 -0.3434  0.5973 -0.1307
 4591TIP3    H113737   6.327   3.145   4.894 -2.6539  0.4271 -0.3949
 4591TIP3    H213738   6.415   3.266   4.869  0.5898 -1.2358  2.2495
 4592TIP3   OH213739   6.220   1.652   1.560  0.6382 -0.0340 -0.3158
 4592TIP3    H113740   6.181   1.679   1.643  0.6259  1.4391 -0.7705
 4592TIP3    H213741   6.290   1.715   1.545 -0.1194  0.4625 -2.0042
 4593TIP3   OH213742   1.515   6.673   0.323  0.2128  0.3700 -0.3966
 4593TIP3    H113743   1.508   6.710   0.411 -0.6353  1.6280 -0.9777
 4593TIP3    H213744   1.609   6.656   0.312  0.2820 -0.2091  0.8971
 4594TIP3   OH213745   0.813   5.889   3.808  0.1977 -0.0158  0.7307
 4594TIP3    H113746   0.830   5.848   3.893 -0.9737 -0.1642  0.9059
 4594TIP3    H213747   0.900   5.916   3.777  0.8110 -1.2438  1.3087
 4595TIP3   OH213748   0.211   0.919   5.830 -0.2747 -0.0751  0.6287
 4595TIP3    H113749   0.218   0.989   5.895  1.9155 -2.1666  2.8715
 4595TIP3    H213750   0.265   0.848   5.866  0.3937 -1.6947 -3.1350
 4596TIP3   OH213751   2.826   4.369   5.136  0.4505  0.5044 -0.0499
 4596TIP3    H113752   2.839   4.325   5.220  1.2782 -0.6215 -0.7453
 4596TIP3    H213753   2.733   4.394   5.137  0.2108 -0.3238  0.8131
 4597TIP3   OH213754   0.284   3.483   2.801 -0.1469  0.7151  0.2692
 4597TIP3    H113755   0.280   3.387   2.804 -0.3709  0.7098 -0.0262
 4597TIP3    H213756   0.192   3.510   2.810 -0.0320  0.9168  0.7941
 4598TIP3   OH213757   2.131   3.915   1.282  0.5385  0.0281 -0.0018
 4598TIP3    H113758   2.053   3.868   1.252  0.4449 -0.8723  1.5565
 4598TIP3    H213759   2.192   3.910   1.208  0.6505 -2.8371  0.1608
 4599TIP3   OH213760   1.682   2.412   1.710  0.0082  0.3195  0.3617
 4599TIP3    H113761   1.591   2.393   1.734 -0.1388  2.2653  1.5608
 4599TIP3    H213762   1.681   2.421   1.615 -1.0851  0.4799  0.3798
 4600TIP3   OH213763   5.107   4.713   1.109  0.3436 -0.3216 -0.0912
 4600TIP3    H113764   5.020   4.686   1.081  0.3206  1.2918 -1.8144
 4600TIP3    H213765   5.093   4.794   1.158  0.8212 -0.2791 -0.0202
 4601TIP3   OH213766   5.692   6.334   4.546  0.4368  0.0128 -0.1994
 4601TIP3    H113767   5.733   6.248   4.555  1.4943  0.5054 -0.1801
 4601TIP3    H213768   5.633   6.325   4.472 -0.7486 -1.2105  0.8416
 4602TIP3   OH213769   2.106   4.266   4.993  0.0736  0.1562 -0.3873
 4602TIP3    H113770   2.054   4.187   4.981 -1.8171  1.0788  1.1579
 4602TIP3    H213771   2.065   4.331   4.936  0.1316  0.6510  0.1287
 4603TIP3   OH213772   5.850   4.609   0.067 -0.4417  0.3136  0.1467
 4603TIP3    H113773   5.798   4.574   0.140 -0.0281  1.5215  1.0684
 4603TIP3    H213774   5.788   4.658   0.014 -0.5040  0.5840  0.4672
 4604TIP3   OH213775   0.538   2.802   2.398 -0.1792  0.0245  0.4797
 4604TIP3    H113776   0.538   2.780   2.491 -1.2322 -0.7977  0.3179
 4604TIP3    H213777   0.624   2.775   2.367  0.1503  0.2292  1.2027
 4605TIP3   OH213778   6.207   1.889   5.244  0.3243  0.7574 -0.2962
 4605TIP3    H113779   6.115   1.879   5.269  0.0624  0.9301 -1.1469
 4605TIP3    H213780   6.242   1.956   5.303  0.0225  0.3821  0.3156
 4606TIP3   OH213781   6.709   1.300   1.953  0.4569  0.2507  0.4345
 4606TIP3    H113782   6.733   1.250   2.031  0.1938  1.0621  1.0508
 4606TIP3    H213783   6.730   1.242   1.880 -0.1271 -0.8826  1.1325
 4607TIP3   OH213784   0.623   3.997   3.222  0.4723  0.3195 -0.0972
 4607TIP3    H113785   0.648   4.073   3.275 -0.1154  1.2039 -1.0622
 4607TIP3    H213786   0.528   3.990   3.232  0.5131 -0.2510 -0.0673
 4608TIP3   OH213787   5.086   6.375   3.816  0.4895 -0.1234 -0.0441
 4608TIP3    H113788   5.141   6.381   3.894  0.0614  0.4866  0.2162
 4608TIP3    H213789   5.069   6.466   3.792 -1.0592 -0.2918  0.3464
 4609TIP3   OH213790   6.750   3.632   3.006  0.2384  0.3524  0.3680
 4609TIP3    H113791   6.785   3.689   3.075 -2.7869  2.1716  0.6003
 4609TIP3    H213792   6.806   3.649   2.931  3.3917 -1.3871  2.1248
 4610TIP3   OH213793   1.950   2.481   1.600  0.1569 -0.1199 -0.3160
 4610TIP3    H113794   1.974   2.535   1.525 -1.0270 -1.1253 -1.4784
 4610TIP3    H213795   1.874   2.524   1.638 -1.4694 -1.4200 -1.8949
 4611TIP3   OH213796   0.198   5.851   3.411 -0.6898 -0.1659 -0.2327
 4611TIP3    H113797   0.114   5.879   3.448 -2.3082 -2.9954 -1.4162
 4611TIP3    H213798   0.218   5.916   3.344 -1.6230  0.8850  0.4873
 4612TIP3   OH213799   2.680   6.197   4.153  0.0023 -0.1786 -0.1488
 4612TIP3    H113800   2.755   6.236   4.198  0.2276 -0.4321 -0.3014
 4612TIP3    H213801   2.713   6.176   4.065 -0.7722  1.4400 -0.8679
 4613TIP3   OH213802   5.985   6.306   2.003  0.1325 -0.2000  0.4186
 4613TIP3    H113803   6.043   6.239   1.968 -0.1085  0.2246 -0.8729
 4613TIP3    H213804   6.010   6.386   1.957  1.1890  0.9029  2.7555
 4614TIP3   OH213805   1.463   1.638   0.816  0.4296  0.0135  0.0531
 4614TIP3    H113806   1.426   1.674   0.896 -0.2473  1.5800 -0.9195
 4614TIP3    H213807   1.501   1.554   0.843 -0.6735  0.0207  1.7964
 4615TIP3   OH213808   7.186   0.413   0.518 -0.1959 -0.0826  0.4005
 4615TIP3    H113809   7.228   0.478   0.575 -0.9696  0.9288 -0.1499
 4615TIP3    H213810   7.127   0.365   0.576 -0.8055  0.7845  0.5154
 4616TIP3   OH213811   6.643   1.046   1.731  0.2988  0.5564 -0.1268
 4616TIP3    H113812   6.551   1.071   1.730 -0.4271 -1.5922 -3.5255
 4616TIP3    H213813   6.643   0.958   1.768  0.2942 -1.0054 -3.5014
 4617TIP3   OH213814   6.083   0.966   3.887  0.3332 -0.6900  0.2545
 4617TIP3    H113815   6.145   1.026   3.846 -2.1588 -0.3322 -3.4487
 4617TIP3    H213816   6.016   1.023   3.924 -1.2643 -1.0588 -1.9334
 4618TIP3   OH213817   6.502   0.046   5.868  0.0503 -0.3516 -0.2304
 4618TIP3    H113818   6.595   0.038   5.849  0.1302 -1.2665  0.4998
 4618TIP3    H213819   6.496   0.117   5.932  0.4949 -1.6225  1.2879
 4619TIP3   OH213820   4.674   4.642   1.523  0.0711  0.8911  0.5355
 4619TIP3    H113821   4.692   4.604   1.436  0.0125 -1.1818  1.3591
 4619TIP3    H213822   4.750   4.618   1.575 -0.7442  0.4475  1.5478
 4620TIP3   OH213823   0.512   0.054   0.339 -0.1658  0.0601 -0.4168
 4620TIP3    H113824   0.562   0.039   0.419 -0.7782  0.0869 -0.0207
 4620TIP3    H213825   0.437   0.106   0.368  0.1696  1.0033 -1.1919
 4621TIP3   OH213826   0.145   6.727   4.296  0.4398 -0.0655  0.3230
 4621TIP3    H113827   0.184   6.784   4.230  1.4190 -0.1184  0.8411
 4621TIP3    H213828   0.055   6.713   4.265  0.2222  1.6252  0.0980
 4622TIP3   OH213829   3.732   2.025   5.813  0.1732 -0.3479  0.2736
 4622TIP3    H113830   3.824   2.009   5.793  0.5948  1.4170  0.6080
 4622TIP3    H213831   3.685   1.952   5.772  1.5459 -0.2527 -1.5951
 4623TIP3   OH213832   5.318   5.131   2.528  0.0426 -0.7072  0.0047
 4623TIP3    H113833   5.348   5.213   2.568 -0.1794 -0.5951 -0.0553
 4623TIP3    H213834   5.324   5.067   2.599  0.6233 -0.7377 -0.0640
 4624TIP3   OH213835   2.920   1.021   1.728 -0.0417  0.7585 -0.0604
 4624TIP3    H113836   2.970   1.043   1.649 -0.4143  1.9341  0.0199
 4624TIP3    H213837   2.954   0.935   1.754  1.2840  1.1191 -0.5265
 4625TIP3   OH213838   1.597   6.586   3.661 -0.2939 -0.2372 -0.2460
 4625TIP3    H113839   1.633   6.648   3.725  0.6708 -2.8738  1.9693
 4625TIP3    H213840   1.511   6.562   3.696 -0.4254 -0.5639 -0.7821
 4626TIP3   OH213841   2.915   5.587   1.968  0.0929  0.4243  0.1927
 4626TIP3    H113842   2.916   5.676   1.933 -0.9071  0.6358  0.6721
 4626TIP3    H213843   2.822   5.566   1.978  0.3292 -0.0244  1.6898
 4627TIP3   OH213844   1.910   0.416   4.954  0.1594 -0.2382 -0.0755
 4627TIP3    H113845   1.948   0.497   4.920 -1.0252 -0.2065 -1.3826
 4627TIP3    H213846   1.819   0.439   4.975 -0.3583 -1.3487 -0.9908
 4628TIP3   OH213847   2.491   4.163   3.961 -0.1259 -0.5405  0.4173
 4628TIP3    H113848   2.464   4.087   3.909 -1.7940  1.0372 -1.1588
 4628TIP3    H213849   2.518   4.228   3.896  1.4444  0.1902  1.7347
 4629TIP3   OH213850   6.918   4.930   3.625  0.3468 -0.4634 -0.0740
 4629TIP3    H113851   6.906   5.000   3.689  0.0206 -1.3542  0.8583
 4629TIP3    H213852   7.012   4.932   3.605  0.1484  1.1081 -1.1185
 4630TIP3   OH213853   1.500   5.515   5.839  0.1754 -0.3644  0.4470
 4630TIP3    H113854   1.443   5.571   5.891  0.9028  1.0485 -0.2257
 4630TIP3    H213855   1.583   5.562   5.834  1.5144 -2.4431  1.5517
 4631TIP3   OH213856   2.748   4.900   3.592  0.4231 -0.0736  0.2750
 4631TIP3    H113857   2.697   4.818   3.593 -0.8267  0.6203 -1.2282
 4631TIP3    H213858   2.697   4.960   3.646 -0.5358  0.6828 -1.3893
 4632TIP3   OH213859   3.222   2.824   4.088  0.4473 -0.3185  0.0068
 4632TIP3    H113860   3.256   2.906   4.051  1.0160 -0.8800 -0.7494
 4632TIP3    H213861   3.239   2.831   4.182  0.5724  0.3909 -0.0641
 4633TIP3   OH213862   5.485   6.609   3.592 -0.0175 -0.8042 -0.1694
 4633TIP3    H113863   5.494   6.703   3.576 -1.1736 -0.4013  1.2969
 4633TIP3    H213864   5.536   6.593   3.672 -1.1600 -1.0958  0.5131
 4634TIP3   OH213865   5.979   6.499   5.616 -0.2761  0.4965  0.1332
 4634TIP3    H113866   5.941   6.585   5.599 -0.7904  0.3976  0.7621
 4634TIP3    H213867   6.009   6.503   5.707 -0.0559  0.0997  0.0821
 4635TIP3   OH213868   5.352   3.891   2.094 -0.1912 -0.3047 -0.0086
 4635TIP3    H113869   5.277   3.832   2.088  0.6851 -1.3149 -1.7244
 4635TIP3    H213870   5.316   3.972   2.129 -1.3317 -1.9519  2.9744
 4636TIP3   OH213871   3.783   2.995   5.784  0.4012 -0.4540  0.3958
 4636TIP3    H113872   3.849   3.015   5.851  1.5865  1.2599 -1.1621
 4636TIP3    H213873   3.807   3.051   5.710 -0.7530 -2.3886 -1.5403
 4637TIP3   OH213874   1.766   1.723   0.358 -0.1034 -0.6726  0.5237
 4637TIP3    H113875   1.689   1.741   0.413 -0.5895  1.0984 -0.6609
 4637TIP3    H213876   1.836   1.775   0.397  0.0685 -0.9688  0.6135
 4638TIP3   OH213877   0.428   4.833   3.746  0.2887  0.1920 -0.1464
 4638TIP3    H113878   0.481   4.910   3.767 -1.2575  1.8061 -1.8184
 4638TIP3    H213879   0.478   4.788   3.678  1.3529 -0.5033  1.0568
 4639TIP3   OH213880   4.021   6.238   0.582  0.3659 -0.3169  1.1178
 4639TIP3    H113881   3.977   6.319   0.606  2.0219  0.7209  0.7849
 4639TIP3    H213882   4.103   6.266   0.541  0.0397 -2.1080 -0.9426
 4640TIP3   OH213883   0.796   5.236  -0.012 -0.4112  1.0637 -0.1554
 4640TIP3    H113884   0.775   5.206   0.076 -0.4068  1.3360 -0.0581
 4640TIP3    H213885   0.848   5.316   0.002  0.5112  0.5168 -0.3925
 4641TIP3   OH213886   2.793   1.525   5.238 -0.7470 -0.0308  0.1942
 4641TIP3    H113887   2.731   1.494   5.305 -1.2774 -0.2342 -0.3788
 4641TIP3    H213888   2.814   1.447   5.188 -1.8633  0.4388 -1.0780
 4642TIP3   OH213889   1.140   3.254   3.846 -0.6466  0.0252  0.2317
 4642TIP3    H113890   1.100   3.271   3.761  0.1458 -0.4942 -0.2538
 4642TIP3    H213891   1.169   3.341   3.876 -0.4728  0.1408 -0.2622
 4643TIP3   OH213892   3.648   1.196   5.298  0.0071 -0.1634 -0.1045
 4643TIP3    H113893   3.564   1.229   5.327  1.0152  0.3498  2.5328
 4643TIP3    H213894   3.627   1.135   5.227 -2.5955 -0.3495  0.7325
 4644TIP3   OH213895   0.876   1.023   0.092  0.2773  0.2058 -0.3904
 4644TIP3    H113896   0.952   1.051   0.042  1.1799 -0.8217  0.3691
 4644TIP3    H213897   0.892   0.931   0.113 -1.2222 -0.0710 -0.3035
 4645TIP3   OH213898   3.434   6.728   5.434 -0.2392 -0.0939  0.1858
 4645TIP3    H113899   3.376   6.695   5.365  1.6699 -1.0456 -1.0556
 4645TIP3    H213900   3.394   6.698   5.515 -2.3703  0.7511 -0.4763
 4646TIP3   OH213901   0.253   1.796   1.385  0.9344  0.2795 -0.4151
 4646TIP3    H113902   0.198   1.830   1.314  0.6509 -0.6092 -0.6312
 4646TIP3    H213903   0.210   1.828   1.465  0.5909  0.3158 -0.6115
 4647TIP3   OH213904   3.381   6.086   3.985 -0.2192  0.1577 -0.4672
 4647TIP3    H113905   3.297   6.066   4.026  0.2297 -0.6251  0.0869
 4647TIP3    H213906   3.434   6.122   4.056  0.5783 -1.2563 -0.3315
 4648TIP3   OH213907   5.327   1.477   4.120  0.0822 -0.0246 -0.3242
 4648TIP3    H113908   5.257   1.518   4.171 -0.8600  0.2378 -1.7786
 4648TIP3    H213909   5.292   1.471   4.031  1.0721 -1.9011 -0.6360
 4649TIP3   OH213910   3.487   4.457   1.049  0.0494 -0.2633 -0.7053
 4649TIP3    H113911   3.508   4.416   0.965 -0.3539 -1.4221 -0.2648
 4649TIP3    H213912   3.436   4.391   1.096  1.8054 -0.3872  1.1879
 4650TIP3   OH213913   6.122   2.485   3.991 -0.0126 -0.1979 -0.2142
 4650TIP3    H113914   6.037   2.496   3.948 -1.2483  1.1202  2.3580
 4650TIP3    H213915   6.129   2.391   4.007 -1.9250 -0.1458  1.2019
 4651TIP3   OH213916   1.517   3.982   4.460 -0.0577  0.9919  0.3844
 4651TIP3    H113917   1.436   3.939   4.489 -0.7498  3.1924  2.0010
 4651TIP3    H213918   1.494   4.023   4.377 -0.6506  1.6489  0.8575
 4652TIP3   OH213919   2.048   3.978   2.181  0.1636  0.0948 -0.2845
 4652TIP3    H113920   2.072   3.892   2.144 -0.2137 -0.3057  0.3820
 4652TIP3    H213921   2.131   4.016   2.209  0.2483 -0.4219  0.1844
 4653TIP3   OH213922   4.541   3.057   0.032  0.0296  0.1190 -0.2016
 4653TIP3    H113923   4.570   3.058   0.123  0.6198  0.9341 -0.3799
 4653TIP3    H213924   4.533   2.964   0.010  2.5876 -0.2073 -0.1369
 4654TIP3   OH213925   5.774   5.037   3.635 -0.1551  0.6807  0.1924
 4654TIP3    H113926   5.694   5.088   3.647 -1.1269 -0.8671  0.5830
 4654TIP3    H213927   5.827   5.057   3.713 -1.4515 -0.4867  1.4323
 4655TIP3   OH213928   6.838   3.439   4.110 -0.3180  0.1878 -0.7715
 4655TIP3    H113929   6.912   3.501   4.107 -0.0508 -0.1073 -0.3670
 4655TIP3    H213930   6.836   3.400   4.023  0.5300 -0.4025 -0.5401
 4656TIP3   OH213931   0.884   6.718   1.713  0.3214  0.4966 -0.8580
 4656TIP3    H113932   0.805   6.768   1.733 -0.4813 -0.9111 -0.3600
 4656TIP3    H213933   0.855   6.654   1.648  0.9618 -0.2541 -0.4182
 4657TIP3   OH213934   3.915   0.927   4.021  0.0058 -0.1078 -0.4361
 4657TIP3    H113935   3.827   0.924   4.060  0.5311  0.3215  0.8443
 4657TIP3    H213936   3.907   0.985   3.946 -1.2227 -1.5712 -1.4898
 4658TIP3   OH213937   3.527   5.480   1.272 -0.7818 -0.2538  0.2353
 4658TIP3    H113938   3.515   5.519   1.186 -2.0348 -2.7526 -0.8229
 4658TIP3    H213939   3.457   5.519   1.325 -1.1075 -0.0041 -0.3661
 4659TIP3   OH213940   6.671   3.747   1.277  0.2455  0.0641  0.0042
 4659TIP3    H113941   6.585   3.775   1.309  0.3628  0.4660 -0.0224
 4659TIP3    H213942   6.693   3.811   1.210  0.8731  0.3690  0.4945
 4660TIP3   OH213943   4.953   3.869   0.066 -0.0077  0.3466  0.4420
 4660TIP3    H113944   5.004   3.789   0.080 -0.2038  0.0840 -0.2766
 4660TIP3    H213945   4.865   3.838   0.047 -0.0889  0.7326  0.1646
 4661TIP3   OH213946   0.283   6.589   3.925  0.2503  0.6430 -0.0703
 4661TIP3    H113947   0.210   6.541   3.963  1.3316 -1.9730 -1.0652
 4661TIP3    H213948   0.341   6.609   3.998 -1.3650  2.7664  0.7314
 4662TIP3   OH213949   4.303   0.721   5.822  0.0875 -0.4050  0.1927
 4662TIP3    H113950   4.334   0.687   5.907 -0.4194 -1.9863 -0.2243
 4662TIP3    H213951   4.379   0.713   5.764 -0.0536 -0.9405  0.0748
 4663TIP3   OH213952   6.809   6.318   3.668 -0.1348  0.0498 -0.1157
 4663TIP3    H113953   6.822   6.279   3.754 -0.2427  0.0945 -0.0790
 4663TIP3    H213954   6.863   6.397   3.669 -0.8896  0.5727  0.2645
 4664TIP3   OH213955   4.971   6.003   0.897 -0.0277  0.1606 -0.1371
 4664TIP3    H113956   4.971   5.987   0.802  0.6459 -0.1782 -0.0883
 4664TIP3    H213957   5.012   5.925   0.934  0.8141  0.8185  0.3416
 4665TIP3   OH213958   0.738   1.883   3.144  0.4008 -0.7397 -0.3383
 4665TIP3    H113959   0.769   1.872   3.234 -0.9572 -0.7556  0.1426
 4665TIP3    H213960   0.789   1.819   3.094  0.5240 -1.3757  0.5716
 4666TIP3   OH213961   7.109   4.755   5.501 -0.4058 -0.2547 -0.0287
 4666TIP3    H113962   7.145   4.739   5.588 -1.0854 -0.8113  0.1570
 4666TIP3    H213963   7.182   4.739   5.441 -0.2060 -0.8855  0.3758
 4667TIP3   OH213964   6.764   1.410   5.123 -0.3103 -0.1979  0.0237
 4667TIP3    H113965   6.834   1.350   5.098 -0.3216 -0.1652 -0.0841
 4667TIP3    H213966   6.725   1.370   5.201 -1.7746 -1.4754 -1.3100
 4668TIP3   OH213967   3.744   3.260   3.871 -0.2133 -0.4783  0.5379
 4668TIP3    H113968   3.726   3.239   3.780 -0.0064 -0.2381  0.4397
 4668TIP3    H213969   3.665   3.234   3.918 -0.9605  0.8471  0.0730
 4669TIP3   OH213970   3.046   6.560   1.206  0.4526 -0.4263 -0.0310
 4669TIP3    H113971   3.107   6.497   1.245  1.6342  1.6848  1.7499
 4669TIP3    H213972   3.103   6.629   1.171 -0.8161 -0.0040 -1.3564
 4670TIP3   OH213973   6.888   4.304   2.798 -0.7600  0.0134  0.4967
 4670TIP3    H113974   6.927   4.224   2.764 -1.0238  0.5382 -1.1047
 4670TIP3    H213975   6.960   4.351   2.840 -0.7878 -1.4831  2.4008
 4671TIP3   OH213976   1.956   6.817   1.314  0.0308 -0.1050  0.2918
 4671TIP3    H113977   1.953   6.770   1.398 -0.9129  0.6612  0.6911
 4671TIP3    H213978   2.007   6.759   1.257  0.0993 -0.9545  1.1870
 4672TIP3   OH213979   6.954   4.380   0.349  0.6951  0.2404  0.2966
 4672TIP3    H113980   6.963   4.345   0.438  0.3656  1.8586  0.9917
 4672TIP3    H213981   6.949   4.475   0.361 -0.9496  0.4005 -1.3177
 4673TIP3   OH213982   0.885   0.357   4.089  0.3337 -0.6853 -0.1714
 4673TIP3    H113983   0.927   0.417   4.151 -0.3849 -0.2713 -0.0737
 4673TIP3    H213984   0.832   0.300   4.144 -0.9179  0.1800 -0.4431
 4674TIP3   OH213985   5.727   2.710   1.094 -0.2941 -0.3832 -0.2943
 4674TIP3    H113986   5.750   2.760   1.015 -0.8591 -2.0360 -1.5597
 4674TIP3    H213987   5.696   2.625   1.061  0.6482 -1.6093  1.7500
 4675TIP3   OH213988   1.290   1.092   0.129 -0.2637 -0.2519 -0.0527
 4675TIP3    H113989   1.231   1.017   0.134 -0.1138 -0.5359 -1.8419
 4675TIP3    H213990   1.378   1.053   0.136 -0.1970 -0.2157 -0.6561
 4676TIP3   OH213991   5.755   4.246   1.032 -0.5794 -0.2921 -0.5601
 4676TIP3    H113992   5.827   4.283   0.981  1.5695 -1.2336  1.5990
 4676TIP3    H213993   5.716   4.181   0.974 -0.3844  0.9320 -2.1434
 4677TIP3   OH213994   6.223   3.107   3.424 -0.4986  0.5937  0.5452
 4677TIP3    H113995   6.203   3.113   3.517 -1.3447 -0.3862  0.4466
 4677TIP3    H213996   6.171   3.033   3.393 -2.0140  2.2674 -1.1625
 4678TIP3   OH213997   4.450   0.176   1.131  0.3781 -0.3630  0.1078
 4678TIP3    H113998   4.545   0.163   1.135  0.5082  0.6430  0.7300
 4678TIP3    H213999   4.414   0.114   1.194  0.7220  0.0543  0.7259
 4679TIP3   OH214000   1.519   1.379   5.580  0.3245  0.5687 -0.6358
 4679TIP3    H114001   1.593   1.323   5.556  0.3833  0.9630 -1.4105
 4679TIP3    H214002   1.532   1.459   5.529 -0.0824  1.0533  0.0054
 4680TIP3   OH214003   5.040   2.134   1.583 -0.1601  0.4579  0.0264
 4680TIP3    H114004   5.005   2.124   1.671 -0.1461 -0.6911 -0.0858
 4680TIP3    H214005   4.963   2.152   1.529 -0.2541  0.4751  0.1651
 4681TIP3   OH214006   2.189   1.305   3.052 -0.2725 -0.2905 -0.3473
 4681TIP3    H114007   2.115   1.363   3.033 -0.2346 -0.7489 -2.1205
 4681TIP3    H214008   2.150   1.217   3.054 -0.4664 -0.2363  3.1130
 4682TIP3   OH214009   2.479   3.954   0.734 -0.0902  0.0170 -0.1755
 4682TIP3    H114010   2.410   3.990   0.678 -0.1754  1.5891  0.8852
 4682TIP3    H214011   2.440   3.876   0.772 -0.0402 -1.0892 -2.2268
 4683TIP3   OH214012   4.875   3.840   3.772  0.1395  0.4252  0.3611
 4683TIP3    H114013   4.940   3.907   3.753  1.7286 -0.2605  2.8807
 4683TIP3    H214014   4.921   3.757   3.758 -1.2604 -0.1808 -1.0160
 4684TIP3   OH214015   2.087   6.333   2.477  0.4032 -0.5695 -0.7683
 4684TIP3    H114016   2.080   6.422   2.512  1.4020  0.3338 -2.7347
 4684TIP3    H214017   2.049   6.339   2.389  0.0237 -2.2147 -0.7348
 4685TIP3   OH214018   0.063   0.868   3.311 -0.0001 -0.0522 -0.2535
 4685TIP3    H114019   0.095   0.835   3.227  0.3443  2.3112 -1.1495
 4685TIP3    H214020   0.024   0.792   3.354  1.3519 -1.7122 -1.7893
 4686TIP3   OH214021   1.079   2.552   0.881  0.5688  0.3495 -1.0599
 4686TIP3    H114022   1.091   2.506   0.797  1.8470  0.0753 -0.7466
 4686TIP3    H214023   1.145   2.514   0.939 -2.1291 -1.5672  1.0154
 4687TIP3   OH214024   6.777   5.370   4.708 -1.1541  0.4929  0.1511
 4687TIP3    H114025   6.718   5.438   4.676 -0.8405  2.7142  3.7610
 4687TIP3    H214026   6.736   5.339   4.789  1.3748  0.3385  1.4613
 4688TIP3   OH214027   5.525   1.020   5.596 -0.1251  0.0087  0.1466
 4688TIP3    H114028   5.570   1.024   5.681 -0.4994 -3.6546  0.7052
 4688TIP3    H214029   5.596   1.013   5.532  0.4469 -4.3102  0.9052
 4689TIP3   OH214030   6.607   3.216   1.697 -0.3199  0.1554  0.1957
 4689TIP3    H114031   6.576   3.306   1.694 -1.2166 -0.0897  1.4597
 4689TIP3    H214032   6.546   3.171   1.756  1.2766 -0.8005  1.1946
 4690TIP3   OH214033   5.017   3.763   1.512 -0.3035  0.1923 -0.4249
 4690TIP3    H114034   4.979   3.754   1.600  0.2562  1.3157 -0.0521
 4690TIP3    H214035   5.097   3.814   1.525  1.1204 -1.6925 -1.2671
 4691TIP3   OH214036   0.861   5.682   2.943  0.4015  0.0427  0.1921
 4691TIP3    H114037   0.778   5.679   2.991 -1.1780  1.0535 -2.2772
 4691TIP3    H214038   0.867   5.596   2.900  1.3447 -0.5100  1.3520
 4692TIP3   OH214039   6.177   1.985   3.213 -0.2779 -0.3555 -0.1302
 4692TIP3    H114040   6.161   1.893   3.232 -0.0066  0.2408  3.8389
 4692TIP3    H214041   6.265   1.988   3.176 -0.8460 -1.7350 -1.7201
 4693TIP3   OH214042   3.147   0.895   0.833 -0.4220 -0.4680  0.0477
 4693TIP3    H114043   3.243   0.899   0.830 -0.4813  0.5030 -2.3154
 4693TIP3    H214044   3.124   0.817   0.783 -0.9007  0.1574 -0.7203
 4694TIP3   OH214045   1.867   0.174   3.749 -0.4856 -0.0504 -0.5295
 4694TIP3    H114046   1.884   0.255   3.701 -1.1243  0.6929  0.4624
 4694TIP3    H214047   1.918   0.107   3.702  0.5415  1.0284 -1.0026
 4695TIP3   OH214048   5.379   3.992   1.767  0.7705  0.2328 -0.0801
 4695TIP3    H114049   5.325   4.050   1.821  0.8599  0.2614 -0.0218
 4695TIP3    H214050   5.368   3.905   1.805  0.1210  0.1009 -0.5620
 4696TIP3   OH214051   7.206   5.525   2.838 -0.4135 -0.0965  0.6327
 4696TIP3    H114052   7.275   5.591   2.832  0.4931 -0.9539  1.3027
 4696TIP3    H214053   7.125   5.573   2.819  0.3627  0.9064 -0.2896
 4697TIP3   OH214054   4.511   5.825   5.022  0.7506  0.0959 -0.2916
 4697TIP3    H114055   4.463   5.742   5.028  0.8529  0.0224 -0.4901
 4697TIP3    H214056   4.528   5.837   4.929 -1.0213  1.3612 -0.5089
 4698TIP3   OH214057   1.902   3.772   3.605 -0.4799  0.1878 -0.3827
 4698TIP3    H114058   1.817   3.814   3.604 -0.4000  0.3497 -0.3763
 4698TIP3    H214059   1.938   3.787   3.518  0.4493  1.9869  0.2590
 4699TIP3   OH214060   2.059   0.896   0.358 -0.3987 -0.0462 -0.2387
 4699TIP3    H114061   2.141   0.945   0.359 -0.7639  0.6402 -1.8690
 4699TIP3    H214062   2.039   0.881   0.451  0.9651  0.7637  0.2112
 4700TIP3   OH214063   2.366   0.700   0.132 -0.2377 -0.0511 -0.2304
 4700TIP3    H114064   2.406   0.778   0.093  0.1379  0.4898  1.1780
 4700TIP3    H214065   2.273   0.707   0.109 -0.2454  0.9353  0.0761
 4701TIP3   OH214066   0.255   0.377   3.439  0.5929  0.2165 -0.1976
 4701TIP3    H114067   0.239   0.414   3.525  2.0800  0.6746 -0.0841
 4701TIP3    H214068   0.262   0.282   3.454  2.8874  0.4550  0.5727
 4702TIP3   OH214069   2.540   0.921   2.226  0.0793  0.0380  0.1620
 4702TIP3    H114070   2.527   0.989   2.161  1.8128 -0.7190 -1.0328
 4702TIP3    H214071   2.615   0.950   2.278 -0.2123 -0.1745  0.7157
 4703TIP3   OH214072   7.202   2.926   5.772  0.4820  0.4305  0.2056
 4703TIP3    H114073   7.156   3.003   5.740  0.0548 -0.3029 -1.0040
 4703TIP3    H214074   7.261   2.901   5.701 -0.6140 -1.3389 -0.1423
 4704TIP3   OH214075   5.410   5.506   2.358 -0.3301 -0.0098 -0.7951
 4704TIP3    H114076   5.430   5.431   2.303 -0.1196 -0.0605 -0.6528
 4704TIP3    H214077   5.318   5.526   2.340 -0.6218 -0.8050 -0.2395
 4705TIP3   OH214078   0.738   5.109   0.636 -0.0339 -0.0952  0.2648
 4705TIP3    H114079   0.691   5.192   0.632  2.3145  1.2768 -0.8921
 4705TIP3    H214080   0.677   5.045   0.598 -1.6001  1.2025  0.4769
 4706TIP3   OH214081   5.650   1.840   4.567  0.2227 -0.2233  0.2964
 4706TIP3    H114082   5.605   1.919   4.537  1.9754  0.4211 -0.7437
 4706TIP3    H214083   5.653   1.783   4.490  1.6220 -0.0505  0.2155
 4707TIP3   OH214084   4.663   4.840   4.201  0.6611  0.1914  0.0819
 4707TIP3    H114085   4.650   4.749   4.228 -2.0675  0.2942 -0.5565
 4707TIP3    H214086   4.749   4.864   4.235  0.6702 -2.0545  1.8438
 4708TIP3   OH214087   0.038   3.165   5.236 -0.0450  0.2799 -0.2253
 4708TIP3    H114088   0.088   3.172   5.317  0.0804  0.2706 -0.3021
 4708TIP3    H214089   0.082   3.224   5.175  0.3856 -0.3620 -0.5487
 4709TIP3   OH214090   4.660   4.005   4.294 -0.1155 -0.5305 -0.2330
 4709TIP3    H114091   4.642   3.914   4.270  0.2449  0.0387 -2.9836
 4709TIP3    H214092   4.694   4.044   4.214 -2.2789  2.5957  0.1874
 4710TIP3   OH214093   5.968   4.890   4.359 -0.2459 -0.1593  0.1443
 4710TIP3    H114094   6.017   4.861   4.435  0.8520 -0.8170 -0.7819
 4710TIP3    H214095   5.917   4.814   4.333  0.3190 -0.3372 -0.4843
 4711TIP3   OH214096   5.396   1.169   4.945 -0.3881 -0.3009  0.0943
 4711TIP3    H114097   5.380   1.080   4.914  0.5797 -0.5693  0.3276
 4711TIP3    H214098   5.409   1.221   4.865 -0.4510 -0.4762 -0.0292
 4712TIP3   OH214099   6.710   2.122   0.081  0.1059  0.3869 -0.2055
 4712TIP3    H114100   6.792   2.152   0.042  0.4531 -2.4278 -1.8981
 4712TIP3    H214101   6.651   2.110   0.007 -0.9212 -0.2463  0.6861
 4713TIP3   OH214102   0.916   5.293   3.169  0.0265  0.3762  0.8169
 4713TIP3    H114103   0.941   5.232   3.238 -0.3678  0.7480  1.3032
 4713TIP3    H214104   0.821   5.301   3.178  0.0471  0.8776  0.6146
 4714TIP3   OH214105   3.155   3.936   4.384  0.0909 -0.2276 -0.1471
 4714TIP3    H114106   3.234   3.978   4.418 -0.8345  1.4427  0.0171
 4714TIP3    H214107   3.094   3.938   4.458 -0.3047 -1.0220 -0.4396
 4715TIP3   OH214108   6.649   2.163   2.188  0.0159  0.2749 -0.4041
 4715TIP3    H114109   6.627   2.071   2.199 -0.6141  0.2126 -2.0301
 4715TIP3    H214110   6.619   2.204   2.269  0.0511 -0.8835  0.2199
 4716TIP3   OH214111   6.672   6.247   0.451 -0.4905  0.2651  0.2515
 4716TIP3    H114112   6.664   6.341   0.469 -0.3573  0.1220  1.1194
 4716TIP3    H214113   6.701   6.242   0.360 -0.9905  1.0495  0.0378
 4717TIP3   OH214114   1.399   3.108   0.331 -0.1945 -0.0465 -0.4724
 4717TIP3    H114115   1.352   3.139   0.409  0.2166 -0.6063  0.0013
 4717TIP3    H214116   1.394   3.181   0.270  0.3399  0.7811  0.4516
 4718TIP3   OH214117   2.420   6.305   0.154  0.6859  0.2086 -0.1400
 4718TIP3    H114118   2.456   6.223   0.185 -0.6885  0.2920  1.8688
 4718TIP3    H214119   2.404   6.291   0.060  0.5478 -1.7853  0.1495
 4719TIP3   OH214120   5.260   2.554   3.931  0.1689  0.8439 -0.6515
 4719TIP3    H114121   5.243   2.464   3.902  2.4968 -0.4997  1.7529
 4719TIP3    H214122   5.180   2.580   3.977 -0.2373 -0.3155 -0.6733
 4720TIP3   OH214123   3.197   6.744   4.854  0.2402  0.0422  0.1293
 4720TIP3    H114124   3.156   6.688   4.788  0.2894 -0.4781  0.5243
 4720TIP3    H214125   3.270   6.786   4.809 -0.1829  0.2863 -0.3447
 4721TIP3   OH214126   2.830   2.956   3.504  0.1002 -0.0558  0.9565
 4721TIP3    H114127   2.916   2.965   3.463  0.2302 -0.0280  1.2348
 4721TIP3    H214128   2.784   2.892   3.450  0.4218 -0.3380  1.0171
 4722TIP3   OH214129   0.222   0.226   4.653  0.6500  0.1449  0.2538
 4722TIP3    H114130   0.194   0.240   4.562 -0.1446  0.4683  0.5411
 4722TIP3    H214131   0.143   0.241   4.705  0.2094 -3.3325  0.7787
 4723TIP3   OH214132   2.317   1.210   5.788  0.0862 -0.2198 -0.9669
 4723TIP3    H114133   2.302   1.115   5.785  0.0699 -0.3105  0.8530
 4723TIP3    H214134   2.381   1.222   5.857  0.0884  1.1115 -1.1781
 4724TIP3   OH214135   5.974   0.484   2.607 -0.0503  0.1379 -0.1761
 4724TIP3    H114136   5.896   0.447   2.567 -1.2949  1.5233  0.8741
 4724TIP3    H214137   5.942   0.534   2.682  1.8694  0.5367  0.4342
 4725TIP3   OH214138   0.777   3.297   1.503  0.1842 -0.6533  0.2296
 4725TIP3    H114139   0.740   3.334   1.423  1.1312  0.0232  0.0866
 4725TIP3    H214140   0.712   3.232   1.532 -0.8908  0.1757 -0.2439
 4726TIP3   OH214141   0.402   6.686   3.151  0.6954  0.2834  0.0709
 4726TIP3    H114142   0.490   6.664   3.118 -0.3473 -1.6196 -1.6641
 4726TIP3    H214143   0.373   6.605   3.194 -0.0372  1.0722  1.1082
 4727TIP3   OH214144   6.797   4.861   0.942  0.5935 -0.3598 -0.1893
 4727TIP3    H114145   6.765   4.843   1.031  0.0470 -0.6015 -0.4354
 4727TIP3    H214146   6.890   4.880   0.954  0.1267  1.6333  0.7041
 4728TIP3   OH214147   5.544   2.663   3.717 -0.1073 -0.0748  0.1943
 4728TIP3    H114148   5.581   2.660   3.805  1.9222 -0.2063 -0.6110
 4728TIP3    H214149   5.509   2.575   3.702  0.6246 -0.4131  0.4426
 4729TIP3   OH214150   7.201   5.511   1.675  0.1837 -0.7807 -0.2294
 4729TIP3    H114151   7.178   5.418   1.665 -2.9294 -0.3237  1.4644
 4729TIP3    H214152   7.183   5.549   1.589 -4.7131 -0.7716  0.5263
 4730TIP3   OH214153   2.722   2.978   4.903  0.1094  0.3381 -0.2626
 4730TIP3    H114154   2.780   2.959   4.829 -0.1943  0.3199 -0.4991
 4730TIP3    H214155   2.658   3.041   4.867 -0.5171 -0.2769 -0.2364
 4731TIP3   OH214156   0.192   2.753   3.863 -0.2517  0.1408  0.2278
 4731TIP3    H114157   0.288   2.761   3.860 -0.1319  0.2505  2.5272
 4731TIP3    H214158   0.169   2.783   3.951 -2.3547 -0.4581 -0.0801
 4732TIP3   OH214159   6.267   4.698   4.969 -0.0647 -0.1446  0.5370
 4732TIP3    H114160   6.179   4.708   5.006 -0.4071  1.6743 -0.6103
 4732TIP3    H214161   6.252   4.678   4.876  0.7352 -0.0063  0.3662
 4733TIP3   OH214162   4.984   2.178   4.162 -0.0138 -0.8203  0.9500
 4733TIP3    H114163   5.054   2.209   4.218 -0.4595  2.0831  0.0493
 4733TIP3    H214164   5.028   2.125   4.095  1.3114  0.6187  0.6265
 4734TIP3   OH214165   5.094   0.056   4.149  0.0413  0.0534  0.1695
 4734TIP3    H114166   5.004   0.061   4.117  0.8324  0.0394 -2.2791
 4734TIP3    H214167   5.141   0.008   4.081  1.9089  0.0056  1.4152
 4735TIP3   OH214168   0.849   5.785   0.701 -0.5937 -0.5856 -0.2140
 4735TIP3    H114169   0.775   5.761   0.646 -1.1070  2.2385 -0.9482
 4735TIP3    H214170   0.926   5.752   0.655 -1.1888 -0.5517 -1.2550
 4736TIP3   OH214171   4.661   2.540   1.926  0.5145 -0.3488  0.0368
 4736TIP3    H114172   4.700   2.606   1.983 -3.0476  0.3100  2.0233
 4736TIP3    H214173   4.666   2.459   1.977 -0.3495 -0.3087  0.2038
 4737TIP3   OH214174   2.241   6.329   1.520 -0.2907 -0.2138  0.1512
 4737TIP3    H114175   2.325   6.291   1.546 -0.4312  0.5126  1.7623
 4737TIP3    H214176   2.264   6.395   1.455  0.1836 -1.3159 -0.8429
 4738TIP3   OH214177   2.271   5.675   1.740  0.0625  0.5079  0.1675
 4738TIP3    H114178   2.218   5.718   1.807 -0.1270 -0.1993  0.4881
 4738TIP3    H214179   2.269   5.734   1.665 -0.2131  1.0315  0.5827
 4739TIP3   OH214180   5.635   4.016   0.561  0.4151  0.1496 -0.7444
 4739TIP3    H114181   5.624   4.102   0.520 -2.9591  1.3323  2.1183
 4739TIP3    H214182   5.551   3.973   0.548  0.8019 -1.2161  0.9341
 4740TIP3   OH214183   7.182   5.846   0.240  0.1447  0.2868 -0.8097
 4740TIP3    H114184   7.173   5.762   0.196  1.1759 -0.5932  0.5647
 4740TIP3    H214185   7.197   5.909   0.169 -0.8461 -0.6351 -1.8664
 4741TIP3   OH214186   2.347   4.489   2.396  0.2384 -0.1576  0.2273
 4741TIP3    H114187   2.323   4.559   2.457 -1.1727 -0.6461  0.2790
 4741TIP3    H214188   2.326   4.524   2.309  1.8141  0.3654  0.0322
 4742TIP3   OH214189   5.725   1.869   2.983  0.1643  0.3216  0.0330
 4742TIP3    H114190   5.718   1.911   3.068  0.0506  0.1757  0.0966
 4742TIP3    H214191   5.750   1.939   2.922 -0.2269  0.5161  0.0985
 4743TIP3   OH214192   3.165   6.254   3.081 -0.5134 -0.0332 -0.3944
 4743TIP3    H114193   3.101   6.200   3.034 -0.9224  0.0910  0.0115
 4743TIP3    H214194   3.117   6.334   3.102 -0.5882 -0.4011  0.9220
 4744TIP3   OH214195   5.068   5.524   4.308  0.8996  0.3229 -0.0476
 4744TIP3    H114196   5.068   5.497   4.216 -0.2223  2.2190 -0.6517
 4744TIP3    H214197   4.988   5.487   4.345 -0.0349  1.7993 -0.5634
 4745TIP3   OH214198   6.832   4.684   4.754  0.2792  0.3675 -0.1148
 4745TIP3    H114199   6.877   4.643   4.680  1.8502  0.9857  0.4513
 4745TIP3    H214200   6.849   4.625   4.828  0.2899  0.6847  0.1367
 4746TIP3   OH214201   6.163   0.641   1.708 -0.0141  0.5357 -0.3004
 4746TIP3    H114202   6.137   0.687   1.787 -0.3839 -1.4730  0.8061
 4746TIP3    H214203   6.201   0.709   1.652 -2.0207  2.4676  0.5334
 4747TIP3   OH214204   0.353   2.182   0.778 -0.4570  0.2893  0.1541
 4747TIP3    H114205   0.295   2.256   0.790  0.9392  1.2721  1.1315
 4747TIP3    H214206   0.415   2.187   0.851  1.0755 -0.4885 -1.0088
 4748TIP3   OH214207   6.774   1.296   4.685 -0.8141  0.1525 -0.3094
 4748TIP3    H114208   6.679   1.305   4.698 -1.3317 -1.2231 -2.5999
 4748TIP3    H214209   6.791   1.203   4.695  0.2503  0.3344 -0.3159
 4749TIP3   OH214210   3.106   1.507   2.279 -0.1522 -0.6407  0.1924
 4749TIP3    H114211   3.166   1.486   2.351 -0.7064  0.3350  0.9647
 4749TIP3    H214212   3.164   1.520   2.203  0.5536 -0.4454  0.7491
 4750TIP3   OH214213   0.460   3.552   1.764  0.3320  0.2212  0.1217
 4750TIP3    H114214   0.465   3.475   1.708 -0.1996 -1.4885  2.2692
 4750TIP3    H214215   0.526   3.536   1.832 -0.4461  1.1791  1.1441
 4751TIP3   OH214216   1.533   3.612   4.366  0.1814 -0.5413 -0.1165
 4751TIP3    H114217   1.576   3.635   4.283 -0.8504 -1.2178 -0.8576
 4751TIP3    H214218   1.605   3.580   4.422  0.8216 -0.5384 -0.9193
 4752TIP3   OH214219   3.957   2.511   3.423 -0.8887 -0.0258  0.1265
 4752TIP3    H114220   3.978   2.419   3.443  1.4159  0.7786  1.8243
 4752TIP3    H214221   3.950   2.553   3.509 -0.1502  1.7157 -0.6266
 4753TIP3   OH214222   4.018   2.871   3.602  0.0455  0.1970  0.1737
 4753TIP3    H114223   3.949   2.829   3.653 -1.5014  0.6611 -1.4539
 4753TIP3    H214224   4.083   2.801   3.589 -0.5540 -0.5226  0.9410
 4754TIP3   OH214225   3.143   4.402   2.919  0.7286  0.0869  0.5350
 4754TIP3    H114226   3.159   4.423   3.011  1.1634 -0.2983  0.5516
 4754TIP3    H214227   3.230   4.407   2.878  0.4216  1.0405 -0.0193
 4755TIP3   OH214228   5.947   1.151   5.796  0.3197 -0.6369  0.5662
 4755TIP3    H114229   5.892   1.076   5.772  2.3865 -2.5553  1.5061
 4755TIP3    H214230   5.974   1.133   5.886 -0.1874  1.9827  1.3313
 4756TIP3   OH214231   3.609   1.251   4.212  0.5096 -0.2285 -0.1259
 4756TIP3    H114232   3.615   1.262   4.118 -2.9656 -2.5095 -0.7921
 4756TIP3    H214233   3.555   1.325   4.241  0.6788 -0.1122 -0.1100
 4757TIP3   OH214234   2.551   0.985   3.102 -0.3736  0.3858 -0.0732
 4757TIP3    H114235   2.637   0.944   3.106 -1.3433 -2.4004 -3.2423
 4757TIP3    H214236   2.562   1.058   3.040  0.0275  1.2236  0.9461
 4758TIP3   OH214237   6.538   5.909   1.325 -0.5998 -0.2994 -1.0351
 4758TIP3    H114238   6.464   5.858   1.292  1.1476 -2.9276 -1.2323
 4758TIP3    H214239   6.522   5.916   1.419 -2.0465  0.9503 -1.3373
 4759TIP3   OH214240   4.171   0.374   5.804 -0.1605 -0.6091  0.0129
 4759TIP3    H114241   4.163   0.447   5.742 -1.3577 -0.1706  0.6522
 4759TIP3    H214242   4.082   0.359   5.835  0.0736 -2.2975 -0.0334
 4760TIP3   OH214243   5.000   3.050   1.465  0.1056  0.2126  0.7149
 4760TIP3    H114244   4.955   3.002   1.535 -0.8988  1.6426  1.0849
 4760TIP3    H214245   5.088   3.010   1.462 -0.9238 -2.2285  0.3854
 4761TIP3   OH214246   0.840   4.215   4.326  0.4601 -0.6588 -0.2607
 4761TIP3    H114247   0.759   4.166   4.342 -0.0218 -0.5154 -2.0204
 4761TIP3    H214248   0.818   4.306   4.344 -0.1816 -0.4491 -1.9671
 4762TIP3   OH214249   0.908   1.943   2.903  0.4243 -0.5405  0.0401
 4762TIP3    H114250   0.816   1.955   2.881  0.4967 -2.3384 -1.4550
 4762TIP3    H214251   0.910   1.869   2.964  0.8273  0.1173  0.8567
 4763TIP3   OH214252   5.351   0.769   4.549 -0.2208 -0.3226 -0.1671
 4763TIP3    H114253   5.273   0.716   4.568  0.4372 -1.4917 -0.6529
 4763TIP3    H214254   5.316   0.845   4.502 -1.0980 -0.7371 -0.2145
 4764TIP3   OH214255   3.021   3.852   5.435 -0.3557 -0.0051 -0.1299
 4764TIP3    H114256   2.956   3.838   5.366 -1.5350 -1.5266  1.2261
 4764TIP3    H214257   2.971   3.851   5.516  1.1080  0.8985  0.8371
 4765TIP3   OH214258   0.294   1.982   4.473 -0.4691  0.1804 -0.0485
 4765TIP3    H114259   0.233   2.044   4.433 -2.0162 -1.5982 -0.6477
 4765TIP3    H214260   0.257   1.896   4.452  1.2396 -0.9432  1.2487
 4766TIP3   OH214261   1.135   4.754   3.557  0.2684  0.2888  0.0601
 4766TIP3    H114262   1.092   4.760   3.472 -0.9134  2.1299  0.7235
 4766TIP3    H214263   1.177   4.839   3.569  0.5319  0.0061  1.2643
 4767TIP3   OH214264   3.659   0.794   0.264 -0.2514  0.3451  0.1170
 4767TIP3    H114265   3.696   0.878   0.292  0.5329  1.0368 -2.6809
 4767TIP3    H214266   3.565   0.811   0.254 -0.2534  0.5936  0.5589
 4768TIP3   OH214267   4.418   4.074   0.039 -0.4479 -0.2298  0.9239
 4768TIP3    H114268   4.413   4.063  -0.056  1.6945 -1.6847  0.9062
 4768TIP3    H214269   4.327   4.079   0.067 -1.1706 -0.9304 -1.0947
 4769TIP3   OH214270   7.225   2.954   2.911 -0.6907  0.3255 -0.5957
 4769TIP3    H114271   7.266   3.001   2.838 -2.3758  1.9464 -0.5838
 4769TIP3    H214272   7.138   2.932   2.879 -0.7031 -0.8560  0.2065
 4770TIP3   OH214273   6.879   0.524   0.672 -0.0672 -0.5359  0.2920
 4770TIP3    H114274   6.892   0.618   0.684  0.6377 -0.5642 -0.2053
 4770TIP3    H214275   6.927   0.483   0.744 -0.4088 -0.5197  0.5329
 4771TIP3   OH214276   0.977   1.140   3.600 -0.6433 -0.7186 -0.0157
 4771TIP3    H114277   1.034   1.063   3.602  0.1141 -0.1968  2.4084
 4771TIP3    H214278   0.910   1.119   3.535  2.1295 -1.4492 -2.8887
 4772TIP3   OH214279   6.193   0.958   4.774 -0.1030  0.1849 -0.4933
 4772TIP3    H114280   6.178   0.902   4.698 -0.2630 -1.2752  0.5680
 4772TIP3    H214281   6.110   0.955   4.822  0.1249  0.7594 -0.0646
 4773TIP3   OH214282   5.455   4.425   3.836 -0.1670 -0.1953 -0.0036
 4773TIP3    H114283   5.449   4.510   3.879 -0.4237  0.6734 -1.6884
 4773TIP3    H214284   5.548   4.408   3.828 -0.1166 -0.2647  0.6757
 4774TIP3   OH214285   5.897   2.744   2.871 -0.6786  0.0560  0.5544
 4774TIP3    H114286   5.946   2.823   2.848  2.1174 -1.6407  0.2199
 4774TIP3    H214287   5.922   2.725   2.962 -1.0165 -0.6440  0.5102
 4775TIP3   OH214288   2.297   0.405   1.634 -0.1309  0.2301  0.4359
 4775TIP3    H114289   2.380   0.386   1.676  0.5282 -1.6354 -1.5127
 4775TIP3    H214290   2.294   0.500   1.628  2.1856  0.3172 -0.0300
 4776TIP3   OH214291   5.724   6.257   2.127 -0.5702 -0.0928  0.0986
 4776TIP3    H114292   5.802   6.268   2.072 -1.3343 -0.5696 -1.1276
 4776TIP3    H214293   5.717   6.340   2.175  0.0956  0.3727 -0.5763
 4777TIP3   OH214294   1.549   1.932   5.480  0.1018 -0.0959 -0.1621
 4777TIP3    H114295   1.518   1.918   5.390 -1.9262 -0.6938  0.5573
 4777TIP3    H214296   1.470   1.919   5.533  1.2662  0.2519  1.7013
 4778TIP3   OH214297   6.135   2.599   1.033 -0.9069 -0.0325  0.1722
 4778TIP3    H114298   6.158   2.515   0.993  0.0717  0.1178  0.4018
 4778TIP3    H214299   6.219   2.643   1.047 -1.4338  1.3195 -0.6621
 4779TIP3   OH214300   2.491   6.727   5.443 -0.5310  0.3368  0.0932
 4779TIP3    H114301   2.451   6.662   5.500 -0.2865 -0.2283 -0.3770
 4779TIP3    H214302   2.583   6.703   5.439 -0.3047  1.0933  0.4265
 4780TIP3   OH214303   5.327   5.764   2.035  0.0297  0.8164  0.0500
 4780TIP3    H114304   5.284   5.679   2.048  0.9430  0.6185  2.2282
 4780TIP3    H214305   5.255   5.825   2.020 -0.7382 -0.1184 -0.1672
 4781TIP3   OH214306   3.776   2.370   4.607 -0.3193  0.4123  0.6517
 4781TIP3    H114307   3.862   2.351   4.570 -1.4429  0.0276 -2.0032
 4781TIP3    H214308   3.734   2.285   4.616 -0.7484  0.6618  1.1001
 4782TIP3   OH214309   4.038   0.916   1.572 -0.3894 -0.3744  0.3140
 4782TIP3    H114310   4.019   0.836   1.621  0.4534 -1.0228 -0.3857
 4782TIP3    H214311   4.133   0.916   1.563 -0.4859  0.0301 -0.8288
 4783TIP3   OH214312   0.775   0.677   2.440  0.3337  0.1571  0.3139
 4783TIP3    H114313   0.713   0.674   2.512 -1.4688  1.4834 -1.0742
 4783TIP3    H214314   0.742   0.611   2.378 -0.1331  1.3319 -0.7242
 4784TIP3   OH214315   5.147   6.283   2.527  0.2769  0.5485  0.1884
 4784TIP3    H114316   5.098   6.203   2.546  0.6033  0.0261 -1.0284
 4784TIP3    H214317   5.084   6.354   2.540 -0.3192  0.0151  0.2534
 4785TIP3   OH214318   4.179   2.611   4.414  0.2917 -0.0694  0.3499
 4785TIP3    H114319   4.147   2.701   4.416 -0.5119 -0.3672  2.0043
 4785TIP3    H214320   4.229   2.601   4.495  2.3726 -0.4508 -0.8805
 4786TIP3   OH214321   6.376   0.775   5.060 -0.4908  0.2621 -0.0316
 4786TIP3    H114322   6.405   0.767   4.969 -1.1225  0.9278 -0.2999
 4786TIP3    H214323   6.457   0.783   5.110 -0.1241  3.1320 -0.8670
 4787TIP3   OH214324   5.182   0.725   3.350 -0.2229  0.0111 -0.3301
 4787TIP3    H114325   5.105   0.775   3.378 -0.1497 -0.1544  0.1809
 4787TIP3    H214326   5.251   0.752   3.411 -0.1384 -0.5905 -0.1547
 4788TIP3   OH214327   0.359   5.074   0.103  0.0975 -0.4694 -0.5839
 4788TIP3    H114328   0.296   5.118   0.161 -0.3060  0.3108 -1.6002
 4788TIP3    H214329   0.442   5.078   0.150 -0.3288 -0.2984  0.1694
 4789TIP3   OH214330   5.496   6.119   2.754 -0.3484 -0.3976  0.4541
 4789TIP3    H114331   5.465   6.138   2.666 -0.1868 -0.7500  0.3211
 4789TIP3    H214332   5.553   6.043   2.744 -1.7186 -1.5479  1.1147
 4790TIP3   OH214333   0.272   4.513   5.139 -0.0486  0.0168  0.2649
 4790TIP3    H114334   0.213   4.469   5.200  1.2019  1.1095  2.3814
 4790TIP3    H214335   0.235   4.601   5.129  0.6194  0.3563  0.7432
 4791TIP3   OH214336   2.196   0.263   3.696 -0.3317 -0.4684  0.3785
 4791TIP3    H114337   2.248   0.344   3.692  0.3413 -0.8462  1.1246
 4791TIP3    H214338   2.138   0.276   3.771 -0.4456 -0.5544  0.3055
 4792TIP3   OH214339   0.929   0.941   4.942 -0.4809 -0.3220 -0.1430
 4792TIP3    H114340   0.905   0.849   4.949 -0.4905 -0.4135 -1.1715
 4792TIP3    H214341   0.848   0.985   4.914 -1.0479  0.3509  2.3289
 4793TIP3   OH214342   6.065   4.881   5.754  0.2492  0.2555  0.1320
 4793TIP3    H114343   6.144   4.898   5.805 -0.9522  0.1209  2.1910
 4793TIP3    H214344   6.052   4.786   5.760 -1.2983  0.5107  1.9181
 4794TIP3   OH214345   0.664   1.743   4.299  0.6441  0.3681  0.5796
 4794TIP3    H114346   0.701   1.680   4.238  2.4129 -0.4515  2.3892
 4794TIP3    H214347   0.597   1.695   4.348  0.7989  0.3725  0.7996
 4795TIP3   OH214348   1.456   2.887   4.118 -0.2575 -0.4818  0.4958
 4795TIP3    H114349   1.419   2.916   4.035  0.7920 -0.5775 -0.0141
 4795TIP3    H214350   1.546   2.862   4.097 -0.5914 -2.4828  1.2518
 4796TIP3   OH214351   7.038   6.248   4.811  0.2204 -0.0797 -0.1904
 4796TIP3    H114352   6.992   6.212   4.887 -0.7457 -0.2848 -0.8576
 4796TIP3    H214353   6.982   6.319   4.779  0.7553  0.1950 -0.5489
 4797TIP3   OH214354   5.301   2.680   4.705 -0.1650 -0.4226  0.5658
 4797TIP3    H114355   5.208   2.657   4.705 -0.7030  1.5685  0.5734
 4797TIP3    H214356   5.307   2.754   4.644  1.1118  0.5800  1.8556
 4798TIP3   OH214357   5.025   6.282   1.371  0.0561  0.3827  0.2075
 4798TIP3    H114358   5.023   6.293   1.276  2.9308 -0.0322  0.0265
 4798TIP3    H214359   5.026   6.187   1.384 -0.6061  0.4332  0.7005
 4799TIP3   OH214360   5.088   0.926   1.967  0.3839 -0.0074 -0.2828
 4799TIP3    H114361   5.140   0.966   2.037  0.3559  0.2168 -0.3911
 4799TIP3    H214362   5.058   0.999   1.914  1.8782 -0.2788 -1.5712
 4800TIP3   OH214363   3.617   1.078   0.341 -0.0121  0.1456 -0.2064
 4800TIP3    H114364   3.627   1.107   0.431  1.5872 -0.4612 -0.1603
 4800TIP3    H214365   3.534   1.030   0.340 -0.2207  0.4691  0.8350
 4801TIP3   OH214366   1.180   6.108   4.584 -0.5534  0.2028  0.1812
 4801TIP3    H114367   1.252   6.080   4.642 -0.7222 -2.4674 -0.7589
 4801TIP3    H214368   1.164   6.199   4.609  1.2696  0.0368  2.3546
 4802TIP3   OH214369   4.883   0.557   4.968 -0.1504  0.2041 -0.0985
 4802TIP3    H114370   4.944   0.622   4.933  0.4000  0.2970  0.9920
 4802TIP3    H214371   4.916   0.538   5.056 -1.2112 -0.3758  0.1914
 4803TIP3   OH214372   2.957   0.486   0.190 -0.0437 -0.2045 -0.6084
 4803TIP3    H114373   2.975   0.399   0.226  1.3689  0.3913  0.2242
 4803TIP3    H214374   2.877   0.514   0.235  0.3847 -0.4358  0.3189
 4804TIP3   OH214375   3.482   2.043   4.051 -0.0565 -0.0442  0.0741
 4804TIP3    H114376   3.482   2.039   4.146 -1.0241  0.2140  0.0889
 4804TIP3    H214377   3.431   1.968   4.023  1.7433 -1.1890 -0.3208
 4805TIP3   OH214378   4.731   1.538   5.476  0.0766 -0.2008 -0.2659
 4805TIP3    H114379   4.795   1.609   5.475 -0.1685  0.0274 -1.3122
 4805TIP3    H214380   4.701   1.532   5.386  0.2298 -1.7685 -0.2452
 4806TIP3   OH214381   0.252   5.054   3.143  0.2390 -0.3837  0.5160
 4806TIP3    H114382   0.328   5.044   3.199  0.1060 -2.0788  0.4263
 4806TIP3    H214383   0.210   4.968   3.143 -0.1749 -0.2339 -1.5776
 4807TIP3   OH214384   3.746   1.866   3.436  0.3618  0.0354 -0.5151
 4807TIP3    H114385   3.747   1.819   3.353 -0.6170 -1.9970  0.5431
 4807TIP3    H214386   3.696   1.945   3.419 -1.5896 -1.3250 -1.4224
 4808TIP3   OH214387   5.545   1.665   1.906  0.2983  0.4755 -0.5787
 4808TIP3    H114388   5.489   1.698   1.836 -1.2199 -2.1141 -0.7188
 4808TIP3    H214389   5.506   1.700   1.986  1.1200  2.1883 -0.8839
 4809TIP3   OH214390   0.654   5.233   4.722 -0.6425 -0.0861 -0.6062
 4809TIP3    H114391   0.709   5.215   4.797 -1.1186  0.5191 -0.1061
 4809TIP3    H214392   0.592   5.159   4.719 -0.2059 -0.4475 -0.8041
 4810TIP3   OH214393   0.308   5.360   5.709  0.9524 -0.0050 -0.0939
 4810TIP3    H114394   0.261   5.425   5.762  0.3437  1.1371 -1.9687
 4810TIP3    H214395   0.395   5.358   5.748  0.9526  1.8405  0.1273
 4811TIP3   OH214396   3.905   2.812   4.085  0.0403 -0.0025 -0.0877
 4811TIP3    H114397   3.895   2.718   4.068 -0.1082  0.0999 -0.5848
 4811TIP3    H214398   3.893   2.853   3.999 -1.1251  0.5644  0.3263
 4812TIP3   OH214399   4.172   6.763   0.095 -0.1126  0.0420  0.1054
 4812TIP3    H114400   4.195   6.691   0.155  0.5812  0.6703  0.6114
 4812TIP3    H214401   4.136   6.719   0.018 -0.3625 -0.8188  0.6907
 4813TIP3   OH214402   7.123   6.018   5.186  0.1374  0.0391  0.1839
 4813TIP3    H114403   7.107   6.080   5.258  0.2895  0.2072  0.0721
 4813TIP3    H214404   7.104   5.932   5.224 -0.7890  0.2080  0.1383
 4814TIP3   OH214405   2.440   1.969   1.920  0.4172  0.0580 -0.9889
 4814TIP3    H114406   2.442   2.051   1.969 -0.9170  0.1739 -1.0873
 4814TIP3    H214407   2.432   1.901   1.987 -0.8862  0.1829 -0.9940
 4815TIP3   OH214408   5.182   3.800   3.327 -0.0705 -0.0246 -0.1596
 4815TIP3    H114409   5.194   3.726   3.386 -0.1403 -0.3088 -0.4976
 4815TIP3    H214410   5.114   3.772   3.266 -0.9712  0.7854  0.4517
 4816TIP3   OH214411   4.184   1.897   0.922  0.4468 -0.0394  0.2153
 4816TIP3    H114412   4.158   1.987   0.940 -0.4973 -0.4795  1.1970
 4816TIP3    H214413   4.216   1.864   1.006  0.4207 -0.7392 -0.0419
 4817TIP3   OH214414   3.900   3.413   1.948  0.6225 -0.1554 -0.0616
 4817TIP3    H114415   3.828   3.430   1.887  1.6322  1.2542 -0.9132
 4817TIP3    H214416   3.865   3.436   2.034 -0.1688 -0.1760 -0.3719
 4818TIP3   OH214417   5.169   3.275   5.645  0.5092 -0.8527  0.1226
 4818TIP3    H114418   5.259   3.273   5.614  0.8817  0.7178  1.0020
 4818TIP3    H214419   5.145   3.183   5.657  1.8167 -1.3019 -0.6045
 4819TIP3   OH214420   6.964   4.641   0.621  0.4098  0.4226  0.6196
 4819TIP3    H114421   6.918   4.594   0.691  2.1056 -0.9668  0.8637
 4819TIP3    H214422   6.964   4.733   0.650 -1.5971  0.3973  0.8922
 4820TIP3   OH214423   5.188   3.451   1.340 -0.3937 -0.3160  0.8396
 4820TIP3    H114424   5.220   3.385   1.401  1.7909 -0.5571 -0.4624
 4820TIP3    H214425   5.254   3.520   1.342 -0.3640 -0.2381 -1.0493
 4821TIP3   OH214426   2.337   6.495   3.537 -0.1530 -0.3558  0.3384
 4821TIP3    H114427   2.268   6.560   3.524  0.6765  0.4804 -0.0003
 4821TIP3    H214428   2.329   6.436   3.462 -1.1703 -0.9179  0.8572
 4822TIP3   OH214429   3.186   2.750   5.718 -0.0472  0.4176 -0.1910
 4822TIP3    H114430   3.192   2.805   5.796 -1.2200 -0.0142  0.2180
 4822TIP3    H214431   3.195   2.661   5.752 -0.5121  0.2337 -0.5485
 4823TIP3   OH214432   4.011   6.156   2.229  0.1563 -0.4766  0.1833
 4823TIP3    H114433   4.009   6.234   2.285  0.0914 -0.8597  0.7172
 4823TIP3    H214434   4.056   6.185   2.149 -1.0586  0.4702 -0.1813
 4824TIP3   OH214435   4.342   0.284   2.094 -0.5175 -0.4164  0.4990
 4824TIP3    H114436   4.365   0.287   2.187  1.4385  1.2310  0.0384
 4824TIP3    H214437   4.260   0.331   2.088  0.1182  0.8428  1.2302
 4825TIP3   OH214438   4.290   3.033   4.669  0.3940  0.1237 -0.3950
 4825TIP3    H114439   4.316   3.105   4.727  1.1586 -0.1572 -0.3733
 4825TIP3    H214440   4.231   3.074   4.606 -1.3027  0.2135  1.1892
 4826TIP3   OH214441   3.019   1.960   5.108  0.1426 -0.2456 -0.1786
 4826TIP3    H114442   3.075   1.972   5.184  0.1315  1.3845 -0.3730
 4826TIP3    H214443   2.954   1.896   5.135  0.8671 -0.6076  0.7524
 4827TIP3   OH214444   0.202   2.429   0.739  0.3123  0.0635 -0.6286
 4827TIP3    H114445   0.200   2.430   0.643 -3.3508  0.5318 -0.6955
 4827TIP3    H214446   0.213   2.521   0.764  1.8828 -0.1214 -0.5107
 4828TIP3   OH214447   1.569   5.303   1.055  0.3716 -0.7578  0.0221
 4828TIP3    H114448   1.623   5.380   1.036 -0.7563  0.4233  1.4315
 4828TIP3    H214449   1.501   5.304   0.987 -1.1066  0.9837  1.4260
 4829TIP3   OH214450   5.607   2.776   2.642  0.2024 -0.1098  0.3805
 4829TIP3    H114451   5.658   2.704   2.679 -1.5853 -1.1749  0.8965
 4829TIP3    H214452   5.591   2.834   2.716  2.2599  1.2921 -0.1752
 4830TIP3   OH214453   0.262   3.724   5.071 -0.3954  0.1607 -0.3583
 4830TIP3    H114454   0.233   3.804   5.027  0.8225  0.7172 -0.2006
 4830TIP3    H214455   0.206   3.718   5.148 -0.0714  1.2270 -0.0241
 4831TIP3   OH214456   1.659   6.115   3.072  0.3984  0.1813  0.4225
 4831TIP3    H114457   1.648   6.045   3.136  1.3501  0.3689  0.8096
 4831TIP3    H214458   1.693   6.072   2.994 -0.2214  0.0357  0.2270
 4832TIP3   OH214459   6.294   1.338   5.442  0.1482  0.4847 -0.6759
 4832TIP3    H114460   6.225   1.362   5.504 -1.1584 -0.5350 -1.6716
 4832TIP3    H214461   6.303   1.243   5.452  0.6435  0.4581 -1.3203
 4833TIP3   OH214462   1.989   5.336   2.940  0.2298 -0.0989  0.4580
 4833TIP3    H114463   1.950   5.423   2.943 -0.4368 -0.3828  3.6433
 4833TIP3    H214464   1.944   5.292   2.868 -2.0786  1.0642  1.0946
 4834TIP3   OH214465   5.215   0.482   5.758 -0.3552  0.2915 -0.1577
 4834TIP3    H114466   5.196   0.390   5.742 -1.2203  0.0565  1.8859
 4834TIP3    H214467   5.166   0.529   5.689 -2.1052 -0.6796  0.3537
 4835TIP3   OH214468   7.078   0.977   4.520  0.1577  0.1839  0.1333
 4835TIP3    H114469   7.039   1.059   4.491 -0.6362  0.5512  2.0849
 4835TIP3    H214470   7.140   1.003   4.588  0.2974 -0.7902  0.3903
 4836TIP3   OH214471   2.801   2.586   3.562 -0.5903  0.3350 -0.3861
 4836TIP3    H114472   2.738   2.623   3.624  0.2214  1.3726 -0.1509
 4836TIP3    H214473   2.868   2.547   3.617 -0.7656 -0.3292 -0.6353
 4837TIP3   OH214474   0.252   6.509   1.746 -0.6074  0.2213  0.2441
 4837TIP3    H114475   0.233   6.422   1.712 -1.3343 -0.3091  1.8674
 4837TIP3    H214476   0.346   6.521   1.732 -0.4030 -1.0242  0.4246
 4838TIP3   OH214477   0.298   6.306   4.977  0.0152  0.2412  0.6574
 4838TIP3    H114478   0.351   6.302   5.057 -0.8817  0.1229  1.2512
 4838TIP3    H214479   0.208   6.296   5.007 -0.2232 -1.6076 -0.5354
 4839TIP3   OH214480   1.349   1.668   3.516 -0.1586 -0.2201 -0.8788
 4839TIP3    H114481   1.323   1.586   3.557  0.1440 -0.5567 -1.3482
 4839TIP3    H214482   1.434   1.689   3.555 -0.3885  0.0511 -0.5135
 4840TIP3   OH214483   5.037   5.410   1.737  0.2279 -0.0875 -0.2117
 4840TIP3    H114484   5.127   5.390   1.760  0.3715  0.0197 -0.6688
 4840TIP3    H214485   5.003   5.329   1.697 -0.0438 -0.2991  0.4388
 4841TIP3   OH214486   6.459   4.566   1.582  0.1512  0.1678  0.0396
 4841TIP3    H114487   6.536   4.568   1.639  1.2604 -1.6834 -1.2513
 4841TIP3    H214488   6.496   4.569   1.493 -1.3309  0.1473 -0.6004
 4842TIP3   OH214489   4.647   4.590   4.314  0.5381 -0.2763 -0.3936
 4842TIP3    H114490   4.620   4.499   4.299  0.2283 -0.5601  1.6234
 4842TIP3    H214491   4.600   4.617   4.392  0.1326  1.8800 -1.3045
 4843TIP3   OH214492   5.057   6.526   2.622  0.1019 -0.1937 -0.1943
 4843TIP3    H114493   5.104   6.459   2.670 -0.0753 -0.5150 -0.4660
 4843TIP3    H214494   5.118   6.599   2.614  0.9833 -1.0301 -1.5516
 4844TIP3   OH214495   5.947   2.578   5.078  0.0135 -0.3907  0.2803
 4844TIP3    H114496   6.021   2.528   5.110  0.2710 -0.4519 -0.3987
 4844TIP3    H214497   5.984   2.662   5.050  0.1422 -1.0810 -1.7528
 4845TIP3   OH214498   4.635   2.319   4.381 -0.0730 -0.3640  0.4501
 4845TIP3    H114499   4.614   2.226   4.396 -0.4626 -0.4446 -0.5238
 4845TIP3    H214500   4.697   2.317   4.307  1.0163  0.0734  1.3193
 4846TIP3   OH214501   6.256   6.566   3.442  0.2893 -1.0968  1.0575
 4846TIP3    H114502   6.253   6.636   3.377 -1.9500 -0.1909  2.0306
 4846TIP3    H214503   6.344   6.573   3.481  0.8189 -0.1560 -0.2332
 4847TIP3   OH214504   6.019   2.506   2.150  0.7149  0.2431  0.6339
 4847TIP3    H114505   6.010   2.550   2.065 -0.7646 -0.7213  0.2504
 4847TIP3    H214506   5.931   2.507   2.187  0.7602 -1.7397  0.9112
 4848TIP3   OH214507   1.335   3.040   1.594  0.3966 -0.2126 -0.6129
 4848TIP3    H114508   1.340   3.126   1.552  1.2466  0.5196  0.8748
 4848TIP3    H214509   1.371   2.979   1.531 -1.6178  0.2346 -2.3188
 4849TIP3   OH214510   0.531   1.756   3.573  0.3445  0.3116 -0.6409
 4849TIP3    H114511   0.567   1.684   3.521 -0.4027 -0.1891 -0.4825
 4849TIP3    H214512   0.438   1.736   3.581 -0.2353  2.1797 -2.0293
 4850TIP3   OH214513   1.756   4.307   4.442  0.2843  0.0582 -0.5315
 4850TIP3    H114514   1.758   4.402   4.449  3.2030  0.1761 -1.7114
 4850TIP3    H214515   1.750   4.289   4.348 -0.2178 -0.9412 -0.3306
 4851TIP3   OH214516   4.064   5.246   2.110  0.1686  0.3197 -0.7484
 4851TIP3    H114517   4.008   5.191   2.165  0.1328 -0.2522 -1.3488
 4851TIP3    H214518   4.004   5.311   2.072  0.4425  1.7203  1.0997
 4852TIP3   OH214519   0.110   6.471   4.730 -0.1215  0.6006 -0.4560
 4852TIP3    H114520   0.145   6.541   4.675  0.6055 -1.2334 -2.4923
 4852TIP3    H214521   0.172   6.399   4.720 -1.7049 -0.9460  0.1766
 4853TIP3   OH214522   2.677   4.372   3.817 -0.6678 -0.7539 -0.2132
 4853TIP3    H114523   2.731   4.324   3.754 -1.3224 -0.1544 -1.2636
 4853TIP3    H214524   2.652   4.452   3.770 -2.9817 -1.3051  0.0079
 4854TIP3   OH214525   0.193   0.607   1.771  0.6892  0.7467  0.0799
 4854TIP3    H114526   0.097   0.604   1.770  0.6607  1.4697 -0.0520
 4854TIP3    H214527   0.220   0.532   1.718  0.2420 -0.7099  1.8050
 4855TIP3   OH214528   6.623   5.264   2.055 -0.1595  0.5989 -0.2504
 4855TIP3    H114529   6.645   5.182   2.099 -0.8080 -0.4704 -1.8241
 4855TIP3    H214530   6.544   5.243   2.004 -0.4490  2.2565 -0.5270
 4856TIP3   OH214531   6.830   0.929   2.541  0.1604 -0.4129 -0.1354
 4856TIP3    H114532   6.922   0.921   2.567  0.5448 -1.7834 -1.7134
 4856TIP3    H214533   6.783   0.945   2.623  1.7688  0.0770  0.7344
 4857TIP3   OH214534   3.535   4.604   0.340 -0.1008  0.0283  0.0027
 4857TIP3    H114535   3.590   4.611   0.262 -2.0888 -1.5070 -1.6605
 4857TIP3    H214536   3.495   4.690   0.349  0.3140  0.2871 -0.5458
 4858TIP3   OH214537   3.488   2.328   3.286  0.3388 -0.6059 -0.0891
 4858TIP3    H114538   3.495   2.423   3.296  0.3084 -0.5112 -0.9054
 4858TIP3    H214539   3.437   2.316   3.206 -1.3913 -1.2980  1.0340
 4859TIP3   OH214540   1.964   4.657   0.900 -0.8356 -0.6608  0.3265
 4859TIP3    H114541   1.894   4.720   0.915  1.3393  2.8311 -2.4780
 4859TIP3    H214542   1.933   4.604   0.826 -0.9151  0.3037 -0.3536
 4860TIP3   OH214543   5.416   6.538   1.293 -0.4226  0.1018  0.1803
 4860TIP3    H114544   5.362   6.472   1.336 -0.3385  0.0489  0.2065
 4860TIP3    H214545   5.355   6.607   1.267 -0.5486 -0.0935 -0.0566
 4861TIP3   OH214546   3.098   2.955   0.179 -0.4249  0.4834 -0.3424
 4861TIP3    H114547   3.070   3.045   0.194  1.4700  1.0645 -0.0227
 4861TIP3    H214548   3.156   2.934   0.252 -0.8467 -1.0209 -0.3898
 4862TIP3   OH214549   1.050   4.264   2.641  0.0345  0.6577  0.4982
 4862TIP3    H114550   1.119   4.258   2.575 -0.0592  0.4873  0.4162
 4862TIP3    H214551   1.097   4.261   2.725  0.0060 -1.4844  0.4992
 4863TIP3   OH214552   1.578   6.322   1.390  0.5273 -0.0878  0.0709
 4863TIP3    H114553   1.595   6.371   1.310  2.6765 -0.4571  0.2336
 4863TIP3    H214554   1.546   6.237   1.360 -0.1178  0.2895 -0.3254
 4864TIP3   OH214555   0.187   2.795   4.373 -0.1014  0.3007 -0.1628
 4864TIP3    H114556   0.162   2.798   4.280  0.4434 -2.5287 -0.4946
 4864TIP3    H214557   0.106   2.773   4.419 -0.3260  1.4984  0.0549
 4865TIP3   OH214558   0.629   4.992   3.557  0.4030 -0.0204  0.2033
 4865TIP3    H114559   0.607   5.006   3.649 -1.7256 -2.0257  0.0994
 4865TIP3    H214560   0.702   4.930   3.559 -0.5550 -1.1974  0.6209
 4866TIP3   OH214561   5.339   6.220   0.703  0.4131  0.4677 -0.2006
 4866TIP3    H114562   5.345   6.147   0.764  1.3809  1.0760  0.4710
 4866TIP3    H214563   5.313   6.180   0.620 -1.1491 -0.3457  0.6428
 4867TIP3   OH214564   3.270   2.886   1.397 -0.2748  0.0959 -0.0925
 4867TIP3    H114565   3.364   2.865   1.394  0.0894  1.5228  0.6611
 4867TIP3    H214566   3.234   2.823   1.459  0.1713 -0.4530 -0.3757
 4868TIP3   OH214567   6.581   4.046   2.355 -0.2427 -0.1975  0.5812
 4868TIP3    H114568   6.534   4.126   2.377 -1.8600 -1.7292  3.1425
 4868TIP3    H214569   6.571   4.037   2.260 -3.4165  0.6469  0.7416
 4869TIP3   OH214570   5.431   0.838   0.658 -0.1528  0.1070  0.6493
 4869TIP3    H114571   5.411   0.905   0.724 -0.0948 -1.6954  2.5991
 4869TIP3    H214572   5.346   0.809   0.626 -0.3024 -0.5411  1.5869
 4870TIP3   OH214573   7.188   6.839   3.227 -0.3892 -0.0739 -0.1471
 4870TIP3    H114574   7.203   6.794   3.144 -0.1964  1.9274 -1.2788
 4870TIP3    H214575   7.167   6.770   3.289  0.3695 -1.7248 -1.6441
 4871TIP3   OH214576   2.802   1.317   5.051  0.0785 -0.1036  0.4326
 4871TIP3    H114577   2.722   1.287   5.093 -0.1019  0.5098  0.5350
 4871TIP3    H214578   2.849   1.237   5.029 -1.3568 -0.5644 -1.2087
 4872TIP3   OH214579   1.885   2.744   3.249 -0.0526 -0.0218  0.1596
 4872TIP3    H114580   1.844   2.759   3.164 -1.0416 -0.6235  0.5153
 4872TIP3    H214581   1.970   2.788   3.243 -0.4246  0.5809 -0.8684
 4873TIP3   OH214582   2.380   0.099   2.882 -0.0061  0.2990 -0.0771
 4873TIP3    H114583   2.388   0.120   2.789  0.2391 -1.1793 -0.4146
 4873TIP3    H214584   2.286   0.104   2.899 -0.0597  0.5191 -0.4189
 4874TIP3   OH214585   2.704   0.736   3.546 -0.0792 -0.0339 -0.1088
 4874TIP3    H114586   2.778   0.689   3.584 -0.5252 -0.4440  0.2627
 4874TIP3    H214587   2.743   0.815   3.508  0.4691  0.0445  0.5930
 4875TIP3   OH214588   2.987   2.494   1.261  0.1333  0.2373  0.3753
 4875TIP3    H114589   2.991   2.477   1.355 -0.3393 -1.2309  0.1580
 4875TIP3    H214590   2.943   2.417   1.224  1.2533  0.2836 -1.1685
 4876TIP3   OH214591   6.818   4.093   1.538 -0.1722  0.1491 -0.8436
 4876TIP3    H114592   6.858   4.179   1.540  1.8093 -0.6746 -2.1386
 4876TIP3    H214593   6.813   4.070   1.445 -0.9185 -1.0156 -0.5449
 4877TIP3   OH214594   6.654   5.736   0.167 -0.8195  0.7842 -0.2937
 4877TIP3    H114595   6.594   5.702   0.101 -0.0143 -0.6168 -0.3391
 4877TIP3    H214596   6.600   5.744   0.246 -0.8085 -1.9300  0.0945
 4878TIP3   OH214597   3.236   1.278   3.386 -0.2878 -0.0334  0.1300
 4878TIP3    H114598   3.202   1.223   3.457 -0.5181  0.5531  0.4767
 4878TIP3    H214599   3.161   1.331   3.358 -1.0634 -2.2922 -2.5906
 4879TIP3   OH214600   2.533   6.309   3.855 -0.0041  0.2753 -0.2983
 4879TIP3    H114601   2.440   6.294   3.837  0.1275 -1.4433  0.2295
 4879TIP3    H214602   2.574   6.223   3.844  1.1984  0.5876  1.3484
 4880TIP3   OH214603   1.554   4.779   1.749 -0.1996 -0.0153  0.2459
 4880TIP3    H114604   1.627   4.764   1.689 -0.5426 -0.3293 -0.1005
 4880TIP3    H214605   1.591   4.764   1.836 -0.3375 -2.2203 -0.0206
 4881TIP3   OH214606   3.611   1.288   1.538  0.0235 -0.0896 -0.7618
 4881TIP3    H114607   3.674   1.360   1.538 -2.5678  2.4803  1.9632
 4881TIP3    H214608   3.638   1.232   1.611 -0.0048  0.1982 -0.5282
 4882TIP3   OH214609   5.151   4.057   5.538  0.1269 -0.0086  0.4935
 4882TIP3    H114610   5.187   3.970   5.525 -0.9361 -0.4646  0.5033
 4882TIP3    H214611   5.161   4.100   5.452 -0.8568 -0.7208  0.0132
 4883TIP3   OH214612   5.534   0.424   1.421  0.3605  0.0329 -0.6457
 4883TIP3    H114613   5.496   0.426   1.333 -0.2849  3.0884 -0.4177
 4883TIP3    H214614   5.627   0.409   1.406 -0.0548 -1.8430 -1.6337
 4884TIP3   OH214615   5.317   0.447   0.549 -0.2623 -0.1152 -0.2248
 4884TIP3    H114616   5.401   0.410   0.523  0.0053  0.1904  0.1835
 4884TIP3    H214617   5.256   0.374   0.546  0.5423 -0.9503  1.9367
 4885TIP3   OH214618   0.062   2.016   3.204 -0.4568  0.3436 -0.4046
 4885TIP3    H114619   0.153   2.044   3.201 -0.3067  0.3492  1.9407
 4885TIP3    H214620   0.067   1.922   3.223 -0.9340  0.3046 -0.4658
 4886TIP3   OH214621   3.478   0.308   0.860 -0.0301 -0.3664  0.0364
 4886TIP3    H114622   3.384   0.302   0.880 -0.3097 -1.9594 -1.5545
 4886TIP3    H214623   3.514   0.223   0.885  0.7301 -0.2555 -0.6531
 4887TIP3   OH214624   2.252   5.414   1.316  0.0814  0.1679 -0.3119
 4887TIP3    H114625   2.278   5.503   1.292  0.9426  0.5122  1.7216
 4887TIP3    H214626   2.255   5.413   1.411 -0.0161 -2.0233 -0.2825
 4888TIP3   OH214627   0.060   4.665   1.712  0.2613 -0.1539  0.1876
 4888TIP3    H114628   0.135   4.714   1.748  0.5919 -0.1976 -0.4279
 4888TIP3    H214629  -0.013   4.689   1.769  0.1715  1.8914 -0.7022
 4889TIP3   OH214630   4.736   2.762   0.647 -0.5869 -0.0032  0.7546
 4889TIP3    H114631   4.785   2.819   0.588 -2.5805  0.5454 -0.4938
 4889TIP3    H214632   4.652   2.806   0.658 -1.1421 -1.3077  2.1045
 4890TIP3   OH214633   5.318   4.211   5.093 -0.1820 -0.0527  0.5369
 4890TIP3    H114634   5.400   4.226   5.046 -0.6484  1.4397  0.1472
 4890TIP3    H214635   5.264   4.161   5.032 -0.3153  0.7753 -0.0405
 4891TIP3   OH214636   2.631   2.579   1.873 -0.3308 -0.0989  0.4021
 4891TIP3    H114637   2.627   2.651   1.810  2.1895 -0.2429 -0.0356
 4891TIP3    H214638   2.615   2.620   1.958  0.4970  0.9238  0.0903
 4892TIP3   OH214639   3.334   5.228   5.855  0.2040  0.5316  0.1001
 4892TIP3    H114640   3.302   5.151   5.901  1.1382  0.8806  1.3899
 4892TIP3    H214641   3.429   5.221   5.859  0.3458  0.1758 -2.5357
 4893TIP3   OH214642   0.540   4.023   0.202  0.2391 -0.1487  0.2994
 4893TIP3    H114643   0.580   4.030   0.289  1.2010  0.4248 -0.1739
 4893TIP3    H214644   0.492   4.105   0.192 -0.4587 -0.5202  0.5698
 4894TIP3   OH214645   3.803   1.425   5.608  0.2474  0.0540  0.0968
 4894TIP3    H114646   3.807   1.512   5.648 -2.0698  0.5801 -0.6743
 4894TIP3    H214647   3.716   1.392   5.630  0.9650 -1.9740  0.1086
 4895TIP3   OH214648   0.913   2.690   1.117  0.6415  0.0766  0.2340
 4895TIP3    H114649   0.936   2.654   1.032 -1.4546  3.3880 -1.9678
 4895TIP3    H214650   0.817   2.687   1.119  0.4674  2.9894  0.9397
 4896TIP3   OH214651   4.187   3.328   2.305  0.2580 -0.6911 -0.2081
 4896TIP3    H114652   4.128   3.296   2.238 -1.1619  2.0245 -0.3921
 4896TIP3    H214653   4.170   3.273   2.381 -2.3704 -0.2113 -0.3537
 4897TIP3   OH214654   6.921   5.998   3.656 -0.5139  0.1725  0.4369
 4897TIP3    H114655   6.899   6.022   3.746 -0.1049  0.3359  0.4982
 4897TIP3    H214656   6.842   6.019   3.606 -0.1706  1.7326  0.4840
 4898TIP3   OH214657   5.673   3.982   1.872 -0.1122  0.5436 -0.8197
 4898TIP3    H114658   5.654   3.932   1.951 -0.0769 -0.7600 -1.5905
 4898TIP3    H214659   5.589   3.988   1.826 -0.1380  1.3039 -0.6724
 4899TIP3   OH214660   3.685   4.842   2.168  0.9991  0.0396 -0.8754
 4899TIP3    H114661   3.670   4.934   2.189  0.1121  0.0348 -1.4097
 4899TIP3    H214662   3.722   4.805   2.248  0.4223  0.6461 -0.3055
 4900TIP3   OH214663   3.760   5.886   3.854 -0.2493 -0.1508  0.0628
 4900TIP3    H114664   3.735   5.970   3.815 -1.4358 -0.0325  1.0022
 4900TIP3    H214665   3.852   5.874   3.830 -0.1770  1.2233 -0.4206
 4901TIP3   OH214666   2.158   1.062   4.739  0.4601  0.3703  0.1025
 4901TIP3    H114667   2.177   0.982   4.788  0.3720  0.4881  0.3286
 4901TIP3    H214668   2.176   1.132   4.800 -2.7320  0.4889  1.0893
 4902TIP3   OH214669   3.801   4.345   5.808 -0.1070 -0.1439 -0.3986
 4902TIP3    H114670   3.851   4.427   5.799  1.1661 -1.1042 -3.1228
 4902TIP3    H214671   3.713   4.367   5.776  0.2674  0.1623 -1.2616
 4903TIP3   OH214672   5.130   3.377   4.784  0.6196  0.0866  0.4716
 4903TIP3    H114673   5.185   3.370   4.706  1.9416 -0.2747  1.4044
 4903TIP3    H214674   5.192   3.398   4.855 -0.3511 -0.9650  1.6705
 4904TIP3   OH214675   7.007   3.450   5.778 -0.4934  0.1596 -0.6626
 4904TIP3    H114676   7.083   3.505   5.759 -1.6738  1.4749 -1.7609
 4904TIP3    H214677   7.039   3.388   5.843  0.0874  4.1827  3.3927
 4905TIP3   OH214678   0.910   5.118   2.809 -0.0219  0.0604  0.5446
 4905TIP3    H114679   0.862   5.191   2.848 -1.1594 -0.9583  1.1093
 4905TIP3    H214680   0.944   5.068   2.883  0.3288 -0.2714  0.1700
 4906TIP3   OH214681   1.628   5.843   4.779 -0.2404 -0.3672  0.2429
 4906TIP3    H114682   1.695   5.841   4.710 -0.8757 -1.9530 -0.3869
 4906TIP3    H214683   1.550   5.807   4.737 -1.1629  0.3451  1.3015
 4907TIP3   OH214684   1.067   6.326   1.998  0.0429  0.5149  0.0452
 4907TIP3    H114685   1.022   6.410   2.006 -0.5478  0.2587 -0.5224
 4907TIP3    H214686   1.113   6.316   2.082 -3.0164 -0.4160  1.7488
 4908TIP3   OH214687   4.848   3.205   0.561 -0.5590  0.0417  0.3412
 4908TIP3    H114688   4.754   3.222   0.555 -0.7126 -0.8265  0.1842
 4908TIP3    H214689   4.882   3.232   0.475 -0.5826  0.7823  0.5544
 4909TIP3   OH214690   4.288   3.687   2.859  0.6455  0.4031  0.0075
 4909TIP3    H114691   4.352   3.719   2.795  1.3383  1.3992  1.1500
 4909TIP3    H214692   4.341   3.667   2.936 -0.1041 -1.2663  0.1318
 4910TIP3   OH214693   5.227   0.422   4.938 -0.8479 -0.1574  0.3265
 4910TIP3    H114694   5.170   0.375   4.877 -1.0771  1.7514 -1.0355
 4910TIP3    H214695   5.176   0.428   5.018 -0.7877 -2.1950  0.5602
 4911TIP3   OH214696   0.791   5.060   0.945 -0.1989 -0.0221  0.3048
 4911TIP3    H114697   0.777   5.103   0.861 -1.1407  0.5987  0.7584
 4911TIP3    H214698   0.713   5.082   0.997  0.6536  0.1667  1.5625
 4912TIP3   OH214699   6.548   6.360   0.980 -0.5975 -0.0624 -0.7199
 4912TIP3    H114700   6.573   6.438   0.930  1.7545  1.0374  1.8854
 4912TIP3    H214701   6.493   6.394   1.051 -1.8620 -1.2200 -1.1059
 4913TIP3   OH214702   5.459   1.004   2.620 -0.1808 -0.5256 -0.3654
 4913TIP3    H114703   5.505   0.929   2.584 -1.3693 -1.8276  0.7090
 4913TIP3    H214704   5.458   1.068   2.549  1.1029 -1.4005 -1.2078
 4914TIP3   OH214705   3.298   0.531   3.066  0.2978 -0.0950  0.2571
 4914TIP3    H114706   3.295   0.579   2.983 -0.8047 -0.8037 -0.1264
 4914TIP3    H214707   3.348   0.452   3.047 -0.5994 -0.6291  0.0485
 4915TIP3   OH214708   2.948   1.302   2.215 -0.9767  0.4740 -0.0386
 4915TIP3    H114709   2.975   1.393   2.204  1.9916 -0.3834 -0.7000
 4915TIP3    H214710   2.997   1.271   2.292 -1.7369 -0.6582  0.0183
 4916TIP3   OH214711   6.132   0.209   1.306 -0.4971  0.6852  0.5962
 4916TIP3    H114712   6.227   0.201   1.309 -0.4301  0.9117 -0.5921
 4916TIP3    H214713   6.113   0.287   1.359 -0.2574 -0.6775  2.8459
 4917TIP3   OH214714   4.175   0.874   2.351  0.3447 -0.0907  0.0735
 4917TIP3    H114715   4.265   0.880   2.384 -0.5549  1.3929  2.5286
 4917TIP3    H214716   4.161   0.780   2.337  1.9136 -0.4544  0.6897
 4918TIP3   OH214717   6.056   1.509   3.401 -0.0215  0.3497 -0.5570
 4918TIP3    H114718   6.005   1.548   3.472  0.1051  0.2303 -0.4011
 4918TIP3    H214719   5.994   1.503   3.328  0.2042  1.6959 -0.8836
 4919TIP3   OH214720   1.515   4.269   2.033 -0.3347 -0.1795 -0.2321
 4919TIP3    H114721   1.492   4.198   1.973  0.7249 -0.9758  0.2630
 4919TIP3    H214722   1.587   4.314   1.989 -0.5125  0.1329 -0.2039
 4920TIP3   OH214723   6.273   6.760   1.002  0.4859 -0.4801  0.2663
 4920TIP3    H114724   6.334   6.719   0.940 -1.5052 -2.6285 -0.4248
 4920TIP3    H214725   6.235   6.687   1.050 -1.6182  0.7235  0.5618
 4921TIP3   OH214726   4.064   3.712   2.626  0.6189 -0.4472  0.3708
 4921TIP3    H114727   4.067   3.666   2.710 -1.5156 -1.8392 -0.2465
 4921TIP3    H214728   4.115   3.657   2.567 -0.2679 -0.9905  0.1009
 4922TIP3   OH214729   4.387   3.347   3.702 -0.3801 -0.7786 -0.3610
 4922TIP3    H114730   4.436   3.310   3.628 -0.9992 -0.9956 -0.6630
 4922TIP3    H214731   4.361   3.434   3.672  0.8888 -0.1602  0.2692
 4923TIP3   OH214732   0.369   3.686   3.175 -0.2924  0.2579 -0.3986
 4923TIP3    H114733   0.299   3.624   3.193  1.6166 -2.1086 -0.5422
 4923TIP3    H214734   0.422   3.644   3.107  1.4185  1.8023 -0.1190
 4924TIP3   OH214735   3.064   2.561   4.193  0.3266 -0.3626 -0.2262
 4924TIP3    H114736   3.111   2.586   4.272  0.6819  1.8304 -1.0448
 4924TIP3    H214737   3.131   2.521   4.137  0.7096  0.5356 -0.4341
 4925TIP3   OH214738   1.768   1.878   5.125  0.0023  0.0148 -0.1300
 4925TIP3    H114739   1.763   1.930   5.044  0.6686  2.6523  1.4258
 4925TIP3    H214740   1.685   1.895   5.169  1.5836  2.8321  2.0642
 4926TIP3   OH214741   4.228   2.240   1.363 -0.0013  0.4402  0.1656
 4926TIP3    H114742   4.203   2.150   1.383  0.0511  0.4399  0.2329
 4926TIP3    H214743   4.243   2.280   1.449 -1.1351  0.8405  0.2040
 4927TIP3   OH214744   2.056   2.044   0.493 -0.3940  0.1379 -0.0407
 4927TIP3    H114745   1.996   2.080   0.427  0.5986 -1.2493 -1.7769
 4927TIP3    H214746   2.019   1.959   0.514  0.8184 -0.6594 -1.0054
 4928TIP3   OH214747   3.035   1.582   0.427  0.8304  0.3256  0.4378
 4928TIP3    H114748   3.089   1.653   0.392 -0.3105  1.2330  0.4467
 4928TIP3    H214749   2.995   1.619   0.506  0.3849 -0.4018  0.5640
 4929TIP3   OH214750   6.797   5.995   4.179  0.0978 -0.0239 -0.2130
 4929TIP3    H114751   6.760   5.924   4.127  0.5624 -1.8098  1.7288
 4929TIP3    H214752   6.727   6.059   4.186 -0.9384 -1.0718 -0.6307
 4930TIP3   OH214753   2.650   5.105   1.993  0.2847 -0.4973  0.2017
 4930TIP3    H114754   2.599   5.030   1.964  0.6814 -0.9423  0.6451
 4930TIP3    H214755   2.587   5.178   1.995 -0.2285 -0.9411  0.3234
 4931TIP3   OH214756   4.832   2.081   2.393  0.2388  0.1730  1.3202
 4931TIP3    H114757   4.801   2.165   2.426  2.1340  1.5002 -0.0432
 4931TIP3    H214758   4.778   2.064   2.316  0.1551  0.3854  1.3308
 4932TIP3   OH214759   2.361   3.507   1.918  0.2597  0.2119  0.2632
 4932TIP3    H114760   2.378   3.479   1.828  2.2476 -1.0707  0.9781
 4932TIP3    H214761   2.393   3.597   1.921  0.4040  0.1846 -0.2601
 4933TIP3   OH214762   1.055   2.524   4.617  0.0536  0.3139  0.2871
 4933TIP3    H114763   0.981   2.517   4.558  0.6125  0.4414 -0.4457
 4933TIP3    H214764   1.115   2.586   4.574  0.7039  0.0080  0.7287
 4934TIP3   OH214765   6.123   6.039   1.970 -0.4647  0.2172  0.3052
 4934TIP3    H114766   6.109   5.945   1.979  2.8548 -0.5360 -0.9409
 4934TIP3    H214767   6.162   6.066   2.053 -1.7375  0.6235  0.7958
 4935TIP3   OH214768   3.412   1.394   4.639  0.2070  0.4065 -0.3044
 4935TIP3    H114769   3.363   1.354   4.567  0.0832 -1.0004  0.5128
 4935TIP3    H214770   3.502   1.365   4.625 -0.0629 -1.1648  0.8981
 4936TIP3   OH214771   2.330   3.027   3.350  0.2698 -0.0665 -0.5445
 4936TIP3    H114772   2.380   2.965   3.296 -1.4696 -1.9402 -0.1187
 4936TIP3    H214773   2.263   3.061   3.291 -1.5427 -2.0104  0.2439
 4937TIP3   OH214774   4.647   6.546   4.930  0.0831 -0.5892  0.4012
 4937TIP3    H114775   4.690   6.590   5.004 -0.4397  1.7210 -0.5517
 4937TIP3    H214776   4.701   6.469   4.913  2.7647  1.1214  0.5055
 4938TIP3   OH214777   1.496   2.826   0.550 -0.2251  0.0196 -0.1479
 4938TIP3    H114778   1.478   2.732   0.551 -1.4284  0.0866  3.8965
 4938TIP3    H214779   1.410   2.868   0.544  0.0822  0.7823  0.4887
 4939TIP3   OH214780   4.515   3.276   5.476 -0.8997 -0.2849  0.2430
 4939TIP3    H114781   4.610   3.279   5.465 -1.0577  0.1961 -1.1829
 4939TIP3    H214782   4.501   3.276   5.571  0.5262 -0.7824  0.4665
 4940TIP3   OH214783   1.470   4.494   1.149  0.4706 -0.2028 -0.4584
 4940TIP3    H114784   1.538   4.560   1.139  0.8014 -0.1245  1.8292
 4940TIP3    H214785   1.444   4.498   1.241 -1.1171 -1.7115 -0.7621
 4941TIP3   OH214786   5.170   6.532   1.025  0.4607 -0.5873  0.2530
 4941TIP3    H114787   5.212   6.449   1.047  0.9905 -0.4781 -0.3452
 4941TIP3    H214788   5.195   6.549   0.934 -1.4759 -0.8981 -0.4011
 4942TIP3   OH214789   2.482   1.955   4.986 -0.0593  0.7141 -0.4951
 4942TIP3    H114790   2.538   1.912   4.921  0.2948 -1.4710  1.1178
 4942TIP3    H214791   2.393   1.940   4.954  0.0863 -0.8054 -0.2913
 4943TIP3   OH214792   5.876   4.555   5.351 -0.2612  0.3007  0.3200
 4943TIP3    H114793   5.965   4.534   5.382 -0.7645 -1.4867  0.6679
 4943TIP3    H214794   5.822   4.482   5.382 -1.2724 -0.3633 -2.6525
 4944TIP3   OH214795   2.379   6.342   5.095  0.2014  0.4298 -0.0032
 4944TIP3    H114796   2.347   6.427   5.126 -0.4749  0.2668 -0.2382
 4944TIP3    H214797   2.464   6.332   5.136  0.6143  1.5586 -0.5319
 4945TIP3   OH214798   4.853   3.965   3.031  0.7710 -0.4873  0.3771
 4945TIP3    H114799   4.949   3.969   3.029  0.7775  0.2351  1.7471
 4945TIP3    H214800   4.831   3.941   3.121 -0.3470 -0.8989  0.0182
 4946TIP3   OH214801   1.403   2.222   1.553  0.1815  0.2345 -0.2449
 4946TIP3    H114802   1.399   2.230   1.648  2.7276 -1.8096  0.1600
 4946TIP3    H214803   1.485   2.263   1.528  1.3923 -2.3929 -0.9977
 4947TIP3   OH214804   6.441   1.517   2.576  0.1577 -0.0883 -0.1880
 4947TIP3    H114805   6.353   1.490   2.551 -0.5378  0.6233  1.4121
 4947TIP3    H214806   6.456   1.473   2.660  1.5428 -0.6095 -0.6795
 4948TIP3   OH214807   1.670   1.432   0.366  0.8519 -0.2923  0.0327
 4948TIP3    H114808   1.667   1.527   0.381 -0.7813 -0.3888  0.4721
 4948TIP3    H214809   1.640   1.421   0.275  0.8764 -0.3974  0.0374
 4949TIP3   OH214810   0.752   6.243   3.072 -0.1730  0.1679 -0.6734
 4949TIP3    H114811   0.750   6.199   3.156 -0.2867  0.5464 -0.4778
 4949TIP3    H214812   0.794   6.327   3.089  2.7198 -0.9617 -1.5670
 4950TIP3   OH214813   0.052   3.849   0.508  0.0973 -0.0843 -0.0091
 4950TIP3    H114814   0.002   3.849   0.427 -0.2212  0.3023  0.1853
 4950TIP3    H214815   0.143   3.856   0.480  0.2412 -2.7001 -0.4689
 4951TIP3   OH214816   0.122   4.845   4.801 -0.3903 -0.1889  0.5878
 4951TIP3    H114817   0.148   4.855   4.892 -0.0147  0.0764  0.4533
 4951TIP3    H214818   0.026   4.839   4.803 -0.5755  1.9835  0.8149
 4952TIP3   OH214819   4.786   2.671   2.120 -0.1115  0.1320 -0.0869
 4952TIP3    H114820   4.746   2.719   2.193  0.5201  0.5606 -0.0121
 4952TIP3    H214821   4.853   2.731   2.086 -0.3467 -0.0916 -0.9750
 4953TIP3   OH214822   0.285   3.302   1.175  0.0348  0.2706  0.7535
 4953TIP3    H114823   0.365   3.294   1.227 -1.2704 -1.7385  2.6607
 4953TIP3    H214824   0.293   3.233   1.109  0.5735  1.1926 -0.1848
 4954TIP3   OH214825   2.501   2.810   2.678 -0.1987  0.1846  0.2824
 4954TIP3    H114826   2.441   2.742   2.648  0.9268 -0.0894 -1.4826
 4954TIP3    H214827   2.446   2.888   2.686 -0.7312  0.0681 -1.8010
 4955TIP3   OH214828   6.401   3.127   1.229  0.2519 -0.1488  0.3724
 4955TIP3    H114829   6.424   3.213   1.266 -1.0420 -0.2732  1.5786
 4955TIP3    H214830   6.374   3.146   1.139 -2.2691  1.1366  1.2853
 4956TIP3   OH214831   7.031   0.301   1.173  0.1611  0.1431 -0.1822
 4956TIP3    H114832   7.003   0.284   1.263 -0.9523 -0.4242 -0.6177
 4956TIP3    H214833   7.126   0.294   1.176  0.0489 -1.5871  0.6283
 4957TIP3   OH214834   6.045   6.279   2.684  0.2350 -0.4295  0.3689
 4957TIP3    H114835   6.108   6.255   2.752 -0.4229 -0.1496  1.0981
 4957TIP3    H214836   6.091   6.343   2.630  0.5617 -0.1830  0.9255
 4958TIP3   OH214837   5.632   2.812   4.477 -0.0925  0.2018 -0.0835
 4958TIP3    H114838   5.674   2.849   4.554 -1.1050  0.8283  0.1877
 4958TIP3    H214839   5.691   2.743   4.448 -0.1110 -0.6428  1.7737
 4959TIP3   OH214840   3.910   2.262   0.543  0.2604  0.0462 -0.0270
 4959TIP3    H114841   3.821   2.253   0.579  1.1397 -0.1239  2.2985
 4959TIP3    H214842   3.911   2.204   0.467 -1.7072  0.2879 -0.2933
 4960TIP3   OH214843   5.674   0.247   0.118  0.2820  0.2073  0.2321
 4960TIP3    H114844   5.690   0.304   0.043 -1.4685  0.7414  0.2264
 4960TIP3    H214845   5.602   0.190   0.091 -0.9822  0.9843  1.7707
 4961TIP3   OH214846   3.115   5.578   2.445  0.0304 -0.3878 -0.3626
 4961TIP3    H114847   3.074   5.589   2.359  1.3604 -0.2757 -1.0064
 4961TIP3    H214848   3.209   5.586   2.428  0.3612 -1.0740  0.9968
 4962TIP3   OH214849   6.277   2.610   2.872  0.0905  0.0397  0.5715
 4962TIP3    H114850   6.347   2.561   2.829  2.1232  1.3283  2.2253
 4962TIP3    H214851   6.225   2.644   2.799  1.8153 -0.0893 -0.8075
 4963TIP3   OH214852   6.399   4.858   1.973 -0.0400 -0.3502  0.1152
 4963TIP3    H114853   6.361   4.790   2.030 -0.9734  0.0182 -0.0529
 4963TIP3    H214854   6.330   4.877   1.910 -0.2105  1.5644  0.8380
 4964TIP3   OH214855   5.839   0.908   2.715  0.0117  0.5594  0.2121
 4964TIP3    H114856   5.796   0.840   2.767  1.3049 -0.9193 -0.5730
 4964TIP3    H214857   5.932   0.884   2.716  0.6313  2.7580  0.5310
 4965TIP3   OH214858   4.952   3.464   5.149  0.1918 -0.0383 -0.4730
 4965TIP3    H114859   4.982   3.425   5.231  0.3423  0.1484 -0.4384
 4965TIP3    H214860   4.997   3.549   5.145 -0.9311  0.6018 -0.0231
 4966TIP3   OH214861   6.641   4.020   2.732 -0.7167 -0.3900  0.5914
 4966TIP3    H114862   6.673   4.075   2.803 -0.9619 -2.5326  2.4940
 4966TIP3    H214863   6.553   4.053   2.713 -0.3190  0.7316  0.6843
 4967TIP3   OH214864   3.923   5.900   4.606 -0.4563  0.9825 -0.6559
 4967TIP3    H114865   3.878   5.982   4.588  0.6596  1.5265 -1.0454
 4967TIP3    H214866   3.897   5.842   4.535 -1.7055  0.7911 -0.0671
 4968TIP3   OH214867   4.183   3.536   3.256  0.0989 -0.1103 -0.4873
 4968TIP3    H114868   4.144   3.540   3.169  1.0289 -0.2907 -0.9232
 4968TIP3    H214869   4.157   3.619   3.297  0.6038  0.5030 -1.3593
 4969TIP3   OH214870   6.621   6.184   4.115  0.2068  0.2132 -0.3435
 4969TIP3    H114871   6.534   6.150   4.092  1.5430 -0.7113 -5.1107
 4969TIP3    H214872   6.605   6.274   4.141 -2.2827 -0.3843  0.4997
 4970TIP3   OH214873   5.769   4.572   3.217 -0.2570  0.1212  0.5515
 4970TIP3    H114874   5.727   4.658   3.214 -2.5878 -0.9929 -0.7772
 4970TIP3    H214875   5.743   4.529   3.136  0.4636 -2.0438  1.3906
 4971TIP3   OH214876   6.789   6.257   3.398 -0.1074 -0.1966 -0.0419
 4971TIP3    H114877   6.813   6.278   3.488  0.2315 -1.8628  0.2867
 4971TIP3    H214878   6.694   6.273   3.394 -0.2632 -0.8045  0.8403
 4972TIP3   OH214879   2.340   3.022   5.639  0.4467  0.1462 -0.4789
 4972TIP3    H114880   2.266   3.068   5.678  0.2599 -1.1313  0.7333
 4972TIP3    H214881   2.318   3.018   5.545 -1.3651 -0.7902 -0.0642
 4973TIP3   OH214882   7.139   4.350   4.906 -0.1125 -0.1987  0.1647
 4973TIP3    H114883   7.227   4.378   4.882 -0.1211 -1.7589 -1.8582
 4973TIP3    H214884   7.152   4.272   4.960 -0.2360 -0.8816 -0.7674
 4974TIP3   OH214885   1.775   4.001   4.864 -0.2061 -0.3058  0.0677
 4974TIP3    H114886   1.752   3.962   4.948 -0.2920 -0.8989 -0.2184
 4974TIP3    H214887   1.698   4.050   4.838 -0.8581 -1.5619 -0.4751
 4975TIP3   OH214888   0.308   2.173   3.152 -0.0299 -0.2829  0.1011
 4975TIP3    H114889   0.376   2.119   3.112 -0.4865 -1.1569  0.4567
 4975TIP3    H214890   0.296   2.246   3.092  0.1687 -0.9124 -0.7205
 4976TIP3   OH214891   2.078   6.273   2.191 -0.4029 -0.5359 -0.1656
 4976TIP3    H114892   2.072   6.271   2.096 -1.4086 -0.4155 -0.1211
 4976TIP3    H214893   2.152   6.217   2.212 -0.5247 -1.0191 -0.9927
 4977TIP3   OH214894   3.776   5.835   5.117 -0.7216 -0.0148  0.1326
 4977TIP3    H114895   3.858   5.790   5.095 -1.6057 -0.9190 -1.3877
 4977TIP3    H214896   3.803   5.926   5.132  1.2021 -0.9595  3.8986
 4978TIP3   OH214897   3.263   5.858   0.229 -0.1034  0.5789  0.1727
 4978TIP3    H114898   3.287   5.864   0.136 -1.0418 -0.2738 -0.1477
 4978TIP3    H214899   3.333   5.904   0.275  0.6972  0.4901 -0.9136
 4979TIP3   OH214900   7.065   0.241   3.813 -0.0307  0.4168 -0.4243
 4979TIP3    H114901   7.045   0.311   3.876 -2.2863  1.2697 -1.9676
 4979TIP3    H214902   7.091   0.288   3.734  4.3743 -0.6274  0.1453
 4980TIP3   OH214903   4.061   2.664   5.329  0.1961 -0.1401 -0.1237
 4980TIP3    H114904   4.100   2.672   5.242 -0.0858  0.1094 -0.2312
 4980TIP3    H214905   4.123   2.708   5.387  0.0344  0.3321 -0.3054
 4981TIP3   OH214906   2.562   1.952   5.541 -0.4123  0.4191 -0.5551
 4981TIP3    H114907   2.556   1.988   5.452  0.3301  0.1115 -0.7383
 4981TIP3    H214908   2.490   1.889   5.546 -0.0175 -0.0984 -1.1984
 4982TIP3   OH214909   1.269   3.126   2.227 -0.1035  0.3330  0.5717
 4982TIP3    H114910   1.352   3.129   2.179  0.3342 -0.3046  1.2600
 4982TIP3    H214911   1.262   3.035   2.256  0.6919  1.1027  3.5017
 4983TIP3   OH214912   2.606   6.674   3.232  0.2568 -0.5624  0.0691
 4983TIP3    H114913   2.670   6.681   3.162 -0.3924 -2.2908 -0.7598
 4983TIP3    H214914   2.530   6.631   3.191 -1.2485  0.9467  1.1349
 4984TIP3   OH214915   5.182   0.599   1.626 -0.1037 -0.3691  0.1832
 4984TIP3    H114916   5.277   0.587   1.615 -0.0846 -0.0926  0.0540
 4984TIP3    H214917   5.147   0.595   1.537  0.1883  3.1343 -0.2114
 4985TIP3   OH214918   0.599   4.131   4.454  0.0958 -0.3926  0.0429
 4985TIP3    H114919   0.592   4.082   4.536  0.5716 -0.1481  0.2355
 4985TIP3    H214920   0.525   4.101   4.401 -0.3233 -0.4235  0.6335
 4986TIP3   OH214921   5.231   0.931   4.347 -0.0718  0.2097 -0.6296
 4986TIP3    H114922   5.149   0.883   4.361  0.0163  0.3717  0.5762
 4986TIP3    H214923   5.206   1.023   4.350  0.0123  0.2543 -1.2412
 4987TIP3   OH214924   2.455   2.797   4.067 -0.5541  0.2545 -0.0726
 4987TIP3    H114925   2.494   2.711   4.051  0.5852  0.9428 -1.1384
 4987TIP3    H214926   2.523   2.847   4.113 -1.5327  0.3298  1.3599
 4988TIP3   OH214927   0.189   4.038   1.296 -0.0945  0.7218  0.3671
 4988TIP3    H114928   0.220   4.041   1.387  2.3473 -1.4814 -0.2932
 4988TIP3    H214929   0.095   4.054   1.303  0.2309  2.1157  3.1008
 4989TIP3   OH214930   3.430   6.344   4.459  0.2555  0.0506  0.0566
 4989TIP3    H114931   3.367   6.356   4.531 -2.2091 -1.6753 -1.6803
 4989TIP3    H214932   3.480   6.267   4.484  0.2261  0.1587  0.4590
 4990TIP3   OH214933   4.304   1.914   2.657  0.3898  0.4231 -0.1221
 4990TIP3    H114934   4.211   1.896   2.639  0.2756 -1.7232  2.1430
 4990TIP3    H214935   4.317   2.003   2.623 -3.1137  1.7613  1.4314
 4991TIP3   OH214936   4.965   2.434   1.611  0.4585 -0.8355 -0.8505
 4991TIP3    H114937   5.026   2.475   1.672 -1.6366  1.3240 -0.0540
 4991TIP3    H214938   5.013   2.359   1.576  2.3584 -1.2429  2.2213
 4992TIP3   OH214939   3.981   0.980   5.329 -0.9560 -0.2146  0.4222
 4992TIP3    H114940   4.069   0.942   5.336 -1.0045 -0.0871  2.2861
 4992TIP3    H214941   3.994   1.074   5.343 -1.2593 -0.0421 -0.4403
 4993TIP3   OH214942   2.288   4.546   1.320  0.7615 -0.3938  0.6357
 4993TIP3    H114943   2.207   4.590   1.296  0.6902 -0.2558  1.1174
 4993TIP3    H214944   2.260   4.458   1.346  0.5403  0.1806  2.4582
 4994TIP3   OH214945   5.883   1.830   4.696 -0.2906 -0.4438  0.9390
 4994TIP3    H114946   5.812   1.871   4.646  0.7233 -0.7214 -0.8181
 4994TIP3    H214947   5.878   1.737   4.671  1.0234 -0.3726  0.3130
 4995TIP3   OH214948   0.437   4.488   3.617  0.0548 -0.5025 -0.2109
 4995TIP3    H114949   0.491   4.564   3.595 -1.1336  1.1038  2.0212
 4995TIP3    H214950   0.364   4.492   3.554  1.0851 -1.1250 -1.4954
 4996TIP3   OH214951   2.825   4.492   0.142 -0.2306  0.1856  0.2609
 4996TIP3    H114952   2.818   4.568   0.201  2.1206  0.7613 -0.1277
 4996TIP3    H214953   2.812   4.417   0.200 -1.6417  0.8153  0.8257
 4997TIP3   OH214954   4.930   4.658   0.098  0.4018  0.2025 -0.4894
 4997TIP3    H114955   4.920   4.750   0.124 -1.4135 -0.3147  0.7925
 4997TIP3    H214956   5.012   4.631   0.139  0.6324  1.0770 -0.3546
 4998TIP3   OH214957   2.919   6.211   2.722 -0.0727 -0.6560  0.2415
 4998TIP3    H114958   2.907   6.199   2.628 -0.7737 -0.5211  0.3047
 4998TIP3    H214959   2.872   6.137   2.761  0.5699 -0.9475  0.4806
 4999TIP3   OH214960   1.792   0.089   4.601 -0.0970  0.0472  0.7089
 4999TIP3    H114961   1.737   0.128   4.533 -0.2264  0.0847  0.8325
 4999TIP3    H214962   1.753   0.003   4.618 -0.8302  0.5314  1.6132
 5000TIP3   OH214963   1.854   6.657   2.730 -0.4226 -0.1553  0.2257
 5000TIP3    H114964   1.861   6.688   2.639  2.2680 -1.0958  0.0324
 5000TIP3    H214965   1.866   6.562   2.724  1.6134 -0.0455  1.6718
 5001TIP3   OH214966   5.361   3.545   5.557  0.1920  0.1765  0.0131
 5001TIP3    H114967   5.268   3.562   5.571  0.4944  0.0688  2.6548
 5001TIP3    H214968   5.364   3.494   5.477 -2.0741 -0.2909  0.1495
 5002TIP3   OH214969   3.510   0.889   4.626  0.5268 -0.0896  0.2552
 5002TIP3    H114970   3.420   0.878   4.595  0.8854 -0.5205 -0.6662
 5002TIP3    H214971   3.530   0.807   4.671  0.5356 -0.0858  0.2582
 5003TIP3   OH214972   0.508   3.735   3.505  0.0609  0.0325 -0.0092
 5003TIP3    H114973   0.544   3.689   3.581  1.4545 -0.1406 -0.7342
 5003TIP3    H214974   0.531   3.680   3.431 -1.2516  0.2145 -0.5789
 5004TIP3   OH214975   0.245   5.408   2.415 -0.4431  0.1006  0.7232
 5004TIP3    H114976   0.219   5.418   2.506 -2.8300 -1.8102  0.3586
 5004TIP3    H214977   0.276   5.318   2.408  3.3507  1.2706  0.3305
 5005TIP3   OH214978   6.916   1.806   0.552  0.4015  0.4845 -0.7183
 5005TIP3    H114979   6.873   1.844   0.475 -2.4525  0.4324  0.7239
 5005TIP3    H214980   7.005   1.787   0.522 -0.3139  1.2630 -3.7338
 5006TIP3   OH214981   3.396   1.533   0.574  0.0388 -0.4278 -0.4544
 5006TIP3    H114982   3.472   1.476   0.590 -0.0692 -0.8337 -1.3572
 5006TIP3    H214983   3.412   1.571   0.488  0.3860  1.3729  0.3564
 5007TIP3   OH214984   4.664   3.841   4.710 -0.4695  0.4018 -0.1998
 5007TIP3    H114985   4.624   3.868   4.627  0.2436  1.0992 -0.3314
 5007TIP3    H214986   4.590   3.817   4.766 -0.9326 -0.5592 -1.1971
 5008TIP3   OH214987   4.512   6.188   4.211 -0.0164  0.3875  0.4830
 5008TIP3    H114988   4.579   6.251   4.186 -0.1128  0.0088 -0.8529
 5008TIP3    H214989   4.431   6.239   4.215  0.1527  0.6231  0.9080
 5009TIP3   OH214990   1.716   5.378   4.048  0.1619 -0.5266 -0.0627
 5009TIP3    H114991   1.694   5.371   4.141 -1.2872 -2.1186 -0.4860
 5009TIP3    H214992   1.659   5.448   4.016 -1.6279 -2.0447 -0.3478
 5010TIP3   OH214993   0.856   0.043   5.779  0.1677  0.3004  0.1074
 5010TIP3    H114994   0.826   0.134   5.772 -0.3265  0.2996  1.7393
 5010TIP3    H214995   0.896   0.038   5.867  0.5764 -0.9492 -0.1307
 5011TIP3   OH214996   7.000   0.308   5.271  0.1481  0.5446 -0.6899
 5011TIP3    H114997   7.064   0.379   5.277 -0.8597  1.5356 -1.3002
 5011TIP3    H214998   6.920   0.350   5.239 -0.5922 -0.7999 -0.6840
 5012TIP3   OH214999   6.291   1.368   1.718  0.2165  0.1957 -0.4786
 5012TIP3    H115000   6.316   1.427   1.647 -0.2629  0.6079 -0.3164
 5012TIP3    H215001   6.354   1.385   1.787 -1.4380  2.4756  0.5903
 5013TIP3   OH215002   1.880   5.837   0.679  0.4426  0.9430  0.9171
 5013TIP3    H115003   1.932   5.770   0.722 -1.5146 -1.8476 -0.7399
 5013TIP3    H215004   1.940   5.877   0.616  1.1915 -0.7259  0.5141
 5014TIP3   OH215005   0.852   4.387   5.453  0.1797  0.4698  0.5972
 5014TIP3    H115006   0.921   4.382   5.387 -2.1425  2.5449 -2.2200
 5014TIP3    H215007   0.882   4.452   5.516  2.6818 -1.9395  2.1096
 5015TIP3   OH215008   4.610   3.598   0.889 -0.4527 -0.3890 -0.1150
 5015TIP3    H115009   4.561   3.609   0.970  1.4902 -1.7357  1.3692
 5015TIP3    H215010   4.648   3.510   0.896  0.0215 -0.4299 -2.3594
 5016TIP3   OH215011   4.465   3.592   0.653  0.3092  0.1668 -0.1798
 5016TIP3    H115012   4.430   3.681   0.654 -0.7924 -0.2539 -0.5225
 5016TIP3    H215013   4.499   3.579   0.742 -0.1363  0.6905  0.0701
 5017TIP3   OH215014   7.146   4.343   5.633  0.2048  0.5816  0.6426
 5017TIP3    H115015   7.224   4.398   5.639  0.8807 -0.4428  1.5358
 5017TIP3    H215016   7.136   4.306   5.720  1.2707 -2.7240 -0.4943
 5018TIP3   OH215017   6.301   1.713   0.310  0.1822  0.9206 -0.4232
 5018TIP3    H115018   6.378   1.745   0.262  2.0005 -2.0698  0.2603
 5018TIP3    H215019   6.334   1.693   0.398 -1.1354 -1.2302 -0.3462
 5019TIP3   OH215020   0.735   0.938   2.302  0.4557 -0.0744 -0.2195
 5019TIP3    H115021   0.651   0.927   2.258  0.5768  1.2010 -0.7884
 5019TIP3    H215022   0.768   0.849   2.312  0.1643 -0.4464 -2.1908
 5020TIP3   OH215023   2.748   1.787   5.214  0.3763 -0.7040 -0.1157
 5020TIP3    H115024   2.693   1.810   5.139 -0.5253 -0.2070  0.6818
 5020TIP3    H215025   2.768   1.694   5.201  4.1166  0.2698 -3.4025
 5021TIP3   OH215026   1.850   2.773   1.596  0.2476 -0.2454  0.4743
 5021TIP3    H115027   1.771   2.807   1.639  0.7070  2.7901 -0.8360
 5021TIP3    H215028   1.824   2.763   1.504  1.2004  0.1578  0.1559
 5022TIP3   OH215029   3.740   0.950   2.548  0.0834  0.6175 -0.4144
 5022TIP3    H115030   3.746   0.881   2.482  0.2062  0.3099 -0.0812
 5022TIP3    H215031   3.831   0.975   2.565  0.1721 -0.4496  0.8364
 5023TIP3   OH215032   0.743   3.098   3.232 -0.0918 -0.2031 -0.2390
 5023TIP3    H115033   0.702   3.144   3.305  1.7933 -1.2054  1.5504
 5023TIP3    H215034   0.744   3.006   3.259  0.7672 -0.5951 -1.4988
 5024TIP3   OH215035   2.684   2.761   3.372 -0.2549  0.0147  0.2411
 5024TIP3    H115036   2.648   2.723   3.452  0.0452  0.2471  0.4889
 5024TIP3    H215037   2.727   2.688   3.327  2.2247  0.4005  1.7652
 5025TIP3   OH215038   4.146   4.614   1.385 -0.4398 -0.0306 -0.6291
 5025TIP3    H115039   4.088   4.683   1.417 -1.8511 -1.2255 -0.5309
 5025TIP3    H215040   4.088   4.547   1.349  0.8359 -1.5309 -0.0430
 5026TIP3   OH215041   6.139   1.959   4.763 -0.2545 -0.2911  0.0285
 5026TIP3    H115042   6.154   2.043   4.719 -1.3285  0.5540  1.2268
 5026TIP3    H215043   6.051   1.934   4.737 -0.2075 -0.6939  0.2534
 5027TIP3   OH215044   2.456   6.633   2.107  0.2499  0.4040 -0.2546
 5027TIP3    H115045   2.462   6.717   2.151  1.0336  0.5884 -0.6941
 5027TIP3    H215046   2.379   6.591   2.146  1.2537  0.2890  1.7314
 5028TIP3   OH215047   1.592   2.940   5.014 -0.5555  0.1852 -0.1796
 5028TIP3    H115048   1.538   2.989   5.076 -0.3508  0.2686 -0.0678
 5028TIP3    H215049   1.540   2.862   4.994 -0.3067 -0.2095  0.6735
 5029TIP3   OH215050   5.313   6.054   0.926 -0.3608  0.3009  0.0385
 5029TIP3    H115051   5.243   6.057   0.991 -0.0732  0.9633  0.3306
 5029TIP3    H215052   5.386   6.099   0.967 -0.2569  0.9576 -0.8251
 5030TIP3   OH215053   1.744   1.943   2.004 -0.0004 -0.1576  1.0176
 5030TIP3    H115054   1.814   1.895   2.047 -0.1390 -0.3242  1.0574
 5030TIP3    H215055   1.751   1.920   1.912  0.3901  0.3150  0.9239
 5031TIP3   OH215056   6.053   4.577   1.531  0.5849 -0.7563 -0.5592
 5031TIP3    H115057   6.052   4.481   1.533 -0.8875 -0.7343  0.7021
 5031TIP3    H215058   6.047   4.599   1.438 -0.0402 -1.8818 -0.7953
 5032TIP3   OH215059   2.130   4.956   4.466  0.1422  0.3643 -0.3667
 5032TIP3    H115060   2.097   4.886   4.522  0.2587  1.8458  1.6480
 5032TIP3    H215061   2.223   4.936   4.455 -0.2572 -0.9460 -1.6566
 5033TIP3   OH215062   2.707   0.339   2.221  0.1364  0.2610  0.3108
 5033TIP3    H115063   2.664   0.287   2.153 -0.0962  1.0050 -0.1202
 5033TIP3    H215064   2.635   0.383   2.267  0.3640  0.6022  0.3414
 5034TIP3   OH215065   6.344   1.462   0.080 -0.6664  0.2118  0.0793
 5034TIP3    H115066   6.341   1.391   0.014 -0.0686  0.1165  0.1437
 5034TIP3    H215067   6.310   1.538   0.034  0.7030  0.4025 -0.6995
 5035TIP3   OH215068   3.599   5.364   2.179 -0.2480  0.4356 -0.2675
 5035TIP3    H115069   3.603   5.440   2.237 -0.3546  1.8440 -2.0151
 5035TIP3    H215070   3.507   5.356   2.155 -0.0740  0.5115 -1.0132
 5036TIP3   OH215071   2.536   5.401   1.170 -0.0735  0.2452 -0.0040
 5036TIP3    H115072   2.478   5.475   1.157 -0.3022 -0.3050 -2.4722
 5036TIP3    H215073   2.478   5.327   1.185  0.0787  0.1163 -0.0414
 5037TIP3   OH215074   3.331   5.816   2.658 -0.0605  0.4776  0.7817
 5037TIP3    H115075   3.246   5.855   2.678 -0.7668 -0.4319 -0.3185
 5037TIP3    H215076   3.331   5.732   2.706  0.1456  0.4002  0.6484
 5038TIP3   OH215077   4.751   4.389   3.094  0.0360 -0.1580  0.5632
 5038TIP3    H115078   4.820   4.367   3.156 -0.7149 -0.4355  1.3287
 5038TIP3    H215079   4.795   4.394   3.009  1.2713  1.2022  1.2387
 5039TIP3   OH215080   2.291   6.416   2.885  0.3448  0.4404 -0.4483
 5039TIP3    H115081   2.205   6.397   2.922  0.4330  1.7505  0.5106
 5039TIP3    H215082   2.275   6.433   2.792  0.1225 -2.9505 -1.1609
 5040TIP3   OH215083   5.351   0.229   0.996 -0.6136  0.1371 -0.2335
 5040TIP3    H115084   5.309   0.279   1.067 -0.0321  0.2055  0.0705
 5040TIP3    H215085   5.348   0.287   0.920 -1.2122  0.0780 -0.2560
 5041TIP3   OH215086   1.629   6.743   4.688 -0.0892  0.2041 -0.0507
 5041TIP3    H115087   1.583   6.820   4.720  0.1345  0.5870 -0.6331
 5041TIP3    H215088   1.720   6.772   4.676 -0.1683  0.0829 -1.0376
 5042TIP3   OH215089   2.459   5.303   3.810 -0.1591 -0.4407 -0.3219
 5042TIP3    H115090   2.422   5.387   3.782  1.5914  0.5818  0.3008
 5042TIP3    H215091   2.449   5.303   3.905 -0.9053 -1.3345 -0.3891
 5043TIP3   OH215092   4.327   2.758   3.381  0.1323 -0.3654 -0.9888
 5043TIP3    H115093   4.302   2.755   3.473  0.7796  0.4678 -0.7737
 5043TIP3    H215094   4.327   2.667   3.353 -0.7386 -0.5756 -0.3517
 5044TIP3   OH215095   2.110   6.615   4.253  0.5941 -0.3461  0.2125
 5044TIP3    H115096   2.173   6.673   4.209 -1.1796  1.4114 -0.1432
 5044TIP3    H215097   2.108   6.536   4.199 -1.3825  1.6488 -2.9848
 5045TIP3   OH215098   6.076   0.604   0.129  0.2182  0.2009 -0.1335
 5045TIP3    H115099   5.983   0.603   0.152  0.2374  0.7172 -0.0190
 5045TIP3    H215100   6.077   0.598   0.033  0.0903 -0.3980 -0.1007
 5046TIP3   OH215101   4.034   2.295   5.290  0.4404  0.3481  0.1619
 5046TIP3    H115102   3.956   2.269   5.241 -0.8326  0.2324  2.1016
 5046TIP3    H215103   4.107   2.260   5.241 -0.8566 -1.3185 -0.6846
 5047TIP3   OH215104   3.250   4.914   3.481  0.6291  0.4722 -0.2055
 5047TIP3    H115105   3.345   4.920   3.486  0.6757  1.6251 -1.6816
 5047TIP3    H215106   3.219   5.003   3.498 -0.5552 -0.6128  4.8378
 5048TIP3   OH215107   4.372   2.507   0.720  0.5435  0.2854 -0.4822
 5048TIP3    H115108   4.435   2.507   0.648  0.1223 -0.1935 -0.8609
 5048TIP3    H215109   4.306   2.443   0.694  1.5154 -1.5885  1.3327
 5049TIP3   OH215110   0.630   5.761   1.061 -0.1262 -0.4523  0.0309
 5049TIP3    H115111   0.595   5.767   0.972 -0.9422  0.8773  0.4134
 5049TIP3    H215112   0.725   5.762   1.049 -0.2207 -0.8539 -0.8508
 5050TIP3   OH215113   6.405   5.935   0.979  0.3898  0.4569 -0.5453
 5050TIP3    H115114   6.465   5.935   0.905  0.0048  1.5909 -0.8734
 5050TIP3    H215115   6.426   6.015   1.028 -0.3259  0.4690 -0.2387
 5051TIP3   OH215116   3.592   4.331   0.832 -0.1092  0.3782  0.2770
 5051TIP3    H115117   3.671   4.285   0.804 -0.1302 -0.0466  0.8733
 5051TIP3    H215118   3.527   4.261   0.843 -1.4622  0.9711 -2.9462
 5052TIP3   OH215119   1.839   5.024   4.658 -0.1044 -0.3515  0.4403
 5052TIP3    H115120   1.761   4.995   4.706 -0.4803 -0.9695 -0.5188
 5052TIP3    H215121   1.812   5.024   4.566 -0.0750  2.9707  0.3334
 5053TIP3   OH215122   0.584   1.364   4.651 -0.1930 -0.1747 -0.2524
 5053TIP3    H115123   0.539   1.431   4.704 -0.6234 -0.5940 -0.0764
 5053TIP3    H215124   0.649   1.326   4.710  0.2643  0.2919 -0.4451
 5054TIP3   OH215125   1.466   6.085   0.615  0.3813 -0.2081  0.2081
 5054TIP3    H115126   1.427   6.166   0.583 -0.7777 -1.3191 -1.3690
 5054TIP3    H215127   1.559   6.105   0.625  0.1475  1.2648 -0.3160
 5055TIP3   OH215128   7.124   0.632   1.089  0.3133 -0.4920 -0.2214
 5055TIP3    H115129   7.040   0.618   1.133  0.0752  2.2504  0.3644
 5055TIP3    H215130   7.100   0.664   1.002  0.7469 -0.1164 -0.2048
 5056TIP3   OH215131   4.240   3.153   0.516  0.5117  0.0093  0.0663
 5056TIP3    H115132   4.247   3.242   0.552  0.4331  0.1800 -0.3372
 5056TIP3    H215133   4.249   3.096   0.593  0.6275  0.3622  0.3201
 5057TIP3   OH215134   2.413   4.142   3.422  0.2129  0.5201 -0.0438
 5057TIP3    H115135   2.366   4.133   3.340 -0.2836  1.5280  0.1118
 5057TIP3    H215136   2.357   4.100   3.487  1.0462 -1.1298 -0.3372
 5058TIP3   OH215137   4.442   3.216   5.194  0.2751 -0.1538  0.0062
 5058TIP3    H115138   4.484   3.246   5.275  2.6801 -1.1581 -0.7527
 5058TIP3    H215139   4.488   3.264   5.125 -0.7884 -0.3332 -0.8447
 5059TIP3   OH215140   4.590   4.222   2.948 -0.3559  0.1546 -0.2227
 5059TIP3    H115141   4.661   4.255   3.003 -1.1745  0.8031  0.4718
 5059TIP3    H215142   4.551   4.300   2.909 -0.4416 -0.2251 -0.9221
 5060TIP3   OH215143   5.528   4.740   5.369 -0.1317 -0.2200  0.1761
 5060TIP3    H115144   5.600   4.793   5.335 -0.9024 -0.1174 -1.4112
 5060TIP3    H215145   5.450   4.789   5.346 -0.7514 -0.8086  0.9931
 5061TIP3   OH215146   6.677   3.808   4.593  0.6712 -0.1038  0.5191
 5061TIP3    H115147   6.700   3.899   4.576  0.5275 -0.4383 -1.8156
 5061TIP3    H215148   6.637   3.778   4.511  0.9479 -2.3376  1.1450
 5062TIP3   OH215149   2.165   5.419   1.686 -0.5079 -0.1456 -0.1680
 5062TIP3    H115150   2.186   5.427   1.779  0.7388 -0.6743 -0.3754
 5062TIP3    H215151   2.166   5.508   1.653 -2.0271  0.1624  0.5117
 5063TIP3   OH215152   6.839   4.697   5.435  0.2193  0.9028  0.0335
 5063TIP3    H115153   6.935   4.700   5.439  0.1915  1.2099  0.5939
 5063TIP3    H215154   6.819   4.694   5.341  0.8532 -2.7206 -0.1207
 5064TIP3   OH215155   3.324   2.969   0.361 -0.6642 -0.1240 -0.4494
 5064TIP3    H115156   3.376   3.047   0.378 -0.9751  0.0797 -0.4116
 5064TIP3    H215157   3.382   2.896   0.381 -0.0932  0.0805 -1.2852
 5065TIP3   OH215158   6.172   6.423   1.693  0.1191  0.1809 -0.3575
 5065TIP3    H115159   6.099   6.416   1.632  1.4769  1.9271 -2.3159
 5065TIP3    H215160   6.199   6.332   1.709 -0.3928 -0.3442 -2.2627
 5066TIP3   OH215161   5.396   2.927   5.420  0.0540  0.3045 -0.3600
 5066TIP3    H115162   5.379   2.979   5.341  0.3076 -0.3777 -0.8756
 5066TIP3    H215163   5.477   2.881   5.401 -0.6395 -0.9901 -0.2935
 5067TIP3   OH215164   7.202   4.658   5.067  0.8019  0.0121  0.7747
 5067TIP3    H115165   7.129   4.671   5.007  1.1399 -1.2059  0.0668
 5067TIP3    H215166   7.250   4.741   5.064 -0.0234  0.4957  0.5325
 5068TIP3   OH215167   5.715   4.170   2.146  0.1005  0.2053  0.1315
 5068TIP3    H115168   5.687   4.241   2.204  0.7543 -0.5864  1.4556
 5068TIP3    H215169   5.705   4.091   2.198 -2.2857 -0.9517 -1.8691
 5069TIP3   OH215170   0.866   2.862   0.564 -0.1426  0.1924 -0.1023
 5069TIP3    H115171   0.831   2.821   0.644  0.2046 -0.6905 -0.3879
 5069TIP3    H215172   0.923   2.795   0.526  1.9504  1.6007  0.3859
 5070TIP3   OH215173   2.378   1.355   5.342  0.5809 -0.0229  0.3575
 5070TIP3    H115174   2.466   1.380   5.369  1.1489 -1.3754 -0.1770
 5070TIP3    H215175   2.365   1.398   5.258  0.7804  0.0579  0.3686
 5071TIP3   OH215176   1.085   5.978   0.944 -0.0646 -0.1313 -0.0666
 5071TIP3    H115177   1.131   6.026   0.874 -3.0008  0.2195 -1.9042
 5071TIP3    H215178   1.100   6.030   1.022  3.3534 -0.5328 -0.2670
 5072TIP3   OH215179   6.865   6.171   5.383 -0.0746  0.0541  0.3260
 5072TIP3    H115180   6.774   6.184   5.409 -0.7803 -0.3385 -1.7089
 5072TIP3    H215181   6.900   6.110   5.446 -1.9344 -1.5883 -0.1220
 5073TIP3   OH215182   2.815   5.736   4.458 -0.4536 -0.4241  0.2040
 5073TIP3    H115183   2.785   5.654   4.418  2.4723 -2.0326  1.0395
 5073TIP3    H215184   2.827   5.795   4.383 -1.4429 -1.1386 -0.5522
 5074TIP3   OH215185   1.381   0.225   3.446  0.4849 -0.6224  0.3689
 5074TIP3    H115186   1.362   0.132   3.453  1.1069 -0.7417  0.5807
 5074TIP3    H215187   1.443   0.242   3.517 -0.2604  0.1323  0.8659
 5075TIP3   OH215188   6.280   5.735   1.698 -0.0471 -0.3006 -0.1019
 5075TIP3    H115189   6.323   5.661   1.655  0.1105  0.6516 -1.6701
 5075TIP3    H215190   6.348   5.803   1.703 -0.0008 -0.4292  1.8829
 5076TIP3   OH215191   1.334   0.925   2.175  0.4246 -0.1516  0.3110
 5076TIP3    H115192   1.240   0.923   2.193  0.5292 -0.6365  0.8487
 5076TIP3    H215193   1.367   0.842   2.210  1.1875  0.3898  0.9150
 5077TIP3   OH215194   4.115   2.498   4.743 -0.3379 -0.5885  0.3198
 5077TIP3    H115195   4.123   2.421   4.686 -1.8562 -0.0269 -0.7377
 5077TIP3    H215196   4.204   2.529   4.755  0.2762 -2.3793  0.5832
 5078TIP3   OH215197   6.051   5.369   5.319 -0.2150 -0.2126  0.2923
 5078TIP3    H115198   6.095   5.391   5.402 -0.8678  1.2483  0.2855
 5078TIP3    H215199   6.089   5.285   5.294  1.0013 -0.0304  1.3721
 5079TIP3   OH215200   2.294   2.068   2.744  0.0802  0.1924  0.1877
 5079TIP3    H115201   2.265   1.980   2.764 -0.3595  0.8354  2.7284
 5079TIP3    H215202   2.344   2.059   2.663  0.7232 -2.5044  0.7882
 5080TIP3   OH215203   6.509   5.785   0.408  0.4757  0.2910 -0.5598
 5080TIP3    H115204   6.448   5.756   0.476  0.5841  1.3811  0.0189
 5080TIP3    H215205   6.498   5.880   0.403  1.4039  0.3866 -1.1513
 5081TIP3   OH215206   5.597   6.036   3.845  0.3085 -0.4213 -0.1747
 5081TIP3    H115207   5.689   6.025   3.865  0.8195  1.9606 -0.9332
 5081TIP3    H215208   5.585   5.991   3.761  0.4004 -1.9331  0.5836
 5082TIP3   OH215209   2.464   0.154   1.589 -0.1784 -0.6709 -0.0697
 5082TIP3    H115210   2.412   0.150   1.508  0.2346 -1.7877 -0.2887
 5082TIP3    H215211   2.549   0.187   1.562  0.3009 -2.0392 -0.2831
 5083TIP3   OH215212   1.725   1.227   1.680 -0.3385  0.0710 -0.1378
 5083TIP3    H115213   1.820   1.236   1.677 -0.0404 -1.5703  2.2758
 5083TIP3    H215214   1.700   1.262   1.765 -1.5790 -1.7043  0.2848
 5084TIP3   OH215215   2.964   5.396   1.684  0.5683 -0.1455  0.2444
 5084TIP3    H115216   3.017   5.475   1.674 -1.6472  1.4786  0.4804
 5084TIP3    H215217   2.960   5.382   1.779 -0.2400  0.3708  0.2972
 5085TIP3   OH215218   6.204   0.351   0.893 -0.1730 -0.1136  0.2323
 5085TIP3    H115219   6.114   0.384   0.889 -0.4077 -0.7359  0.2980
 5085TIP3    H215220   6.214   0.300   0.813 -0.1743 -0.7724  0.6419
 5086TIP3   OH215221   6.039   1.644   0.789 -0.3054  0.1312  0.4156
 5086TIP3    H115222   6.073   1.567   0.744 -0.4914  0.5563 -0.4840
 5086TIP3    H215223   5.960   1.614   0.833  0.2126 -0.4348  0.9629
 5087TIP3   OH215224   5.008   4.673   5.716  0.7546  0.1681 -0.1008
 5087TIP3    H115225   4.958   4.596   5.688 -0.8673  1.4272 -0.8533
 5087TIP3    H215226   5.060   4.697   5.639  0.7038  0.2451 -0.1113
 5088TIP3   OH215227  -0.019   2.440   1.887 -0.0970 -0.4591 -0.1380
 5088TIP3    H115228  -0.007   2.372   1.953  0.6301 -0.7854 -0.5867
 5088TIP3    H215229   0.064   2.487   1.885 -0.6399  0.5477  0.2677
 5089TIP3   OH215230   4.267   4.609   0.416 -0.2437 -0.3535 -0.1030
 5089TIP3    H115231   4.181   4.591   0.379 -1.0769  0.0193  1.5963
 5089TIP3    H215232   4.273   4.705   0.417 -0.0870 -0.3692  0.4058
 5090TIP3   OH215233   2.288   3.540   5.783  0.2789 -0.0214  0.2761
 5090TIP3    H115234   2.212   3.534   5.841  0.9938  0.5973  1.2986
 5090TIP3    H215235   2.251   3.562   5.697 -0.7267 -0.1750  0.6588
 5091TIP3   OH215236   6.173   2.932   1.249 -0.3260 -0.7375  0.0319
 5091TIP3    H115237   6.236   2.961   1.183 -0.3989 -2.3626 -0.8069
 5091TIP3    H215238   6.100   2.993   1.241  0.2699 -0.0729 -0.4126
 5092TIP3   OH215239   2.667   5.436   0.135 -0.1257 -0.5091  0.3993
 5092TIP3    H115240   2.754   5.416   0.103  0.2792  0.2468  0.9744
 5092TIP3    H215241   2.671   5.529   0.159 -0.9172 -0.6026  0.9503
 5093TIP3   OH215242   0.501   5.752   5.359 -0.1919  0.0534  0.6576
 5093TIP3    H115243   0.442   5.824   5.383  0.8530  1.1394  0.0891
 5093TIP3    H215244   0.445   5.690   5.312 -1.4626 -0.3173  2.5328
 5094TIP3   OH215245   7.229   1.902   1.995 -0.3607 -0.0923 -0.1628
 5094TIP3    H115246   7.192   1.857   2.071 -1.1368  0.5842 -0.1273
 5094TIP3    H215247   7.153   1.934   1.946  0.0609 -1.4925 -1.8633
 5095TIP3   OH215248   6.659   1.955   2.977  0.1583 -0.3074 -0.4609
 5095TIP3    H115249   6.708   2.031   2.944 -2.4246  1.1783 -1.1241
 5095TIP3    H215250   6.705   1.880   2.940  1.7351  0.9883 -1.3028
 5096TIP3   OH215251   5.921   1.876   5.743 -0.2358 -0.0490 -0.3392
 5096TIP3    H115252   5.865   1.886   5.666 -1.2556 -0.5201  0.3144
 5096TIP3    H215253   5.912   1.783   5.766 -0.3974  0.2104  0.6718
 5097TIP3   OH215254   2.466   2.279   5.479 -0.4365 -0.0540 -0.1047
 5097TIP3    H115255   2.538   2.287   5.541  0.2077  0.5217 -0.9038
 5097TIP3    H215256   2.400   2.228   5.525  0.2381 -0.0799  0.8590
 5098TIP3   OH215257   3.689   0.640   0.530  0.7426 -0.2404 -0.0190
 5098TIP3    H115258   3.596   0.625   0.514  0.6946 -0.8702  0.7873
 5098TIP3    H215259   3.716   0.699   0.460  0.0917 -1.2689 -1.1822
 5099TIP3   OH215260   4.773   1.669   0.152 -0.0994 -0.3646  0.1583
 5099TIP3    H115261   4.767   1.718   0.070 -2.0399 -3.2246 -1.5856
 5099TIP3    H215262   4.742   1.730   0.219 -2.0224  0.9450 -1.7864
 5100TIP3   OH215263   1.991   1.399   5.643  0.4259 -0.0529  0.2181
 5100TIP3    H115264   2.072   1.413   5.593 -0.7299 -0.8411 -2.0077
 5100TIP3    H215265   1.956   1.487   5.656  0.6669  0.1588 -0.5245
 5101TIP3   OH215266   2.515   2.662   3.627  0.0021 -0.6322 -0.4135
 5101TIP3    H115267   2.516   2.583   3.573  1.0326 -1.6505  1.0165
 5101TIP3    H215268   2.427   2.666   3.664 -0.3084 -0.6356 -1.1418
 5102TIP3   OH215269   3.816   5.405   5.476 -0.2569  0.7325 -0.1350
 5102TIP3    H115270   3.731   5.406   5.432 -0.6434 -1.4677  0.4226
 5102TIP3    H215271   3.867   5.340   5.426 -0.1779 -0.6494  1.6521
 5103TIP3   OH215272   6.926   5.439   4.427  0.1172  0.2760  0.3818
 5103TIP3    H115273   6.930   5.496   4.504  0.2880 -2.4288  2.4962
 5103TIP3    H215274   7.017   5.429   4.400  0.0818  0.9941 -0.0369
 5104TIP3   OH215275   0.861   0.744   0.914  0.0108 -0.4167 -0.3902
 5104TIP3    H115276   0.893   0.832   0.891 -0.0269 -0.6554 -1.3728
 5104TIP3    H215277   0.909   0.722   0.994 -2.5396  1.9371  1.9933
 5105TIP3   OH215278   1.968   5.612   5.109 -0.2893  0.3097  0.1715
 5105TIP3    H115279   1.901   5.552   5.142  0.6741  0.3903  2.5251
 5105TIP3    H215280   2.034   5.613   5.179  0.8404  2.3093 -0.8611
 5106TIP3   OH215281   1.973   5.965   3.226 -0.2143  0.1361  0.0231
 5106TIP3    H115282   2.003   5.970   3.136 -0.2694  0.3161  0.0145
 5106TIP3    H215283   2.033   5.904   3.268 -0.2636 -0.0434 -0.1650
 5107TIP3   OH215284   4.418   5.699   3.071  0.1272  0.1758 -1.0260
 5107TIP3    H115285   4.442   5.617   3.028 -1.5233 -1.1437  0.4399
 5107TIP3    H215286   4.439   5.685   3.163 -0.6778  1.1780 -0.6698
 5108TIP3   OH215287   5.291   0.219   1.654  0.2236  0.0381 -0.3290
 5108TIP3    H115288   5.348   0.250   1.724  2.0982 -1.7720 -0.9219
 5108TIP3    H215289   5.286   0.124   1.668  3.2279 -0.9603 -4.1937
 5109TIP3   OH215290   1.477   0.826   4.610 -0.5487  0.4774  0.2329
 5109TIP3    H115291   1.489   0.732   4.626  1.0025  0.6072  0.0420
 5109TIP3    H215292   1.441   0.830   4.521  0.1229  0.0688 -0.0729
 5110TIP3   OH215293   1.986   3.230   0.700 -0.4597  0.2124  0.6587
 5110TIP3    H115294   1.959   3.179   0.624  0.6262  0.8509 -0.1936
 5110TIP3    H215295   1.931   3.198   0.772  0.4775 -2.4607  0.3019
 5111TIP3   OH215296   6.192   3.021   0.402  0.0558  0.2564  0.4692
 5111TIP3    H115297   6.146   2.955   0.350  0.2710 -0.1488  0.7850
 5111TIP3    H215298   6.125   3.058   0.459 -0.4850  1.6610 -1.0033
 5112TIP3   OH215299   1.236   6.328   2.230  0.0906  0.2500  0.8227
 5112TIP3    H115300   1.198   6.355   2.314  0.7551  0.8790  0.9390
 5112TIP3    H215301   1.313   6.384   2.221 -0.2451  0.5221 -0.4377
 5113TIP3   OH215302   4.216   3.808   5.425 -0.3262 -0.0613 -0.0863
 5113TIP3    H115303   4.192   3.869   5.355 -0.0382 -0.0880 -0.2126
 5113TIP3    H215304   4.218   3.861   5.504 -2.5690 -0.4057  0.2624
 5114TIP3   OH215305   6.167   4.121   4.553  0.2413  0.1380  0.2330
 5114TIP3    H115306   6.144   4.030   4.571 -1.1282  0.5471  0.6231
 5114TIP3    H215307   6.193   4.121   4.460 -0.4932 -0.5120  0.0165
 5115TIP3   OH215308   7.005   4.440   5.414 -0.6987 -0.1651  0.4969
 5115TIP3    H115309   6.941   4.382   5.372  0.8626 -2.2989  0.8543
 5115TIP3    H215310   7.047   4.384   5.480  1.5864  1.0848  0.1942
 5116TIP3   OH215311   6.239   4.368   4.850 -0.2042 -0.4180 -0.1385
 5116TIP3    H115312   6.320   4.386   4.898  0.6969 -0.4524 -1.5727
 5116TIP3    H215313   6.170   4.371   4.917  0.8181  0.8344  0.9203
 5117TIP3   OH215314   4.585   4.781   5.096  0.2647 -0.7189  0.7578
 5117TIP3    H115315   4.551   4.808   5.010 -0.5863  0.6813  1.5022
 5117TIP3    H215316   4.561   4.689   5.103  1.8330 -1.3667 -1.1999
 5118TIP3   OH215317   0.909   4.669   2.770 -0.2056  0.7675 -0.4282
 5118TIP3    H115318   0.840   4.731   2.795 -0.3656  0.0686  0.9722
 5118TIP3    H215319   0.956   4.650   2.851  0.5577 -0.0802 -1.0355
 5119TIP3   OH215320   0.307   5.565   5.224  0.2581  0.2353  0.1487
 5119TIP3    H115321   0.305   5.479   5.183 -0.3732 -0.3035  1.2475
 5119TIP3    H215322   0.262   5.553   5.308 -1.7729  2.0996 -0.5599
 5120TIP3   OH215323   0.729   4.483   4.336  0.0960  0.4021 -0.3463
 5120TIP3    H115324   0.762   4.564   4.374 -1.4361  0.6100  0.6163
 5120TIP3    H215325   0.635   4.483   4.356 -0.0424 -1.3284 -0.8184
 5121TIP3   OH215326   6.412   5.345   5.326 -0.3826 -0.8700  0.4692
 5121TIP3    H115327   6.337   5.286   5.331 -1.7126  0.5096 -1.6267
 5121TIP3    H215328   6.379   5.422   5.280  2.7498 -1.0257 -2.4238
 5122TIP3   OH215329   6.560   0.462   5.014 -0.3418  0.2410 -0.0332
 5122TIP3    H115330   6.466   0.468   4.996 -0.3393  0.1477 -0.0780
 5122TIP3    H215331   6.600   0.531   4.961 -0.3798  0.2464 -0.0548
 5123TIP3   OH215332   4.067   1.809   2.600  0.5217  0.2821  0.4096
 5123TIP3    H115333   4.004   1.791   2.530 -2.5156  0.2208  2.9453
 5123TIP3    H215334   4.081   1.725   2.643  0.9234  0.6399  0.9978
 5124TIP3   OH215335   3.079   1.157   4.357  0.2745  0.1909  0.3316
 5124TIP3    H115336   3.108   1.173   4.447  0.4254 -1.1950  0.5473
 5124TIP3    H215337   3.038   1.071   4.360 -3.0428  1.6071 -0.1728
 5125TIP3   OH215338   6.044   3.370   3.844  0.0841 -0.5945  0.2369
 5125TIP3    H115339   6.037   3.448   3.790 -1.0163 -1.2921 -0.6638
 5125TIP3    H215340   6.126   3.382   3.892  1.0603  0.1102 -1.4959
 5126TIP3   OH215341   4.357   2.442   4.247 -0.2022 -0.4970  0.2317
 5126TIP3    H115342   4.295   2.498   4.295 -0.6279  0.1683 -1.0575
 5126TIP3    H215343   4.435   2.440   4.303  0.2913  2.4110 -0.1957
 5127TIP3   OH215344   7.227   1.993   4.234  0.3502  0.1076 -0.1540
 5127TIP3    H115345   7.151   1.972   4.180  1.6681 -1.3080 -1.5789
 5127TIP3    H215346   7.213   2.084   4.260 -2.7173 -0.6299  1.2562
 5128TIP3   OH215347   1.263   6.713   1.910  0.5381  0.4187  0.1591
 5128TIP3    H115348   1.222   6.797   1.892  0.0211  0.3916  1.1805
 5128TIP3    H215349   1.282   6.715   2.004  1.2504 -0.2830  0.0392
 5129TIP3   OH215350   4.719   5.790   3.049  0.1429  0.1754 -0.5618
 5129TIP3    H115351   4.633   5.752   3.065  0.3377 -0.1506 -0.2584
 5129TIP3    H215352   4.777   5.741   3.108  0.2223  1.6575  0.6591
 5130TIP3   OH215353   1.119   4.448   4.613  0.5097  0.1916  0.4772
 5130TIP3    H115354   1.143   4.528   4.659  0.1152  0.6113 -0.0287
 5130TIP3    H215355   1.023   4.446   4.616  0.4924  0.0416 -0.0098
 5131TIP3   OH215356   0.532   2.283   0.977 -0.8662 -0.5087 -0.2200
 5131TIP3    H115357   0.576   2.368   0.969 -1.6240 -0.1539 -0.7160
 5131TIP3    H215358   0.517   2.273   1.071  0.0179 -0.5167 -0.0655
 5132TIP3   OH215359   1.946   6.316   0.713 -0.0908 -0.2770 -0.1134
 5132TIP3    H115360   1.941   6.411   0.725 -0.6133 -0.1427 -1.3143
 5132TIP3    H215361   1.873   6.295   0.654  0.1082 -1.4088  0.0192
 5133TIP3   OH215362   2.617   5.780   1.539  0.2646 -0.2079  0.3452
 5133TIP3    H115363   2.676   5.712   1.572  0.9765  0.2194 -0.0098
 5133TIP3    H215364   2.675   5.855   1.521 -0.3976  0.2390  0.0351
 5134TIP3   OH215365   6.378   4.936   1.698  0.4265 -0.2882 -0.6610
 5134TIP3    H115366   6.303   4.880   1.677 -0.1440  0.5118 -0.7995
 5134TIP3    H215367   6.384   4.996   1.624  0.9875 -0.1209 -0.4781
 5135TIP3   OH215368   2.305   1.097   0.412 -0.0376  0.0517  0.4739
 5135TIP3    H115369   2.259   1.099   0.496 -1.5043  0.9953 -0.3205
 5135TIP3    H215370   2.386   1.146   0.428 -0.1213 -0.0924  1.4206
 5136TIP3   OH215371   5.979   2.428   4.353  0.0368  0.3805 -0.3756
 5136TIP3    H115372   5.995   2.343   4.313 -1.2149 -0.0225 -0.0552
 5136TIP3    H215373   6.035   2.429   4.430 -1.2259 -0.9073  0.6128
 5137TIP3   OH215374   2.475   3.730   1.624 -0.5730  0.8152  0.6199
 5137TIP3    H115375   2.446   3.732   1.715  0.6151  0.0921  1.0374
 5137TIP3    H215376   2.563   3.692   1.627 -1.2966 -1.2369 -1.0245
 5138TIP3   OH215377   2.646   6.660   4.337  0.4193 -0.0867  0.3419
 5138TIP3    H115378   2.597   6.718   4.395 -1.0833 -0.9834  0.0100
 5138TIP3    H215379   2.672   6.715   4.264 -2.3375 -0.1033 -0.7505
 5139TIP3   OH215380   7.190   1.715   2.555 -0.7532 -0.2945  0.0706
 5139TIP3    H115381   7.172   1.676   2.640 -0.4288  0.1844  0.3617
 5139TIP3    H215382   7.168   1.646   2.492 -1.7824 -0.3807  0.4967
 5140TIP3   OH215383   5.213   4.876   4.056  0.1730 -0.3682  0.2490
 5140TIP3    H115384   5.157   4.808   4.020 -1.0223  1.0236 -0.6592
 5140TIP3    H215385   5.153   4.937   4.098  0.9169  1.2743 -0.9398
 5141TIP3   OH215386   4.948   1.388   2.344  0.3137 -0.7312  0.6807
 5141TIP3    H115387   5.021   1.417   2.399  1.5502  0.4046 -1.4612
 5141TIP3    H215388   4.989   1.354   2.265 -1.4738  0.5578 -0.8838
 5142TIP3   OH215389   5.282   0.314   0.074  0.3166  0.1995 -0.2623
 5142TIP3    H115390   5.290   0.360  -0.010 -1.1619 -1.1240 -1.1706
 5142TIP3    H215391   5.292   0.384   0.140  0.0694  1.5057 -1.5510
 5143TIP3   OH215392   1.293   4.203   3.809  0.3037  0.1206  0.0796
 5143TIP3    H115393   1.272   4.284   3.763 -1.1473 -0.3660 -0.1563
 5143TIP3    H215394   1.228   4.198   3.879  0.0905 -1.0569 -0.1921
 5144TIP3   OH215395   6.344   4.091   3.727 -0.0288  0.4474  0.1080
 5144TIP3    H115396   6.377   4.177   3.701 -1.4967  1.2437  0.7906
 5144TIP3    H215397   6.292   4.062   3.652 -1.3911  1.2005  0.7117
 5145TIP3   OH215398   1.031   3.604   1.927 -0.4509  0.5218  0.4340
 5145TIP3    H115399   1.089   3.544   1.975 -1.2455  0.2083  1.0166
 5145TIP3    H215400   0.996   3.551   1.856  0.7058  0.9793 -0.5102
 5146TIP3   OH215401   4.613   5.756   0.626  0.1269  0.0628 -0.0725
 5146TIP3    H115402   4.603   5.846   0.658 -1.7272  0.2534 -1.0539
 5146TIP3    H215403   4.565   5.755   0.543  2.0324 -1.2741 -1.2216
 5147TIP3   OH215404   3.245   4.639   3.686  0.2445 -0.4769  0.2793
 5147TIP3    H115405   3.258   4.628   3.780  0.0798 -1.3689  0.2037
 5147TIP3    H215406   3.180   4.708   3.679 -0.6652 -1.2498  0.8605
 5148TIP3   OH215407   6.266   6.742   3.220  0.2998 -0.0591  0.5106
 5148TIP3    H115408   6.309   6.824   3.243 -1.0203  0.9065 -0.2924
 5148TIP3    H215409   6.273   6.738   3.125 -1.3223  0.1170  0.3644
 5149TIP3   OH215410   3.391   1.733   4.188  0.0231  0.0388 -0.5560
 5149TIP3    H115411   3.318   1.765   4.241  0.3022  0.0402 -0.1660
 5149TIP3    H215412   3.379   1.774   4.102  0.0553  0.7371 -0.2303
 5150TIP3   OH215413   3.099   0.329   3.901  0.2240 -0.3765 -0.4947
 5150TIP3    H115414   3.184   0.314   3.860  0.9420 -0.3497  0.9478
 5150TIP3    H215415   3.118   0.343   3.993 -1.5278 -2.6414  0.3100
 5151TIP3   OH215416   4.740   0.954   3.365  0.5714 -0.1428  0.0248
 5151TIP3    H115417   4.677   0.950   3.293  0.6503  0.8231 -0.1011
 5151TIP3    H215418   4.691   0.927   3.442  0.1295  0.1364 -0.1568
 5152TIP3   OH215419   3.043   0.988   5.412  0.2149  0.3644 -0.9202
 5152TIP3    H115420   3.132   1.009   5.439  0.7294 -0.6897 -1.7176
 5152TIP3    H215421   2.994   0.980   5.494  1.1423 -0.2420 -0.4161
 5153TIP3   OH215422   5.439   6.673   4.007 -0.1805  0.2705 -0.0336
 5153TIP3    H115423   5.519   6.686   3.957  0.1858  1.8067  0.8966
 5153TIP3    H215424   5.375   6.731   3.967 -0.3842  0.2052  0.1907
 5154TIP3   OH215425   3.653   0.373   2.185  0.9056 -0.8515  0.2756
 5154TIP3    H115426   3.581   0.315   2.208 -0.2695  0.6716  0.5848
 5154TIP3    H215427   3.648   0.380   2.089 -1.2892  1.5178  0.4577
 5155TIP3   OH215428   6.552   3.999   0.828  0.4343 -0.0068  0.0268
 5155TIP3    H115429   6.510   3.962   0.751 -1.0597 -0.7423  1.1297
 5155TIP3    H215430   6.507   4.082   0.842  0.8257  0.2106  0.0033
 5156TIP3   OH215431   5.187   3.926   4.491 -0.2392 -0.0777 -0.1701
 5156TIP3    H115432   5.274   3.942   4.527 -1.1200  2.0581  1.2014
 5156TIP3    H215433   5.138   3.885   4.562 -0.7604  0.0671 -0.4411
 5157TIP3   OH215434   2.227   4.917   1.536  0.1436 -0.5753 -0.2204
 5157TIP3    H115435   2.206   5.008   1.513  0.0930 -0.3858  0.5417
 5157TIP3    H215436   2.293   4.890   1.472  1.4504  0.5741  0.5992
 5158TIP3   OH215437   1.680   1.714   5.745 -0.5620  0.2153 -0.0267
 5158TIP3    H115438   1.649   1.728   5.834 -0.4848  4.2359 -0.4572
 5158TIP3    H215439   1.602   1.693   5.695 -0.8561 -0.4345  0.6838
 5159TIP3   OH215440   5.216   6.616   5.155  0.3762  0.2466 -0.0819
 5159TIP3    H115441   5.135   6.568   5.173  0.8910  0.0662  1.9259
 5159TIP3    H215442   5.274   6.594   5.227  2.8541 -0.9114 -2.2451
 5160TIP3   OH215443   2.578   4.220   5.196  0.4130 -0.0795 -0.0494
 5160TIP3    H115444   2.630   4.166   5.137 -1.1676 -1.0841 -0.5917
 5160TIP3    H215445   2.593   4.181   5.282  1.9902  0.8117  0.1174
 5161TIP3   OH215446   3.340   2.646   0.625 -0.0448  0.1183 -0.0964
 5161TIP3    H115447   3.406   2.583   0.597  1.7486  2.2656 -0.9103
 5161TIP3    H215448   3.382   2.697   0.694 -1.1367  0.9899 -0.0362
 5162TIP3   OH215449   4.109   0.428   3.762  0.0161 -0.5251 -0.4251
 5162TIP3    H115450   4.035   0.456   3.815 -0.5422 -0.8631 -0.9972
 5162TIP3    H215451   4.177   0.493   3.777 -0.9554  0.6818 -1.1004
 5163TIP3   OH215452   4.103   0.622   5.685  0.0679  0.4844 -0.4366
 5163TIP3    H115453   4.162   0.679   5.733  1.0512 -0.3035 -0.6707
 5163TIP3    H215454   4.061   0.679   5.621 -0.4961  1.3315  0.6618
 5164TIP3   OH215455   1.337   6.533   2.993  0.1017  0.1364  0.5147
 5164TIP3    H115456   1.394   6.457   3.002  0.2823  0.2959  0.7143
 5164TIP3    H215457   1.391   6.607   3.019  0.6583  0.6318 -1.8438
 5165TIP3   OH215458   4.933   3.314   3.566  0.1639  0.1968  0.1475
 5165TIP3    H115459   4.900   3.285   3.652 -0.0127 -0.0919 -0.0141
 5165TIP3    H215460   4.970   3.234   3.528 -0.1362  0.2305 -0.2171
 5166TIP3   OH215461   1.995   3.508   4.116 -0.8169 -0.2408 -0.1437
 5166TIP3    H115462   2.030   3.596   4.106  0.5693 -0.5051  1.8988
 5166TIP3    H215463   2.012   3.485   4.207 -1.7027 -2.3933 -0.4610
 5167TIP3   OH215464   2.357   4.221   4.877 -0.5760  0.1870 -0.2372
 5167TIP3    H115465   2.370   4.128   4.859 -1.3954  0.2270 -1.0606
 5167TIP3    H215466   2.279   4.224   4.932  0.2777  0.2955  1.0247
 5168TIP3   OH215467   1.301   1.108   1.034 -0.2739  0.1028 -0.5975
 5168TIP3    H115468   1.397   1.113   1.038 -0.2519 -0.1081 -0.8576
 5168TIP3    H215469   1.283   1.032   0.980 -0.5909  0.2098 -0.6442
 5169TIP3   OH215470   3.270   5.485   4.453  0.3533 -0.2676 -0.5769
 5169TIP3    H115471   3.200   5.420   4.455 -0.6179  0.7820  0.8629
 5169TIP3    H215472   3.348   5.437   4.483 -1.1349 -0.0168  4.6968
 5170TIP3   OH215473   2.139   6.662   0.484 -0.2256  0.0814 -0.8591
 5170TIP3    H115474   2.155   6.569   0.470  0.3094  0.1704 -0.8356
 5170TIP3    H215475   2.076   6.686   0.416  3.1054  0.7702 -3.9552
 5171TIP3   OH215476   0.350   5.206   1.295 -0.4698 -0.2953  0.0411
 5171TIP3    H115477   0.339   5.223   1.201  0.0810 -2.0439 -0.3840
 5171TIP3    H215478   0.269   5.237   1.335 -0.5352  0.8767 -0.9450
 5172TIP3   OH215479   4.834   3.172   2.445  0.1437 -0.0262  0.1545
 5172TIP3    H115480   4.885   3.098   2.478  1.0499  0.6856  0.3954
 5172TIP3    H215481   4.896   3.221   2.391 -0.4165  0.6039  0.0824
 5173TIP3   OH215482   4.779   0.634   2.010 -0.1434 -0.2543  0.0388
 5173TIP3    H115483   4.863   0.671   2.037 -0.7824 -0.5011  2.6554
 5173TIP3    H215484   4.739   0.703   1.957  0.8988  0.6731  0.4135
 5174TIP3   OH215485   0.255   4.005   1.542  0.0691  0.4938  0.0660
 5174TIP3    H115486   0.307   3.928   1.563 -0.1010  0.0831 -0.9817
 5174TIP3    H215487   0.241   4.048   1.626 -1.2656 -1.5150  0.9424
 5175TIP3   OH215488   5.339   4.936   4.659 -0.0364  0.3067  0.2550
 5175TIP3    H115489   5.257   4.898   4.691  0.3543  0.0185  0.9182
 5175TIP3    H215490   5.382   4.971   4.737  0.3006  0.7965 -0.1442
 5176TIP3   OH215491   6.807   2.331   3.412 -0.4950 -0.3321  0.2562
 5176TIP3    H115492   6.723   2.290   3.431 -0.2574 -1.3359 -0.7557
 5176TIP3    H215493   6.827   2.382   3.490 -0.7663 -2.2480  1.6441
 5177TIP3   OH215494   0.676   5.568   3.993  0.5790 -0.0999 -0.3646
 5177TIP3    H115495   0.677   5.522   4.077 -2.8868  0.2641  0.0394
 5177TIP3    H215496   0.647   5.502   3.930 -1.4609  0.6787 -0.3272
 5178TIP3   OH215497   2.906   5.148   1.841  0.4546 -0.1269  0.1230
 5178TIP3    H115498   2.816   5.146   1.874  1.0736 -0.5149  1.9003
 5178TIP3    H215499   2.902   5.097   1.761 -1.3921  1.9770 -1.2530
 5179TIP3   OH215500   5.899   0.311   2.835  0.0815 -0.4251  0.1741
 5179TIP3    H115501   5.993   0.300   2.851  0.0842 -1.0784 -0.2305
 5179TIP3    H215502   5.886   0.405   2.828  0.5488 -0.2856  1.1502
 5180TIP3   OH215503   0.034   0.507   3.908  0.3659 -0.0984 -0.6498
 5180TIP3    H115504   0.069   0.572   3.968 -1.6526 -1.4286  2.2672
 5180TIP3    H215505  -0.060   0.527   3.903  0.1825 -1.1306 -1.9487
 5181TIP3   OH215506   0.310   4.051   5.354  0.2478 -0.1322 -0.4433
 5181TIP3    H115507   0.402   4.050   5.327 -0.4465  0.1900 -2.9997
 5181TIP3    H215508   0.306   4.120   5.421  2.1255 -1.2204  0.8828
 5182TIP3   OH215509   3.847   3.528   0.574 -0.5449  0.3676  0.5294
 5182TIP3    H115510   3.899   3.601   0.607  0.3667 -0.3777  0.7724
 5182TIP3    H215511   3.767   3.569   0.541  0.0318  1.4944  0.4825
 5183TIP3   OH215512   2.946   1.266   0.670 -0.5956 -0.0345  0.3018
 5183TIP3    H115513   3.012   1.302   0.730  0.3393 -1.2165  0.0098
 5183TIP3    H215514   2.880   1.335   0.664  0.0913  0.7601  1.4206
 5184TIP3   OH215515   6.357   1.099   1.748 -0.1551  0.0471 -0.2693
 5184TIP3    H115516   6.325   1.188   1.760  0.0824  0.0867  0.0793
 5184TIP3    H215517   6.303   1.046   1.808 -2.1208 -0.4680 -2.3434
 5185TIP3   OH215518   4.482   5.330   1.614 -0.5918 -0.3775  0.0869
 5185TIP3    H115519   4.468   5.367   1.527  0.2830 -2.4143 -0.9871
 5185TIP3    H215520   4.548   5.386   1.654  1.6865 -1.4420 -1.9886
 5186TIP3   OH215521   1.013   5.910   5.613 -0.5544 -0.7399 -0.4702
 5186TIP3    H115522   1.043   5.993   5.577 -1.8445 -0.4973 -1.0301
 5186TIP3    H215523   1.093   5.865   5.639  0.1876  0.4978 -0.5366
 5187TIP3   OH215524   1.666   3.927   3.604 -0.5269  0.1765 -0.4307
 5187TIP3    H115525   1.592   3.876   3.637  0.8710 -0.6149  1.6707
 5187TIP3    H215526   1.653   4.014   3.641 -0.7606  0.2353 -0.6455
 5188TIP3   OH215527   5.353   4.122   4.733  0.3519 -0.0483  0.1031
 5188TIP3    H115528   5.405   4.077   4.667 -0.6577 -1.0789 -0.0353
 5188TIP3    H215529   5.414   4.143   4.803  1.9164  2.9231 -1.9524
 5189TIP3   OH215530   3.659   3.793   3.403  0.5953 -0.3128  0.1120
 5189TIP3    H115531   3.620   3.830   3.482 -0.6848 -0.8011 -0.2601
 5189TIP3    H215532   3.709   3.864   3.365 -0.4307  0.5435  0.3076
 5190TIP3   OH215533   4.694   5.690   4.322 -0.1187 -0.0857  0.3053
 5190TIP3    H115534   4.635   5.634   4.373 -1.1714 -0.6995 -1.4974
 5190TIP3    H215535   4.752   5.629   4.277  0.5417  0.4230  0.4626
 5191TIP3   OH215536   1.814   1.155   2.736 -0.5056  0.7133  0.2749
 5191TIP3    H115537   1.868   1.080   2.710 -0.4061  1.0774 -0.5847
 5191TIP3    H215538   1.816   1.154   2.832  0.3457  0.2341  0.2577
 5192TIP3   OH215539   0.099   5.008   0.443  0.5686 -0.4948  0.2177
 5192TIP3    H115540   0.145   5.080   0.400 -1.4551  0.7414 -0.0007
 5192TIP3    H215541   0.007   5.033   0.441 -0.0239 -2.2672  1.7465
 5193TIP3   OH215542   5.058   5.823   2.021 -0.3853 -0.0793  0.2511
 5193TIP3    H115543   5.048   5.729   2.009  0.2564  0.0250 -1.3501
 5193TIP3    H215544   4.989   5.847   2.083 -0.4977 -1.6024  0.7462
 5194TIP3   OH215545   2.752   6.239   5.493  0.2483 -0.3068  0.5958
 5194TIP3    H115546   2.743   6.276   5.581 -0.5297  2.6992 -0.6018
 5194TIP3    H215547   2.717   6.151   5.500  1.7758 -0.8176  3.6194
 5195TIP3   OH215548   4.486   5.996   5.687 -0.2544 -0.1152 -0.1439
 5195TIP3    H115549   4.533   5.914   5.700 -1.2649 -0.7026 -0.1132
 5195TIP3    H215550   4.401   5.982   5.727  0.0844  1.4988  1.2511
 5196TIP3   OH215551   5.688   4.310   5.209  0.2184 -0.5945  0.3513
 5196TIP3    H115552   5.609   4.279   5.252 -0.0474  0.2816  0.5196
 5196TIP3    H215553   5.760   4.288   5.268 -0.1771  0.9512  1.4798
 5197TIP3   OH215554   0.893   2.746   0.222 -0.6995 -0.0920 -0.4513
 5197TIP3    H115555   0.925   2.702   0.301 -0.1926  0.2841 -0.4418
 5197TIP3    H215556   0.925   2.692   0.150  1.3205  1.1008 -0.5097
 5198TIP3   OH215557   1.722   0.122   3.467  0.4785 -0.4928  0.4792
 5198TIP3    H115558   1.788   0.189   3.481 -0.7899  0.7573  0.7459
 5198TIP3    H215559   1.700   0.128   3.374  1.4110 -1.5872  0.1655
 5199TIP3   OH215560   1.591   6.180   0.899  0.8103 -0.0922  0.0128
 5199TIP3    H115561   1.517   6.119   0.892  1.0036 -0.3150 -0.1159
 5199TIP3    H215562   1.662   6.136   0.853  0.5544  0.8701 -1.3368
 5200TIP3   OH215563   2.546   3.871   5.513  0.1703  0.4879 -0.4582
 5200TIP3    H115564   2.566   3.839   5.424  0.5069  0.6566 -0.4423
 5200TIP3    H215565   2.560   3.965   5.508 -2.2199  0.8793 -0.8952
 5201TIP3   OH215566   2.227   3.296   1.253  0.5718 -0.3652 -0.6217
 5201TIP3    H115567   2.188   3.209   1.252  0.2402 -0.2493  0.5445
 5201TIP3    H215568   2.180   3.344   1.185 -0.4605 -0.5995 -0.0979
 5202TIP3   OH215569   6.491   6.105   3.465 -0.7358  0.1266 -0.2174
 5202TIP3    H115570   6.545   6.130   3.390  1.3205  0.3640  1.2559
 5202TIP3    H215571   6.468   6.188   3.506 -2.0150  0.0087 -0.6569
 5203TIP3   OH215572   1.286   3.481   2.046 -0.1540  0.3414  0.4682
 5203TIP3    H115573   1.309   3.399   2.002  0.3523  0.6756  0.1043
 5203TIP3    H215574   1.369   3.526   2.060 -0.3573  0.4806  1.3069
 5204TIP3   OH215575   5.202   1.532   5.724 -0.0756  0.1976  0.1909
 5204TIP3    H115576   5.212   1.589   5.800 -0.1486 -0.5374  0.7719
 5204TIP3    H215577   5.291   1.504   5.704 -0.2309 -1.2701  1.3474
 5205TIP3   OH215578   6.374   5.653   4.521  0.0232 -0.0295 -0.1590
 5205TIP3    H115579   6.417   5.658   4.606  0.4015 -2.7704 -0.0991
 5205TIP3    H215580   6.424   5.588   4.472  0.1981  1.9037 -2.7796
 5206TIP3   OH215581   3.398   3.179   2.707  0.2904  0.2262 -0.5941
 5206TIP3    H115582   3.444   3.230   2.641  2.1948  0.3653  0.7588
 5206TIP3    H215583   3.467   3.143   2.762 -1.2474  1.2126  2.1502
 5207TIP3   OH215584   5.717   5.575   4.216  0.2251 -0.2590 -0.5597
 5207TIP3    H115585   5.639   5.534   4.178  0.1771 -0.0690 -0.6676
 5207TIP3    H215586   5.682   5.640   4.276  0.2934 -1.1614  0.4854
 5208TIP3   OH215587   2.834   3.338   3.923 -0.3946 -0.7696  0.3220
 5208TIP3    H115588   2.782   3.332   3.842  0.4601  0.4806 -0.3486
 5208TIP3    H215589   2.800   3.415   3.968  0.7312 -0.0416 -0.0398
 5209TIP3   OH215590   4.284   2.875   3.842 -0.4019  0.4754 -0.4882
 5209TIP3    H115591   4.280   2.968   3.863  0.2037  0.4847 -0.3957
 5209TIP3    H215592   4.266   2.831   3.925 -0.1728  0.5133 -0.4168
 5210TIP3   OH215593   5.823   0.666   3.802 -0.4159  0.0653 -0.1746
 5210TIP3    H115594   5.860   0.644   3.717  0.1879 -0.5798  0.2347
 5210TIP3    H215595   5.734   0.694   3.784 -0.6305 -1.0349 -0.9302
 5211TIP3   OH215596   0.614   5.180   5.250 -0.6304  0.5701 -0.1601
 5211TIP3    H115597   0.611   5.089   5.221 -0.6071  1.0501 -1.7456
 5211TIP3    H215598   0.703   5.191   5.285 -0.0045  0.4483 -1.6339
 5212TIP3   OH215599   4.605   2.562   4.477  0.2805 -0.0766 -0.0962
 5212TIP3    H115600   4.621   2.470   4.453  2.7418 -0.1463  1.4870
 5212TIP3    H215601   4.628   2.611   4.399 -0.0318 -0.7324 -0.6139
 5213TIP3   OH215602   5.690   6.116   4.209 -0.1975 -0.0580 -0.0455
 5213TIP3    H115603   5.752   6.046   4.230 -0.8135 -0.7451 -0.4805
 5213TIP3    H215604   5.744   6.183   4.167  0.5032 -0.0029  0.9007
 5214TIP3   OH215605   5.508   2.355   4.087  0.0814 -0.3299 -0.5045
 5214TIP3    H115606   5.434   2.356   4.027 -0.4821 -3.0819 -0.0107
 5214TIP3    H215607   5.585   2.360   4.030 -0.4717 -1.0765 -1.3559
 5215TIP3   OH215608   3.999   3.705   3.915  0.3239  0.6345 -0.5240
 5215TIP3    H115609   4.031   3.617   3.934 -0.2758  1.0034  2.9085
 5215TIP3    H215610   3.904   3.694   3.905  0.1695  0.9049  0.4923
 5216TIP3   OH215611   0.168   4.830   5.419  0.1123  0.3539 -0.6908
 5216TIP3    H115612   0.177   4.754   5.476 -2.3910  0.0193 -0.6482
 5216TIP3    H215613   0.199   4.904   5.472 -2.0501  0.0425  1.1681
 5217TIP3   OH215614   3.083   5.202   3.398  0.4137 -0.0784 -0.0607
 5217TIP3    H115615   3.127   5.242   3.323 -0.9238  0.1258 -0.7526
 5217TIP3    H215616   3.133   5.233   3.474  1.6210 -0.0817 -0.8237
 5218TIP3   OH215617   6.932   4.489   1.756  0.3232  0.3664 -1.0188
 5218TIP3    H115618   6.859   4.536   1.714 -0.0656 -0.0819 -0.8553
 5218TIP3    H215619   6.992   4.558   1.783 -0.7062  0.8536  0.0944
 5219TIP3   OH215620   3.235   0.952   2.833 -0.1094 -0.4018  0.0594
 5219TIP3    H115621   3.291   0.960   2.911  0.6225  1.0776 -0.5875
 5219TIP3    H215622   3.219   0.858   2.825 -0.0416 -0.6010  1.8843
 5220TIP3   OH215623   5.928   2.549   3.749 -0.2400 -0.1325  0.3728
 5220TIP3    H115624   5.859   2.586   3.695  0.2587 -0.5183 -0.5571
 5220TIP3    H215625   5.929   2.456   3.727  1.0395 -0.0151 -0.1746
 5221TIP3   OH215626   6.066   5.153   1.429  0.2452  0.5239 -0.6203
 5221TIP3    H115627   5.998   5.190   1.373 -0.7533  0.9526  0.8122
 5221TIP3    H215628   6.044   5.185   1.517  1.2288 -0.8723  0.1647
 5222TIP3   OH215629   6.946   1.334   0.209  0.3376 -0.0072  0.2005
 5222TIP3    H115630   6.872   1.356   0.266  0.6839  0.0089  0.6501
 5222TIP3    H215631   6.924   1.375   0.125 -0.8625 -1.2331 -0.1212
 5223TIP3   OH215632   6.165   6.110   3.357 -0.0519 -0.7563  0.0963
 5223TIP3    H115633   6.070   6.122   3.360 -0.2865 -1.6344 -1.8821
 5223TIP3    H215634   6.196   6.175   3.295  0.6811 -0.3451  0.8793
 5224TIP3   OH215635   6.455   5.016   4.033 -0.1007 -0.1408 -0.2225
 5224TIP3    H115636   6.514   4.942   4.046  0.3105 -0.4865 -3.3562
 5224TIP3    H215637   6.457   5.063   4.116  0.5868 -2.9196  1.4618
 5225TIP3   OH215638   6.352   5.647   4.024  0.1878  0.1028  0.3461
 5225TIP3    H115639   6.327   5.666   3.934 -1.9679 -0.7797  0.6985
 5225TIP3    H215640   6.433   5.697   4.038  0.4301  0.4470 -1.9685
 5226TIP3   OH215641   4.086   1.342   3.668  0.4049  0.4529  0.4929
 5226TIP3    H115642   4.058   1.366   3.757  0.6639 -2.7890  1.5580
 5226TIP3    H215643   4.006   1.309   3.626  0.6639  0.2008  0.1921
 5227TIP3   OH215644   3.409   3.628   4.317  0.8712  0.1700  0.5837
 5227TIP3    H115645   3.464   3.662   4.387 -0.8434  2.6111  0.8586
 5227TIP3    H215646   3.423   3.687   4.244  0.7877 -0.9036 -0.3187
 5228TIP3   OH215647   2.978   6.333   5.772 -0.3670 -0.3644 -0.1846
 5228TIP3    H115648   2.942   6.253   5.734 -2.1807  0.7732 -0.9372
 5228TIP3    H215649   3.034   6.369   5.704  0.6301 -1.0466  0.2338
 5229TIP3   OH215650   5.034   3.383   0.742 -0.1605  0.2161 -0.4165
 5229TIP3    H115651   4.980   3.307   0.721 -0.1172  0.2302 -0.5833
 5229TIP3    H215652   5.104   3.348   0.798  1.4991 -0.4468 -2.7309
 5230TIP3   OH215653   0.059   0.246   1.559 -0.1008  0.0368 -1.2337
 5230TIP3    H115654   0.047   0.212   1.648  0.0627  1.5233 -0.6204
 5230TIP3    H215655  -0.008   0.201   1.507 -0.4376 -0.5808 -0.2898
 5231TIP3   OH215656   3.041   5.454   0.632  0.7992 -1.0296  0.6628
 5231TIP3    H115657   3.072   5.418   0.715 -0.2688 -0.2656  1.4037
 5231TIP3    H215658   3.063   5.386   0.567  1.9820 -1.4717  1.4863
 5232TIP3   OH215659   6.608   2.291   2.469  0.2036  0.4878 -0.5878
 5232TIP3    H115660   6.614   2.385   2.488 -1.7373  0.4296  0.6336
 5232TIP3    H215661   6.698   2.260   2.470  0.7300  1.8534  1.8467
 5233TIP3   OH215662   3.867   0.842   4.531 -0.6600  0.1416  0.0760
 5233TIP3    H115663   3.785   0.840   4.482  0.7665 -0.7313 -2.5044
 5233TIP3    H215664   3.867   0.761   4.581 -1.9723  0.8451  1.2707
 5234TIP3   OH215665   2.541   6.202   3.317 -0.2066  0.3133  0.4016
 5234TIP3    H115666   2.573   6.155   3.395  1.1998  2.0281  0.9350
 5234TIP3    H215667   2.616   6.202   3.257 -0.8559  0.1386 -0.4252
 5235TIP3   OH215668   5.012   3.970   2.518 -0.8449  0.5444  0.1582
 5235TIP3    H115669   5.006   3.877   2.499  0.1112  0.5173 -0.0446
 5235TIP3    H215670   4.942   4.010   2.466 -0.3574  0.0990 -0.8600
 5236TIP3   OH215671   1.145   1.322   5.140 -0.2432 -0.0663 -0.2423
 5236TIP3    H115672   1.091   1.267   5.196  1.0171  0.3147  1.4094
 5236TIP3    H215673   1.124   1.294   5.051 -3.3018  0.2197  0.2812
 5237TIP3   OH215674   6.582   0.009   3.759  0.0590  0.3285 -0.6358
 5237TIP3    H115675   6.657   0.053   3.800  0.6804 -0.0384 -1.3489
 5237TIP3    H215676   6.621  -0.042   3.688 -0.6414 -1.3097  0.1068
 5238TIP3   OH215677   6.107   2.329   2.351 -0.6098  0.2302  0.2272
 5238TIP3    H115678   6.051   2.294   2.282  1.4216 -1.9529 -0.4429
 5238TIP3    H215679   6.160   2.395   2.308  0.0299 -0.4883 -0.0950
 5239TIP3   OH215680   0.149   4.962   5.817 -0.0115  0.2065 -0.1500
 5239TIP3    H115681   0.146   4.867   5.814  2.2192  0.0435  0.6957
 5239TIP3    H215682   0.187   4.983   5.902  0.4756  1.7827 -0.7055
 5240TIP3   OH215683   5.120   6.217   4.512  0.0083 -0.1265 -0.0890
 5240TIP3    H115684   5.080   6.253   4.432 -0.4543  0.0874  0.2365
 5240TIP3    H215685   5.048   6.174   4.557  0.8741 -3.1413 -1.3662
 5241TIP3   OH215686   4.653   5.663   5.304  0.5167 -0.6097  0.2265
 5241TIP3    H115687   4.615   5.748   5.282  0.5971 -0.4582  0.6755
 5241TIP3    H215688   4.590   5.599   5.272 -1.3543 -0.3580  3.0811
 5242TIP3   OH215689   2.177   6.580   5.805 -0.3483  0.1840 -0.0033
 5242TIP3    H115690   2.120   6.511   5.773  0.1710  0.0542 -0.6638
 5242TIP3    H215691   2.149   6.594   5.896 -1.6403  0.3531 -0.4073
 5243TIP3   OH215692   5.086   5.139   0.566 -0.5235 -0.0811 -0.7236
 5243TIP3    H115693   5.047   5.223   0.594 -0.9011 -0.7286  0.8184
 5243TIP3    H215694   5.164   5.164   0.517 -1.4391  1.2031 -1.5950
 5244TIP3   OH215695   1.007   5.528   1.540 -0.1184  0.4990  0.5304
 5244TIP3    H115696   1.005   5.480   1.458 -0.6259  0.5929  0.4877
 5244TIP3    H215697   0.936   5.491   1.592  0.3022  0.3266  0.9938
 5245TIP3   OH215698   2.746   2.305   2.964 -0.4485 -0.0593 -0.5304
 5245TIP3    H115699   2.684   2.233   2.951  0.3562 -0.6679 -1.0900
 5245TIP3    H215700   2.823   2.280   2.912 -0.0045  1.0156 -0.4075
 5246TIP3   OH215701   4.649   5.505   3.508  0.1884  0.2937 -0.0600
 5246TIP3    H115702   4.660   5.552   3.591 -0.5880  2.8994 -1.3142
 5246TIP3    H215703   4.728   5.525   3.458 -0.3294  0.6214 -0.7688
 5247TIP3   OH215704   4.119   3.131   3.206  0.0204 -0.3584  0.2710
 5247TIP3    H115705   4.116   3.040   3.178 -2.6510  0.3743 -2.3413
 5247TIP3    H215706   4.079   3.131   3.293 -0.4637 -1.6441  0.0672
 5248TIP3   OH215707   1.097   6.800   5.243 -0.1624 -0.1464 -0.4343
 5248TIP3    H115708   1.164   6.733   5.252 -0.2489 -0.4971 -2.0363
 5248TIP3    H215709   1.016   6.751   5.227 -0.5245  0.3052 -0.0138
 5249TIP3   OH215710   4.564   0.027   0.807  0.2233  0.6012  0.1638
 5249TIP3    H115711   4.502   0.079   0.858 -0.7440  1.2079 -1.5259
 5249TIP3    H215712   4.637   0.087   0.790  0.6762  0.3106  1.0313
 5250TIP3   OH215713   3.512   6.125   5.230 -0.7601  0.1762 -0.6260
 5250TIP3    H115714   3.423   6.139   5.261 -0.2832  0.4456  0.6726
 5250TIP3    H215715   3.568   6.152   5.303  0.3846 -0.1349 -1.3565
 5251TIP3   OH215716   4.825   6.004   1.308  0.3303  0.6668 -0.2796
 5251TIP3    H115717   4.895   5.941   1.323 -0.4774 -1.1342 -3.1774
 5251TIP3    H215718   4.754   5.976   1.365 -0.1893 -1.4563 -1.8712
 5252TIP3   OH215719   1.969   5.800   2.820  0.3641 -0.5504 -0.2139
 5252TIP3    H115720   1.930   5.799   2.733  1.4590 -0.3793 -0.7296
 5252TIP3    H215721   1.926   5.872   2.866 -0.5597 -0.9464 -0.4378
 5253TIP3   OH215722   0.249   1.389   3.022  0.8826 -0.1440  0.1300
 5253TIP3    H115723   0.225   1.355   2.936 -0.5319  1.2347 -0.0677
 5253TIP3    H215724   0.177   1.363   3.079  0.3766  1.3752  0.2352
 5254TIP3   OH215725   2.608   0.750   4.548  0.2933 -0.6383  0.8126
 5254TIP3    H115726   2.669   0.700   4.602 -1.2135 -4.0283 -0.3539
 5254TIP3    H215727   2.545   0.685   4.516 -0.9065  1.7554 -2.2058
 5255TIP3   OH215728   0.491   4.638   2.129  0.0034 -0.0593  0.5360
 5255TIP3    H115729   0.456   4.613   2.043 -1.2543 -1.4001  1.3816
 5255TIP3    H215730   0.581   4.665   2.112 -0.4227  0.3063 -1.2790
 5256TIP3   OH215731   6.456   4.524   0.566  0.0839  0.0086 -0.6049
 5256TIP3    H115732   6.397   4.452   0.584  0.5671 -0.2276  0.0778
 5256TIP3    H215733   6.515   4.526   0.641  0.3194  0.8675 -0.8002
 5257TIP3   OH215734   2.520   0.400   4.370  0.2714 -0.3946  0.1665
 5257TIP3    H115735   2.459   0.333   4.400  0.7744 -0.9824 -0.1058
 5257TIP3    H215736   2.515   0.397   4.274  0.3875 -0.1311  0.1489
 5258TIP3   OH215737   5.110   0.751   5.080 -0.5048 -0.6525  0.0745
 5258TIP3    H115738   5.089   0.699   5.158 -0.2121 -0.0579  0.5601
 5258TIP3    H215739   5.046   0.823   5.082 -0.3266 -0.4885 -0.0819
 5259TIP3   OH215740   4.386   2.295   3.809 -0.4591 -0.3161  0.7913
 5259TIP3    H115741   4.457   2.252   3.762 -0.7769 -0.3760  0.3630
 5259TIP3    H215742   4.413   2.292   3.901 -0.4165 -1.3294  0.7596
 5260TIP3   OH215743   3.113   1.355   1.592  0.2954  0.5618 -0.1230
 5260TIP3    H115744   3.202   1.373   1.561  0.8228 -1.2006  0.2513
 5260TIP3    H215745   3.065   1.327   1.513  0.6617 -0.5000  0.0200
 5261TIP3   OH215746   0.407   5.890   2.832  0.2155 -0.4784 -0.5769
 5261TIP3    H115747   0.467   5.956   2.865 -2.2170  1.2898  0.6385
 5261TIP3    H215748   0.460   5.811   2.825  3.3180  1.5425 -2.2473
 5262TIP3   OH215749   5.780   2.336   0.244 -0.8270  0.3725  0.1712
 5262TIP3    H115750   5.762   2.243   0.236  0.5721 -0.0717  1.7174
 5262TIP3    H215751   5.717   2.367   0.309  0.5904 -0.1590  1.8781
 5263TIP3   OH215752   2.939   0.462   0.781 -1.0506  0.4404 -0.0250
 5263TIP3    H115753   2.860   0.492   0.735 -1.4717 -1.0601 -0.3368
 5263TIP3    H215754   3.001   0.442   0.711 -0.7123  0.7378  0.1866
 5264TIP3   OH215755   3.851   4.325   3.286  0.2337  0.2305  0.2290
 5264TIP3    H115756   3.835   4.383   3.360  1.0180 -0.8432  1.2638
 5264TIP3    H215757   3.943   4.300   3.294  1.2597  2.3825 -2.7768
 5265TIP3   OH215758   0.245   0.373   1.078  0.2835  0.0218 -0.1813
 5265TIP3    H115759   0.227   0.466   1.091 -0.6184 -0.0805 -0.6371
 5265TIP3    H215760   0.338   0.369   1.057  0.6283  0.6812  1.1378
 5266TIP3   OH215761   1.693   0.457   3.829 -0.4355  0.1146 -0.3351
 5266TIP3    H115762   1.655   0.488   3.912 -0.1366 -0.5270  0.0501
 5266TIP3    H215763   1.633   0.389   3.800  0.7385 -1.4240  0.6473
 5267TIP3   OH215764   3.975   5.099   4.748  0.6036  0.1181  0.2880
 5267TIP3    H115765   3.879   5.100   4.738  0.8342  0.4390 -2.7990
 5267TIP3    H215766   3.997   5.006   4.749  0.2455 -0.0036  2.3198
 5268TIP3   OH215767   5.017   4.757   0.467  0.2889  0.2390  0.7391
 5268TIP3    H115768   5.082   4.767   0.398 -0.1283  0.8625  0.4290
 5268TIP3    H215769   4.990   4.665   0.462  1.9607 -0.3361  1.6175
 5269TIP3   OH215770   4.497   3.523   1.769  0.5129  0.5889  0.3938
 5269TIP3    H115771   4.540   3.577   1.836  1.4581  0.9317 -0.4740
 5269TIP3    H215772   4.411   3.563   1.759  1.3970  2.3438 -0.6389
 5270TIP3   OH215773   4.785   2.859   3.267 -0.7001 -0.0160 -0.3679
 5270TIP3    H115774   4.772   2.806   3.346  1.0506 -1.7601 -1.1893
 5270TIP3    H215775   4.702   2.906   3.257 -0.6935  1.0339  2.9999
 5271TIP3   OH215776   3.520   1.670   1.591  0.1964  0.3214 -0.5163
 5271TIP3    H115777   3.425   1.682   1.581  0.2008 -1.0226 -2.9134
 5271TIP3    H215778   3.529   1.607   1.663 -0.6654  0.9010  0.1264
 5272TIP3   OH215779   5.971   3.114   0.536  0.5381 -0.1832  0.1532
 5272TIP3    H115780   5.963   3.108   0.632  1.1634 -1.4795  0.1437
 5272TIP3    H215781   5.900   3.173   0.510 -0.9680 -1.4296  1.2274
 5273TIP3   OH215782   4.870   3.117   2.853 -0.1798 -0.4448 -0.4619
 5273TIP3    H115783   4.864   3.113   2.948  0.3140  0.8903 -0.3580
 5273TIP3    H215784   4.817   3.194   2.829  1.2919  0.4305 -1.0742
 5274TIP3   OH215785   4.515   6.364   1.108 -0.3882 -0.3352  0.1707
 5274TIP3    H115786   4.468   6.447   1.096 -0.6383 -0.6876 -1.5280
 5274TIP3    H215787   4.463   6.300   1.059 -0.1354 -1.4999  1.3707
 5275TIP3   OH215788   3.813   6.182   1.179 -0.3525  0.5997  0.2133
 5275TIP3    H115789   3.893   6.205   1.228  0.2867 -1.9919  0.5271
 5275TIP3    H215790   3.780   6.104   1.222 -2.9295  1.4129 -0.1407
 5276TIP3   OH215791   0.754   2.437   2.579 -0.2291 -0.0144 -0.3172
 5276TIP3    H115792   0.665   2.424   2.549 -0.3196  0.3567 -0.2120
 5276TIP3    H215793   0.803   2.364   2.542 -0.4264  0.1903 -0.9858
 5277TIP3   OH215794   3.566   0.100   0.396  0.3121  0.1848  0.5185
 5277TIP3    H115795   3.592   0.152   0.473 -0.3722 -0.7881  1.4453
 5277TIP3    H215796   3.471   0.093   0.403  0.2115  0.3152 -0.5946
 5278TIP3   OH215797   4.237   2.294   1.659 -0.4414  0.1059 -0.9356
 5278TIP3    H115798   4.281   2.312   1.742  0.0236 -2.3421 -0.5820
 5278TIP3    H215799   4.165   2.358   1.655 -0.0458  0.7321  0.9772
 5279TIP3   OH215800   3.109   6.568   4.679 -0.1646  0.6882 -0.0699
 5279TIP3    H115801   3.113   6.637   4.613  0.0752  1.2838  0.5521
 5279TIP3    H215802   3.045   6.506   4.646  1.3056  0.0053 -1.7801
 5280TIP3   OH215803   0.331   5.217   0.729 -0.3270 -0.0974 -0.4514
 5280TIP3    H115804   0.250   5.266   0.716 -1.1441 -1.1269  0.5633
 5280TIP3    H215805   0.313   5.131   0.691 -0.4995 -1.0474  1.6911
 5281TIP3   OH215806   2.899   3.133   2.801 -0.2942 -0.2081  0.6096
 5281TIP3    H115807   2.982   3.146   2.847  0.8846 -0.0218 -1.4773
 5281TIP3    H215808   2.911   3.049   2.755 -0.6228  0.5770 -0.9637
 5282TIP3   OH215809   5.005   0.183   1.587 -0.5176 -0.6131 -0.3022
 5282TIP3    H115810   5.089   0.220   1.613 -0.4202 -0.8615 -0.2548
 5282TIP3    H215811   4.955   0.177   1.668 -0.3915 -0.9377 -0.2443
 5283TIP3   OH215812   6.941   0.119   2.211 -0.2622  0.1205 -0.3876
 5283TIP3    H115813   7.030   0.084   2.225 -0.6263 -1.1339 -1.0492
 5283TIP3    H215814   6.912   0.078   2.130 -1.2098  1.0318 -0.5201
 5284TIP3   OH215815   2.059   4.883   4.752  0.0496  0.1812 -0.3072
 5284TIP3    H115816   2.015   4.965   4.731  3.0512  1.5085 -2.0005
 5284TIP3    H215817   2.105   4.900   4.834 -1.0140 -0.5895  0.4832
 5285TIP3   OH215818   6.906   0.267   0.953 -0.1826  0.2799  0.1614
 5285TIP3    H115819   6.955   0.281   1.034  1.4369  0.4900 -0.8029
 5285TIP3    H215820   6.887   0.174   0.953  3.9074 -0.7830 -1.2881
 5286TIP3   OH215821   3.091   4.883   1.972 -0.0141 -0.1647 -0.0733
 5286TIP3    H115822   3.025   4.929   1.920 -1.2281 -2.1089 -0.3455
 5286TIP3    H215823   3.080   4.917   2.060 -2.9416 -1.9347  0.3704
 5287TIP3   OH215824   4.265   6.287   4.175  0.0113 -0.2342  0.5037
 5287TIP3    H115825   4.205   6.339   4.227 -1.6188 -1.2094 -0.2983
 5287TIP3    H215826   4.215   6.267   4.095  1.7962 -0.2161 -0.6572
 5288TIP3   OH215827   1.727   4.891   2.087 -0.2016  0.0072  0.0828
 5288TIP3    H115828   1.694   4.965   2.137  0.1344 -1.8412  3.3175
 5288TIP3    H215829   1.649   4.853   2.046 -1.0294 -0.1292  1.7043
 5289TIP3   OH215830   5.060   3.212   4.066 -0.2495  0.2021 -0.3505
 5289TIP3    H115831   5.096   3.279   4.008  0.9649 -1.1573 -1.2551
 5289TIP3    H215832   4.979   3.251   4.101 -0.7739  1.2788 -2.5593
 5290TIP3   OH215833   5.396   5.152   5.377  0.6476  0.2602 -0.0251
 5290TIP3    H115834   5.433   5.202   5.305  1.3272 -0.1944 -0.0044
 5290TIP3    H215835   5.352   5.217   5.432  0.3338  0.6370 -0.7196
 5291TIP3   OH215836   3.797   3.275   3.039 -0.7284 -0.1570  0.2040
 5291TIP3    H115837   3.819   3.241   3.125  0.3676  2.2693  0.9890
 5291TIP3    H215838   3.718   3.227   3.013 -0.1042 -2.1496  1.7618
 5292TIP3   OH215839   1.197   6.251   0.479  0.8667  0.2078  0.3368
 5292TIP3    H115840   1.260   6.274   0.411  0.7400  0.3410  0.2614
 5292TIP3    H215841   1.135   6.325   0.479  0.8831  0.2202  0.6167
 5293TIP3   OH215842   2.776   0.270   5.474  0.1919 -0.3681  0.0924
 5293TIP3    H115843   2.746   0.313   5.393 -1.0618 -0.3368  0.5521
 5293TIP3    H215844   2.731   0.317   5.544  0.9795 -0.6357  0.7855
 5294TIP3   OH215845   2.862   0.749   1.504  0.3453  0.5156 -0.1032
 5294TIP3    H115846   2.884   0.829   1.457 -2.0123  1.2206 -0.1525
 5294TIP3    H215847   2.825   0.780   1.587  1.3970 -0.6182  0.8300
 5295TIP3   OH215848   2.106   0.183   1.638 -0.0981 -0.3453  0.2161
 5295TIP3    H115849   2.197   0.209   1.655  0.1924 -1.0122 -0.2767
 5295TIP3    H215850   2.063   0.264   1.609 -0.0191  0.2882  1.7586
 5296TIP3   OH215851   6.553   2.562   3.563  0.3715 -0.1198  0.2990
 5296TIP3    H115852   6.460   2.573   3.582  0.2115  1.5593 -1.2352
 5296TIP3    H215853   6.571   2.623   3.492  2.1071 -2.1753 -1.1822
 5297TIP3   OH215854   2.145   3.679   4.647 -0.1887 -0.5720 -0.0710
 5297TIP3    H115855   2.177   3.691   4.558 -3.3186 -1.9271 -1.5233
 5297TIP3    H215856   2.070   3.738   4.654  0.8388  0.6068  2.2640
 5298TIP3   OH215857   4.460   1.540   0.569  0.1979 -0.0019  0.1051
 5298TIP3    H115858   4.437   1.546   0.476  0.3644  0.2164  0.0774
 5298TIP3    H215859   4.389   1.488   0.608 -0.3339  0.6460  0.0202
 5299TIP3   OH215860   0.064   1.872   2.934 -0.0674  0.5119  0.2980
 5299TIP3    H115861   0.036   1.781   2.930 -0.3652  0.5433  1.5011
 5299TIP3    H215862   0.036   1.903   3.020  2.3077  0.9700  0.9969
 5300TIP3   OH215863   6.749   3.429   4.365 -0.4486  0.3257 -0.3606
 5300TIP3    H115864   6.798   3.348   4.382 -0.4486  0.4427  0.2099
 5300TIP3    H215865   6.772   3.453   4.276 -0.8484 -0.5957 -0.7246
 5301TIP3   OH215866   2.980   3.704   3.004  0.1316  0.3493  0.1259
 5301TIP3    H115867   3.032   3.760   2.947 -1.5533  1.1670 -0.6657
 5301TIP3    H215868   2.962   3.626   2.952 -0.3169  0.5302  0.0074
 5302TIP3   OH215869   3.533   6.544   1.131  0.5992  0.1990  0.1453
 5302TIP3    H115870   3.549   6.488   1.055 -0.2888 -1.4532  1.1066
 5302TIP3    H215871   3.602   6.521   1.193 -0.2824 -0.5707  0.8975
 5303TIP3   OH215872   7.118   4.396   1.038 -0.2871 -0.3661  0.2498
 5303TIP3    H115873   7.140   4.490   1.037  2.5706 -0.9394  0.2911
 5303TIP3    H215874   7.168   4.359   0.965 -1.4934 -1.8539  0.1351
 5304TIP3   OH215875   1.642   2.838   2.845 -0.1260  0.4393  0.0374
 5304TIP3    H115876   1.549   2.830   2.868 -0.1175 -1.7458 -0.4311
 5304TIP3    H215877   1.688   2.790   2.914  0.5079  0.1697 -0.5577
 5305TIP3   OH215878   2.475   5.301   5.186 -0.6047 -0.0878 -0.1055
 5305TIP3    H115879   2.397   5.275   5.138 -1.3050 -1.0693  1.4860
 5305TIP3    H215880   2.441   5.358   5.256  0.2343  0.2998 -0.0066
 5306TIP3   OH215881   3.403   5.772   5.395  0.1899  0.1569  0.3313
 5306TIP3    H115882   3.387   5.719   5.473  2.2369 -0.4342  0.3887
 5306TIP3    H215883   3.421   5.709   5.325 -1.4251  0.6801 -0.6358
 5307TIP3   OH215884   6.463   4.782   1.211 -0.4467 -0.2254 -0.1161
 5307TIP3    H115885   6.395   4.784   1.144 -0.9815  1.3022  0.4251
 5307TIP3    H215886   6.487   4.874   1.224 -0.2122 -0.4934  1.6111
 5308TIP3   OH215887   5.415   2.248   2.791  0.0318 -0.5639  0.3864
 5308TIP3    H115888   5.333   2.227   2.836 -0.3947 -0.3648 -0.2793
 5308TIP3    H215889   5.399   2.334   2.751  0.6527 -0.4127  0.4501
 5309TIP3   OH215890   4.137   3.428   1.426 -0.5940 -0.2963 -0.5177
 5309TIP3    H115891   4.133   3.523   1.442 -0.1383 -0.1805 -1.0598
 5309TIP3    H215892   4.206   3.398   1.485 -0.9861 -0.3552 -0.0799
 5310TIP3   OH215893   2.055   0.584   3.151 -0.1712  0.5002  0.2578
 5310TIP3    H115894   2.110   0.511   3.180 -1.5832 -0.5608  0.3599
 5310TIP3    H215895   2.057   0.645   3.225  0.2598  0.1226  0.5665
 5311TIP3   OH215896   3.786   3.517   2.199  0.2136 -0.2520 -0.2570
 5311TIP3    H115897   3.819   3.543   2.285  0.3341 -0.5909 -0.1963
 5311TIP3    H215898   3.805   3.591   2.142  1.1768 -0.4717 -0.2434
 5312TIP3   OH215899   1.895   3.829   4.677 -0.1934  0.1837  0.0427
 5312TIP3    H115900   1.858   3.848   4.763 -0.2692 -0.3377  0.1300
 5312TIP3    H215901   1.845   3.884   4.616 -0.7984 -0.1657  0.2151
 5313TIP3   OH215902   5.606   2.008   0.465 -0.0218  0.5942  0.7931
 5313TIP3    H115903   5.623   1.930   0.413  0.0910  0.3664  1.1722
 5313TIP3    H215904   5.511   2.010   0.476 -0.1575  1.2396 -0.3449
 5314TIP3   OH215905   3.313   1.007   5.259 -0.1343 -0.3240 -0.1116
 5314TIP3    H115906   3.369   0.959   5.320 -0.7821  1.2214  1.8230
 5314TIP3    H215907   3.328   1.099   5.280 -1.0131  0.2433 -1.7567
 5315TIP3   OH215908   6.646   4.308   5.777 -0.7748 -0.2882 -0.4086
 5315TIP3    H115909   6.729   4.268   5.752 -1.3728 -0.7355 -1.7697
 5315TIP3    H215910   6.645   4.392   5.731 -0.3951  0.4351  0.8646
 5316TIP3   OH215911   0.444   1.326   1.879  0.0550 -0.3905 -0.4345
 5316TIP3    H115912   0.379   1.256   1.892 -0.1016 -0.1465  0.1621
 5316TIP3    H215913   0.401   1.404   1.915  1.2148 -0.4986  1.3082
 5317TIP3   OH215914   0.069   0.757   4.719 -0.6266 -0.1576  0.1704
 5317TIP3    H115915  -0.021   0.780   4.696 -0.0730  1.9579 -0.0422
 5317TIP3    H215916   0.114   0.840   4.726  1.0197 -1.1173  1.6382
 5318TIP3   OH215917   2.079   3.563   3.665  0.2872  0.2984 -1.0302
 5318TIP3    H115918   2.138   3.573   3.590  0.2963  0.2105 -1.0354
 5318TIP3    H215919   2.007   3.622   3.646 -0.8534 -1.3847 -2.2545
 5319TIP3   OH215920   1.168   5.518   2.445  0.5838  0.4558 -0.8868
 5319TIP3    H115921   1.089   5.464   2.446  0.1377  1.0854  0.3348
 5319TIP3    H215922   1.144   5.596   2.495  1.7590  0.9898 -1.1286
 5320TIP3   OH215923   5.527   3.388   0.953  0.0428  0.1183  0.6295
 5320TIP3    H115924   5.460   3.452   0.929 -0.6609 -0.8529 -0.0685
 5320TIP3    H215925   5.478   3.316   0.992  0.7293 -0.3837  0.5758
 5321TIP3   OH215926   4.619   2.488   2.639 -1.0832  0.2244  0.3373
 5321TIP3    H115927   4.596   2.507   2.730 -1.7740  1.5783 -0.0976
 5321TIP3    H215928   4.535   2.467   2.598 -0.7596 -0.4793  0.0214
 5322TIP3   OH215929   0.156   5.646   2.263 -0.3309 -0.4840 -0.1036
 5322TIP3    H115930   0.182   5.579   2.327  0.4741 -0.6437 -0.5852
 5322TIP3    H215931   0.100   5.706   2.312  0.1180 -0.7151  0.7045
 5323TIP3   OH215932   5.216   0.034   2.057  0.3239  0.2114  0.1996
 5323TIP3    H115933   5.141   0.087   2.028 -0.0775 -0.6296 -0.3223
 5323TIP3    H215934   5.292   0.091   2.044 -0.2044  1.0380  0.6392
 5324TIP3   OH215935   1.712   6.590   2.427 -0.4424 -0.4721 -0.3809
 5324TIP3    H115936   1.797   6.562   2.393 -0.0802 -1.7649  1.4782
 5324TIP3    H215937   1.655   6.592   2.350  1.4170  1.2393 -1.8219
 5325TIP3   OH215938   6.038   4.747   3.823 -0.4681  0.0397 -0.3453
 5325TIP3    H115939   6.044   4.740   3.918 -0.2558  1.5082 -0.2260
 5325TIP3    H215940   6.113   4.801   3.798 -1.7887  1.6646 -1.0538
 5326TIP3   OH215941   5.019   3.980   2.785 -0.4679  0.1797 -0.2972
 5326TIP3    H115942   5.020   3.974   2.690 -0.6730 -1.3077 -0.2323
 5326TIP3    H215943   4.928   4.001   2.806 -0.6501 -0.4609 -0.4072
 5327TIP3   OH215944   5.138   3.346   4.459  0.1853  0.9055  0.0273
 5327TIP3    H115945   5.049   3.338   4.426 -0.5124  1.9823  1.5340
 5327TIP3    H215946   5.171   3.427   4.420 -0.4547  1.8975  1.4563
 5328TIP3   OH215947   2.396   1.008   1.567  0.3222 -0.0477  0.4205
 5328TIP3    H115948   2.366   1.006   1.658 -0.4337 -0.1955  0.1654
 5328TIP3    H215949   2.439   1.094   1.559 -0.2599  0.2793  0.7131
 5329TIP3   OH215950   1.908   2.726   4.486  0.6935  0.3824  0.1441
 5329TIP3    H115951   1.959   2.648   4.504 -1.1391 -0.9497 -0.1867
 5329TIP3    H215952   1.818   2.695   4.478 -0.0233  2.4494 -0.5076
 5330TIP3   OH215953   3.824  -0.000   4.413 -0.1886 -0.6204 -0.4829
 5330TIP3    H115954   3.797   0.091   4.410 -0.0566 -0.2646  3.6521
 5330TIP3    H215955   3.920   0.003   4.405 -0.1730 -0.3809 -0.2089
 5331TIP3   OH215956   6.543   2.747   3.261 -0.3270  0.6695  0.2987
 5331TIP3    H115957   6.639   2.746   3.269 -0.2923  0.1057 -0.0944
 5331TIP3    H215958   6.520   2.657   3.238 -0.8438  1.0446 -0.7549
 5332TIP3   OH215959   4.566   1.416   3.178 -0.2564  0.2178 -0.5400
 5332TIP3    H115960   4.640   1.382   3.128 -0.3391  1.8646 -1.9016
 5332TIP3    H215961   4.538   1.344   3.234  1.3016 -0.9676 -1.2401
 5333TIP3   OH215962   6.299   0.795   3.613 -0.6622 -0.0324 -0.2349
 5333TIP3    H115963   6.355   0.809   3.689 -1.4680  1.4056  0.1293
 5333TIP3    H215964   6.348   0.733   3.558  0.6647  0.1596  0.6837
 5334TIP3   OH215965   6.623   4.586   5.590  0.1850  0.4380 -0.2476
 5334TIP3    H115966   6.672   4.636   5.654 -1.4417  0.7117  0.8435
 5334TIP3    H215967   6.676   4.590   5.510  2.6269 -0.5042  1.2039
 5335TIP3   OH215968   3.178   2.682   1.611 -0.1691  0.6260 -0.3163
 5335TIP3    H115969   3.134   2.758   1.649 -0.6003  0.0052  0.4717
 5335TIP3    H215970   3.235   2.650   1.682  0.1298  0.3143 -0.6958
 5336TIP3   OH215971   2.855   1.784   2.909 -0.3285 -0.0477  0.3302
 5336TIP3    H115972   2.765   1.754   2.897 -0.0383 -0.3483 -1.2224
 5336TIP3    H215973   2.849   1.846   2.982 -1.3004 -2.1711  2.2004
 5337TIP3   OH215974   1.663   5.153   0.387  0.6366 -0.3070 -0.1043
 5337TIP3    H115975   1.575   5.176   0.416  1.1060  2.3576 -0.5728
 5337TIP3    H215976   1.651   5.116   0.300  0.1155  3.1127 -1.6392
 5338TIP3   OH215977   6.215   3.485   0.856 -0.4202 -0.2179 -0.1243
 5338TIP3    H115978   6.205   3.413   0.794  0.7484 -0.7987  0.3286
 5338TIP3    H215979   6.138   3.479   0.912  0.1157 -1.7456  0.5069
 5339TIP3   OH215980   3.976   4.227   0.491 -0.3790 -0.2360  0.5061
 5339TIP3    H115981   3.911   4.160   0.469  0.5246 -1.0173  0.1039
 5339TIP3    H215982   4.024   4.241   0.410  0.1206  0.1341  0.8575
 5340TIP3   OH215983   2.635   3.299   0.546 -0.8180  0.2220 -0.4599
 5340TIP3    H115984   2.593   3.254   0.473 -1.2854  0.8606 -0.5931
 5340TIP3    H215985   2.683   3.371   0.505 -0.0512 -0.1527 -0.2511
 5341TIP3   OH215986   2.922   0.085   3.949  0.2939  0.2257 -0.5027
 5341TIP3    H115987   2.939   0.062   3.857  2.0053  1.2450 -0.4797
 5341TIP3    H215988   3.003   0.124   3.979 -0.8145  1.5086  0.9589
 5342TIP3   OH215989   5.989   6.574   1.890  0.5133 -0.5146  0.4043
 5342TIP3    H115990   6.061   6.587   1.829 -0.0382  0.4601 -0.0712
 5342TIP3    H215991   5.912   6.565   1.834  0.1383 -0.6406  0.9319
 5343TIP3   OH215992   4.315   4.764   1.820  1.1040  0.0488  0.5410
 5343TIP3    H115993   4.347   4.731   1.904  0.0648 -0.3264  0.8034
 5343TIP3    H215994   4.302   4.857   1.834  2.2729  0.2586  0.3581
 5344TIP3   OH215995   5.150   2.869   3.788 -0.3749 -0.3972 -0.1109
 5344TIP3    H115996   5.146   2.781   3.825 -0.7040  0.2191  1.3857
 5344TIP3    H215997   5.065   2.881   3.746 -0.9441 -0.2407  1.0451
 5345TIP3   OH215998   5.419   4.177   4.133 -0.3058 -0.2702 -0.5541
 5345TIP3    H115999   5.513   4.163   4.120  0.1245 -0.0138  1.7736
 5345TIP3    H216000   5.413   4.262   4.178 -1.4724 -1.1349  1.0220
 5346TIP3   OH216001   5.859   5.381   4.413  0.0400 -0.5587 -0.4841
 5346TIP3    H116002   5.952   5.360   4.421 -0.3411 -2.6156 -1.0036
 5346TIP3    H216003   5.858   5.473   4.386  1.8825 -0.2780  0.2431
 5347TIP3   OH216004   2.516   1.377   1.708 -0.2077 -0.3450  0.1110
 5347TIP3    H116005   2.479   1.389   1.795  0.6563  1.9962  0.2211
 5347TIP3    H216006   2.516   1.464   1.669  1.5061 -0.9392 -1.3667
 5348TIP3   OH216007   3.221   1.108   2.342  0.2612 -0.2220 -0.0238
 5348TIP3    H116008   3.153   1.047   2.314 -0.1297  0.3045 -0.2216
 5348TIP3    H216009   3.277   1.056   2.401 -0.7186 -0.4633  0.7206
 5349TIP3   OH216010   3.717   4.922   4.152 -0.2012 -0.7618 -0.3225
 5349TIP3    H116011   3.728   4.945   4.244 -1.2458  0.5370 -0.5034
 5349TIP3    H216012   3.806   4.905   4.120  0.3287  0.3715  0.5171
 5350TIP3   OH216013   3.883   5.804   3.200  0.3729 -0.1376  0.0551
 5350TIP3    H116014   3.959   5.826   3.146 -0.3809  1.6163 -0.3277
 5350TIP3    H216015   3.859   5.886   3.243 -1.6030 -0.5543 -0.1926
 5351TIP3   OH216016   6.422   1.645   5.727  0.6754  0.2542 -0.4549
 5351TIP3    H116017   6.486   1.701   5.683  0.6085  0.7406  0.0499
 5351TIP3    H216018   6.462   1.558   5.728  1.2917  0.5352 -0.2190
 5352TIP3   OH216019   5.241   1.803   4.383 -0.1281 -0.1320  0.6620
 5352TIP3    H116020   5.165   1.744   4.373 -0.2920 -0.0257  1.2672
 5352TIP3    H216021   5.211   1.886   4.346 -0.4892  0.0599  1.3810
 5353TIP3   OH216022   4.183   2.842   1.649  0.0977  0.1209 -0.3248
 5353TIP3    H116023   4.142   2.900   1.585  0.3165 -0.0912 -0.6621
 5353TIP3    H216024   4.123   2.841   1.724  0.9807  2.3394  0.5170
 5354TIP3   OH216025   3.554   2.103   0.296  0.1203  0.8753  0.6850
 5354TIP3    H116026   3.564   2.194   0.324 -2.7103  1.2049  0.9342
 5354TIP3    H216027   3.494   2.108   0.221 -0.7672 -0.8299  1.2270
 5355TIP3   OH216028   1.673   4.601   2.234 -0.0019  0.5094 -0.5210
 5355TIP3    H116029   1.681   4.507   2.250 -1.0600  0.3765 -0.7497
 5355TIP3    H216030   1.649   4.638   2.319 -0.3825  0.4732 -0.6137
 5356TIP3   OH216031   3.244   4.887   4.991  0.5604 -0.7844 -0.0377
 5356TIP3    H116032   3.330   4.929   4.983  1.6061 -2.6496  0.9043
 5356TIP3    H216033   3.250   4.836   5.071 -1.4067 -1.0731 -0.0387
 5357TIP3   OH216034   4.627   3.797   1.669  0.3377  0.2511  0.2155
 5357TIP3    H116035   4.625   3.736   1.595 -1.0950  1.3388 -0.7099
 5357TIP3    H216036   4.649   3.743   1.745  1.4223 -0.9725 -0.9271
 5358TIP3   OH216037   7.005   2.324   2.729 -0.7643  0.7507  0.4014
 5358TIP3    H116038   7.086   2.309   2.776  2.2113  2.0493 -3.7443
 5358TIP3    H216039   6.984   2.416   2.747 -1.4819  0.4029  1.5079
 5359TIP3   OH216040   7.068   1.651   5.443 -0.8691  0.8919 -0.2194
 5359TIP3    H116041   7.034   1.612   5.362 -2.2862  0.7517  0.4083
 5359TIP3    H216042   6.990   1.677   5.491 -0.2811 -1.6667  2.4197
 5360TIP3   OH216043   0.351   5.784   4.641  0.1246 -0.2586  0.5740
 5360TIP3    H116044   0.333   5.744   4.726 -0.4337  0.2345  0.6906
 5360TIP3    H216045   0.407   5.720   4.596 -1.1379 -1.4088  0.5615
 5361TIP3   OH216046   6.043   5.794   5.796  0.3592 -0.4554 -0.6456
 5361TIP3    H116047   6.014   5.843   5.872  0.1584  1.6982 -2.0302
 5361TIP3    H216048   6.000   5.709   5.804 -0.4139  0.0714  1.1272
 5362TIP3   OH216049   4.639   3.888   2.443 -0.4167 -0.4802 -0.3988
 5362TIP3    H116050   4.675   3.902   2.355 -0.7839  0.1808 -0.4492
 5362TIP3    H216051   4.625   3.976   2.478 -2.3985 -0.6993 -0.5620
 5363TIP3   OH216052   6.842   0.848   3.188  0.2613  0.1160 -0.2243
 5363TIP3    H116053   6.772   0.810   3.242  0.7124 -0.2122  0.1365
 5363TIP3    H216054   6.837   0.800   3.106  0.2078 -0.0641 -0.1174
 5364TIP3   OH216055   5.782   5.554   5.532 -0.4257 -0.3292  0.2840
 5364TIP3    H116056   5.722   5.491   5.493 -1.9704  0.8244  0.7121
 5364TIP3    H216057   5.829   5.593   5.457 -0.4056 -1.0338 -0.0744
 5365TIP3   OH216058   4.387   3.831   5.718  0.4078 -0.0332 -0.1532
 5365TIP3    H116059   4.322   3.898   5.738  0.6205  0.3846 -0.8489
 5365TIP3    H216060   4.410   3.795   5.804  0.5068  0.9761  0.2599
 5366TIP3   OH216061   6.028   1.669   4.044  0.2580  0.1953 -0.2127
 5366TIP3    H116062   6.066   1.740   4.095 -0.6297  0.6956 -0.2341
 5366TIP3    H216063   6.100   1.607   4.032  0.1972 -0.5584  2.7023
 5367TIP3   OH216064   5.675   0.426   5.321 -0.3364 -0.1554 -0.4892
 5367TIP3    H116065   5.717   0.343   5.342  1.9122  1.0858  0.2056
 5367TIP3    H216066   5.613   0.404   5.251  1.9305 -2.0051 -2.0765
 5368TIP3   OH216067   0.445   3.599   5.255  0.7582 -0.3991 -0.7156
 5368TIP3    H116068   0.503   3.674   5.240  1.2567 -1.0393 -2.1125
 5368TIP3    H216069   0.374   3.610   5.191  0.5282 -0.8243 -0.5425
 5369TIP3   OH216070   0.566   4.697   2.412  0.1821  0.8636 -0.4754
 5369TIP3    H116071   0.510   4.674   2.338 -0.2590 -0.7097  0.3034
 5369TIP3    H216072   0.550   4.628   2.477  0.0103  2.5619  1.3826
 5370TIP3   OH216073   5.477   3.575   2.833 -0.0742 -0.0256  0.5097
 5370TIP3    H116074   5.495   3.629   2.910 -1.4567  2.7422 -0.9811
 5370TIP3    H216075   5.382   3.570   2.829 -0.0426  0.2715 -1.2486
 5371TIP3   OH216076   1.944   3.842   3.099  0.1599 -0.3461  0.5138
 5371TIP3    H116077   1.922   3.761   3.052  0.9596  0.2855 -1.0173
 5371TIP3    H216078   1.860   3.882   3.118 -0.2437 -1.4522  1.1537
 5372TIP3   OH216079   0.470   4.799   3.012 -1.0130  0.0790 -0.7412
 5372TIP3    H116080   0.494   4.782   3.103  0.2057 -0.0759 -1.0833
 5372TIP3    H216081   0.382   4.762   3.003 -1.7398  1.3436  0.7455
 5373TIP3   OH216082   5.408   0.178   3.616  0.1528 -0.2132 -0.0622
 5373TIP3    H116083   5.382   0.129   3.538  1.8408 -0.5256 -0.4906
 5373TIP3    H216084   5.442   0.112   3.675  1.5395  0.2964 -0.2453
 5374TIP3   OH216085   2.187   2.557   1.740 -0.2857  0.2520  0.0533
 5374TIP3    H116086   2.205   2.463   1.734  1.6971  0.6071 -0.1984
 5374TIP3    H216087   2.113   2.571   1.681  0.2925 -0.9336 -0.9988
 5375TIP3   OH216088   4.118   4.237   0.275 -0.4533 -0.1266 -0.1658
 5375TIP3    H116089   4.069   4.239   0.193  0.1630  1.2053 -0.5397
 5375TIP3    H216090   4.201   4.280   0.254  0.1966 -0.8390  0.8649
 5376TIP3   OH216091   1.156   5.641   1.125  0.1090  0.9253 -0.5770
 5376TIP3    H116092   1.208   5.561   1.130 -2.2057 -0.7036 -0.9098
 5376TIP3    H216093   1.153   5.662   1.032  0.5197  1.2855 -0.5128
 5377TIP3   OH216094   3.281   2.630   5.146 -0.2365  0.1790  0.2467
 5377TIP3    H116095   3.186   2.622   5.145 -0.3176  0.8460 -1.3461
 5377TIP3    H216096   3.313   2.556   5.095 -0.1197  1.4896 -1.6976
 5378TIP3   OH216097   2.853   5.707   2.785  0.3181  0.0388 -0.8265
 5378TIP3    H116098   2.941   5.674   2.766  0.0320 -1.5758  0.3986
 5378TIP3    H216099   2.802   5.629   2.805 -1.0503  1.0570 -0.1394
 5379TIP3   OH216100   6.301   0.658   5.320 -0.2192 -0.4051  0.3238
 5379TIP3    H116101   6.325   0.682   5.409 -0.5457  1.5160 -0.0777
 5379TIP3    H216102   6.324   0.565   5.314  2.7449  0.1514  1.4109
 5380TIP3   OH216103   0.095   0.691   4.115 -0.7085  0.3029  1.1521
 5380TIP3    H116104   0.095   0.757   4.184  2.4777 -1.1258  2.7119
 5380TIP3    H216105   0.164   0.630   4.140  0.1501 -0.7044 -2.9672
 5381TIP3   OH216106   3.328   5.207   0.385  0.4127  0.4397  0.3557
 5381TIP3    H116107   3.332   5.115   0.357  1.6809  0.7250 -0.4861
 5381TIP3    H216108   3.420   5.232   0.396  0.1259  1.8707 -0.2760
 5382TIP3   OH216109   1.895   0.796   1.141  0.0798 -0.5018  0.4571
 5382TIP3    H116110   1.971   0.774   1.195  1.7123  2.2492 -0.5122
 5382TIP3    H216111   1.884   0.720   1.084  1.3703 -1.4554  1.4093
 5383TIP3   OH216112   3.130   4.733   2.858 -0.5272 -0.5239 -0.3643
 5383TIP3    H116113   3.127   4.824   2.889 -0.2494 -0.3871 -0.7313
 5383TIP3    H216114   3.195   4.690   2.913 -1.8506 -0.9450  0.9499
 5384TIP3   OH216115   3.280   1.595   5.497 -0.1502 -0.4128  0.3377
 5384TIP3    H116116   3.306   1.512   5.457 -1.0970 -0.1561 -0.8679
 5384TIP3    H216117   3.362   1.644   5.508  0.2240 -0.8498 -0.4613
 5385TIP3   OH216118   0.921   4.083   5.735 -0.3339 -0.2509  0.0174
 5385TIP3    H116119   1.009   4.102   5.704 -0.5052 -2.1407 -1.8530
 5385TIP3    H216120   0.863   4.129   5.674 -0.6522 -0.7256 -0.0461
 5386TIP3   OH216121   5.092   0.520   0.886  0.9098  0.1359  0.6507
 5386TIP3    H116122   5.185   0.538   0.873  0.9634 -0.9109 -0.6808
 5386TIP3    H216123   5.052   0.538   0.801 -0.0325  0.1734  1.0884
 5387TIP3   OH216124   0.446   0.393   0.096  0.1931 -0.0548 -0.5541
 5387TIP3    H116125   0.398   0.316   0.128 -0.3889  0.4915 -0.0621
 5387TIP3    H216126   0.514   0.358   0.040  1.5048 -1.1260  1.5714
 5388TIP3   OH216127   3.839   0.166   1.123 -1.0157 -0.0367  0.1123
 5388TIP3    H116128   3.914   0.109   1.104 -1.3039  0.1882 -1.9587
 5388TIP3    H216129   3.877   0.237   1.175  0.3222  0.2171 -1.1119
 5389TIP3   OH216130   4.946   2.688   1.093 -0.1295 -0.0133 -0.0464
 5389TIP3    H116131   4.959   2.666   1.001 -1.5325 -2.4356  0.2406
 5389TIP3    H216132   4.920   2.780   1.093  0.2895  0.1350 -2.0290
 5390TIP3   OH216133   0.509   0.476   4.357  0.2458  0.4145  0.4303
 5390TIP3    H116134   0.577   0.416   4.325  0.5016  0.8558  0.1276
 5390TIP3    H216135   0.524   0.481   4.451 -0.4802 -0.8599  0.6408
 5391TIP3   OH216136   1.507   4.945   2.521 -0.3072 -0.3364 -0.0292
 5391TIP3    H116137   1.417   4.976   2.512 -0.0880 -0.0306 -1.3470
 5391TIP3    H216138   1.502   4.851   2.506 -0.5969 -0.5692  1.3711
 5392TIP3   OH216139   2.900   2.570   2.541  0.0942 -0.4049 -0.0296
 5392TIP3    H116140   2.986   2.568   2.582 -0.1834 -1.1348  0.5470
 5392TIP3    H216141   2.841   2.604   2.609 -0.1767 -0.5111 -0.2079
 5393TIP3   OH216142   6.070   3.749   3.875 -0.6477 -0.2600 -0.0645
 5393TIP3    H116143   6.027   3.799   3.945  0.3554 -0.5406  0.7667
 5393TIP3    H216144   5.999   3.702   3.833 -1.2476 -0.2635  0.9111
 5394TIP3   OH216145   4.125   2.139   1.058 -0.3324  0.0909 -0.5129
 5394TIP3    H116146   4.213   2.127   1.092 -1.1029  0.0911  1.6344
 5394TIP3    H216147   4.120   2.232   1.037  0.0099  0.2105 -0.0880
 5395TIP3   OH216148   1.051   6.284   2.693 -0.3445 -0.4319  0.2305
 5395TIP3    H116149   1.022   6.200   2.657  0.9583 -0.9448  0.3167
 5395TIP3    H216150   1.115   6.260   2.761 -0.2665  0.6206  0.5453
 5396TIP3   OH216151   3.658   5.929   1.302 -0.2285  0.6446  0.1606
 5396TIP3    H116152   3.657   5.856   1.364  1.4932 -0.1776 -0.7079
 5396TIP3    H216153   3.662   5.887   1.216  1.0706  1.7421 -0.3402
 5397TIP3   OH216154   5.018   5.313   2.057 -0.3062 -0.6207  0.2051
 5397TIP3    H116155   4.963   5.246   2.018  0.3326 -1.4807  0.7460
 5397TIP3    H216156   5.108   5.282   2.043 -0.0284 -0.3625  1.2933
 5398TIP3   OH216157   0.760   0.789   1.399  0.1302  0.0207 -0.2592
 5398TIP3    H116158   0.804   0.795   1.484 -0.1762  0.4707 -0.1311
 5398TIP3    H216159   0.690   0.854   1.403 -0.5903 -0.7424 -0.4462
 5399TIP3   OH216160   5.526   0.457   1.145 -0.4705  0.6864  0.5169
 5399TIP3    H116161   5.593   0.516   1.111 -0.5539  0.7557  0.4699
 5399TIP3    H216162   5.547   0.371   1.108 -1.9787  1.2122 -1.7845
 5400TIP3   OH216163   3.891   1.361   5.021  0.2999  0.3579 -0.2446
 5400TIP3    H116164   3.983   1.359   5.050  0.3846  1.9428 -0.2853
 5400TIP3    H216165   3.890   1.308   4.941  1.4408  1.2007 -0.8588
 5401TIP3   OH216166   4.073   5.470   2.442 -0.8101 -0.0711  0.6740
 5401TIP3    H116167   4.159   5.509   2.457 -0.2909 -0.7334 -0.4336
 5401TIP3    H216168   4.020   5.541   2.406 -0.2988 -0.0090  0.0197
 5402TIP3   OH216169   1.834   2.748   0.542  0.3900 -0.1543 -0.0787
 5402TIP3    H116170   1.866   2.735   0.631 -2.0266 -0.4741  0.7995
 5402TIP3    H216171   1.776   2.824   0.548  0.3597 -0.0412 -1.4467
 5403TIP3   OH216172   2.945   2.695   2.013 -0.1511  0.2748 -0.4958
 5403TIP3    H116173   2.930   2.697   2.108 -1.2019  0.6423 -0.6589
 5403TIP3    H216174   2.906   2.612   1.985  2.7063 -1.2673 -0.2320
 5404TIP3   OH216175   5.762   0.553   1.016 -0.6508 -0.0154 -0.4323
 5404TIP3    H116176   5.761   0.646   0.993  0.2671 -0.2523 -1.5278
 5404TIP3    H216177   5.809   0.550   1.100 -0.8732  0.5198 -0.2795
 5405TIP3   OH216178   3.785   5.036   4.397 -0.3429  0.0738  0.0315
 5405TIP3    H116179   3.865   5.086   4.383 -0.1646 -0.1751  0.1444
 5405TIP3    H216180   3.735   5.088   4.460 -0.0642  0.0132  0.3096
 5406TIP3   OH216181   2.283   6.048   3.038  0.2967 -0.1403  0.2907
 5406TIP3    H116182   2.359   6.021   3.089 -0.4987 -1.4192  0.8550
 5406TIP3    H216183   2.314   6.054   2.948  1.3815  0.7298  0.7022
 5407TIP3   OH216184   1.255   4.910   0.666 -0.0402 -0.2425 -0.0811
 5407TIP3    H116185   1.167   4.946   0.654  0.8592  1.9505 -0.4385
 5407TIP3    H216186   1.266   4.906   0.761 -0.9184 -1.6478 -0.0056
 5408TIP3   OH216187   1.145   3.773   4.207 -0.4330  0.2444 -0.1347
 5408TIP3    H116188   1.057   3.812   4.213 -0.6644 -0.3685  0.7303
 5408TIP3    H216189   1.178   3.775   4.297  1.2341  2.1824 -0.7134
 5409TIP3   OH216190   2.137   1.395   4.635 -0.1714  0.5965 -0.0794
 5409TIP3    H116191   2.196   1.365   4.565 -0.0697  2.2833 -0.7738
 5409TIP3    H216192   2.129   1.320   4.694  1.0064 -0.3531 -1.0733
 5410TIP3   OH216193   3.394   4.555   4.882  0.4041  0.7854  0.1238
 5410TIP3    H116194   3.333   4.575   4.952  1.1054  1.2706  0.6045
 5410TIP3    H216195   3.352   4.483   4.834  0.6835 -0.7446  2.0391
 5411TIP3   OH216196   1.133   0.633   2.578 -0.2112  0.1220  0.2625
 5411TIP3    H116197   1.225   0.654   2.593  0.1123 -0.7368 -0.4184
 5411TIP3    H216198   1.089   0.662   2.658  0.5319  1.1785  0.3126
 5412TIP3   OH216199   1.593   0.368   1.546 -0.0480 -0.3910  0.0076
 5412TIP3    H116200   1.499   0.364   1.562 -0.0934 -0.8517 -0.3452
 5412TIP3    H216201   1.628   0.293   1.593  0.0198 -0.7800 -0.6463
 5413TIP3   OH216202   1.176   0.404   0.758  0.5412 -0.0656  0.3972
 5413TIP3    H116203   1.157   0.325   0.707 -1.5543  1.2904 -1.0697
 5413TIP3    H216204   1.130   0.391   0.841 -1.1648  0.2410 -0.4630
 5414TIP3   OH216205   6.632   5.746   3.201 -0.0805  0.0147 -0.6531
 5414TIP3    H116206   6.712   5.770   3.247 -0.2858 -0.4947 -0.0282
 5414TIP3    H216207   6.660   5.735   3.110  0.4180  0.5384 -0.5727
 5415TIP3   OH216208   3.539   4.967   0.655  0.0392  0.1332  0.4035
 5415TIP3    H116209   3.559   4.964   0.748  0.0658  0.0125  0.3942
 5415TIP3    H216210   3.577   5.049   0.625 -2.2018  1.4766  1.0024
 5416TIP3   OH216211   1.969   1.294   4.140 -0.0266  0.2482 -0.2146
 5416TIP3    H116212   1.990   1.382   4.107  2.1762  0.2407  0.9774
 5416TIP3    H216213   1.883   1.304   4.182 -0.6880  1.3447 -1.7294
 5417TIP3   OH216214   0.091   2.591   0.515 -0.0781 -0.0852 -0.1390
 5417TIP3    H116215   0.049   2.605   0.431 -0.8006 -0.1781  0.2003
 5417TIP3    H216216   0.023   2.610   0.580  0.4171 -0.1776  0.4196
 5418TIP3   OH216217   3.142   2.887   3.573  0.1304 -0.3173 -0.0006
 5418TIP3    H116218   3.080   2.831   3.619 -0.8162  0.2649 -0.5307
 5418TIP3    H216219   3.162   2.840   3.492  0.5066 -0.5714  0.2356
 5419TIP3   OH216220   2.961   0.491   2.143  0.1497 -0.0214 -0.1317
 5419TIP3    H116221   2.890   0.427   2.153  1.9076 -2.1740 -0.6901
 5419TIP3    H216222   2.991   0.506   2.233  0.7163 -1.2370 -0.0893
 5420TIP3   OH216223   6.691   0.853   0.526  0.1130 -0.7754 -0.6592
 5420TIP3    H116224   6.634   0.811   0.590 -2.3090  1.9718 -0.7990
 5420TIP3    H216225   6.662   0.818   0.442 -0.1622 -0.6937 -0.5989
 5421TIP3   OH216226   2.429   5.506   1.571 -0.5473  0.3250  0.0832
 5421TIP3    H116227   2.522   5.523   1.556 -0.4940  0.0334  0.0845
 5421TIP3    H216228   2.403   5.573   1.635 -0.2549  0.1894  0.3477
 5422TIP3   OH216229   4.647   2.638   4.123  0.7205 -0.2734 -0.0613
 5422TIP3    H116230   4.605   2.637   4.037 -0.1173  0.7945  0.3136
 5422TIP3    H216231   4.611   2.715   4.166  1.8764 -0.2482  0.8898
 5423TIP3   OH216232   6.125   5.716   4.171 -0.0318  0.5493 -0.3395
 5423TIP3    H116233   6.134   5.800   4.124  1.1324  0.1882 -0.7994
 5423TIP3    H216234   6.169   5.653   4.115 -0.9267 -0.3909 -0.0033
 5424TIP3   OH216235   5.479   3.653   3.196  0.5097 -0.2105  0.2445
 5424TIP3    H116236   5.427   3.724   3.157 -2.3030 -0.1730  3.6130
 5424TIP3    H216237   5.436   3.573   3.167  1.1621 -0.3965 -0.2400
 5425TIP3   OH216238   5.308   4.240   0.903 -0.4118  0.3678  0.0803
 5425TIP3    H116239   5.221   4.203   0.917 -0.5423  1.0483  1.1528
 5425TIP3    H216240   5.368   4.174   0.938 -0.6495  1.1462  2.1002
 5426TIP3   OH216241   2.132   4.542   3.621 -0.4884 -0.1252 -0.2274
 5426TIP3    H116242   2.089   4.567   3.703 -1.3615 -1.4475 -0.2589
 5426TIP3    H216243   2.064   4.498   3.571  0.8952 -2.4500 -0.2071
 5427TIP3   OH216244   2.589   4.203   4.491  0.9838  0.0346  0.0199
 5427TIP3    H116245   2.619   4.187   4.581  0.3834  0.1004  0.2419
 5427TIP3    H216246   2.662   4.246   4.448  1.2508  0.0752  0.5056
 5428TIP3   OH216247   0.990   4.808   1.394 -0.3793  0.1341  0.0809
 5428TIP3    H116248   0.981   4.741   1.327  2.4059  0.7532 -1.0480
 5428TIP3    H216249   0.951   4.886   1.356  2.8080  0.9873 -1.7856
 5429TIP3   OH216250   4.275   4.405   3.102 -0.1001 -0.0808  0.2064
 5429TIP3    H116251   4.286   4.375   3.012  0.7884  0.7994 -0.0018
 5429TIP3    H216252   4.237   4.493   3.094 -0.0962 -0.0336  0.6825
 5430TIP3   OH216253   3.095   0.444   3.479  0.6156 -0.3967 -0.3108
 5430TIP3    H116254   3.007   0.408   3.495 -0.6094  2.5374  0.1879
 5430TIP3    H216255   3.097   0.460   3.384  0.5559 -0.3640 -0.3067
 5431TIP3   OH216256   3.270   4.069   4.783 -0.0694 -0.4705  0.2817
 5431TIP3    H116257   3.307   3.993   4.828 -0.0342 -1.0313 -0.6595
 5431TIP3    H216258   3.262   4.041   4.692  0.6983  0.9378 -0.2547
 5432TIP3   OH216259   3.277   0.826   3.887 -0.8742  0.5438 -0.3707
 5432TIP3    H116260   3.248   0.737   3.867 -2.0396  0.7726  0.2676
 5432TIP3    H216261   3.207   0.864   3.940  0.8125  0.9240  1.7242
 5433TIP3   OH216262   3.094   5.448   5.236  0.5237 -0.4737 -0.2407
 5433TIP3    H116263   3.016   5.497   5.209  0.5582 -0.9659 -1.2716
 5433TIP3    H216264   3.160   5.469   5.171  1.4992  0.4580  0.9868
 5434TIP3   OH216265   6.228   5.653   2.750 -0.3115  0.1524  0.0916
 5434TIP3    H116266   6.184   5.577   2.712  0.1921  0.7983 -1.9038
 5434TIP3    H216267   6.157   5.711   2.777 -0.6939 -0.8435  1.3674
 5435TIP3   OH216268   5.930   3.714   4.876  0.8768 -0.1479 -0.1211
 5435TIP3    H116269   5.932   3.696   4.970 -0.1987  0.4441  0.0236
 5435TIP3    H216270   5.958   3.631   4.836  0.9683 -0.5278  0.7017
 5436TIP3   OH216271   2.156   1.562   4.980  1.1262 -0.2020  0.1452
 5436TIP3    H116272   2.203   1.582   4.899 -1.0370  1.5140 -0.8134
 5436TIP3    H216273   2.101   1.639   4.995 -1.1202 -1.8917  1.2960
 5437TIP3   OH216274   1.018   2.659   5.588  0.4380 -0.6115  0.1810
 5437TIP3    H116275   0.992   2.567   5.584  1.0248 -0.8406  1.2878
 5437TIP3    H216276   1.110   2.658   5.562  0.0093 -0.0901 -1.5171
 5438TIP3   OH216277   5.623   2.896   2.166 -0.1474 -0.1939 -0.1878
 5438TIP3    H116278   5.547   2.942   2.202  0.9558 -0.0619  2.1141
 5438TIP3    H216279   5.698   2.950   2.192  0.9044 -1.4073 -0.6068
 5439TIP3   OH216280  -0.028   3.769   0.769  0.3282 -0.2200  0.3566
 5439TIP3    H116281   0.047   3.728   0.813  0.4996 -1.2535 -0.8218
 5439TIP3    H216282   0.004   3.787   0.680 -0.1029  1.5154  0.5208
 5440TIP3   OH216283   3.326   3.755   5.518 -0.5189 -0.0771  0.6843
 5440TIP3    H116284   3.237   3.780   5.542 -0.8255  0.1111 -0.6271
 5440TIP3    H216285   3.366   3.835   5.485 -0.0011 -0.2688  0.8330
 5441TIP3   OH216286   6.928   5.538   0.602  0.2865  0.1897  0.5159
 5441TIP3    H116287   6.893   5.627   0.611 -0.2897 -0.0796  1.0220
 5441TIP3    H216288   6.929   5.503   0.691 -0.5790 -0.7099  0.1913
 5442TIP3   OH216289   6.902   5.422   1.984  0.0592 -0.9913  0.3700
 5442TIP3    H116290   6.828   5.361   1.990 -1.2313  0.5144  0.4682
 5442TIP3    H216291   6.863   5.508   2.001  1.9264 -0.1973  0.8434
 5443TIP3   OH216292   7.176   6.620   2.036  0.0242  0.0996  0.6959
 5443TIP3    H116293   7.211   6.539   2.073 -1.3872 -0.8276  0.0967
 5443TIP3    H216294   7.112   6.650   2.100 -1.3861 -0.7349 -0.2760
 5444TIP3   OH216295   1.099   6.321   1.190  0.1603 -0.2905  0.2879
 5444TIP3    H116296   1.086   6.377   1.266 -0.4844  2.4802 -1.6853
 5444TIP3    H216297   1.191   6.333   1.167 -0.2838  1.2359 -0.9370
 5445TIP3   OH216298   6.709   1.903   1.250 -0.4459 -0.9776  0.7219
 5445TIP3    H116299   6.762   1.825   1.267  0.3317 -0.8393 -0.9486
 5445TIP3    H216300   6.686   1.897   1.157  1.7579  2.0086 -0.1656
 5446TIP3   OH216301   2.014   4.316   2.625  0.3873 -0.4244  0.0893
 5446TIP3    H116302   1.970   4.247   2.576  1.3750 -0.8630 -0.2113
 5446TIP3    H216303   2.102   4.320   2.587 -0.0696  2.0108 -0.9152
 5447TIP3   OH216304   6.858   2.032   1.016  0.1238 -0.3837 -0.1388
 5447TIP3    H116305   6.767   2.008   1.033  0.1317  1.2631  2.7642
 5447TIP3    H216306   6.855   2.083   0.935 -1.2522 -1.5640 -0.8882
 5448TIP3   OH216307   5.793   0.591   2.039  0.2284 -0.5913  0.4469
 5448TIP3    H116308   5.723   0.531   2.064  0.9303 -1.7001 -0.1746
 5448TIP3    H216309   5.751   0.677   2.034 -0.8201 -1.0362  1.2259
 5449TIP3   OH216310   3.515   0.953   1.307  0.0037 -0.6187 -0.3095
 5449TIP3    H116311   3.446   0.949   1.240 -0.9233  0.9075  0.5213
 5449TIP3    H216312   3.572   1.023   1.278  0.9230 -1.5085 -0.6975
 5450TIP3   OH216313   0.146   5.614   2.002  0.2475 -0.1196 -0.1079
 5450TIP3    H116314   0.140   5.595   2.096 -0.2656 -2.1068 -0.4910
 5450TIP3    H216315   0.204   5.546   1.967 -0.0480  0.2171 -1.3176
 5451TIP3   OH216316   2.459   2.206   3.673 -0.1578  0.0924 -0.5882
 5451TIP3    H116317   2.434   2.114   3.670 -2.2162  0.6008 -1.2388
 5451TIP3    H216318   2.391   2.248   3.726  0.6914  1.2570 -0.3632
 5452TIP3   OH216319   6.469   3.612   0.873 -0.4323  0.6476  0.2185
 5452TIP3    H116320   6.419   3.661   0.939  1.1690 -0.5842  2.4829
 5452TIP3    H216321   6.407   3.547   0.839 -0.8309  0.0762  1.9333
 5453TIP3   OH216322   0.997   0.055   3.971  0.6459  0.0975  0.2422
 5453TIP3    H116323   0.964   0.145   3.967 -1.1399 -0.3915  2.2165
 5453TIP3    H216324   1.023   0.043   4.062  0.3607 -1.5601  0.1402
 5454TIP3   OH216325   6.478   3.601   2.755 -0.4973 -0.8528  0.6803
 5454TIP3    H116326   6.488   3.606   2.660 -1.0207  0.6253  0.6826
 5454TIP3    H216327   6.525   3.678   2.788 -2.3205  0.0118  1.4280
 5455TIP3   OH216328   1.269   1.245   4.661 -0.3122  0.2296 -0.1430
 5455TIP3    H116329   1.213   1.204   4.726 -1.7432  0.8815 -0.9045
 5455TIP3    H216330   1.279   1.335   4.691 -0.7044  0.4431 -0.6300
 5456TIP3   OH216331   2.694   5.217   4.501 -0.0488  0.5458  0.0627
 5456TIP3    H116332   2.674   5.136   4.547 -0.2650 -0.1111 -1.1384
 5456TIP3    H216333   2.620   5.275   4.519 -1.5913 -0.7551 -1.8144
 5457TIP3   OH216334   5.314   5.806   2.786  0.0642  0.2890  0.2498
 5457TIP3    H116335   5.333   5.852   2.704  0.6299 -1.6282 -0.7439
 5457TIP3    H216336   5.395   5.812   2.836 -0.7728  2.8982  1.4851
 5458TIP3   OH216337   3.768   2.971   3.886 -0.2448 -0.2207 -0.6055
 5458TIP3    H116338   3.701   2.921   3.838 -0.7097 -2.2394  1.8931
 5458TIP3    H216339   3.718   3.020   3.951  0.5640 -0.7411  0.4415
 5459TIP3   OH216340   0.447   0.981   5.076 -0.7783 -0.4407 -0.2355
 5459TIP3    H116341   0.351   0.985   5.068 -0.6917  0.2738 -1.0272
 5459TIP3    H216342   0.462   0.927   5.154 -1.8370  0.2728  0.4881
 5460TIP3   OH216343   0.315   3.462   5.468 -0.4087 -0.6451  0.6114
 5460TIP3    H116344   0.386   3.473   5.531 -0.7038  0.7029  0.7559
 5460TIP3    H216345   0.337   3.522   5.396  0.3855 -2.8090 -1.0505
 5461TIP3   OH216346   5.726   2.507   3.383  0.0533  0.6004 -0.0768
 5461TIP3    H116347   5.672   2.460   3.319 -0.8740 -0.6487  1.5632
 5461TIP3    H216348   5.785   2.441   3.417  1.4172  1.5523 -0.5153
 5462TIP3   OH216349   6.956   4.662   2.716 -0.0520 -0.0002  0.2362
 5462TIP3    H116350   6.862   4.672   2.732 -0.1555 -0.5519 -0.0266
 5462TIP3    H216351   6.962   4.627   2.628  0.4891  2.1423 -0.6434
 5463TIP3   OH216352   3.647   0.114   0.117 -0.0507 -0.1866 -0.1254
 5463TIP3    H116353   3.706   0.048   0.082  0.8347 -0.0481  1.0195
 5463TIP3    H216354   3.658   0.108   0.212 -0.1792  1.3702  0.0254
 5464TIP3   OH216355   2.654   2.126   1.423  0.0330 -0.4194 -0.0738
 5464TIP3    H116356   2.691   2.069   1.491  0.2105 -1.1185 -0.7455
 5464TIP3    H216357   2.611   2.066   1.363  0.3055  0.1493 -0.8472
 5465TIP3   OH216358   2.651   1.103   3.605 -0.6250 -0.1551  0.0731
 5465TIP3    H116359   2.571   1.093   3.553 -0.9361 -0.0581  0.5290
 5465TIP3    H216360   2.641   1.038   3.675  0.3953 -1.2207 -0.7261
 5466TIP3   OH216361   2.762   5.225   5.477 -0.3147  0.3107  0.2682
 5466TIP3    H116362   2.772   5.144   5.528 -2.0879 -0.6178 -0.7433
 5466TIP3    H216363   2.844   5.233   5.429 -0.4260 -1.3911 -0.2785
 5467TIP3   OH216364   3.197   6.076   2.605 -0.3472 -0.4748 -0.1754
 5467TIP3    H116365   3.188   6.164   2.567 -0.4575 -1.0545 -1.5454
 5467TIP3    H216366   3.237   6.091   2.691 -1.0102  0.9678 -0.0796
 5468TIP3   OH216367   5.826   1.845   1.066 -0.0555  0.1064 -0.6859
 5468TIP3    H116368   5.835   1.940   1.062 -0.1164  0.1373 -0.1653
 5468TIP3    H216369   5.915   1.811   1.059  0.1544  0.2727  0.9158
 5469TIP3   OH216370   2.296   0.447   1.376  0.2576 -0.0924  0.2680
 5469TIP3    H116371   2.382   0.488   1.367 -0.2166  0.7730 -0.5524
 5469TIP3    H216372   2.293   0.416   1.466  1.2541  0.2838  0.4381
 5470TIP3   OH216373   6.001   4.857   2.435  0.2840  0.3466 -0.0136
 5470TIP3    H116374   5.939   4.835   2.365 -1.3374  0.5870  1.2940
 5470TIP3    H216375   6.031   4.772   2.468 -1.5029  0.1398  1.1708
 5471TIP3   OH216376   5.588   1.206   1.997  0.3602 -0.0571  0.2920
 5471TIP3    H116377   5.519   1.153   2.035  0.0800  0.5646  0.6655
 5471TIP3    H216378   5.668   1.156   2.011  0.2314  0.0520  1.4949
 5472TIP3   OH216379   1.110   1.665   2.104 -0.0145  0.0326  0.2862
 5472TIP3    H116380   1.183   1.603   2.101  0.0546  0.1409 -0.2338
 5472TIP3    H216381   1.085   1.667   2.197  0.0815 -0.6557  0.3321
 5473TIP3   OH216382   5.607   2.394   3.172 -0.3866  0.0809  0.1342
 5473TIP3    H116383   5.521   2.424   3.145 -0.0143  2.4394  1.2555
 5473TIP3    H216384   5.654   2.377   3.090 -1.1796  1.0886 -0.5517
 5474TIP3   OH216385   0.746   0.550   5.418  0.0694  0.0044 -0.7586
 5474TIP3    H116386   0.743   0.580   5.327 -2.3228 -0.0416 -0.7646
 5474TIP3    H216387   0.685   0.609   5.463 -2.5234 -2.8909 -0.1838
 5475TIP3   OH216388   3.865   2.949   1.662  0.6733  0.0485 -0.1652
 5475TIP3    H116389   3.783   2.945   1.711  0.7808  0.4909  0.0538
 5475TIP3    H216390   3.857   3.026   1.607  0.2119 -0.8989 -1.4705
 5476TIP3   OH216391   3.333   6.193   0.254  0.8790  0.3886  0.1265
 5476TIP3    H116392   3.265   6.179   0.319 -0.2485 -0.5830 -1.2127
 5476TIP3    H216393   3.406   6.138   0.284  0.3191 -0.1778  0.4727
 5477TIP3   OH216394   3.068   4.502   0.876 -0.4644  0.2552 -0.5519
 5477TIP3    H116395   2.984   4.544   0.895  1.2834  3.0667  1.6050
 5477TIP3    H216396   3.118   4.568   0.829  1.3328 -0.5269  0.1990
 5478TIP3   OH216397   4.806   4.474   5.481  0.3160  0.2601 -0.0647
 5478TIP3    H116398   4.731   4.414   5.473 -0.6164  1.5097 -1.1334
 5478TIP3    H216399   4.811   4.518   5.396  1.4995  1.0872  0.4122
 5479TIP3   OH216400   0.172   4.512   3.459 -0.0723  0.2307  0.5817
 5479TIP3    H116401   0.141   4.426   3.488  0.8248  0.2942  1.8369
 5479TIP3    H216402   0.095   4.568   3.463 -0.7369 -0.5675 -0.5421
 5480TIP3   OH216403   4.269   6.170   5.313  0.6439 -0.0434  0.8007
 5480TIP3    H116404   4.265   6.112   5.237  2.0696 -0.9754  1.3886
 5480TIP3    H216405   4.342   6.136   5.365  0.8797  1.6888  1.6730
 5481TIP3   OH216406   6.037   4.770   3.179  0.0298  0.4447  0.1322
 5481TIP3    H116407   6.079   4.702   3.232 -2.1118 -0.0772  1.2625
 5481TIP3    H216408   5.949   4.777   3.215 -1.3762  0.4613 -3.0179
 5482TIP3   OH216409   6.364   0.583   0.884 -0.1917  0.0855 -0.5155
 5482TIP3    H116410   6.305   0.615   0.816  0.3909 -0.1934 -1.1752
 5482TIP3    H216411   6.332   0.495   0.904  0.0591 -0.1099 -0.9547
 5483TIP3   OH216412   1.346   0.338   1.691 -0.3323  0.0124 -0.7214
 5483TIP3    H116413   1.393   0.370   1.768 -0.0689  0.7224 -1.1707
 5483TIP3    H216414   1.257   0.371   1.702 -0.7300 -1.2477  0.0785
 5484TIP3   OH216415   2.936   3.759   2.028  0.0807  0.1290 -0.3977
 5484TIP3    H116416   3.030   3.758   2.011  0.4104 -4.0246  0.7123
 5484TIP3    H216417   2.927   3.793   2.117  0.5503  0.2716 -0.4044
 5485TIP3   OH216418   0.159   5.505   4.944 -0.1176  0.5417 -0.5244
 5485TIP3    H116419   0.170   5.440   5.013 -1.3902 -2.5445 -2.9874
 5485TIP3    H216420   0.139   5.587   4.990  0.8938 -0.9215  2.7279
 5486TIP3   OH216421   6.574   1.472   4.901 -0.1852  0.1277  0.1780
 5486TIP3    H116422   6.547   1.410   4.833 -0.7188  0.8646 -0.3061
 5486TIP3    H216423   6.658   1.439   4.932  0.0012 -0.3031 -0.7565
 5487TIP3   OH216424   0.987   3.081   3.113 -0.3624 -0.3685 -0.1363
 5487TIP3    H116425   1.043   3.158   3.122 -0.0011 -0.7744  1.2018
 5487TIP3    H216426   0.899   3.113   3.135  0.0853 -0.7278  2.5149
 5488TIP3   OH216427   6.721   6.680   4.932 -0.0602 -0.0356 -0.2401
 5488TIP3    H116428   6.662   6.713   5.000  0.2897  0.6668 -0.2644
 5488TIP3    H216429   6.792   6.744   4.929  1.8395 -1.8871  1.2782
 5489TIP3   OH216430   6.163   6.350   3.224 -0.6584 -0.2564  0.8714
 5489TIP3    H116431   6.218   6.397   3.161 -1.4237  1.1890  1.2390
 5489TIP3    H216432   6.191   6.382   3.309  1.0934 -2.9636  1.4380
 5490TIP3   OH216433   0.964   2.348   0.497  0.3313 -0.1071 -0.4436
 5490TIP3    H116434   0.994   2.299   0.421  0.8532 -0.2017 -0.1795
 5490TIP3    H216435   1.023   2.323   0.568  1.1091  1.4685 -0.4834
 5491TIP3   OH216436   0.385   6.676   5.214  0.4872  0.1118  0.3501
 5491TIP3    H116437   0.450   6.679   5.284 -1.0036 -0.2677  1.8077
 5491TIP3    H216438   0.396   6.758   5.167  2.1055 -0.0183  0.4730
 5492TIP3   OH216439   6.384   4.952   0.952 -0.6048  0.4468 -0.2689
 5492TIP3    H116440   6.318   5.003   0.906  1.8845  1.7064 -2.6745
 5492TIP3    H216441   6.466   4.999   0.938  1.5523 -3.1222 -0.9864
 5493TIP3   OH216442   2.409   2.407   5.090 -0.3304 -0.2960 -0.2351
 5493TIP3    H116443   2.471   2.341   5.123 -1.9000 -2.3288 -1.0915
 5493TIP3    H216444   2.346   2.356   5.039 -1.0599  2.0537 -1.8258
 5494TIP3   OH216445   4.763   6.519   2.165  0.4555  0.0563  0.2658
 5494TIP3    H116446   4.773   6.470   2.083 -0.6545  1.0245 -0.4997
 5494TIP3    H216447   4.823   6.477   2.226  4.2714  1.6089 -2.0521
 5495TIP3   OH216448   5.286   3.028   3.523 -0.1499 -0.0838  0.0220
 5495TIP3    H116449   5.366   2.976   3.507  1.8391  3.0145 -1.0318
 5495TIP3    H216450   5.295   3.060   3.613  0.2377  0.8774 -0.3422
 5496TIP3   OH216451   5.447   1.722   5.421 -0.1282  0.3311  0.7459
 5496TIP3    H116452   5.508   1.654   5.390 -2.1015 -0.7041 -1.0957
 5496TIP3    H216453   5.455   1.792   5.357 -1.5747 -0.2741 -0.1585
 5497TIP3   OH216454   2.286   1.710   1.971 -0.3829 -0.0322  0.0265
 5497TIP3    H116455   2.265   1.694   2.063 -1.9513 -0.1012 -0.3046
 5497TIP3    H216456   2.325   1.628   1.940 -0.4805 -0.2442  0.4644
 5498TIP3   OH216457   5.682   1.391   4.807  0.5618  0.1165 -0.3343
 5498TIP3    H116458   5.621   1.326   4.773  0.8039  1.0338 -2.6602
 5498TIP3    H216459   5.644   1.475   4.783  1.1831  0.8244  1.0060
 5499TIP3   OH216460   6.724   4.258   5.377 -0.0958 -0.2413 -0.2038
 5499TIP3    H116461   6.630   4.252   5.364  0.1541 -0.0775 -2.5569
 5499TIP3    H216462   6.756   4.168   5.364  0.0993 -0.2732  0.4507
 5500TIP3   OH216463   2.549   3.656   3.760  0.5425 -0.1611 -0.4485
 5500TIP3    H116464   2.580   3.572   3.724 -0.5065 -0.6924 -0.1698
 5500TIP3    H216465   2.461   3.666   3.723  1.2744  1.6598 -1.8059
 5501TIP3   OH216466   5.146   5.559   0.002 -0.1361 -0.2534  0.0849
 5501TIP3    H116467   5.204   5.498  -0.044  0.3743  0.3131 -0.0324
 5501TIP3    H216468   5.195   5.584   0.081 -0.4417 -0.1829  0.2514
 5502TIP3   OH216469   0.710   0.037   1.425  0.0334  0.2409  0.1330
 5502TIP3    H116470   0.792   0.086   1.430  0.7991 -0.3795 -3.7106
 5502TIP3    H216471   0.722  -0.037   1.485  0.6821  2.1048  2.4661
 5503TIP3   OH216472   4.372   1.836   1.555  0.0890  0.1106 -0.4260
 5503TIP3    H116473   4.463   1.860   1.542 -0.1183  0.5188 -1.1558
 5503TIP3    H216474   4.359   1.841   1.650  1.5947 -2.7864  0.0672
 5504TIP3   OH216475   5.517   0.541   3.984  0.4863 -0.4571 -0.5143
 5504TIP3    H116476   5.566   0.609   3.938  1.7898 -0.8907  0.2070
 5504TIP3    H216477   5.566   0.460   3.967 -0.5532 -1.0793 -0.6329
 5505TIP3   OH216478   6.019   6.077   4.250  0.1865  0.0925 -0.0827
 5505TIP3    H116479   6.091   6.064   4.312 -0.5160  0.2089  0.7828
 5505TIP3    H216480   6.053   6.138   4.185  1.1161 -0.4369 -0.1140
 5506TIP3   OH216481   5.815   0.197   0.700 -0.0999  0.2478  0.7851
 5506TIP3    H116482   5.862   0.262   0.648  0.0827 -0.1184  0.4923
 5506TIP3    H216483   5.744   0.168   0.644  0.7678 -0.9848  0.2844
 5507TIP3   OH216484   5.240   6.616   1.708 -0.0339  0.3499 -0.1106
 5507TIP3    H116485   5.323   6.583   1.671  0.8512  0.7191  1.4408
 5507TIP3    H216486   5.201   6.667   1.637  1.3651  0.6590 -0.7074
 5508TIP3   OH216487   2.131   5.681   2.993 -0.5066  0.2555  0.2674
 5508TIP3    H116488   2.088   5.748   2.938 -0.5750 -0.2748 -0.3379
 5508TIP3    H216489   2.224   5.689   2.970 -0.4599  0.4288  0.5129
 5509TIP3   OH216490   5.500   1.031   2.884  0.3063 -0.5262  0.5687
 5509TIP3    H116491   5.484   1.124   2.900  0.1057 -0.2401 -1.1015
 5509TIP3    H216492   5.503   1.023   2.788 -0.0313 -2.2940  0.6608
 5510TIP3   OH216493   6.819   2.592   1.253  0.0532 -0.0709  0.2908
 5510TIP3    H116494   6.854   2.535   1.322 -1.8014 -0.2458  1.1550
 5510TIP3    H216495   6.757   2.536   1.206 -1.4953  1.0634  0.8926
 5511TIP3   OH216496   6.477   0.216   4.479  0.3282  0.6620 -0.2949
 5511TIP3    H116497   6.504   0.172   4.559  0.4156  2.1156  0.5126
 5511TIP3    H216498   6.392   0.177   4.458 -0.9375  1.9262  1.9592
 5512TIP3   OH216499   4.882   2.435   0.552  0.2326 -0.3137 -0.2245
 5512TIP3    H116500   4.857   2.367   0.489 -0.7540 -1.1722  1.0340
 5512TIP3    H216501   4.947   2.393   0.607  1.9016  0.7799 -1.2697
 5513TIP3   OH216502   5.810   3.279   4.783 -0.0311  0.1467  0.5185
 5513TIP3    H116503   5.756   3.257   4.707  1.4063  0.0837 -0.5250
 5513TIP3    H216504   5.872   3.206   4.790  1.1405  1.1016  0.5032
 5514TIP3   OH216505   2.304   4.589   4.490 -0.1817 -0.1338 -0.2244
 5514TIP3    H116506   2.307   4.520   4.556 -1.1232  0.5007  0.5128
 5514TIP3    H216507   2.372   4.566   4.427 -1.4747 -2.5725 -0.8365
 5515TIP3   OH216508   5.460   6.709   4.768 -0.0962 -0.4050  0.0222
 5515TIP3    H116509   5.524   6.638   4.761  1.7002  1.0434  0.8989
 5515TIP3    H216510   5.384   6.668   4.809 -0.0931 -2.3614 -1.7603
 5516TIP3   OH216511   4.035   3.770   0.656 -0.5398 -0.5249  0.4322
 5516TIP3    H116512   4.046   3.863   0.676 -0.6173 -0.2360 -0.7756
 5516TIP3    H216513   4.102   3.751   0.590 -2.4855 -0.4931 -1.7136
 5517TIP3   OH216514   3.160   4.331   1.351 -0.5901  0.1590  0.1032
 5517TIP3    H116515   3.126   4.393   1.287  2.0534  0.4186 -1.1708
 5517TIP3    H216516   3.082   4.289   1.388 -2.2659  0.2062 -3.0627
 5518TIP3   OH216517   3.654   4.524   3.863  0.2284 -0.2054  0.5187
 5518TIP3    H116518   3.595   4.541   3.936  1.3295 -0.8320  1.5912
 5518TIP3    H216519   3.708   4.451   3.893  1.7319  0.5356 -0.2988
 5519TIP3   OH216520   2.979   2.238   1.122  0.3189 -0.1035 -0.2426
 5519TIP3    H116521   3.061   2.200   1.090  0.4159 -0.3220  0.2624
 5519TIP3    H216522   2.974   2.211   1.214  0.4913  1.2852  0.1940
 5520TIP3   OH216523   4.532   6.046   1.683  0.2528 -0.4417  0.5057
 5520TIP3    H116524   4.626   6.061   1.689  0.1881  0.7024 -0.8198
 5520TIP3    H216525   4.514   5.980   1.750  1.6412  0.8977  2.2903
 5521TIP3   OH216526   6.151   3.398   3.547  0.4589 -0.7544  0.1987
 5521TIP3    H116527   6.188   3.333   3.487  0.1082  1.0126 -2.0785
 5521TIP3    H216528   6.083   3.350   3.595  2.3166 -2.8251  0.9588
 5522TIP3   OH216529   1.753   3.966   2.302 -0.3194 -0.1111 -0.3262
 5522TIP3    H116530   1.695   3.988   2.229  0.0177  1.0638 -0.2653
 5522TIP3    H216531   1.841   3.971   2.266 -0.1547  0.3732  0.1185
 5523TIP3   OH216532   6.400   4.590   3.748 -0.6072 -1.1939 -0.2081
 5523TIP3    H116533   6.366   4.661   3.692  1.8111  0.4222  0.2287
 5523TIP3    H216534   6.399   4.626   3.836 -1.0703 -2.4329  0.3190
 5524TIP3   OH216535   2.197   4.912   0.092 -0.4666 -0.1325 -0.1535
 5524TIP3    H116536   2.167   4.836   0.141 -1.1252 -0.1039 -0.5045
 5524TIP3    H216537   2.254   4.876   0.024  1.0039 -0.1200  1.0151
 5525TIP3   OH216538   1.076   1.899   4.842  0.3867 -0.2727 -0.0879
 5525TIP3    H116539   1.154   1.917   4.790  0.0882  0.1995 -0.3825
 5525TIP3    H216540   1.080   1.961   4.915  1.1079 -1.3267  0.7984
 5526TIP3   OH216541   0.792   4.360   2.258  0.1403 -0.1406  0.0766
 5526TIP3    H116542   0.798   4.429   2.324 -0.0132 -1.5521  1.6275
 5526TIP3    H216543   0.719   4.305   2.286  0.8932 -1.5186 -0.5350
 5527TIP3   OH216544   2.085   1.794   5.414  0.1489  0.2129 -0.1810
 5527TIP3    H116545   2.096   1.699   5.417 -0.5527  0.1563  1.6342
 5527TIP3    H216546   1.993   1.809   5.436 -0.0587  1.2889 -1.6015
 5528TIP3   OH216547   3.930   4.141   5.635 -0.1646  0.0760  0.1602
 5528TIP3    H116548   3.839   4.110   5.636 -0.3213  0.4326 -1.2800
 5528TIP3    H216549   3.931   4.212   5.699 -1.1412  0.6588 -0.4471
 5529TIP3   OH216550   4.785   0.219   0.862 -0.2455 -0.0051 -0.5001
 5529TIP3    H116551   4.762   0.310   0.842 -0.7363 -0.5781 -2.8243
 5529TIP3    H216552   4.880   0.219   0.871 -0.2814  0.7905 -0.0281
 5530TIP3   OH216553   1.459   4.002   0.347 -0.0948  0.4372 -0.1235
 5530TIP3    H116554   1.538   3.986   0.398  0.3494 -0.9540 -1.1720
 5530TIP3    H216555   1.490   4.050   0.270 -0.2496 -0.1248 -0.5452
 5531TIP3   OH216556   0.088   5.659   4.263  0.4412 -0.2408 -0.6922
 5531TIP3    H116557   0.084   5.754   4.250 -1.3174 -0.2898 -0.7480
 5531TIP3    H216558   0.038   5.644   4.343 -0.7043 -1.2559 -1.5600
 5532TIP3   OH216559   2.242   2.687   4.518  0.3626  0.3153 -0.0284
 5532TIP3    H116560   2.149   2.677   4.537  0.3216 -1.0461 -0.8294
 5532TIP3    H216561   2.245   2.740   4.439  0.1837 -0.9825 -0.9233
 5533TIP3   OH216562   4.455   2.240   4.095  0.3631 -0.6847  0.4237
 5533TIP3    H116563   4.548   2.258   4.105  0.4274  0.5262 -1.7405
 5533TIP3    H216564   4.412   2.309   4.145  0.6663  0.3832 -0.7227
 5534TIP3   OH216565   6.565   0.702   4.315 -0.1688 -0.0359  0.1563
 5534TIP3    H116566   6.527   0.628   4.267  1.3489 -0.7081 -0.0977
 5534TIP3    H216567   6.657   0.702   4.288  0.1836  1.0460  1.2886
 5535TIP3   OH216568   2.334   4.793   5.711 -0.0684 -0.0787 -1.0113
 5535TIP3    H116569   2.257   4.736   5.720  0.7502 -1.2633 -1.2410
 5535TIP3    H216570   2.398   4.756   5.772 -0.2807  2.0007  0.5420
 5536TIP3   OH216571   3.112   5.119   1.113 -0.2268 -0.7185 -0.0027
 5536TIP3    H116572   3.050   5.153   1.178  0.5315  1.6312 -0.4046
 5536TIP3    H216573   3.076   5.148   1.029  0.7464 -0.4497 -0.3339
 5537TIP3   OH216574   4.237   3.637   1.736 -0.2798 -0.8047 -0.0444
 5537TIP3    H116575   4.201   3.692   1.805 -2.4307 -1.8638 -0.2141
 5537TIP3    H216576   4.221   3.687   1.655 -0.8115 -0.9932 -0.0593
 5538TIP3   OH216577   1.313   6.781   2.198  0.3463  0.1964 -0.0337
 5538TIP3    H116578   1.387   6.840   2.183  0.4731 -0.3012 -1.4949
 5538TIP3    H216579   1.351   6.707   2.245  0.3133  0.9441  1.2187
 5539TIP3   OH216580   4.413   6.310   3.500  0.2703 -0.0669 -0.0809
 5539TIP3    H116581   4.366   6.352   3.429  0.6521  0.7754  0.1468
 5539TIP3    H216582   4.493   6.276   3.459 -0.6553 -1.7748 -0.5283
 5540TIP3   OH216583   5.732   2.929   0.917  0.4245 -0.0792  0.5929
 5540TIP3    H116584   5.659   2.955   0.973  1.0338 -2.0707  2.4415
 5540TIP3    H216585   5.692   2.874   0.850  0.0261  0.0269  0.7407
 5541TIP3   OH216586   0.342   0.994   4.311 -0.3919  0.1472  0.1465
 5541TIP3    H116587   0.248   0.984   4.294 -0.7320  0.3835  1.6618
 5541TIP3    H216588   0.350   0.977   4.405  1.3731 -1.6987 -0.2757
 5542TIP3   OH216589   4.875   5.331   4.423  0.1746 -0.4905  0.4099
 5542TIP3    H116590   4.849   5.263   4.361 -0.3060 -1.8120  1.9881
 5542TIP3    H216591   4.841   5.301   4.507  0.4778  1.4258  1.2730
 5543TIP3   OH216592   1.929   4.044   4.142  0.2909 -0.6759 -0.1842
 5543TIP3    H116593   1.924   4.140   4.141 -1.0394 -0.7165 -0.0726
 5543TIP3    H216594   2.020   4.025   4.162  0.9835  0.5493 -1.9156
 5544TIP3   OH216595   3.818   5.453   1.147 -0.2128  0.0797 -0.0235
 5544TIP3    H116596   3.760   5.507   1.201  1.0500  0.8513  0.5975
 5544TIP3    H216597   3.798   5.478   1.057  0.1601  1.4071  0.2415
 5545TIP3   OH216598   3.489   5.316   4.564 -0.4190  0.0386 -0.2859
 5545TIP3    H116599   3.432   5.266   4.622 -1.2502  2.0768  0.7504
 5545TIP3    H216600   3.570   5.265   4.560 -0.9632 -1.0170  1.2849
 5546TIP3   OH216601   5.916   2.687   4.750  0.1660 -0.2267  0.3648
 5546TIP3    H116602   5.870   2.664   4.669  0.9298 -0.3815 -0.0408
 5546TIP3    H216603   5.924   2.783   4.746 -1.4136 -0.0398  1.1669
 5547TIP3   OH216604   4.772   4.865   2.380 -0.0425 -0.2550  0.1325
 5547TIP3    H116605   4.776   4.940   2.439  0.5555  0.6429 -0.9945
 5547TIP3    H216606   4.855   4.868   2.332 -1.2044  0.1193 -1.9852
 5548TIP3   OH216607   3.301   5.533   3.844  0.1649  0.4449 -0.2599
 5548TIP3    H116608   3.376   5.484   3.879  0.0865  0.6480  0.2017
 5548TIP3    H216609   3.336   5.620   3.826  0.5963 -0.0728 -2.1697
 5549TIP3   OH216610   0.455   4.186   4.839  0.3322  0.2627 -0.3412
 5549TIP3    H116611   0.402   4.168   4.917  1.5013 -2.7512 -0.0934
 5549TIP3    H216612   0.391   4.207   4.771 -1.1168 -1.4849  0.3789
 5550TIP3   OH216613   1.688   0.170   0.970  0.0858  0.1475  0.4000
 5550TIP3    H116614   1.623   0.153   1.038  1.7477 -1.1264  1.7617
 5550TIP3    H216615   1.734   0.249   0.999  0.9696 -0.5441  0.9265
 5551TIP3   OH216616   6.963   1.808   1.375 -0.0308  0.0279  0.3392
 5551TIP3    H116617   7.006   1.786   1.458  2.3023  0.0301 -0.7848
 5551TIP3    H216618   7.007   1.754   1.310  0.7185  2.5762 -1.4119
 5552TIP3   OH216619   4.487   1.467   3.772 -0.2261 -0.3273 -0.1595
 5552TIP3    H116620   4.409   1.509   3.736  0.6140  2.0412  0.6071
 5552TIP3    H216621   4.558   1.494   3.713  0.1976 -1.6869 -0.3129
 5553TIP3   OH216622   5.129   1.296   4.968 -0.0181  0.0781  0.3586
 5553TIP3    H116623   5.155   1.245   4.892 -2.9780 -1.8674  0.5000
 5553TIP3    H216624   5.145   1.238   5.043 -0.6578  0.4956  0.8340
 5554TIP3   OH216625   0.843   6.429   5.703  0.1658 -0.3587 -0.0251
 5554TIP3    H116626   0.830   6.353   5.760  0.3651 -0.5440 -0.2258
 5554TIP3    H216627   0.907   6.483   5.750 -1.2309  0.5331  0.9429
 5555TIP3   OH216628   6.634   0.325   2.590  0.2802  0.0413 -0.5784
 5555TIP3    H116629   6.716   0.312   2.542  0.9183  1.7622 -0.0534
 5555TIP3    H216630   6.631   0.255   2.655  1.4153  0.0344 -0.5252
 5556TIP3   OH216631   4.886   6.169   5.169 -0.6331 -0.6076  0.0992
 5556TIP3    H116632   4.832   6.090   5.162  1.2216 -1.8301 -1.5994
 5556TIP3    H216633   4.961   6.142   5.221 -0.6647  0.4885  0.7454
 5557TIP3   OH216634   6.207   1.961   5.827  0.8849  0.1853  0.2600
 5557TIP3    H116635   6.239   1.939   5.740  0.1928 -0.8367  0.2507
 5557TIP3    H216636   6.111   1.955   5.820  0.7828  0.8422  0.8954
 5558TIP3   OH216637   3.635   3.667   4.735 -0.0171 -0.5771  0.4419
 5558TIP3    H116638   3.714   3.633   4.694 -0.2632 -1.6886  0.8633
 5558TIP3    H216639   3.633   3.626   4.822  1.1522  2.6258  2.1585
 5559TIP3   OH216640   6.858   0.235   5.571 -0.3447  0.2094  0.1772
 5559TIP3    H116641   6.849   0.176   5.496 -0.1215  0.1547  0.1932
 5559TIP3    H216642   6.833   0.321   5.538  2.5856  0.7973 -0.7724
 5560TIP3   OH216643   2.012   4.462   4.788  0.0606 -0.2412 -0.0847
 5560TIP3    H116644   2.063   4.541   4.773 -0.6571 -0.3296 -3.9122
 5560TIP3    H216645   1.921   4.490   4.778 -0.2275 -1.3874 -0.8821
 5561TIP3   OH216646   4.432   6.774   2.684 -0.2548 -0.5170  0.2635
 5561TIP3    H116647   4.422   6.685   2.652 -1.5233 -0.4716  0.4908
 5561TIP3    H216648   4.424   6.829   2.607 -1.3059 -0.5165  0.3574
 5562TIP3   OH216649   1.806   6.007   0.206  0.3854 -0.3306 -0.5527
 5562TIP3    H116650   1.803   5.929   0.151 -1.2983  1.1041 -2.6635
 5562TIP3    H216651   1.715   6.035   0.214  0.9841  1.7974 -0.4647
 5563TIP3   OH216652   1.258   0.584   0.279 -0.4467  0.4111  0.3991
 5563TIP3    H116653   1.181   0.532   0.304  0.1732  0.7231  3.2259
 5563TIP3    H216654   1.331   0.543   0.325  1.1439  0.2328 -2.0806
 5564TIP3   OH216655   4.858   3.537   4.310 -0.2106  0.7605 -0.4229
 5564TIP3    H116656   4.814   3.520   4.393  0.9492  2.0405  0.5031
 5564TIP3    H216657   4.839   3.460   4.256 -0.7951 -0.2129  1.1128
 5565TIP3   OH216658   3.463   0.250   4.249  0.2996 -0.3136  0.0661
 5565TIP3    H116659   3.411   0.184   4.294 -0.9731  0.5642 -0.0623
 5565TIP3    H216660   3.484   0.314   4.317  0.8819 -0.4600  0.0286
 5566TIP3   OH216661   4.895   1.062   0.030  0.4122 -0.4131  0.7879
 5566TIP3    H116662   4.970   1.060   0.090 -0.7237  1.2611  2.3545
 5566TIP3    H216663   4.840   0.989   0.057  0.3499 -0.2247  1.1695
 5567TIP3   OH216664   1.142   0.705   4.418  0.0569  0.0856 -0.4458
 5567TIP3    H116665   1.170   0.775   4.359 -2.4379  1.2503 -0.3891
 5567TIP3    H216666   1.134   0.748   4.503 -1.8604 -0.1176 -0.4819
 5568TIP3   OH216667   6.546   2.730   4.026 -0.7184  0.2298  0.3883
 5568TIP3    H116668   6.455   2.705   4.013 -0.6786  1.2391 -2.4711
 5568TIP3    H216669   6.563   2.795   3.958  1.9992  0.4791  1.1930
 5569TIP3   OH216670   5.709   6.545   2.223  0.1146 -0.1127  0.2331
 5569TIP3    H116671   5.718   6.610   2.153  1.1026  0.3734  0.7941
 5569TIP3    H216672   5.773   6.572   2.289 -2.2387  0.7140  2.3293
 5570TIP3   OH216673   6.189   3.910   1.529  0.3846 -0.4957 -0.3467
 5570TIP3    H116674   6.165   3.854   1.603 -0.9920  0.5835  0.0611
 5570TIP3    H216675   6.263   3.961   1.561 -0.2382  0.0059  0.3209
 5571TIP3   OH216676   2.721   4.085   3.131  0.0447 -0.2775 -0.4613
 5571TIP3    H116677   2.732   4.097   3.037  0.4216 -1.7488 -0.6310
 5571TIP3    H216678   2.739   4.171   3.168 -0.7687  0.4992 -1.7663
 5572TIP3   OH216679   3.107   0.659   4.339 -0.6926 -0.4866 -0.0301
 5572TIP3    H116680   3.202   0.654   4.328 -0.4528  0.0858  1.6533
 5572TIP3    H216681   3.080   0.567   4.346 -0.1286 -0.6193  0.5273
 5573TIP3   OH216682   2.522   5.457   0.413  0.3356  0.3534  0.4786
 5573TIP3    H116683   2.474   5.405   0.478 -0.3986 -0.9342 -1.0301
 5573TIP3    H216684   2.614   5.436   0.427  0.0663 -1.2128  0.0539
 5574TIP3   OH216685   5.992   3.501   0.998  0.3431 -0.9949 -0.1923
 5574TIP3    H116686   5.928   3.431   1.009 -0.1094 -0.3946  1.2082
 5574TIP3    H216687   5.941   3.577   0.968  0.2263 -0.2965  1.6644
 5575TIP3   OH216688   3.674   6.771   1.017 -0.2446  0.4664  0.3727
 5575TIP3    H116689   3.612   6.699   1.029  1.2604 -0.6722  1.7668
 5575TIP3    H216690   3.633   6.847   1.059 -1.2659  0.0860  0.0698
 5576TIP3   OH216691   1.296   4.505   0.857 -0.8764 -0.2917  0.4037
 5576TIP3    H116692   1.292   4.475   0.766  0.5990  0.2594  0.1405
 5576TIP3    H216693   1.224   4.568   0.864  0.1048  1.0356 -0.9218
 5577TIP3   OH216694   6.385   6.159   3.027 -0.2715 -0.3458  0.3108
 5577TIP3    H116695   6.329   6.237   3.022  0.4450  0.1432 -0.2043
 5577TIP3    H216696   6.323   6.086   3.038 -0.9456  0.2988  0.8987
 5578TIP3   OH216697   3.111   1.560   4.420  0.3401 -0.3885 -0.3968
 5578TIP3    H116698   3.172   1.489   4.439  1.2109  0.2897 -0.5592
 5578TIP3    H216699   3.108   1.612   4.501  1.1738  0.4228 -0.8639
 5579TIP3   OH216700   5.293   1.515   4.493  0.0592  0.2173  0.0819
 5579TIP3    H116701   5.374   1.477   4.458  0.3126  0.3951  0.4724
 5579TIP3    H216702   5.228   1.499   4.425  0.4695  0.2516 -0.3232
 5580TIP3   OH216703   2.786   3.538   0.394 -0.3461 -0.3794 -0.3990
 5580TIP3    H116704   2.818   3.515   0.306 -0.1456 -1.0937 -0.1409
 5580TIP3    H216705   2.866   3.551   0.445 -0.3725  2.4908 -0.9058
 5581TIP3   OH216706   4.711   3.386   2.239  0.3279 -0.1032 -0.7759
 5581TIP3    H116707   4.803   3.362   2.249 -0.0115 -1.9814 -1.6041
 5581TIP3    H216708   4.677   3.323   2.176 -1.7283  0.0173  0.1267
 5582TIP3   OH216709   7.052   1.748   4.537  0.3616 -0.0347 -0.5292
 5582TIP3    H116710   7.136   1.707   4.557  0.7861  1.4166  0.8416
 5582TIP3    H216711   6.987   1.687   4.572  1.0003  0.6944  2.1063
 5583TIP3   OH216712   4.324   1.770   2.396 -0.1394  0.1547  0.1549
 5583TIP3    H116713   4.282   1.827   2.461  1.1412  1.6825 -0.2708
 5583TIP3    H216714   4.268   1.692   2.393 -3.1745  2.1656 -0.6588
 5584TIP3   OH216715   5.439   2.137   2.349  0.7418  0.0107  0.1644
 5584TIP3    H116716   5.501   2.209   2.341  1.0973 -0.4695 -1.8570
 5584TIP3    H216717   5.457   2.100   2.436  2.6223  0.4815  0.0272
 5585TIP3   OH216718   3.531   2.890   4.194 -0.4322  0.8292 -0.2496
 5585TIP3    H116719   3.590   2.822   4.227 -1.4175 -0.7206 -1.5424
 5585TIP3    H216720   3.453   2.883   4.249 -1.3505 -0.5325 -1.6502
 5586TIP3   OH216721   4.332   1.566   2.799 -0.3639 -0.5952  0.2504
 5586TIP3    H116722   4.313   1.600   2.886 -1.3807 -1.2328  0.2948
 5586TIP3    H216723   4.369   1.640   2.752 -0.3931 -0.0688  1.0351
 5587TIP3   OH216724   3.888   0.034   0.690 -0.1739  0.2453 -0.1573
 5587TIP3    H116725   3.912   0.038   0.782 -0.9089  0.7130  0.0212
 5587TIP3    H216726   3.838  -0.048   0.682 -0.3542  0.3482 -0.0817
 5588TIP3   OH216727   5.675   2.702   0.347 -0.0272  0.5813 -0.2577
 5588TIP3    H116728   5.764   2.725   0.320  1.7833 -1.7248  3.0204
 5588TIP3    H216729   5.660   2.754   0.426 -0.6205 -0.7355  0.5170
 5589TIP3   OH216730   4.906   2.921   3.685 -0.0257 -0.3472 -0.1539
 5589TIP3    H116731   4.949   2.974   3.619  1.5671 -1.6369 -0.2236
 5589TIP3    H216732   4.869   2.984   3.747  3.4215  0.9497  0.8251
 5590TIP3   OH216733   0.149   1.728   5.013  0.2120 -0.2422  0.0226
 5590TIP3    H116734   0.158   1.638   4.983 -1.1797 -0.5649  0.4564
 5590TIP3    H216735   0.100   1.772   4.944 -1.4092 -0.5247  0.9377
 5591TIP3   OH216736   5.046   4.501   4.749  0.4327 -0.4609  0.3597
 5591TIP3    H116737   5.117   4.437   4.752 -1.9290 -3.2700  2.6715
 5591TIP3    H216738   5.010   4.493   4.660  1.2962 -1.0125  0.0450
 5592TIP3   OH216739   1.101   6.450   3.943  0.0096  0.3130 -0.3990
 5592TIP3    H116740   1.174   6.393   3.967  0.7961  1.2740 -0.4201
 5592TIP3    H216741   1.049   6.398   3.881 -1.7051 -1.9623  2.6755
 5593TIP3   OH216742   0.351   5.518   0.835 -0.3048  0.4319 -0.4692
 5593TIP3    H116743   0.316   5.604   0.857 -0.3167  0.1483  0.6886
 5593TIP3    H216744   0.362   5.519   0.740  1.0100  2.2163 -0.3477
 5594TIP3   OH216745   1.388   5.599   0.785  0.2549 -0.5096 -0.3354
 5594TIP3    H116746   1.438   5.647   0.719  0.4886 -1.1698 -0.6431
 5594TIP3    H216747   1.323   5.662   0.815  0.4352 -0.0555 -0.8698
 5595TIP3   OH216748   2.491   1.477   2.525 -0.1923 -0.0678  0.0115
 5595TIP3    H116749   2.457   1.422   2.455  0.3714 -1.7317  0.9954
 5595TIP3    H216750   2.516   1.416   2.594  2.1544  1.2510  0.4478
 5596TIP3   OH216751   1.275   3.517   1.632  0.0469 -0.1326 -0.2937
 5596TIP3    H116752   1.180   3.511   1.632 -0.0395  1.0903  0.1751
 5596TIP3    H216753   1.294   3.594   1.579  0.8378 -1.0183 -1.3538
 5597TIP3   OH216754   2.737   0.109   3.023  0.4576  0.0031 -0.0990
 5597TIP3    H116755   2.750   0.035   3.083  1.1488 -0.9174 -1.3481
 5597TIP3    H216756   2.727   0.070   2.937  0.7871  1.3606 -0.7941
 5598TIP3   OH216757   5.178   4.577   2.546  0.1487 -0.3304 -0.3501
 5598TIP3    H116758   5.240   4.524   2.595  0.3234  0.3809  0.2116
 5598TIP3    H216759   5.203   4.566   2.454  0.5491 -0.7403 -0.1914
 5599TIP3   OH216760   4.373   6.559   2.021 -0.5147 -0.2528  0.5760
 5599TIP3    H116761   4.302   6.495   2.022 -1.3405  0.4675 -2.4111
 5599TIP3    H216762   4.440   6.520   1.965  1.2327 -0.5965  2.7621
 5600TIP3   OH216763   3.661   1.666   2.070 -0.2916  0.1627  0.6562
 5600TIP3    H116764   3.742   1.711   2.047 -1.5422  0.9239 -2.9163
 5600TIP3    H216765   3.688   1.576   2.089  1.3765  0.0382 -1.7871
 5601TIP3   OH216766   1.165   6.548   1.399 -0.1611  0.7898 -0.0134
 5601TIP3    H116767   1.148   6.545   1.493 -0.3533 -0.3035 -0.0743
 5601TIP3    H216768   1.255   6.579   1.391  0.7470 -1.4922  0.6521
 5602TIP3   OH216769   5.957   2.610   3.101 -0.1386 -0.0528  0.0879
 5602TIP3    H116770   5.952   2.522   3.065 -0.0783  0.2865 -0.7579
 5602TIP3    H216771   6.049   2.621   3.127 -0.1417 -0.2242  0.1698
 5603TIP3   OH216772   0.165   3.209   0.240  0.9527 -0.3372 -0.1073
 5603TIP3    H116773   0.197   3.122   0.262  1.3999 -0.1886 -0.1442
 5603TIP3    H216774   0.099   3.229   0.306 -0.6674 -1.5378 -1.2793
 5604TIP3   OH216775   1.077   2.754   1.391  0.0346  0.4627 -0.1757
 5604TIP3    H116776   1.062   2.815   1.319 -1.1850 -0.9939 -1.2183
 5604TIP3    H216777   1.022   2.678   1.370  1.2915 -0.8898  1.1993
 5605TIP3   OH216778   4.866   4.652   0.998 -0.1169  0.0442 -0.3581
 5605TIP3    H116779   4.838   4.565   1.028  0.3064  0.6726  2.0391
 5605TIP3    H216780   4.786   4.693   0.965 -1.0000 -0.1360  1.4338
 5606TIP3   OH216781   2.329   2.879   4.758 -0.0270 -0.3366 -0.3124
 5606TIP3    H116782   2.279   2.895   4.678  1.0604 -0.3324 -1.0111
 5606TIP3    H216783   2.416   2.854   4.727  0.5195  0.0287  0.8853
 5607TIP3   OH216784   0.691   2.818   3.285  0.8584 -0.0284  0.1873
 5607TIP3    H116785   0.674   2.847   3.375 -1.3632 -0.2015 -0.1212
 5607TIP3    H216786   0.744   2.739   3.294  0.2158 -0.3403  1.3838
 5608TIP3   OH216787   2.772   3.412   4.568  0.0802  0.1393  0.3148
 5608TIP3    H116788   2.864   3.388   4.568 -0.1327 -0.6920  0.0853
 5608TIP3    H216789   2.747   3.411   4.475 -0.7503 -2.0072  0.5117
 5609TIP3   OH216790   0.205   3.961   4.537  0.5513 -0.2351 -0.3679
 5609TIP3    H116791   0.162   3.896   4.592  0.2372 -0.0369 -0.3757
 5609TIP3    H216792   0.219   4.037   4.594  0.8703 -0.2900 -0.3722
 5610TIP3   OH216793   0.265   4.978   2.027  0.1058 -0.1920 -0.1932
 5610TIP3    H116794   0.284   4.894   1.986 -0.5869  0.1889 -1.3531
 5610TIP3    H216795   0.206   4.957   2.100  2.6433 -1.0733  1.7709
 5611TIP3   OH216796   6.177   4.213   2.854 -0.4330  0.2605 -0.6525
 5611TIP3    H116797   6.094   4.246   2.889 -0.2115 -0.3408  0.4621
 5611TIP3    H216798   6.197   4.137   2.907  1.9270  1.6235  0.5784
 5612TIP3   OH216799   5.634   2.283   2.250 -0.3949 -0.3237  0.4354
 5612TIP3    H116800   5.669   2.365   2.216  0.5915  0.2201  2.5532
 5612TIP3    H216801   5.697   2.216   2.221 -0.2499 -0.0663  0.1529
 5613TIP3   OH216802   3.341   5.308   2.657 -0.3183 -0.0483 -0.1446
 5613TIP3    H116803   3.261   5.258   2.671 -0.0879 -0.3918 -0.0494
 5613TIP3    H216804   3.412   5.245   2.670 -0.0707 -0.2233 -2.0569
 5614TIP3   OH216805   3.996   6.707   2.682 -0.0160  0.2748  0.3527
 5614TIP3    H116806   3.935   6.773   2.649  1.3491  1.3325 -0.1748
 5614TIP3    H216807   3.950   6.664   2.754 -1.6081  0.5734 -0.4554
 5615TIP3   OH216808   3.761   2.041   4.364 -0.6204  0.1083  0.3720
 5615TIP3    H116809   3.667   2.026   4.356 -0.2863 -2.0311 -0.2690
 5615TIP3    H216810   3.801   1.963   4.324  1.4901  2.1813 -1.8499
 5616TIP3   OH216811   5.280   5.785   4.689 -0.0292  0.4422 -0.6838
 5616TIP3    H116812   5.247   5.808   4.776 -0.2943 -1.2420 -0.2996
 5616TIP3    H216813   5.375   5.786   4.698 -0.0032  2.0780 -0.8995
 5617TIP3   OH216814   5.356   5.766   0.516  0.1144  0.2667 -0.4293
 5617TIP3    H116815   5.376   5.815   0.596  1.1835  0.1517 -0.6043
 5617TIP3    H216816   5.317   5.684   0.547  0.8262  0.0812 -0.0022
 5618TIP3   OH216817   0.768   4.279   3.930 -0.1147  0.2380 -0.0047
 5618TIP3    H116818   0.738   4.209   3.872 -0.0721  0.0091  0.2468
 5618TIP3    H216819   0.759   4.359   3.878 -1.3530  0.1997  0.1296
 5619TIP3   OH216820   5.959   2.593   1.238  0.1184  0.1064  0.3551
 5619TIP3    H116821   5.895   2.661   1.217  0.7101  0.9489  1.2233
 5619TIP3    H216822   6.019   2.593   1.163  0.4991  1.0040  0.6542
 5620TIP3   OH216823   6.215   1.835   0.800 -0.0384  0.5984  0.0555
 5620TIP3    H116824   6.153   1.877   0.860  0.2272  0.3634  0.5012
 5620TIP3    H216825   6.166   1.762   0.763 -0.0547  0.4587  0.3486
 5621TIP3   OH216826   0.540   0.363   1.057 -0.3329  0.3358 -0.1761
 5621TIP3    H116827   0.572   0.427   1.121  0.3413 -0.2445  0.0755
 5621TIP3    H216828   0.606   0.362   0.988  0.1724 -0.8082  0.3079
 5622TIP3   OH216829   6.833   2.807   0.199  0.7358  0.1550  0.4286
 5622TIP3    H116830   6.878   2.876   0.248  1.1301  0.0541  0.2085
 5622TIP3    H216831   6.892   2.732   0.203  1.2083  0.4284 -0.9998
 5623TIP3   OH216832   6.660   4.288   4.969 -0.7015 -0.1102 -0.2492
 5623TIP3    H116833   6.601   4.342   4.917 -1.0193  0.6265  0.8460
 5623TIP3    H216834   6.659   4.203   4.925 -0.4856  0.6525 -1.7778
 5624TIP3   OH216835   3.850   2.834   5.103  0.1161  0.1936 -0.4002
 5624TIP3    H116836   3.840   2.742   5.128  1.8348 -0.2275 -1.1298
 5624TIP3    H216837   3.766   2.856   5.062 -0.4970 -0.8948  0.2053
 5625TIP3   OH216838   4.430   6.675   0.353 -0.0521  0.1165  0.3393
 5625TIP3    H116839   4.369   6.730   0.400  1.5828  1.1049  1.4095
 5625TIP3    H216840   4.398   6.586   0.367 -0.3126  0.4756  2.3251
 5626TIP3   OH216841   7.162   1.072   5.262 -0.4852  0.6002  0.4003
 5626TIP3    H116842   7.131   0.986   5.289 -1.7034  0.2674 -1.8746
 5626TIP3    H216843   7.181   1.118   5.344  1.8208 -2.3433  1.7004
 5627TIP3   OH216844   1.306   3.389   4.188 -0.2383 -0.4337 -0.1881
 5627TIP3    H116845   1.370   3.326   4.155 -0.3858 -1.1032  0.7432
 5627TIP3    H216846   1.335   3.407   4.277 -1.1299 -0.4591  0.1128
 5628TIP3   OH216847   1.737   2.671   0.265  0.2213 -0.1811  0.1899
 5628TIP3    H116848   1.731   2.717   0.349  0.9867  2.3653 -1.0454
 5628TIP3    H216849   1.770   2.737   0.204 -1.2158 -1.6456 -2.3411
 5629TIP3   OH216850   6.261   3.710   1.027 -0.2453 -0.0104  0.2503
 5629TIP3    H116851   6.232   3.640   0.969 -0.4227  0.9975 -0.9095
 5629TIP3    H216852   6.237   3.680   1.115 -0.5433 -1.2758 -0.2431
 5630TIP3   OH216853   5.415   2.599   3.150 -0.3127 -1.0841 -0.0394
 5630TIP3    H116854   5.358   2.676   3.142 -1.2997 -1.7456  0.4791
 5630TIP3    H216855   5.441   2.579   3.059  0.1199 -0.0328 -0.1581
 5631TIP3   OH216856   6.142   4.153   4.250 -0.1688  0.4252 -0.9288
 5631TIP3    H116857   6.107   4.238   4.221 -0.1830  0.6493 -0.2906
 5631TIP3    H216858   6.183   4.115   4.172 -0.9403  0.6200 -1.4406
 5632TIP3   OH216859   1.979   1.832   2.107 -0.4235  0.4359  0.1479
 5632TIP3    H116860   2.020   1.867   2.186  2.7491 -0.9927 -0.7112
 5632TIP3    H216861   1.963   1.740   2.127 -1.2574  0.4676 -0.3167
 5633TIP3   OH216862   2.504   2.190   4.125  0.3129 -0.1536 -0.5614
 5633TIP3    H116863   2.477   2.281   4.135  1.4106  0.0681  0.5773
 5633TIP3    H216864   2.532   2.163   4.212  1.3048 -1.1649 -1.1660
 5634TIP3   OH216865   4.597   5.877   3.535  0.1566  0.1558  0.6020
 5634TIP3    H116866   4.638   5.942   3.478  0.0460  0.7319  1.1678
 5634TIP3    H216867   4.652   5.875   3.613  0.1144 -0.3803  0.6219
 5635TIP3   OH216868   2.595   2.430   1.022 -0.1913 -0.0774 -0.7785
 5635TIP3    H116869   2.538   2.361   1.054  1.2486 -0.7661  0.3792
 5635TIP3    H216870   2.545   2.511   1.035 -1.0965 -0.7128 -0.2723
 5636TIP3   OH216871   5.576   1.628   1.503 -0.3046  0.0783  0.2151
 5636TIP3    H116872   5.613   1.589   1.424  0.9767  0.7155  0.4746
 5636TIP3    H216873   5.652   1.651   1.557 -1.1147  0.6148  1.1701
 5637TIP3   OH216874   3.174   2.871   4.981  0.2412 -0.0753  0.2404
 5637TIP3    H116875   3.199   2.803   5.044  0.1812 -0.2568  0.0698
 5637TIP3    H216876   3.096   2.836   4.938 -0.0094  0.2692  0.4196
 5638TIP3   OH216877   5.550   6.392   5.498  0.2731  0.2701  1.1947
 5638TIP3    H116878   5.621   6.454   5.512  0.2459 -0.0034  2.7372
 5638TIP3    H216879   5.592   6.306   5.496  0.2322  0.2616 -0.2453
 5639TIP3   OH216880   4.398   2.973   4.244  0.6130 -0.0118  0.5915
 5639TIP3    H116881   4.464   2.986   4.176  0.2162 -0.3995  0.1258
 5639TIP3    H216882   4.448   2.948   4.321  0.9592 -1.2489 -0.0059
 5640TIP3   OH216883   2.049   4.146   5.591 -1.2688 -0.4579  0.5535
 5640TIP3    H116884   2.000   4.071   5.627 -1.9170 -0.4058 -0.1889
 5640TIP3    H216885   2.103   4.108   5.522 -0.5501 -0.4475  1.0972
 5641TIP3   OH216886   4.695   3.714   5.106 -0.2203  0.0116  0.5188
 5641TIP3    H116887   4.771   3.745   5.057 -1.8367  1.4942 -1.1703
 5641TIP3    H216888   4.721   3.724   5.198  1.3213  1.3384 -0.0070
 5642TIP3   OH216889   3.486   1.547   5.860  0.3125  0.2474 -0.3572
 5642TIP3    H116890   3.423   1.587   5.801 -0.0948  1.1455  0.6550
 5642TIP3    H216891   3.546   1.500   5.802 -0.8975 -0.1065 -1.3808
 5643TIP3   OH216892   0.000   3.512   5.485  0.5821 -0.0549  0.6281
 5643TIP3    H116893   0.093   3.497   5.465  0.5605 -2.7976  2.1973
 5643TIP3    H216894   0.001   3.563   5.566  0.7069  0.5388  0.2558
 5644TIP3   OH216895   0.392   6.594   3.655  0.5039  0.4803  0.2286
 5644TIP3    H116896   0.463   6.658   3.656 -0.3732  1.4943  0.3833
 5644TIP3    H216897   0.363   6.590   3.746 -0.1529  0.6983  0.0363
 5645TIP3   OH216898   1.348   4.902   0.385 -0.6483  0.2647  0.0477
 5645TIP3    H116899   1.311   4.916   0.472 -3.2715 -1.0765 -0.7612
 5645TIP3    H216900   1.407   4.827   0.396 -1.0881  0.0036  0.6748
 5646TIP3   OH216901   6.246   3.518   4.472 -0.7039  0.1554  0.0920
 5646TIP3    H116902   6.309   3.589   4.454 -0.3645 -0.1104  0.2296
 5646TIP3    H216903   6.300   3.440   4.480 -1.1506 -0.2599 -0.8334
 5647TIP3   OH216904   3.529   6.038   1.078 -0.7179 -0.1136  0.1982
 5647TIP3    H116905   3.611   5.989   1.078 -0.5518  0.1344 -0.8378
 5647TIP3    H216906   3.518   6.068   1.169  1.4133  1.6084 -0.0388
 5648TIP3   OH216907   1.932   3.782   2.474  0.2158  0.2900  0.2433
 5648TIP3    H116908   1.923   3.764   2.568 -0.9442  1.2240  0.3261
 5648TIP3    H216909   1.906   3.873   2.464  2.3323  0.8486 -0.7105
 5649TIP3   OH216910   5.062   2.560   4.636 -0.4407  0.3363  0.0427
 5649TIP3    H116911   5.034   2.486   4.581  1.8983 -2.2301  1.9986
 5649TIP3    H216912   5.040   2.532   4.725  1.4619  1.5397  0.9302
 5650TIP3   OH216913   2.075   5.546   4.091  0.2012 -0.2932  0.2537
 5650TIP3    H116914   2.066   5.547   3.996 -0.1800 -0.4103  0.2869
 5650TIP3    H216915   2.093   5.638   4.114 -0.5041 -0.1183  0.1366
 5651TIP3   OH216916   2.366   2.716   2.912  0.0394  0.0600  0.1117
 5651TIP3    H116917   2.291   2.659   2.895 -0.0106 -0.1848  1.0879
 5651TIP3    H216918   2.427   2.696   2.841 -1.1677  0.9426 -1.2402
 5652TIP3   OH216919   6.993   3.655   2.542  0.3354 -0.1314 -1.0925
 5652TIP3    H116920   7.019   3.744   2.518 -2.6611  0.5895 -2.0494
 5652TIP3    H216921   6.955   3.619   2.463  0.9213 -2.1026 -0.5316
 5653TIP3   OH216922   2.716   5.079   0.953 -0.3608  0.2930 -0.1231
 5653TIP3    H116923   2.793   5.065   1.009 -0.0632  0.2520 -0.5394
 5653TIP3    H216924   2.750   5.075   0.864 -0.4476  2.4880 -0.3079
 5654TIP3   OH216925   1.003   3.502   3.576 -0.1600  0.9176 -0.4667
 5654TIP3    H116926   1.081   3.447   3.563  0.4176  2.1657 -2.7323
 5654TIP3    H216927   0.935   3.460   3.523 -1.6365 -1.0106  2.6111
 5655TIP3   OH216928   4.877   2.140   3.223  0.3377  0.6011 -0.1901
 5655TIP3    H116929   4.815   2.068   3.222  1.5647 -0.5217 -2.1012
 5655TIP3    H216930   4.897   2.156   3.131  1.1524  2.4713  0.2638
 5656TIP3   OH216931   6.623   5.483   1.403  0.0827 -0.4849  0.2205
 5656TIP3    H116932   6.631   5.555   1.341  1.2158 -0.3349  0.5168
 5656TIP3    H216933   6.553   5.509   1.462 -0.6581 -0.3973 -0.6747
 5657TIP3   OH216934   3.553   3.550   2.798  0.0499 -0.0181  0.5994
 5657TIP3    H116935   3.509   3.468   2.822 -1.2559 -0.0816 -1.7375
 5657TIP3    H216936   3.599   3.530   2.717 -0.9876  1.7352 -0.4888
 5658TIP3   OH216937   0.971   5.257   3.612 -0.0651 -0.0815  0.2383
 5658TIP3    H116938   0.975   5.206   3.531  0.5191  0.1689  0.1072
 5658TIP3    H216939   1.009   5.199   3.678 -0.9722 -0.4658  0.4316
 5659TIP3   OH216940   2.074   3.180   3.271  0.0065  0.2139  0.0579
 5659TIP3    H116941   2.047   3.133   3.192  0.2775  0.9844 -0.5033
 5659TIP3    H216942   2.071   3.273   3.246  1.4509  0.4009  0.5070
 5660TIP3   OH216943   6.594   0.120   4.247  0.0799 -0.3210 -0.0907
 5660TIP3    H116944   6.511   0.125   4.200 -0.1866  2.4413  0.4781
 5660TIP3    H216945   6.569   0.118   4.340  0.6396 -1.3885  0.0454
 5661TIP3   OH216946   4.255   4.545   2.269  0.0843 -0.2150  0.0480
 5661TIP3    H116947   4.219   4.479   2.329 -0.4126 -0.4578 -0.5161
 5661TIP3    H216948   4.318   4.593   2.323  1.4154 -1.9587  0.1588
 5662TIP3   OH216949   0.665   4.765   1.413  0.7329  0.4477 -0.3344
 5662TIP3    H116950   0.682   4.822   1.338 -0.8194 -0.6726 -1.5913
 5662TIP3    H216951   0.668   4.676   1.377  1.4699 -0.2194  1.2607
 5663TIP3   OH216952   4.622   1.906   3.511  0.6545  0.1025  0.4555
 5663TIP3    H116953   4.614   1.942   3.423  0.7400  0.8326  0.7413
 5663TIP3    H216954   4.558   1.954   3.562  0.0095 -0.9048  0.6173
 5664TIP3   OH216955   6.430   0.816   3.867 -0.1044  0.0446  0.3128
 5664TIP3    H116956   6.347   0.840   3.909 -0.8118  1.0390 -1.5397
 5664TIP3    H216957   6.497   0.854   3.923 -0.9284 -0.0068  1.3740
 5665TIP3   OH216958   6.387   4.056   1.646 -0.2474  0.0518  0.3929
 5665TIP3    H116959   6.430   4.137   1.672  1.1434 -0.5621  0.0802
 5665TIP3    H216960   6.351   4.021   1.728 -0.8828  0.9601  0.5282
 5666TIP3   OH216961   5.834   4.768   1.923 -0.2540  0.2314 -0.0819
 5666TIP3    H116962   5.927   4.758   1.943 -0.4645 -0.7066  0.4477
 5666TIP3    H216963   5.807   4.683   1.889 -1.0381  0.3299  0.2735
 5667TIP3   OH216964   1.967   2.987   4.022  0.0495 -0.2580  0.5264
 5667TIP3    H116965   2.028   2.926   4.064  0.6641  1.8758  3.0027
 5667TIP3    H216966   2.021   3.061   3.996 -0.7944 -0.3654 -1.7729
 5668TIP3   OH216967   4.435   1.176   0.986  0.4667  0.6021 -0.1038
 5668TIP3    H116968   4.426   1.228   1.065 -0.8687  0.8991 -0.4334
 5668TIP3    H216969   4.356   1.194   0.935  1.8302  1.3605 -2.0743
 5669TIP3   OH216970   3.722   4.300   2.779 -0.1184  0.1778  0.5805
 5669TIP3    H116971   3.711   4.396   2.779 -1.9888  0.0007  0.2283
 5669TIP3    H216972   3.750   4.279   2.867 -1.6086  0.8953  1.2654
 5670TIP3   OH216973   5.833   1.942   1.390  0.6339 -0.1574  0.2818
 5670TIP3    H116974   5.836   1.856   1.348  1.3234 -0.4177  0.8395
 5670TIP3    H216975   5.797   1.925   1.477  0.5218  0.1591  0.2973
 5671TIP3   OH216976   6.717   6.636   5.780 -0.0704  0.4633  0.3135
 5671TIP3    H116977   6.659   6.587   5.722 -2.1164  2.1861  0.7454
 5671TIP3    H216978   6.783   6.673   5.722  0.5605 -1.4041 -0.2251
 5672TIP3   OH216979   4.364   3.948   1.170  0.0624 -0.1478  0.9814
 5672TIP3    H116980   4.362   4.044   1.169 -1.0104 -0.1601  0.0332
 5672TIP3    H216981   4.291   3.923   1.226  0.3585 -0.4271  1.2514
 5673TIP3   OH216982   5.844   5.864   4.793  0.0397 -0.0023 -0.4702
 5673TIP3    H116983   5.813   5.949   4.823 -0.0568  0.3534 -1.5442
 5673TIP3    H216984   5.773   5.830   4.739 -0.4638 -1.3536  0.9543
 5674TIP3   OH216985   0.062   3.181   1.321  0.0387 -0.0689  0.1237
 5674TIP3    H116986  -0.017   3.217   1.280  0.1099 -0.3572 -0.2662
 5674TIP3    H216987   0.134   3.231   1.283 -0.1015  2.2842  2.6386
 5675TIP3   OH216988   1.387   4.638   2.211 -0.4830  0.1649  0.8008
 5675TIP3    H116989   1.482   4.648   2.204  0.0088 -1.4222  3.4876
 5675TIP3    H216990   1.352   4.725   2.192  1.5442  0.9314  0.2980
 5676TIP3   OH216991   5.401   5.163   4.103  0.2124  0.2095 -0.2419
 5676TIP3    H116992   5.352   5.106   4.042  0.0808  0.6728 -0.5741
 5676TIP3    H216993   5.395   5.118   4.187 -1.8017  0.8324 -0.0025
 5677TIP3   OH216994   3.622   6.520   0.749 -0.2514 -0.3283 -0.3173
 5677TIP3    H116995   3.596   6.518   0.657 -1.2482 -1.4496 -0.0319
 5677TIP3    H216996   3.579   6.444   0.788  0.7696 -0.3043  0.9206
 5678TIP3   OH216997   6.451   6.285   3.882  0.0647 -0.1222 -0.1123
 5678TIP3    H116998   6.390   6.312   3.814  2.8447  0.4223 -2.5749
 5678TIP3    H216999   6.419   6.329   3.961 -3.0056 -0.4046 -1.0578
 5679TIP3   OH217000   5.222   2.022   3.632  0.4800  0.7377  0.1022
 5679TIP3    H117001   5.223   2.112   3.599  0.7519  0.8860  0.5162
 5679TIP3    H217002   5.171   1.973   3.566  1.8370  0.8275 -1.0689
 5680TIP3   OH217003   2.237   6.725   1.480 -0.2807  0.6781  0.3948
 5680TIP3    H117004   2.166   6.707   1.542 -1.3280 -0.3275 -1.0106
 5680TIP3    H217005   2.228   6.818   1.459  1.0959  1.4575  2.8678
 5681TIP3   OH217006   2.218   1.043   1.365  0.2889  0.4088  0.3068
 5681TIP3    H117007   2.269   1.047   1.445 -1.4652  0.8340  1.4616
 5681TIP3    H217008   2.127   1.049   1.394 -0.3917  0.8491 -1.7435
 5682TIP3   OH217009   2.624   1.226   0.074  0.3212  0.2639 -0.0680
 5682TIP3    H117010   2.598   1.243  -0.017  1.7830  2.2353 -0.1881
 5682TIP3    H217011   2.718   1.207   0.069  0.2079 -0.6514  0.9499
 5683TIP3   OH217012   3.344   0.107   0.125  0.1091 -0.0394 -0.4808
 5683TIP3    H117013   3.271   0.168   0.125 -0.2056 -0.3601 -2.6293
 5683TIP3    H217014   3.411   0.150   0.179 -0.7300  1.3975 -0.5521
 5684TIP3   OH217015   4.180   1.344   1.394 -0.5218  0.0167 -0.2305
 5684TIP3    H117016   4.214   1.388   1.316 -1.6187 -1.0945 -1.3841
 5684TIP3    H217017   4.153   1.258   1.362 -0.6318 -0.6020  1.4786
 5685TIP3   OH217018   5.600   1.395   4.005  0.3517 -0.1439  0.0667
 5685TIP3    H117019   5.522   1.450   4.019  0.9768  0.4857  1.2036
 5685TIP3    H217020   5.666   1.431   4.064  1.5530 -0.6168 -0.9390
 5686TIP3   OH217021   6.937   3.897   0.058  0.2097  0.4993 -0.5174
 5686TIP3    H117022   6.941   3.823  -0.003 -0.1240  0.8764 -1.0095
 5686TIP3    H217023   7.006   3.957   0.028  1.4760 -0.2644  0.7772
 5687TIP3   OH217024   5.619   6.111   1.564 -0.0564  0.1675  0.8184
 5687TIP3    H117025   5.681   6.085   1.633  1.2804 -0.1311 -0.4373
 5687TIP3    H217026   5.601   6.204   1.582  1.3882  0.4813  0.7800
 5688TIP3   OH217027   0.336   1.896   3.275 -0.2214  0.1621  0.2315
 5688TIP3    H117028   0.368   1.865   3.360 -0.1110  1.4372  0.6747
 5688TIP3    H217029   0.313   1.816   3.227 -0.1199 -0.5800  1.3903
 5689TIP3   OH217030   6.263   3.411   5.237  0.0862 -0.5304  0.0083
 5689TIP3    H117031   6.237   3.476   5.303 -1.5978 -3.1767  2.1513
 5689TIP3    H217032   6.359   3.418   5.233 -0.0558  2.9665 -0.9657
 5690TIP3   OH217033   6.657   0.456   4.618 -0.2300 -0.8032  0.6441
 5690TIP3    H117034   6.570   0.495   4.626  0.9356  2.6243 -1.1710
 5690TIP3    H217035   6.660   0.422   4.529  0.0999 -1.5448  0.9276
 5691TIP3   OH217036   1.678   0.350   2.402 -0.9174  0.0907 -0.1366
 5691TIP3    H117037   1.762   0.309   2.425 -1.6797 -2.3753 -1.4174
 5691TIP3    H217038   1.698   0.444   2.397  1.3199 -0.2146  1.3247
 5692TIP3   OH217039   0.748   5.281   0.367 -0.1535 -0.3149  0.5559
 5692TIP3    H117040   0.829   5.250   0.408 -1.3767 -0.9247  2.7137
 5692TIP3    H217041   0.753   5.376   0.374  0.8692 -0.2728 -0.4228
 5693TIP3   OH217042   2.232   0.523   2.781 -0.1659  0.0114  0.4465
 5693TIP3    H117043   2.318   0.563   2.792  0.6246 -1.2897 -0.6736
 5693TIP3    H217044   2.213   0.482   2.866 -0.0448  0.9413  0.9360
 5694TIP3   OH217045   5.524   4.365   3.352  0.2237 -0.0730 -0.0205
 5694TIP3    H117046   5.502   4.458   3.355  0.5169 -0.0072  0.0898
 5694TIP3    H217047   5.619   4.362   3.339  0.0227 -0.3522 -1.6241
 5695TIP3   OH217048   1.424   1.598   2.701 -0.4116  0.5636 -0.0020
 5695TIP3    H117049   1.497   1.658   2.685  1.3596 -1.3016  0.5579
 5695TIP3    H217050   1.422   1.543   2.624 -2.5044  1.7296 -0.8445
 5696TIP3   OH217051   0.719   4.919   2.362  0.3729 -0.2860 -0.5795
 5696TIP3    H117052   0.681   4.833   2.385  0.0590 -0.2325 -0.8862
 5696TIP3    H217053   0.745   4.956   2.446 -0.5868 -0.1757 -0.3131
 5697TIP3   OH217054   5.043   6.100   2.887  0.0839  0.1064  0.5663
 5697TIP3    H117055   5.025   6.193   2.870 -1.7316 -0.2465  0.3553
 5697TIP3    H217056   5.058   6.062   2.801  0.3902  0.1228  0.6125
 5698TIP3   OH217057   5.593   3.557   4.956  0.3224 -0.0721  0.1815
 5698TIP3    H117058   5.570   3.543   4.864  1.6618  3.3627 -0.8331
 5698TIP3    H217059   5.680   3.518   4.966 -0.1637 -1.1674  0.2640
 5699TIP3   OH217060   0.168   0.972   3.551 -0.2212 -0.1047  0.4215
 5699TIP3    H117061   0.159   0.941   3.460  0.2138  0.0156  0.3371
 5699TIP3    H217062   0.119   1.054   3.553  0.7317  0.4835 -0.0054
 5700TIP3   OH217063   1.511   0.223   0.753 -0.2979 -0.7740  0.4061
 5700TIP3    H117064   1.555   0.207   0.837 -3.1681 -0.2206  2.1722
 5700TIP3    H217065   1.423   0.186   0.765 -0.5409 -1.4836 -2.7313
 5701TIP3   OH217066   0.707   0.452   4.782 -0.2945  0.5075  0.1699
 5701TIP3    H117067   0.711   0.369   4.734  0.5559 -0.3916  1.7334
 5701TIP3    H217068   0.644   0.436   4.853 -1.0432  1.6104 -0.2065
 5702TIP3   OH217069   3.037   3.097   4.312  0.2723 -0.1637 -0.1120
 5702TIP3    H117070   3.027   3.056   4.226  0.4878 -1.5454  0.5011
 5702TIP3    H217071   3.119   3.061   4.347 -0.0770 -0.0237  0.8836
 5703TIP3   OH217072   1.442   6.320   5.073  0.2888 -0.5796 -0.0531
 5703TIP3    H117073   1.518   6.369   5.044  0.4285 -0.5656  0.3310
 5703TIP3    H217074   1.367   6.376   5.052  0.5465  0.7062  2.1184
 5704TIP3   OH217075   2.434   4.354   0.811  0.3157 -0.4839  0.3849
 5704TIP3    H117076   2.438   4.445   0.782  1.0444 -1.2565 -2.2458
 5704TIP3    H217077   2.435   4.359   0.907 -1.2329  2.2981  0.3545
 5705TIP3   OH217078   4.936   4.330   2.579  0.6130 -0.1985  0.0976
 5705TIP3    H117079   4.874   4.355   2.647  0.6068  1.2094 -0.3865
 5705TIP3    H217080   4.996   4.404   2.573  1.7864 -1.1387 -0.0955
 5706TIP3   OH217081   5.251   4.417   0.441 -0.1329  0.5541 -0.2511
 5706TIP3    H117082   5.275   4.390   0.530 -0.6919  0.6411 -0.0716
 5706TIP3    H217083   5.166   4.376   0.426 -0.5551  1.4569 -0.3296
 5707TIP3   OH217084   3.815   5.962   2.462 -0.3476  0.3211 -0.1987
 5707TIP3    H117085   3.796   6.055   2.446  0.7302  0.6113  0.1699
 5707TIP3    H217086   3.751   5.916   2.407 -0.3017  1.2775 -1.1056
 5708TIP3   OH217087   3.979   4.908   0.437 -0.1063 -0.1871  0.6315
 5708TIP3    H117088   3.969   4.894   0.531 -0.4219 -0.2928  0.5845
 5708TIP3    H217089   3.990   4.820   0.401  0.4054 -0.1189  0.6109
 5709TIP3   OH217090   7.068   1.231   4.106  0.2724  0.9317 -0.0863
 5709TIP3    H117091   7.027   1.304   4.154 -1.2695  0.4431 -0.6024
 5709TIP3    H217092   7.036   1.153   4.150 -0.9820  0.4778 -1.7079
 5710TIP3   OH217093   0.688   2.182   0.655 -0.1050  0.1458  0.2138
 5710TIP3    H117094   0.677   2.159   0.562  0.1994  0.8416 -0.0038
 5710TIP3    H217095   0.602   2.214   0.681 -0.5403 -1.2120  0.5272
 5711TIP3   OH217096   3.066   3.826   0.491 -0.0814  0.6145 -0.2428
 5711TIP3    H117097   3.070   3.918   0.516  3.1281  0.6316 -0.4135
 5711TIP3    H217098   2.994   3.821   0.428 -1.1649  2.7121  0.7456
 5712TIP3   OH217099   0.719   6.648   5.912  0.3847 -0.8339  0.0764
 5712TIP3    H117100   0.810   6.624   5.897 -0.0930 -2.5256 -0.3197
 5712TIP3    H217101   0.704   6.724   5.856  1.7436 -0.0284  0.7498
 5713TIP3   OH217102   5.950   0.628   3.139  0.1945  0.2385  0.0057
 5713TIP3    H117103   5.958   0.701   3.200 -2.5798  1.5954 -1.0554
 5713TIP3    H217104   5.862   0.594   3.155 -0.1518 -0.1238 -2.3621
 5714TIP3   OH217105   5.741   2.990   4.694  0.0745  0.1850  0.2614
 5714TIP3    H117106   5.681   3.048   4.648 -0.0763  0.2821  0.5796
 5714TIP3    H217107   5.825   3.004   4.651  0.3198  1.5724  1.1294
 5715TIP3   OH217108   6.311   5.756   2.161  0.1786 -0.3363 -0.0341
 5715TIP3    H117109   6.351   5.729   2.243  0.3558  0.6317  0.2026
 5715TIP3    H217110   6.223   5.785   2.185  0.5056  0.7114 -0.0523
 5716TIP3   OH217111   5.476   4.908   0.964  0.2908 -0.4625  0.1738
 5716TIP3    H117112   5.420   4.831   0.957 -0.9806  0.4772 -0.3918
 5716TIP3    H217113   5.451   4.963   0.890  0.1925  1.0868  1.3079
 5717TIP3   OH217114   0.122   1.579   0.152 -0.5531 -0.4408 -0.1328
 5717TIP3    H117115   0.090   1.597   0.064  1.6810  0.5122 -0.8126
 5717TIP3    H217116   0.043   1.562   0.203 -2.1643  2.0063 -1.6026
 5718TIP3   OH217117   0.189   1.979   0.820  0.2484  0.0272  0.0472
 5718TIP3    H117118   0.253   2.048   0.799 -0.0264 -0.0158 -1.0006
 5718TIP3    H217119   0.228   1.900   0.783 -0.9817  0.2206 -1.7638
 5719TIP3   OH217120   4.292   4.914   5.461 -0.3355 -0.4475  0.2680
 5719TIP3    H117121   4.297   4.982   5.393 -2.6715 -1.8883 -1.5023
 5719TIP3    H217122   4.364   4.855   5.440 -1.4868 -1.2945 -1.5684
 5720TIP3   OH217123   2.560   6.056   1.308  0.2999 -0.4938 -1.0880
 5720TIP3    H117124   2.602   6.117   1.248  2.1359 -0.9810 -0.3562
 5720TIP3    H217125   2.489   6.017   1.256  0.0198  1.1447 -2.0123
 5721TIP3   OH217126   1.643   5.721   4.482  0.3279  0.3072  0.0314
 5721TIP3    H117127   1.564   5.702   4.432  0.0510  1.1180  0.1414
 5721TIP3    H217128   1.663   5.640   4.528  1.3465 -0.9029 -2.3880
 5722TIP3   OH217129   2.312   4.363   2.816  0.0543  0.5751 -0.0892
 5722TIP3    H117130   2.264   4.350   2.898  0.2236 -1.3338 -0.2544
 5722TIP3    H217131   2.403   4.378   2.844  0.0662  0.1901  0.0918
 5723TIP3   OH217132   5.906   5.454   4.042 -0.0184  0.0327  0.2976
 5723TIP3    H117133   5.956   5.389   4.092  1.5035  0.6237 -0.3932
 5723TIP3    H217134   5.847   5.493   4.107  0.2728 -0.8246  1.1073
 5724TIP3   OH217135   2.738   2.566   2.991 -0.0602 -0.4487 -0.1267
 5724TIP3    H117136   2.779   2.481   3.007 -1.8328 -1.9215 -2.6412
 5724TIP3    H217137   2.698   2.589   3.075  0.5776 -2.0419  0.6562
 5725TIP3   OH217138   5.256   2.291   4.236  0.5606  0.4186  0.0838
 5725TIP3    H117139   5.322   2.259   4.175  0.6161 -0.5571  0.6260
 5725TIP3    H217140   5.303   2.349   4.296  0.8280  0.1264  0.1585
 5726TIP3   OH217141   1.574   1.645   5.108  0.0106  0.3439  0.3507
 5726TIP3    H117142   1.666   1.657   5.131  0.3403  1.2634 -1.3101
 5726TIP3    H217143   1.539   1.733   5.104 -0.8807  0.0117  0.6672
 5727TIP3   OH217144   2.990   0.259   5.088 -0.2776 -0.3897 -0.1567
 5727TIP3    H117145   3.037   0.197   5.032 -1.2073 -1.1294 -0.1561
 5727TIP3    H217146   3.058   0.312   5.129  0.5037 -0.9852 -0.6592
 5728TIP3   OH217147   4.245   6.073   3.438 -0.0070  0.3230 -0.4230
 5728TIP3    H117148   4.279   5.999   3.488  0.7017  0.2589 -0.9954
 5728TIP3    H217149   4.319   6.133   3.430  0.0993  0.0306 -1.9693
 5729TIP3   OH217150   7.147   0.890   2.436 -0.2392  0.1733  0.2310
 5729TIP3    H117151   7.122   0.909   2.527 -1.3198 -0.8493  0.1704
 5729TIP3    H217152   7.149   0.795   2.431 -1.9399  0.1644 -1.2417
 5730TIP3   OH217153   5.473   0.889   3.239  0.2978  0.6233 -0.3752
 5730TIP3    H117154   5.468   0.815   3.178  0.3355 -1.2737  1.7901
 5730TIP3    H217155   5.541   0.946   3.203  0.9992 -0.9188 -1.5755
 5731TIP3   OH217156   0.574   5.970   5.868  0.2089 -0.3332 -0.6012
 5731TIP3    H117157   0.637   6.008   5.807 -0.9205 -1.4122 -2.5526
 5731TIP3    H217158   0.579   5.876   5.853  0.3223 -0.7044  1.4765
 5732TIP3   OH217159   2.583   2.725   1.642  0.2376 -0.0047 -0.3036
 5732TIP3    H117160   2.498   2.731   1.598  0.4913 -0.0863 -0.8106
 5732TIP3    H217161   2.642   2.692   1.575  0.2589 -1.8952  0.5903
 5733TIP3   OH217162   6.416   0.549   0.529 -0.0924  0.3313  0.5529
 5733TIP3    H117163   6.414   0.458   0.561 -2.4785  0.6124  1.3588
 5733TIP3    H217164   6.468   0.544   0.448  0.4041 -1.6238  0.9309
 5734TIP3   OH217165   2.833   0.326   3.505  0.1475  0.0426  0.0589
 5734TIP3    H117166   2.822   0.240   3.467  1.4740  0.1974 -0.7365
 5734TIP3    H217167   2.750   0.371   3.489 -0.4035 -0.9329  0.1173
 5735TIP3   OH217168   3.828   5.009   3.211  0.4360  0.0070  0.2644
 5735TIP3    H117169   3.878   5.078   3.167  0.3507 -0.2323 -0.2179
 5735TIP3    H217170   3.882   4.985   3.286  1.8133 -1.2874 -1.0600
 5736TIP3   OH217171   2.023   0.940   0.933  0.0781 -0.1714  0.3766
 5736TIP3    H117172   1.958   0.905   0.994  1.4734 -0.8684  1.5426
 5736TIP3    H217173   2.060   0.862   0.892  0.1125  0.2237 -0.3446
 5737TIP3   OH217174   0.674   3.369   4.608 -0.5480 -0.1672 -0.1790
 5737TIP3    H117175   0.622   3.323   4.542 -1.6249 -0.7139  1.0024
 5737TIP3    H217176   0.735   3.302   4.640 -1.5367 -0.5553  0.9364
 5738TIP3   OH217177   4.915   4.373   4.230  0.1357 -0.0936  0.2501
 5738TIP3    H117178   4.985   4.308   4.236  1.3541  1.1007 -0.6885
 5738TIP3    H217179   4.837   4.326   4.261  0.7064 -2.3920 -1.5319
 5739TIP3   OH217180   1.613   5.872   2.571 -0.2241  0.6972  0.0402
 5739TIP3    H117181   1.566   5.944   2.613 -0.5370 -0.0112  0.9397
 5739TIP3    H217182   1.562   5.794   2.593  0.4645  0.1179 -0.3749
 5740TIP3   OH217183   6.349   2.977   1.475  0.4592  0.2372 -0.0294
 5740TIP3    H117184   6.300   2.980   1.393  1.3484  3.6688 -0.5688
 5740TIP3    H217185   6.301   2.912   1.528 -1.1093 -0.8762 -2.5908
 5741TIP3   OH217186   7.117   0.386   3.590 -0.3715  0.7980 -0.0312
 5741TIP3    H117187   7.180   0.453   3.561 -0.5062  0.9608  0.0525
 5741TIP3    H217188   7.104   0.331   3.513  1.5028 -0.5269  0.5101
 5742TIP3   OH217189   3.671   6.222   4.875 -0.5216 -0.1603  0.0304
 5742TIP3    H117190   3.728   6.262   4.941 -0.1047 -1.3055  0.3924
 5742TIP3    H217191   3.729   6.201   4.802 -0.2909 -1.8855  0.6402
 5743TIP3   OH217192   0.969   4.314   3.474 -0.4002 -0.3031  1.0246
 5743TIP3    H117193   0.996   4.246   3.412  0.3568 -0.9257  2.0111
 5743TIP3    H217194   0.934   4.384   3.418  0.8655 -0.5607 -0.1463
 5744TIP3   OH217195   4.907   1.006   0.719 -0.6134  0.0805 -0.0306
 5744TIP3    H117196   4.881   1.091   0.753  0.3997  0.0016  1.0039
 5744TIP3    H217197   4.968   0.971   0.784  0.8614 -0.3968 -1.5842
 5745TIP3   OH217198   7.068   4.831   1.328 -0.1617  0.1127  0.1800
 5745TIP3    H117199   7.118   4.876   1.397 -0.0862 -1.4888  1.2254
 5745TIP3    H217200   6.977   4.834   1.359 -0.3757  0.8409 -0.4931
 5746TIP3   OH217201   0.095   0.230   1.278  0.4015 -0.1554  0.1158
 5746TIP3    H117202   0.115   0.259   1.367 -0.0632  2.8173 -0.6552
 5746TIP3    H217203   0.159   0.274   1.223 -0.3101 -0.6815 -1.1852
 5747TIP3   OH217204   4.196   1.301   3.056  0.1489 -0.2692  1.1692
 5747TIP3    H117205   4.265   1.235   3.053 -0.3383 -0.8930  2.5842
 5747TIP3    H217206   4.222   1.358   3.129 -0.4348 -0.0493  1.2076
 5748TIP3   OH217207   1.073   3.399   5.796 -0.3710  0.2231 -0.5021
 5748TIP3    H117208   1.027   3.327   5.839  0.6838  0.3990  0.9715
 5748TIP3    H217209   1.101   3.362   5.712 -1.2100 -0.5808 -0.4441
 5749TIP3   OH217210   5.782   4.957   0.578  0.3031 -0.2266  0.4590
 5749TIP3    H117211   5.795   5.033   0.635  0.3922 -0.0128  0.1518
 5749TIP3    H217212   5.761   4.886   0.639  1.9401 -0.3749  0.9098
 5750TIP3   OH217213   5.064   3.016   5.674 -0.0479 -0.0487  0.6361
 5750TIP3    H117214   4.973   3.012   5.704  0.2775 -0.0886  1.6667
 5750TIP3    H217215   5.070   2.949   5.606 -1.2233  1.1563 -0.7060
 5751TIP3   OH217216   3.096   5.149   4.633  0.2356  0.3563  0.0487
 5751TIP3    H117217   3.006   5.172   4.611  0.5837  2.5099  0.6722
 5751TIP3    H217218   3.128   5.101   4.557 -1.8665 -1.9003  0.4337
 5752TIP3   OH217219   5.449   4.179   5.832  0.6365  0.4621 -0.4901
 5752TIP3    H117220   5.420   4.139   5.751  0.5750 -1.2511  0.3336
 5752TIP3    H217221   5.369   4.215   5.871  0.5831  0.8401 -0.9518
 5753TIP3   OH217222   1.304   3.476   3.196  0.2614  0.2140 -0.0607
 5753TIP3    H117223   1.274   3.567   3.187 -0.5240  0.1915  1.9442
 5753TIP3    H217224   1.375   3.480   3.259  0.9700 -0.4481 -0.7975
 5754TIP3   OH217225   5.356   6.465   4.414 -0.8061  0.6678 -0.6699
 5754TIP3    H117226   5.409   6.531   4.369 -0.7751  0.7195 -0.5559
 5754TIP3    H217227   5.398   6.382   4.392  0.5040  0.8300  1.0126
 5755TIP3   OH217228   4.924   0.337   4.513 -0.3104 -0.3654  0.1085
 5755TIP3    H117229   4.958   0.391   4.441 -0.5350  0.3326  0.5147
 5755TIP3    H217230   4.844   0.382   4.541 -0.1992 -0.5959  0.8212
 5756TIP3   OH217231   4.218   2.705   3.639 -0.1103  0.9206 -0.0444
 5756TIP3    H117232   4.237   2.765   3.712 -1.5061  1.0337  0.2498
 5756TIP3    H217233   4.218   2.618   3.679  1.4759  0.7399 -0.3871
 5757TIP3   OH217234   6.897   3.417   1.535  0.0688 -0.2148 -0.4439
 5757TIP3    H117235   6.847   3.348   1.490 -0.1008 -0.5406  0.2309
 5757TIP3    H217236   6.953   3.454   1.467  1.5898 -2.2971 -0.4412
 5758TIP3   OH217237   5.639   1.248   3.133  0.3426 -0.1764 -0.3337
 5758TIP3    H117238   5.629   1.343   3.125  0.0765 -0.0328  1.4625
 5758TIP3    H217239   5.575   1.212   3.072  0.5206  0.7746 -1.1154
 5759TIP3   OH217240   3.338   0.069   2.441  0.5703  0.1036 -0.2557
 5759TIP3    H117241   3.246   0.091   2.450  0.4699  0.7054 -2.3217
 5759TIP3    H217242   3.377   0.094   2.525 -0.9921  0.5872  0.3551
 5760TIP3   OH217243   0.409   2.581   5.564  0.1653  0.3287  0.1642
 5760TIP3    H117244   0.320   2.545   5.573  0.4507 -0.4457 -0.0351
 5760TIP3    H217245   0.411   2.618   5.476  0.4253 -0.8024 -0.3331
 5761TIP3   OH217246   1.473   0.437   1.897  0.0462  0.2162 -0.3188
 5761TIP3    H117247   1.393   0.484   1.924  0.9527  1.2978  0.6074
 5761TIP3    H217248   1.532   0.447   1.971  0.2521 -2.5853 -0.0066
 5762TIP3   OH217249   2.575   3.175   5.572  0.6353  0.4078  0.0711
 5762TIP3    H117250   2.499   3.140   5.619  0.5141 -0.2530 -0.5906
 5762TIP3    H217251   2.633   3.207   5.641 -0.7523  2.0638  0.5431
 5763TIP3   OH217252   1.188   5.062   5.292 -0.9854  0.4098  0.1482
 5763TIP3    H117253   1.137   5.122   5.237 -2.2491 -0.1579  0.6613
 5763TIP3    H217254   1.126   4.993   5.315  0.5631 -1.4096 -0.8569
 5764TIP3   OH217255   5.663   3.265   3.337  0.0818  0.6146  0.3420
 5764TIP3    H117256   5.586   3.271   3.394 -0.4367  0.7967 -0.3706
 5764TIP3    H217257   5.640   3.199   3.272  0.1273  1.3656 -0.4584
 5765TIP3   OH217258   2.551   5.573   5.053 -0.1511  0.5947  0.3359
 5765TIP3    H117259   2.595   5.489   5.067  0.5636  0.7837 -0.6345
 5765TIP3    H217260   2.526   5.602   5.140 -1.3155 -1.0963  0.5982
 5766TIP3   OH217261   1.837   2.682   2.751  0.5493  0.0915 -0.3099
 5766TIP3    H117262   1.799   2.615   2.808 -0.0214  1.3507  0.8801
 5766TIP3    H217263   1.768   2.748   2.744  1.0262  0.4704 -1.5854
 5767TIP3   OH217264   3.020   5.557   3.741 -0.3223  0.0799 -0.0711
 5767TIP3    H117265   3.028   5.643   3.700 -1.7352 -0.2343 -1.0515
 5767TIP3    H217266   3.100   5.548   3.793 -1.1618  2.9587  1.9519
 5768TIP3   OH217267   0.136   4.066   4.155  0.2548 -0.1464  0.0430
 5768TIP3    H117268   0.185   3.984   4.164  0.0121 -0.1871  1.2104
 5768TIP3    H217269   0.088   4.074   4.238  0.7471  1.4670  0.2153
 5769TIP3   OH217270   2.016   5.021   1.103 -0.3280  0.1865  0.2156
 5769TIP3    H117271   2.104   5.030   1.139 -0.6054 -2.2280  1.7686
 5769TIP3    H217272   1.960   5.070   1.164 -0.3164 -0.4431  0.7500
 5770TIP3   OH217273   6.681   6.625   3.194 -0.2193 -0.1239  0.0530
 5770TIP3    H117274   6.634   6.541   3.197 -1.4679  0.5646  0.4903
 5770TIP3    H217275   6.765   6.604   3.153 -1.8476 -0.9700 -3.1594
 5771TIP3   OH217276   0.832   4.176   1.911 -0.2850  0.1751 -0.5095
 5771TIP3    H117277   0.822   4.098   1.966 -1.2266 -0.5199 -1.6215
 5771TIP3    H217278   0.905   4.224   1.950 -0.2656 -0.8131  0.7199
 5772TIP3   OH217279   2.732   3.684   4.531  0.3755 -0.4060 -0.8982
 5772TIP3    H117280   2.746   3.665   4.438 -0.6115 -2.4022 -0.7108
 5772TIP3    H217281   2.756   3.603   4.576  0.3203  0.3392  0.5385
 5773TIP3   OH217282   0.563   1.743   1.216  0.1524 -0.2564 -0.0253
 5773TIP3    H117283   0.472   1.755   1.242  0.7694  1.5634  1.4622
 5773TIP3    H217284   0.559   1.673   1.150 -2.2374 -0.5569  0.3287
 5774TIP3   OH217285   6.302   5.072   2.541  0.9633 -0.3780 -0.3799
 5774TIP3    H117286   6.262   4.987   2.558 -0.5853  0.5361  0.7502
 5774TIP3    H217287   6.391   5.051   2.513  0.1416 -2.4342 -1.7226
 5775TIP3   OH217288   1.709   6.566   2.982  0.4252 -0.1483 -0.0438
 5775TIP3    H117289   1.780   6.594   2.924  0.0222  0.2416 -0.3638
 5775TIP3    H217290   1.751   6.554   3.067  0.8528  0.2083 -0.1967
 5776TIP3   OH217291   7.049   6.081   0.319 -0.1321 -0.0684  0.3315
 5776TIP3    H117292   6.956   6.063   0.303  0.3700 -0.6466 -2.3556
 5776TIP3    H217293   7.092   5.997   0.306  1.0669  0.7743 -1.5589
 5777TIP3   OH217294   1.224   0.475   5.515 -0.2441  0.1304 -1.0262
 5777TIP3    H117295   1.171   0.513   5.445 -1.4585  3.1315  1.3012
 5777TIP3    H217296   1.282   0.545   5.542 -0.7710 -0.4086  1.8240
 5778TIP3   OH217297   0.467   0.784   5.269  0.3188 -0.2434  0.0993
 5778TIP3    H117298   0.540   0.821   5.319  1.0003  0.1888 -1.1760
 5778TIP3    H217299   0.496   0.697   5.245 -0.3488 -0.7768  1.1159
 5779TIP3   OH217300   2.146   2.801   3.212 -1.1193  0.1600 -0.8058
 5779TIP3    H117301   2.196   2.759   3.282 -0.7618  0.1094 -1.0916
 5779TIP3    H217302   2.116   2.729   3.157 -1.4139  0.1984 -0.6982
 5780TIP3   OH217303   0.062   2.445   2.252 -0.0596 -0.1137  0.3082
 5780TIP3    H117304   0.072   2.534   2.286  1.4545 -0.2388  0.2603
 5780TIP3    H217305   0.151   2.409   2.253 -0.7066 -1.7820  0.7425
 5781TIP3   OH217306   1.497   3.683   2.096 -0.5162  0.1928 -0.1050
 5781TIP3    H117307   1.579   3.677   2.047  0.1359 -1.8910  1.1185
 5781TIP3    H217308   1.474   3.776   2.093  0.3833  0.4083 -2.8263
 5782TIP3   OH217309   0.230   5.498   5.488 -0.2026 -0.5645  0.3305
 5782TIP3    H117310   0.139   5.468   5.480  0.4037 -2.3681 -0.2470
 5782TIP3    H217311   0.260   5.459   5.570 -0.7009  2.3154  2.0460
 5783TIP3   OH217312   1.681   6.673   1.628 -0.5463  0.3110  0.1095
 5783TIP3    H117313   1.658   6.735   1.697  0.6318 -0.3900  1.1763
 5783TIP3    H217314   1.696   6.590   1.674  1.5423  0.1180 -0.7958
 5784TIP3   OH217315   2.273   2.018   1.199 -0.1594  0.5027  0.2018
 5784TIP3    H117316   2.353   1.967   1.187 -0.4336  0.1841 -0.2838
 5784TIP3    H217317   2.210   1.955   1.234 -0.6908  0.3491 -1.0104
 5785TIP3   OH217318   2.831   4.273   4.373  0.0865  0.4619 -0.0649
 5785TIP3    H117319   2.918   4.235   4.365  0.1499  0.5946 -0.0037
 5785TIP3    H217320   2.833   4.350   4.317  0.1442  0.7052  0.2654
 5786TIP3   OH217321   3.538   2.587   3.568 -0.6001 -0.0860  0.3026
 5786TIP3    H117322   3.507   2.564   3.655  1.7257  0.9560  1.4867
 5786TIP3    H217323   3.611   2.528   3.551 -0.3715  0.3987 -0.4936
 5787TIP3   OH217324   1.065   0.745   2.839  0.2319  0.0330  0.6336
 5787TIP3    H117325   1.067   0.724   2.932 -0.6541 -1.6031  0.3258
 5787TIP3    H217326   0.973   0.768   2.822 -0.0046 -1.4100 -0.1608
 5788TIP3   OH217327   4.612   1.995   1.179 -0.2140  0.3013 -0.0386
 5788TIP3    H117328   4.695   2.033   1.209  0.0669 -0.6049  0.3872
 5788TIP3    H217329   4.598   1.922   1.239  0.5724 -1.8747 -2.3630
 5789TIP3   OH217330   6.796   3.347   3.853  0.3998  0.1971 -0.0470
 5789TIP3    H117331   6.709   3.308   3.849  0.6364 -0.2283 -1.7982
 5789TIP3    H217332   6.803   3.397   3.771  1.0896  1.8251  0.9469
 5790TIP3   OH217333   3.085   0.609   5.700 -0.1651 -0.0199  0.2892
 5790TIP3    H117334   3.065   0.527   5.654  0.6426 -0.4975  0.7649
 5790TIP3    H217335   3.179   0.604   5.719  0.7132  2.5435 -2.6653
 5791TIP3   OH217336   4.971   5.544   5.107  0.4144  0.1587 -0.1370
 5791TIP3    H117337   4.930   5.624   5.140 -3.5861 -0.7638 -2.2113
 5791TIP3    H217338   4.992   5.564   5.016  0.0723 -0.8611 -0.4519
 5792TIP3   OH217339   4.761   3.420   2.837 -0.0171  0.2366 -0.1183
 5792TIP3    H117340   4.716   3.478   2.775 -1.8947  0.0175  0.9720
 5792TIP3    H217341   4.716   3.435   2.921  2.4923  0.5922  1.2553
 5793TIP3   OH217342   6.092   5.438   5.001  0.0188 -0.2179 -0.2017
 5793TIP3    H117343   6.136   5.442   4.917  1.9121  1.2315  0.7834
 5793TIP3    H217344   6.037   5.517   5.003  2.0104  1.2511  0.8798
 5794TIP3   OH217345   3.154   6.358   2.543 -0.4640 -0.2354 -0.0922
 5794TIP3    H117346   3.150   6.445   2.503 -2.7331  0.8453  2.2027
 5794TIP3    H217347   3.095   6.305   2.490  2.4396 -1.1138 -2.7512
 5795TIP3   OH217348   6.183   3.803   5.731  0.0250  0.5096  0.2563
 5795TIP3    H117349   6.108   3.772   5.781  0.1256  1.0907  0.7697
 5795TIP3    H217350   6.259   3.779   5.784  0.0950  1.8738  0.8047
 5796TIP3   OH217351   5.448   2.905   0.072 -0.4162 -0.3418  0.1206
 5796TIP3    H117352   5.462   2.909   0.167  0.3961 -1.7586  0.0763
 5796TIP3    H217353   5.355   2.881   0.062 -0.8506  1.0649  0.5130
 5797TIP3   OH217354   5.246   2.691   5.551  0.2082 -0.7379 -0.1108
 5797TIP3    H117355   5.308   2.757   5.520 -2.2345  1.6484 -0.2924
 5797TIP3    H217356   5.227   2.639   5.474  0.4052 -0.1409 -0.5732
 5798TIP3   OH217357   5.765   2.676   5.353 -0.1066 -0.1407  0.0270
 5798TIP3    H117358   5.766   2.710   5.442  0.9461  2.1370 -0.7698
 5798TIP3    H217359   5.827   2.603   5.353  1.6455  1.2937  0.6835
 5799TIP3   OH217360   3.206   0.975   1.911  0.1517  0.6408  0.0633
 5799TIP3    H117361   3.163   1.048   1.956 -0.3753  0.9535 -0.9338
 5799TIP3    H217362   3.145   0.949   1.843  1.3236  0.7752 -1.0767
 5800TIP3   OH217363   0.888   5.006   4.464 -0.2296  0.4822 -0.3740
 5800TIP3    H117364   0.965   5.032   4.516 -0.1937  1.2709 -0.8124
 5800TIP3    H217365   0.846   5.088   4.440  0.5547  0.2393 -2.8232
 5801TIP3   OH217366   6.184   5.031   3.391 -0.0711 -0.0162  0.2081
 5801TIP3    H117367   6.207   5.124   3.386 -0.4441  0.0022 -2.0761
 5801TIP3    H217368   6.258   4.986   3.351 -0.6640 -0.5681 -0.2809
 5802TIP3   OH217369   3.265   0.816   3.190 -0.0596 -0.4121 -0.9485
 5802TIP3    H117370   3.347   0.854   3.157 -0.9732  0.0604 -2.7994
 5802TIP3    H217371   3.276   0.722   3.179  0.3870 -0.3803 -0.7952
 5803TIP3   OH217372   5.708   4.457   4.961  0.2672 -0.2326 -0.7420
 5803TIP3    H117373   5.728   4.409   5.042 -1.2297  2.6664  1.5386
 5803TIP3    H217374   5.792   4.491   4.932  0.5212  1.4261  1.5997
 5804TIP3   OH217375   5.115   3.799   2.944  0.5390  0.4213  0.7475
 5804TIP3    H117376   5.068   3.743   3.005  0.3297 -0.1114  0.1012
 5804TIP3    H217377   5.053   3.869   2.922  0.8409  1.0015  1.6455
 5805TIP3   OH217378   3.822   4.263   3.744  0.6909  0.2052  0.2689
 5805TIP3    H117379   3.801   4.172   3.764  2.3810 -0.4502 -0.6796
 5805TIP3    H217380   3.883   4.289   3.813 -2.2033  1.7720  2.4556
 5806TIP3   OH217381   5.147   1.095   1.239 -0.1151  0.2481  0.3947
 5806TIP3    H117382   5.186   1.153   1.174  0.7481 -0.5101  0.2099
 5806TIP3    H217383   5.125   1.152   1.313 -0.1322  0.9418 -0.1374
 5807TIP3   OH217384   1.405   2.211   4.080  0.0132  0.2761 -0.6446
 5807TIP3    H117385   1.388   2.170   4.165 -2.9739  0.1297 -1.2013
 5807TIP3    H217386   1.410   2.305   4.099  0.9362  0.1303 -0.1298
 5808TIP3   OH217387   3.931   6.802   1.102  0.5874 -0.0005 -0.4939
 5808TIP3    H117388   3.850   6.776   1.058  1.3762 -0.7555 -1.5616
 5808TIP3    H217389   4.001   6.765   1.047  1.6409 -0.0392  0.8154
 5809TIP3   OH217390   4.425   4.208   1.224  0.1895 -0.0149  0.6575
 5809TIP3    H117391   4.367   4.222   1.298 -0.0141 -0.5305  0.5997
 5809TIP3    H217392   4.470   4.292   1.212 -1.7203  0.9328 -0.3202
 5810TIP3   OH217393   4.767   0.656   3.270  0.0751 -0.1969  0.5011
 5810TIP3    H117394   4.851   0.690   3.241  0.6962 -1.0152  1.2670
 5810TIP3    H217395   4.702   0.711   3.227  0.9912  0.1732 -0.4516
 5811TIP3   OH217396   2.976   0.031   3.667 -0.5884  0.0913  0.2410
 5811TIP3    H117397   3.066  -0.002   3.666 -0.0577  1.4961 -0.4767
 5811TIP3    H217398   2.958   0.052   3.576 -0.8745  1.8166  0.6706
 5812TIP3   OH217399   1.799   5.964   1.460  0.4272 -0.1763 -0.3348
 5812TIP3    H117400   1.754   5.891   1.418 -1.1158  0.3466  0.3293
 5812TIP3    H217401   1.788   5.948   1.554  1.9201 -0.1728 -0.1250
 5813TIP3   OH217402   6.146   5.762   1.949  0.0651 -0.1930  0.0944
 5813TIP3    H117403   6.184   5.755   1.862  1.4578 -0.5451  0.7027
 5813TIP3    H217404   6.221   5.756   2.009 -0.9832 -1.4928  1.3762
 5814TIP3   OH217405   6.458   2.655   0.936  0.0622  0.4570  0.4238
 5814TIP3    H117406   6.412   2.625   0.857  0.4327 -0.8101  0.6583
 5814TIP3    H217407   6.499   2.575   0.971  0.4001  1.1132  1.5643
 5815TIP3   OH217408   0.253   3.780   3.559  0.0428  0.2925 -0.1146
 5815TIP3    H117409   0.347   3.785   3.539  0.0050  2.2602  0.0502
 5815TIP3    H217410   0.248   3.792   3.653 -0.1469 -4.0441  0.6347
 5816TIP3   OH217411   0.947   6.629   0.186  0.6122  0.7301 -0.4141
 5816TIP3    H117412   0.929   6.716   0.152  1.5754  0.6757 -1.1215
 5816TIP3    H217413   1.043   6.625   0.190  0.5696 -0.2143 -0.1905
 5817TIP3   OH217414   6.840   0.748   0.015 -0.3374  0.3447 -0.3814
 5817TIP3    H117415   6.814   0.678   0.075 -0.5794 -0.0865 -0.9761
 5817TIP3    H217416   6.849   0.825   0.071  0.9465 -0.3688  0.4524
 5818TIP3   OH217417   6.662   0.085   3.082  0.8416 -0.0588  0.2976
 5818TIP3    H117418   6.572   0.088   3.050  0.4668  0.5452  1.3615
 5818TIP3    H217419   6.700   0.007   3.040 -0.1918 -0.3623 -0.1037
 5819TIP3   OH217420   0.983   6.346   4.611  0.4955  0.4961  0.0422
 5819TIP3    H117421   0.968   6.265   4.658  1.0430  1.6062  2.2510
 5819TIP3    H217422   1.050   6.392   4.661  0.1126  2.3906 -1.0387
 5820TIP3   OH217423   4.761   3.333   5.292 -0.1093  0.0934  0.4281
 5820TIP3    H117424   4.806   3.368   5.215 -1.1268  1.4100  0.4006
 5820TIP3    H217425   4.787   3.241   5.295  1.6905  0.5359 -0.2125
 5821TIP3   OH217426   5.371   5.391   0.736  0.0846 -0.4847  0.0126
 5821TIP3    H117427   5.396   5.440   0.814  0.6100  1.1080 -1.0854
 5821TIP3    H217428   5.279   5.370   0.750  0.0605  0.1275  0.8957
 5822TIP3   OH217429   3.799   3.269   3.319 -0.0309 -0.1813 -0.9543
 5822TIP3    H117430   3.843   3.349   3.347 -1.7635  0.3442  0.4701
 5822TIP3    H217431   3.856   3.198   3.349  0.2092  0.4818  0.2180
 5823TIP3   OH217432   1.605   3.998   2.746  0.1343 -0.2169  0.0467
 5823TIP3    H117433   1.554   4.001   2.665  0.4395  0.0608 -0.1359
 5823TIP3    H217434   1.550   3.948   2.807  0.3253 -1.2818 -0.6299
 5824TIP3   OH217435   4.008   4.343   3.926  0.1750 -0.5644 -0.6065
 5824TIP3    H117436   4.090   4.332   3.878 -0.2585  0.0211 -1.4986
 5824TIP3    H217437   4.036   4.363   4.016  1.0124  0.3618 -1.0571
 5825TIP3   OH217438   1.723   5.920   3.315  0.1041  0.0054 -0.1633
 5825TIP3    H117439   1.730   5.899   3.408 -0.7657  0.7062  0.0722
 5825TIP3    H217440   1.813   5.928   3.285  0.3810  0.0990  0.6914
 5826TIP3   OH217441   3.005   6.749   4.511  0.4206  0.0470  0.4867
 5826TIP3    H117442   3.071   6.810   4.545  0.5668  0.1686 -0.0010
 5826TIP3    H217443   2.953   6.802   4.450  1.2638 -0.5698 -0.8220
 5827TIP3   OH217444   5.648   5.699   2.668 -0.0760  0.2610  0.6576
 5827TIP3    H117445   5.601   5.726   2.747 -1.2074  0.4885 -0.0649
 5827TIP3    H217446   5.668   5.606   2.683 -0.0502  0.3651  1.3109
 5828TIP3   OH217447   6.778   4.053   0.211  0.0356 -0.0561  0.2975
 5828TIP3    H117448   6.841   3.997   0.166 -0.7348  0.0728 -0.9790
 5828TIP3    H217449   6.741   3.998   0.279 -1.9000 -1.7262 -1.9456
 5829TIP3   OH217450   4.315   0.913   1.530  0.5232 -0.2034 -0.0405
 5829TIP3    H117451   4.321   0.819   1.544  0.1836 -0.1667  0.3562
 5829TIP3    H217452   4.382   0.950   1.588  0.6380 -0.1975 -0.1765
 5830TIP3   OH217453   0.973   3.078   5.127 -0.8412 -0.9235 -0.3158
 5830TIP3    H117454   0.938   3.116   5.046 -0.5704  1.1930  0.5064
 5830TIP3    H217455   1.024   3.002   5.098 -0.8468 -0.2830 -2.1126
 5831TIP3   OH217456   3.561   4.560   4.402 -0.4529 -0.1107 -0.1374
 5831TIP3    H117457   3.537   4.651   4.384  0.5346  0.1934  0.0130
 5831TIP3    H217458   3.613   4.533   4.326  1.7964  0.4491  1.1127
 5832TIP3   OH217459   3.401   4.401   0.502 -0.5863  0.4091 -0.2449
 5832TIP3    H117460   3.392   4.308   0.483 -0.3788  0.4486 -0.5426
 5832TIP3    H217461   3.494   4.420   0.487 -0.3007  0.3489  1.2629
 5833TIP3   OH217462   0.652   2.717   0.754  0.2535 -0.3951 -0.2268
 5833TIP3    H117463   0.628   2.701   0.845  1.8317  1.6799  0.6218
 5833TIP3    H217464   0.695   2.636   0.726  1.8674 -0.2599  1.6667
 5834TIP3   OH217465   6.834   6.211   0.871  0.4039 -0.1710 -0.2031
 5834TIP3    H117466   6.822   6.130   0.921  0.8318  0.5526  1.1357
 5834TIP3    H217467   6.777   6.275   0.915  2.8475  1.2127  1.1904
 5835TIP3   OH217468   0.755   1.006   1.897 -0.5569 -0.0920 -0.6551
 5835TIP3    H117469   0.696   0.932   1.891  0.0264 -0.6883  0.5410
 5835TIP3    H217470   0.814   0.996   1.823 -1.2469 -0.1133 -1.2116
 5836TIP3   OH217471   3.934   0.296   3.486  0.0088  0.5378 -0.1884
 5836TIP3    H117472   4.024   0.327   3.473  0.1479  0.7212  1.0571
 5836TIP3    H217473   3.943   0.226   3.551 -0.6856  0.1200 -0.5360
 5837TIP3   OH217474   0.926   5.640   5.759  0.3946  0.0204 -0.0977
 5837TIP3    H117475   0.965   5.655   5.673 -0.1008  2.2015  0.0042
 5837TIP3    H217476   1.000   5.628   5.818  0.9147  1.9221 -0.2901
 5838TIP3   OH217477   0.644   6.450   2.068  0.2135  0.3611  0.3058
 5838TIP3    H117478   0.721   6.422   2.019 -0.4492  0.6455 -0.9416
 5838TIP3    H217479   0.652   6.405   2.152  0.5967 -1.3829 -0.6067
 5839TIP3   OH217480   6.984   0.718   0.373  0.0083  0.1427  0.0218
 5839TIP3    H117481   7.026   0.766   0.444  0.1408 -0.4152  0.3313
 5839TIP3    H217482   6.976   0.628   0.407 -1.9147  0.3307  0.1865
 5840TIP3   OH217483   0.502   0.072   3.784 -0.3240 -0.3801  0.1062
 5840TIP3    H117484   0.446   0.120   3.845 -1.3162 -1.1546 -0.1585
 5840TIP3    H217485   0.561   0.139   3.748 -2.8427  1.0983 -1.6321
 5841TIP3   OH217486   0.510   1.064   2.061  0.0605 -0.4514  0.1956
 5841TIP3    H117487   0.483   1.021   1.980 -0.3406  1.5211 -0.8051
 5841TIP3    H217488   0.598   1.097   2.042 -0.2513  0.4927  0.3453
 5842TIP3   OH217489   3.197   3.004   5.841 -0.4399 -0.0225  0.3823
 5842TIP3    H117490   3.211   3.077   5.781  0.5881 -0.6651 -0.2015
 5842TIP3    H217491   3.280   2.996   5.889 -0.6226 -0.6485  0.6061
 5843TIP3   OH217492   0.713   1.180   4.810 -0.1185  0.4469  0.5428
 5843TIP3    H117493   0.687   1.093   4.840 -1.9242  0.4022 -0.9683
 5843TIP3    H217494   0.781   1.163   4.744  0.7342  0.3102  1.4340
 5844TIP3   OH217495   4.339   6.559   5.808 -0.1588 -0.3837 -0.2290
 5844TIP3    H117496   4.318   6.637   5.757 -1.4908 -1.0715 -0.7815
 5844TIP3    H217497   4.301   6.576   5.894  0.2391 -0.1035 -0.1060
 5845TIP3   OH217498   6.035   0.936   4.209  0.7256  0.1677 -0.9404
 5845TIP3    H117499   6.000   0.849   4.227 -1.3936  1.2374  0.7080
 5845TIP3    H217500   6.010   0.954   4.118 -0.3017 -0.3331 -0.7708
 5846TIP3   OH217501   3.391   2.910   3.758  0.6803  0.3681  0.1574
 5846TIP3    H117502   3.309   2.868   3.730  1.1015  0.6767 -1.6255
 5846TIP3    H217503   3.424   2.853   3.828 -0.9419  0.1377  0.7859
 5847TIP3   OH217504   3.578   2.897   1.717  0.7438  0.0137  0.0725
 5847TIP3    H117505   3.512   2.954   1.758  0.5938  0.3179 -0.5789
 5847TIP3    H217506   3.555   2.809   1.747 -0.3919  0.0277 -0.6813
 5848TIP3   OH217507   6.646   2.694   0.368  0.3571 -0.8352  0.3772
 5848TIP3    H117508   6.696   2.739   0.300  0.2735 -0.0977  0.7982
 5848TIP3    H217509   6.564   2.743   0.375  0.2133 -1.1231  0.7634
 5849TIP3   OH217510   4.708   0.475   4.601  0.0439  0.3795  0.1346
 5849TIP3    H117511   4.683   0.515   4.685  0.1260  0.9004 -0.0864
 5849TIP3    H217512   4.634   0.418   4.579 -0.5361  1.1799 -0.0430
 5850TIP3   OH217513   1.250   0.932   4.293 -0.2598 -0.2682  0.2785
 5850TIP3    H117514   1.297   0.988   4.355  1.2598 -1.2335  0.0618
 5850TIP3    H217515   1.173   0.983   4.268  0.0900  0.9261  1.5053
 5851TIP3   OH217516   6.661   3.015   1.284 -0.3454  0.5252  0.1885
 5851TIP3    H117517   6.572   3.050   1.285 -0.6663 -0.1584  2.5269
 5851TIP3    H217518   6.649   2.922   1.303  0.9035  0.6181  1.5446
 5852TIP3   OH217519   7.120   2.241   3.131 -0.1426  0.3527 -0.4203
 5852TIP3    H117520   7.124   2.242   3.036  0.8162 -0.0830 -0.3945
 5852TIP3    H217521   7.168   2.162   3.157 -1.1841 -0.0301  0.3947
 5853TIP3   OH217522   5.278   0.114   3.159  0.0601  0.5967  0.3384
 5853TIP3    H117523   5.356   0.168   3.147  0.3024  0.4320  1.1229
 5853TIP3    H217524   5.272   0.062   3.079  1.6015 -0.4584  0.8658
 5854TIP3   OH217525   0.030   2.205   2.015 -0.2608 -0.0478 -0.2160
 5854TIP3    H117526   0.093   2.136   1.994 -1.9442 -2.3636  1.7918
 5854TIP3    H217527   0.058   2.237   2.101  0.5347  1.9117 -1.1489
 5855TIP3   OH217528   5.796   4.757   3.679  0.6323 -0.3785  0.1671
 5855TIP3    H117529   5.758   4.845   3.680  0.4985 -0.4254 -0.5915
 5855TIP3    H217530   5.887   4.769   3.706  0.2904 -0.1717  1.2881
 5856TIP3   OH217531   3.358   0.631   4.247  0.2948  0.1040 -0.2272
 5856TIP3    H117532   3.348   0.611   4.154 -0.7777 -0.1279 -0.0764
 5856TIP3    H217533   3.381   0.548   4.288  0.3315  0.1127 -0.2306
 5857TIP3   OH217534   3.749   4.649   1.494  0.9094 -0.0515 -0.8918
 5857TIP3    H117535   3.765   4.718   1.429  0.6587  0.5811 -0.2947
 5857TIP3    H217536   3.786   4.683   1.575 -2.1209  0.8877  0.2457
 5858TIP3   OH217537   3.674   0.555   5.571  0.3132  0.1816  0.1647
 5858TIP3    H117538   3.747   0.583   5.515 -0.4922  1.8807 -0.1024
 5858TIP3    H217539   3.673   0.619   5.642 -0.5762 -0.1501  0.4633
 5859TIP3   OH217540   4.548   0.970   0.805 -0.6518 -0.0154  0.5419
 5859TIP3    H117541   4.489   1.028   0.853 -1.3131 -0.1192 -0.1277
 5859TIP3    H217542   4.561   1.012   0.720  0.5519  0.1930  0.8066
 5860TIP3   OH217543   5.520   1.270   2.561  0.3086  0.2373  0.0873
 5860TIP3    H117544   5.588   1.271   2.629  0.6139  1.3371 -0.2217
 5860TIP3    H217545   5.529   1.354   2.517 -2.8597  1.5349  1.6393
 5861TIP3   OH217546   4.819   3.887   2.236  0.1805 -0.3060  0.1438
 5861TIP3    H117547   4.872   3.809   2.254  0.2282 -0.0365  1.2644
 5861TIP3    H217548   4.864   3.932   2.165  0.8864 -0.6198  0.3915
 5862TIP3   OH217549   3.310   4.267   4.348 -0.6399 -0.4283  0.7008
 5862TIP3    H117550   3.230   4.218   4.369 -1.2370  1.1503  2.4452
 5862TIP3    H217551   3.284   4.359   4.357  1.0191  0.1601 -0.1677
 5863TIP3   OH217552   5.567   5.178   3.753 -0.0278 -0.1639  0.1513
 5863TIP3    H117553   5.576   5.268   3.784 -0.3368  0.2643 -0.9726
 5863TIP3    H217554   5.576   5.125   3.832  2.8843  0.6761  0.4870
 5864TIP3   OH217555   5.806   3.178   5.545  0.1056 -0.5093  0.0431
 5864TIP3    H117556   5.804   3.106   5.482 -0.0906 -1.2774  0.9018
 5864TIP3    H217557   5.892   3.171   5.586  0.4889  0.3921 -0.5830
 5865TIP3   OH217558   5.261   1.254   2.468  0.7510  0.2152 -0.0544
 5865TIP3    H117559   5.223   1.336   2.498  2.7143  2.1303 -2.3891
 5865TIP3    H217560   5.353   1.258   2.495  0.8479 -1.3255 -0.0461
 5866TIP3   OH217561   2.406   1.289   4.140  0.1736  0.0159 -0.2594
 5866TIP3    H117562   2.387   1.239   4.061  1.7928 -0.1171 -0.5995
 5866TIP3    H217563   2.484   1.247   4.177 -0.3953  0.2380  1.2763
 5867TIP3   OH217564   4.312   3.242   4.855 -0.0285 -0.3799  0.2623
 5867TIP3    H117565   4.267   3.326   4.864 -1.5988 -1.0543 -0.8631
 5867TIP3    H217566   4.264   3.183   4.913  0.9300 -0.5562  0.8825
 5868TIP3   OH217567   0.298   1.414   2.531 -0.1597 -0.6016 -0.2447
 5868TIP3    H117568   0.300   1.489   2.591 -1.7079 -0.4977 -0.2812
 5868TIP3    H217569   0.370   1.359   2.560 -0.8209 -0.5278  1.7103
 5869TIP3   OH217570   2.220   1.362   3.817 -0.1045  0.2920 -0.2552
 5869TIP3    H117571   2.189   1.325   3.734  0.5386 -0.7797 -0.0507
 5869TIP3    H217572   2.234   1.285   3.873  1.5989  0.8009  0.0879
 5870TIP3   OH217573   5.836   2.065   2.180 -0.5518  0.2374 -0.2731
 5870TIP3    H117574   5.849   1.973   2.157  0.2842  0.0061  1.0129
 5870TIP3    H217575   5.863   2.113   2.101 -0.5870 -0.5970 -0.8091
 5871TIP3   OH217576   4.361   0.650   2.322 -0.3288 -0.7095  0.3031
 5871TIP3    H117577   4.368   0.643   2.417 -0.6102  0.6446  0.4424
 5871TIP3    H217578   4.281   0.602   2.301 -1.6032  0.9761  1.0601
 5872TIP3   OH217579   0.066   5.932   4.252 -0.1480  0.0771 -1.2371
 5872TIP3    H117580   0.094   5.997   4.187  0.1946 -0.5919 -1.7753
 5872TIP3    H217581   0.072   5.978   4.336 -2.5223  1.6223 -1.8054
 5873TIP3   OH217582   0.205   1.703   2.149  0.1774 -0.1888  0.1157
 5873TIP3    H117583   0.135   1.695   2.214 -0.4708 -1.2285 -0.6692
 5873TIP3    H217584   0.171   1.766   2.085  0.4352  0.1688  0.3369
 5874TIP3   OH217585   2.939   1.994   0.898 -0.7363  0.3137 -0.0611
 5874TIP3    H117586   2.936   2.089   0.900  0.1143  0.3399  1.4633
 5874TIP3    H217587   3.012   1.974   0.838 -1.3835  0.5795 -0.9600
 5875TIP3   OH217588   2.685   2.324   1.755  0.4017  0.0779 -0.1071
 5875TIP3    H117589   2.682   2.409   1.799 -0.5155  1.1640 -2.1232
 5875TIP3    H217590   2.593   2.302   1.739  0.6798 -0.4518 -1.0980
 5876TIP3   OH217591   0.752   3.353   2.647  0.0281 -0.0994 -0.5217
 5876TIP3    H117592   0.670   3.399   2.629 -0.3721 -0.5115  0.2038
 5876TIP3    H217593   0.784   3.325   2.561 -0.2851  0.5757 -0.8651
 5877TIP3   OH217594   0.601   0.101   5.247  0.7126  0.2698  0.4424
 5877TIP3    H117595   0.597   0.011   5.278 -2.4130 -0.1344 -0.6998
 5877TIP3    H217596   0.651   0.148   5.314 -0.1147 -1.7620  2.6171
 5878TIP3   OH217597   2.536   2.485   4.278 -0.3243  0.0006 -0.7034
 5878TIP3    H117598   2.559   2.446   4.362 -0.5501  0.1580 -0.5668
 5878TIP3    H217599   2.556   2.578   4.289 -1.6736  0.2722 -0.3353
 5879TIP3   OH217600   6.432   5.196   0.556 -0.1915 -0.3301  0.4886
 5879TIP3    H117601   6.429   5.292   0.563 -0.4454  0.0064 -2.6893
 5879TIP3    H217602   6.521   5.173   0.582  0.9445  1.2065 -1.7104
 5880TIP3   OH217603   6.234   2.726   5.536  0.5534  0.2009 -0.2936
 5880TIP3    H117604   6.158   2.752   5.587  0.8479  0.3160  0.0898
 5880TIP3    H217605   6.264   2.806   5.494  0.1956  0.0704 -0.8116
 5881TIP3   OH217606   0.082   4.984   2.223 -0.6386  0.5627 -0.9125
 5881TIP3    H117607   0.087   4.992   2.318 -0.3674 -0.1377 -0.8556
 5881TIP3    H217608   0.067   5.073   2.191  1.0887  1.1183 -0.3210
 5882TIP3   OH217609   1.785   4.027   4.504 -0.1002 -0.2811  0.2335
 5882TIP3    H117610   1.825   4.107   4.468  0.8042 -1.1755 -0.8233
 5882TIP3    H217611   1.691   4.039   4.489  0.0070  0.6477  0.2284
 5883TIP3   OH217612   4.530   3.597   2.197  0.5471  0.6361 -0.2462
 5883TIP3    H117613   4.605   3.549   2.230 -0.3399 -0.3033  0.4760
 5883TIP3    H217614   4.562   3.641   2.118  1.0349 -2.4964 -1.9568
 5884TIP3   OH217615   0.310   5.605   3.013  0.2253  0.0557  0.1220
 5884TIP3    H117616   0.317   5.511   3.028  0.7658  0.0411 -0.2038
 5884TIP3    H217617   0.369   5.622   2.939 -0.2498  0.5702 -0.1426
 5885TIP3   OH217618   2.812   5.442   3.905  0.4691  0.1806 -0.2889
 5885TIP3    H117619   2.813   5.347   3.912 -0.7479  0.1124 -0.7031
 5885TIP3    H217620   2.874   5.462   3.835  0.0255 -0.3870 -0.8514
 5886TIP3   OH217621   4.050   5.208   1.427 -0.5726 -0.5686 -0.3627
 5886TIP3    H117622   4.091   5.160   1.356 -1.2806  1.1879 -2.0401
 5886TIP3    H217623   3.984   5.148   1.462  0.3749 -1.7719 -0.5624
 5887TIP3   OH217624   3.525   4.024   0.531 -0.7032 -0.0420 -0.0120
 5887TIP3    H117625   3.598   4.064   0.483 -2.0442  1.6096 -0.7681
 5887TIP3    H217626   3.539   4.051   0.622 -1.3186  1.8338 -0.4326
 5888TIP3   OH217627   0.845   6.653   0.515 -0.3800  0.1662  0.4141
 5888TIP3    H117628   0.787   6.658   0.591 -0.9852  1.5481 -0.1062
 5888TIP3    H217629   0.880   6.741   0.505  1.5308 -0.5386  0.4624
 5889TIP3   OH217630   1.875   1.121   3.010  0.1381 -0.4735 -0.2875
 5889TIP3    H117631   1.872   1.047   3.070  2.9104  0.4450  1.1431
 5889TIP3    H217632   1.823   1.189   3.053 -0.6854 -0.8807 -0.6113
 5890TIP3   OH217633   1.398   1.215   2.152  0.4786 -0.8822 -0.1272
 5890TIP3    H117634   1.457   1.249   2.219  0.9960 -0.9517 -0.5373
 5890TIP3    H217635   1.392   1.121   2.170  0.7793 -0.9367 -0.2863
 5891TIP3   OH217636   4.471   4.982   4.562  0.3240 -0.2793  0.3623
 5891TIP3    H117637   4.464   4.998   4.468  0.0758 -1.0223  0.2431
 5891TIP3    H217638   4.561   4.951   4.574  1.6191  3.2515  0.9436
 5892TIP3   OH217639   4.698   6.371   4.101  0.8361 -0.5658 -0.0281
 5892TIP3    H117640   4.791   6.358   4.088  0.8706  0.6030 -1.2038
 5892TIP3    H217641   4.663   6.385   4.013 -0.1588  0.6248  0.5137
 5893TIP3   OH217642   1.722   4.927   4.165 -0.3340 -0.0764 -0.2843
 5893TIP3    H117643   1.681   4.999   4.117 -0.9812 -0.3576 -0.1663
 5893TIP3    H217644   1.809   4.919   4.126 -0.7937 -0.2056 -1.3153
 5894TIP3   OH217645   0.245   4.096   2.461  0.3308 -0.3332 -0.4474
 5894TIP3    H117646   0.298   4.146   2.400  0.6133  0.5565  0.4888
 5894TIP3    H217647   0.155   4.106   2.430  0.5336 -0.4364 -1.0731
 5895TIP3   OH217648   3.048   3.903   3.900 -0.2844  0.1358  0.4722
 5895TIP3    H117649   3.128   3.955   3.907 -0.1583 -0.0470  0.4013
 5895TIP3    H217650   2.984   3.949   3.955 -0.4464  0.8725 -0.3080
 5896TIP3   OH217651   4.135   3.778   1.534  0.3436 -0.0317 -0.0513
 5896TIP3    H117652   4.041   3.764   1.524  0.6077 -1.2311 -1.0400
 5896TIP3    H217653   4.153   3.859   1.487 -0.3663  0.8843  1.1896
 5897TIP3   OH217654   3.145   6.785   2.789 -0.1972 -0.8922  0.3529
 5897TIP3    H117655   3.086   6.793   2.864 -0.3408  0.1544  0.1448
 5897TIP3    H217656   3.096   6.736   2.724 -0.1955 -1.5219  0.8188
 5898TIP3   OH217657   1.190   6.091   0.198 -0.4862  0.0711  0.1787
 5898TIP3    H117658   1.263   6.037   0.168 -0.4780 -0.4316  1.0651
 5898TIP3    H217659   1.147   6.039   0.266 -1.2173  0.6750  0.2059
 5899TIP3   OH217660   4.530   4.803   5.357  0.4842  0.8828 -0.5499
 5899TIP3    H117661   4.517   4.818   5.264 -1.6091 -1.7862 -0.7793
 5899TIP3    H217662   4.620   4.769   5.364  0.4094  0.4263 -1.6784
 5900TIP3   OH217663   3.086   4.618   1.923 -0.2096  0.1332 -0.0137
 5900TIP3    H117664   3.049   4.626   1.835  0.3945  0.3796 -0.2427
 5900TIP3    H217665   3.105   4.707   1.950 -0.2106  0.0419  0.2918
 5901TIP3   OH217666   4.371   5.102   4.796  0.3210 -0.3754  0.1064
 5901TIP3    H117667   4.394   5.063   4.712 -1.7151  0.1542 -0.7649
 5901TIP3    H217668   4.311   5.173   4.774 -0.1096 -0.0887  1.9916
 5902TIP3   OH217669   3.287   2.298   4.569 -0.2572  0.5783 -0.1028
 5902TIP3    H117670   3.374   2.308   4.531  0.6201 -1.4372  1.2177
 5902TIP3    H217671   3.280   2.371   4.631  0.7454  0.4463  0.1904
 5903TIP3   OH217672   3.669   5.315   2.859 -0.6416 -0.1722 -0.1269
 5903TIP3    H117673   3.606   5.246   2.837 -0.0040 -1.1813  1.0788
 5903TIP3    H217674   3.751   5.285   2.820 -0.3716 -0.0937  0.3762
 5904TIP3   OH217675   6.306   4.353   4.587  0.1474 -0.4383  0.0762
 5904TIP3    H117676   6.259   4.270   4.579  1.7394 -1.3963  0.0970
 5904TIP3    H217677   6.292   4.379   4.678 -0.8302 -0.3747 -0.0809
 5905TIP3   OH217678   3.259   1.789   1.293 -0.0450 -0.1427 -0.4506
 5905TIP3    H117679   3.209   1.764   1.215  0.2328  0.3066 -0.7824
 5905TIP3    H217680   3.258   1.885   1.291 -1.2752 -0.0887  0.9047
 5906TIP3   OH217681   1.035   4.816   5.373  0.2528 -0.3639 -0.4506
 5906TIP3    H117682   1.054   4.723   5.381 -0.2976 -0.3219  2.2459
 5906TIP3    H217683   0.951   4.827   5.418  0.3554  1.4472 -0.6189
 5907TIP3   OH217684   5.906   5.492   0.309  0.5335 -0.1889 -0.1277
 5907TIP3    H117685   5.929   5.519   0.220 -0.1072  0.0162 -0.2323
 5907TIP3    H217686   5.874   5.571   0.351  0.9686 -0.2541  0.3360
 5908TIP3   OH217687   1.951   3.622   2.257  0.2209 -0.0753  0.5743
 5908TIP3    H117688   1.906   3.543   2.284  0.7364 -0.5847 -0.0160
 5908TIP3    H217689   1.935   3.685   2.328 -2.2255  0.1019 -0.0451
 5909TIP3   OH217690   5.572   4.070   3.181 -0.1941 -0.2619  0.0638
 5909TIP3    H117691   5.597   4.066   3.089 -1.0847  0.0967 -0.2015
 5909TIP3    H217692   5.489   4.118   3.182 -0.1669 -0.2033  1.0567
 5910TIP3   OH217693   3.773   0.703   2.852  0.2036  0.1819  0.4795
 5910TIP3    H117694   3.690   0.747   2.830 -0.9000 -2.1854 -0.3964
 5910TIP3    H217695   3.831   0.724   2.779  0.0761  1.0347  0.6057
 5911TIP3   OH217696   0.110   1.354   2.733 -0.0111  0.4918  0.3070
 5911TIP3    H117697   0.115   1.448   2.747 -2.3230  0.8756 -1.0312
 5911TIP3    H217698   0.145   1.341   2.644 -0.0425  0.1270  0.3439
 5912TIP3   OH217699   4.154   4.834   5.675  0.2166 -1.0635 -0.1771
 5912TIP3    H117700   4.081   4.893   5.656  1.8142  1.0625 -0.1423
 5912TIP3    H217701   4.212   4.843   5.599  3.1958  1.9332  2.1215
 5913TIP3   OH217702   5.785   4.275   0.635  0.2800  0.0297  0.6220
 5913TIP3    H117703   5.736   4.214   0.690  0.6527 -0.1460  0.7583
 5913TIP3    H217704   5.722   4.303   0.568  0.2233 -0.8292  0.3038
 5914TIP3   OH217705   4.582   4.388   5.753 -0.4154 -0.0164 -0.8670
 5914TIP3    H117706   4.629   4.346   5.825 -1.5103  1.6631  0.9615
 5914TIP3    H217707   4.525   4.319   5.718  0.2918 -0.9351 -0.2522
 5915TIP3   OH217708   5.124   4.094   4.926 -0.2564 -0.1832 -0.2109
 5915TIP3    H117709   5.068   4.164   4.959 -0.1188 -0.2738  0.2162
 5915TIP3    H217710   5.123   4.106   4.831 -2.1877 -1.0654 -0.3601
 5916TIP3   OH217711   0.226   6.265   0.550 -0.5581 -0.1869  0.0836
 5916TIP3    H117712   0.132   6.260   0.563 -0.3887  0.0005  1.4963
 5916TIP3    H217713   0.256   6.174   0.553 -0.7574 -0.3150 -1.1063
 5917TIP3   OH217714   3.879   4.086   4.127 -0.2077 -0.3191  0.7361
 5917TIP3    H117715   3.940   4.022   4.165  1.1925  0.5949  0.1019
 5917TIP3    H217716   3.903   4.090   4.035  0.2266  1.6441  0.9008
 5918TIP3   OH217717   0.887   1.564   2.752  0.0523 -0.0187  0.0573
 5918TIP3    H117718   0.903   1.469   2.754  0.2090  0.0141  0.7461
 5918TIP3    H217719   0.854   1.581   2.664  1.5841 -0.4687 -0.6566
 5919TIP3   OH217720   1.144   0.561   5.819  0.1496 -0.3517 -0.4535
 5919TIP3    H117721   1.222   0.589   5.771  0.7655  1.1534  1.2933
 5919TIP3    H217722   1.074   0.615   5.785  0.2328 -0.4717 -0.8150
 5920TIP3   OH217723   2.121   6.393   4.083  0.3224  0.1948  0.2317
 5920TIP3    H117724   2.213   6.392   4.058  0.1078 -0.1141 -0.5652
 5920TIP3    H217725   2.075   6.427   4.006 -0.6166 -2.9697 -0.7332
 5921TIP3   OH217726   0.450   2.294   1.232 -0.4133 -0.8115  0.0213
 5921TIP3    H117727   0.515   2.298   1.302  0.3722  0.8372 -0.7443
 5921TIP3    H217728   0.394   2.220   1.255  2.5394 -3.2361  0.0032
 5922TIP3   OH217729   5.597   5.723   3.935 -0.4800 -0.5824  0.0619
 5922TIP3    H117730   5.617   5.731   3.842 -0.4571 -0.3243  0.0866
 5922TIP3    H217731   5.680   5.744   3.979  0.1272 -2.8736  0.1086
 5923TIP3   OH217732   6.086   4.249   3.573 -0.2021  0.2128  0.4410
 5923TIP3    H117733   6.163   4.296   3.605 -0.5728  1.2956 -0.2112
 5923TIP3    H217734   6.037   4.315   3.524 -0.1585 -1.1377 -1.5048
 5924TIP3   OH217735   2.661   6.556   4.741 -0.8038 -0.2010  0.0293
 5924TIP3    H117736   2.574   6.529   4.713  0.1873 -1.3341 -2.3162
 5924TIP3    H217737   2.664   6.537   4.835 -2.5432 -1.6829 -0.1642
 5925TIP3   OH217738   6.756   1.801   1.660  0.1781  0.3105 -0.4203
 5925TIP3    H117739   6.792   1.826   1.575  0.3999 -0.5792 -0.5986
 5925TIP3    H217740   6.681   1.746   1.638  0.3289 -0.0472 -0.0377
 5926TIP3   OH217741   5.621   5.414   3.878  0.0495 -0.4584  0.4895
 5926TIP3    H117742   5.611   5.503   3.912 -0.4328 -0.7007  0.9866
 5926TIP3    H217743   5.692   5.421   3.814 -0.8967  0.5674 -0.4949
 5927TIP3   OH217744   0.699   5.300   4.459  0.1710  0.3787 -0.1505
 5927TIP3    H117745   0.624   5.253   4.423  1.6855 -1.0483 -1.5489
 5927TIP3    H217746   0.690   5.290   4.554 -0.0728 -1.9746 -0.3663
 5928TIP3   OH217747   4.295   0.576   4.059  0.4974  0.5488  0.3917
 5928TIP3    H117748   4.364   0.619   4.008 -0.9165 -0.2376 -2.3199
 5928TIP3    H217749   4.214   0.616   4.029 -0.5780 -1.5597  0.3167
 5929TIP3   OH217750   5.264   0.751   3.939  0.2527  0.5555  0.1642
 5929TIP3    H117751   5.300   0.800   4.013 -2.2241  0.5885  1.4548
 5929TIP3    H217752   5.206   0.814   3.895 -1.1012 -0.4803  0.4115
 5930TIP3   OH217753   5.633   0.406   0.832  0.1808 -0.2800 -0.6640
 5930TIP3    H117754   5.715   0.367   0.799  0.4118 -0.9684  0.6710
 5930TIP3    H217755   5.661   0.467   0.899 -0.2377  1.7654 -2.2463
 5931TIP3   OH217756   3.871   6.685   5.128 -0.6250  0.5788 -0.5016
 5931TIP3    H117757   3.803   6.712   5.066 -0.4718  1.7289 -0.1889
 5931TIP3    H217758   3.953   6.704   5.084 -0.4997  2.6280  0.5136
 5932TIP3   OH217759   3.570   5.084   5.595  0.1223 -0.6928  0.1144
 5932TIP3    H117760   3.630   5.099   5.522  0.6527  0.8819  0.8482
 5932TIP3    H217761   3.627   5.061   5.669 -0.1383  0.8886  0.8341
 5933TIP3   OH217762   5.317   4.859   5.696 -0.2650  0.2228  0.0722
 5933TIP3    H117763   5.365   4.841   5.615 -1.7340 -3.3052 -0.2174
 5933TIP3    H217764   5.254   4.927   5.672  2.2591  2.5608 -0.3884
 5934TIP3   OH217765   6.634   0.199   5.062 -0.1607 -0.1337  0.5310
 5934TIP3    H117766   6.624   0.294   5.072  0.9135 -0.0789  1.2496
 5934TIP3    H217767   6.709   0.177   5.117  0.9325 -1.0775 -1.2228
 5935TIP3   OH217768   1.149   3.278   4.580  0.2497  0.0451 -0.2956
 5935TIP3    H117769   1.116   3.219   4.512  0.8429 -0.4311 -0.1847
 5935TIP3    H217770   1.207   3.339   4.534 -0.1059  0.3330 -0.3611
 5936TIP3   OH217771   0.816   4.390   0.189 -0.1608 -0.5363  0.5558
 5936TIP3    H117772   0.830   4.458   0.123 -0.2735 -1.8768 -0.9060
 5936TIP3    H217773   0.743   4.423   0.242 -0.0256  0.5961  0.0759
 5937TIP3   OH217774   3.111   3.758   3.239  0.6979  0.1630 -0.3697
 5937TIP3    H117775   3.206   3.769   3.231  0.6456 -0.4081 -2.1234
 5937TIP3    H217776   3.082   3.735   3.151 -1.2303  1.4216 -0.1284
 5938TIP3   OH217777   1.618   3.675   2.530  0.0895 -0.0042 -0.0774
 5938TIP3    H117778   1.536   3.656   2.484  0.8684  1.0501 -2.0165
 5938TIP3    H217779   1.640   3.764   2.505  1.2831  0.1405  1.3072
 5939TIP3   OH217780   1.780   6.194   2.399 -0.0342 -1.0394  0.4909
 5939TIP3    H117781   1.727   6.121   2.368  1.0882 -1.6044 -0.1668
 5939TIP3    H217782   1.818   6.231   2.320 -1.7288  1.2312  0.6407
 5940TIP3   OH217783   6.333   3.157   0.704  0.0330 -0.3734  0.6075
 5940TIP3    H117784   6.276   3.221   0.660 -1.1350 -1.4207  0.5210
 5940TIP3    H217785   6.422   3.186   0.684 -0.4699  0.8667  0.0617
 5941TIP3   OH217786   3.725   1.488   5.196 -0.1416 -0.3386  0.2653
 5941TIP3    H117787   3.766   1.426   5.135  1.0197  0.7357 -0.0794
 5941TIP3    H217788   3.796   1.517   5.253  0.1156  2.9810 -1.5127
 5942TIP3   OH217789   4.121   0.934   4.563 -0.4765 -1.0261  0.0888
 5942TIP3    H117790   4.030   0.912   4.545 -0.6735  0.8182 -1.5214
 5942TIP3    H217791   4.166   0.850   4.567 -2.1434 -1.9398  0.4339
 5943TIP3   OH217792   6.150   5.056   4.227  0.2901 -0.1903 -0.2436
 5943TIP3    H117793   6.187   5.103   4.302 -0.5086  0.7315 -0.4008
 5943TIP3    H217794   6.074   5.009   4.262  2.4331 -3.4637  0.4432
 5944TIP3   OH217795   1.169   6.051   2.222 -0.0109 -0.1828 -0.9342
 5944TIP3    H117796   1.224   6.128   2.219 -0.1965 -0.0753 -2.5140
 5944TIP3    H217797   1.222   5.982   2.183 -0.6676 -0.2799 -1.6794
 5945TIP3   OH217798   5.690   6.691  -0.011  0.2817  0.1129 -0.2585
 5945TIP3    H117799   5.708   6.784  -0.024 -3.4727  0.9920 -0.3333
 5945TIP3    H217800   5.645   6.686   0.073  1.3815 -1.8475  0.2709
 5946TIP3   OH217801   6.881   2.274   2.493 -0.4640 -0.6737 -0.1622
 5946TIP3    H117802   6.925   2.346   2.448  1.5355 -1.3119  0.6629
 5946TIP3    H217803   6.917   2.276   2.581 -0.1488 -2.8348 -0.1991
 5947TIP3   OH217804   5.763   1.802   2.677 -0.0981  0.5514  0.1106
 5947TIP3    H117805   5.802   1.718   2.655  1.4617  1.6350 -1.5174
 5947TIP3    H217806   5.760   1.802   2.773 -0.3259 -1.4082  0.1383
 5948TIP3   OH217807   3.717   2.391   3.656 -0.4864  0.1113  0.5446
 5948TIP3    H117808   3.674   2.331   3.716 -0.0377  0.4811  1.2562
 5948TIP3    H217809   3.782   2.338   3.611 -1.8942 -0.5415 -0.8175
 5949TIP3   OH217810   5.988   4.266   5.787 -0.6015  0.6041  0.5459
 5949TIP3    H117811   5.946   4.345   5.820  0.5288  1.4837 -0.0486
 5949TIP3    H217812   6.021   4.291   5.701 -0.5073 -0.6244  0.2028
 5950TIP3   OH217813   6.204   3.559   2.553  0.0152  0.0983  0.0873
 5950TIP3    H117814   6.126   3.547   2.606 -0.6116  0.6619 -0.6881
 5950TIP3    H217815   6.228   3.651   2.564 -1.9994  1.1409 -3.0299
 5951TIP3   OH217816   0.635   0.482   2.291  0.7028  0.3257  0.5798
 5951TIP3    H117817   0.580   0.511   2.364  0.9575  0.3552  0.7638
 5951TIP3    H217818   0.591   0.515   2.213  0.0562 -0.2975  0.6705
 5952TIP3   OH217819   3.182   2.861   0.564 -0.1360  0.4743  0.4365
 5952TIP3    H117820   3.247   2.792   0.578  0.4778  1.2444  1.4274
 5952TIP3    H217821   3.226   2.924   0.507 -0.2904  0.6188  0.4777
 5953TIP3   OH217822   2.361   3.728   0.842 -0.5221 -0.6924 -0.1281
 5953TIP3    H117823   2.295   3.699   0.905  0.3828 -2.3349  0.1258
 5953TIP3    H217824   2.405   3.647   0.815  1.3955  0.3309 -0.2488
 5954TIP3   OH217825   0.080   4.391   2.478  0.7756 -0.5251 -0.0354
 5954TIP3    H117826   0.033   4.317   2.439 -0.8674  0.1380  0.6093
 5954TIP3    H217827   0.086   4.370   2.571 -0.8249  0.6589  0.3867
 5955TIP3   OH217828   2.750   6.334   5.009 -0.0284  0.0699  0.3278
 5955TIP3    H117829   2.727   6.277   5.083  2.0567 -0.5014  0.6005
 5955TIP3    H217830   2.721   6.285   4.932  1.1266 -1.1110  0.6000
 5956TIP3   OH217831   7.085   1.572   2.763 -0.0591 -0.3405 -0.1372
 5956TIP3    H117832   7.018   1.504   2.762 -0.5867  0.1677 -0.8298
 5956TIP3    H217833   7.112   1.578   2.854 -1.9048  0.3510  0.4125
 5957TIP3   OH217834   5.363   2.820   4.437 -0.0269  0.2427  0.0056
 5957TIP3    H117835   5.455   2.800   4.451  0.6036  1.8390 -1.4537
 5957TIP3    H217836   5.360   2.915   4.427 -1.9141  0.2824  0.4529
 5958TIP3   OH217837   4.301   4.501   1.707  0.1031 -0.0288 -0.0022
 5958TIP3    H117838   4.281   4.594   1.721 -0.5004 -0.3720  1.6840
 5958TIP3    H217839   4.255   4.456   1.778  1.3050 -1.5218 -0.1282
 5959TIP3   OH217840   3.753   1.920   3.995  0.2229  0.8190 -0.2407
 5959TIP3    H117841   3.770   1.870   4.075 -0.3836  0.3638 -0.3889
 5959TIP3    H217842   3.665   1.956   4.008  0.0344  0.5664 -0.7911
 5960TIP3   OH217843   1.404   5.168   0.510  0.0756  0.4168  0.3777
 5960TIP3    H117844   1.398   5.080   0.471 -0.2088  1.3466 -1.8421
 5960TIP3    H217845   1.459   5.156   0.587  1.4142 -1.4316 -0.7766
 5961TIP3   OH217846   7.197   5.484   5.362  0.1178 -0.4150 -0.0079
 5961TIP3    H117847   7.181   5.391   5.345 -1.8321 -0.0074 -0.5956
 5961TIP3    H217848   7.126   5.529   5.317  1.4367  1.4301 -0.3702
 5962TIP3   OH217849   7.097   3.155   2.542  0.3582 -0.3840 -0.1467
 5962TIP3    H117850   7.138   3.133   2.459  0.2591  1.2962 -0.6710
 5962TIP3    H217851   7.012   3.193   2.519  0.3609  0.1843  0.7087
 5963TIP3   OH217852   5.131   2.704   3.062  0.2410 -0.3377  0.2045
 5963TIP3    H117853   5.079   2.624   3.064 -2.1808  0.9780 -2.4579
 5963TIP3    H217854   5.078   2.768   3.110  0.9248  0.2771  0.1528
 5964TIP3   OH217855   2.783   3.028   3.054  0.0757  0.0478  0.5787
 5964TIP3    H117856   2.793   3.071   2.969  0.3606 -0.1645  0.5061
 5964TIP3    H217857   2.814   2.939   3.041  0.1757  0.0286  0.9193
 5965TIP3   OH217858   3.248   0.638   2.795  0.2969  0.6291 -0.1752
 5965TIP3    H117859   3.226   0.545   2.785  0.6369  0.4750  0.5183
 5965TIP3    H217860   3.315   0.653   2.728  1.0313  0.1059  0.4275
 5966TIP3   OH217861   2.679   3.410   4.954 -0.8693 -0.3526  0.5980
 5966TIP3    H117862   2.639   3.465   4.887  0.4729  2.9940  2.2959
 5966TIP3    H217863   2.619   3.415   5.028 -0.0941 -0.0667  1.2186
 5967TIP3   OH217864   4.816   6.060   3.067 -0.0559 -0.3544 -0.4513
 5967TIP3    H117865   4.766   6.000   3.011  0.5536 -0.9178 -0.4112
 5967TIP3    H217866   4.898   6.075   3.019 -0.2820  0.6127 -0.5517
 5968TIP3   OH217867   5.758   2.523   1.420 -0.0697 -0.1706 -0.0773
 5968TIP3    H117868   5.835   2.555   1.372  0.0788  0.0814  0.3274
 5968TIP3    H217869   5.764   2.427   1.415 -0.0641 -0.1476 -0.5723
 5969TIP3   OH217870   2.519   0.362   1.798 -0.4630 -0.6569 -0.6304
 5969TIP3    H117871   2.515   0.269   1.819 -0.7046 -0.7420 -1.0524
 5969TIP3    H217872   2.611   0.379   1.778 -0.2535 -0.6117  0.2988
 5970TIP3   OH217873   1.420   1.873   2.316  0.4185 -0.3291  0.4034
 5970TIP3    H117874   1.391   1.945   2.372 -2.1530 -1.1305  0.2565
 5970TIP3    H217875   1.389   1.897   2.229  1.1867 -0.7613  0.0032
 5971TIP3   OH217876   7.175   1.323   3.071 -0.3453  0.4155 -0.1634
 5971TIP3    H117877   7.143   1.318   3.161 -0.3759 -0.3996 -0.2151
 5971TIP3    H217878   7.129   1.253   3.025  1.5885 -0.8917 -0.2114
 5972TIP3   OH217879   3.743   6.137   2.270  0.1134 -0.1382 -0.0828
 5972TIP3    H117880   3.684   6.065   2.245  0.9805 -0.3877 -1.5640
 5972TIP3    H217881   3.828   6.110   2.236  0.5639  1.3713 -0.2011
 5973TIP3   OH217882   6.666   5.271   5.425  0.0326 -0.3637 -0.2180
 5973TIP3    H117883   6.575   5.286   5.401 -0.1308 -2.7914 -1.5860
 5973TIP3    H217884   6.713   5.273   5.341  1.0540 -0.2024  0.3398
 5974TIP3   OH217885   5.870   3.782   3.492  0.4316  0.1100  0.5795
 5974TIP3    H117886   5.851   3.747   3.405 -3.2846  4.4016 -0.7177
 5974TIP3    H217887   5.945   3.840   3.480  0.7607 -0.3091  0.5886
 5975TIP3   OH217888   1.457   1.194   3.811 -0.0488  0.5651  0.0769
 5975TIP3    H117889   1.456   1.227   3.901 -0.9107  0.1723  0.2236
 5975TIP3    H217890   1.376   1.144   3.803  1.0235 -1.2316 -0.2339
 5976TIP3   OH217891   7.062   4.823   4.858 -0.3328 -0.1927  0.2669
 5976TIP3    H117892   6.999   4.802   4.789 -1.5591 -2.9015  2.0293
 5976TIP3    H217893   7.010   4.866   4.926  0.7512  1.9548 -0.1865
 5977TIP3   OH217894   2.277   2.001   3.866  0.2310 -0.2690 -0.0695
 5977TIP3    H117895   2.198   1.993   3.920  0.6616  0.2143  0.6628
 5977TIP3    H217896   2.344   1.952   3.914  0.3310 -0.8329 -0.7807
 5978TIP3   OH217897   6.770   0.185   3.842  0.4182  0.1877 -0.2054
 5978TIP3    H117898   6.750   0.240   3.766 -2.6530 -1.0447 -0.3958
 5978TIP3    H217899   6.859   0.212   3.867  2.1880 -0.1970 -4.9271
 5979TIP3   OH217900   3.206   4.180   5.612 -0.3821 -0.3512  0.1018
 5979TIP3    H117901   3.154   4.100   5.610 -0.5796 -0.2756  1.2956
 5979TIP3    H217902   3.166   4.233   5.682  1.4342 -0.4048  1.2505
 5980TIP3   OH217903   0.481   1.391   3.737  0.5413  0.9364 -0.5951
 5980TIP3    H117904   0.534   1.325   3.692  0.4707 -1.7953  2.9222
 5980TIP3    H217905   0.543   1.461   3.757  1.5358  0.2769 -1.2461
 5981TIP3   OH217906   7.065   3.157   4.150  0.2094  0.4084 -0.3096
 5981TIP3    H117907   7.039   3.099   4.222  0.0524  0.0357 -0.6673
 5981TIP3    H217908   7.132   3.214   4.189 -1.1209  1.4126  0.6466
 5982TIP3   OH217909   0.607   1.556   2.908  0.4553  0.4997 -0.5681
 5982TIP3    H117910   0.609   1.563   2.812 -1.4089 -0.6854 -0.7417
 5982TIP3    H217911   0.519   1.584   2.932  0.1506 -1.3049  0.5745
 5983TIP3   OH217912   4.548   6.127   2.091  0.0088 -0.2611  0.2352
 5983TIP3    H117913   4.620   6.149   2.151 -1.2564  0.4223  1.5482
 5983TIP3    H217914   4.510   6.047   2.128  0.3079 -0.8543 -0.6846
 5984TIP3   OH217915   2.614   6.743   1.245 -0.4355 -0.0853  0.3928
 5984TIP3    H117916   2.643   6.785   1.165  1.0682  1.5558  1.7281
 5984TIP3    H217917   2.578   6.814   1.299  1.5539 -0.5189  2.4391
 5985TIP3   OH217918   4.323   6.492   1.289  0.7741 -0.3779  0.8187
 5985TIP3    H117919   4.284   6.405   1.288  0.6952 -0.4570 -2.5251
 5985TIP3    H217920   4.302   6.527   1.375 -2.7339 -2.1535  0.8818
 5986TIP3   OH217921   3.329   3.842   4.905  0.6857  0.2633 -0.0177
 5986TIP3    H117922   3.326   3.780   4.978  0.0590  0.9734  0.5706
 5986TIP3    H217923   3.349   3.787   4.828  4.4496 -0.1614  1.0346
 5987TIP3   OH217924   2.712   1.651   0.803  0.1378 -0.2786  0.3196
 5987TIP3    H117925   2.650   1.724   0.809 -0.3342 -0.5771 -0.6933
 5987TIP3    H217926   2.782   1.684   0.746  0.4905 -0.2412  0.7660
 5988TIP3   OH217927   3.997   6.534   5.350  0.1275 -0.2055 -0.1698
 5988TIP3    H117928   3.982   6.595   5.277 -0.5557  0.7441  0.7214
 5988TIP3    H217929   3.911   6.495   5.366 -0.0477  0.5967  0.9644
 5989TIP3   OH217930   4.832   2.584   5.896 -0.5777  0.4868  0.0308
 5989TIP3    H117931   4.746   2.617   5.873 -0.8489  1.8969  2.6628
 5989TIP3    H217932   4.893   2.646   5.854 -0.9810  1.6102  1.0337
 5990TIP3   OH217933   2.129   0.928   4.155  0.0226  0.6612 -0.0663
 5990TIP3    H117934   2.130   0.880   4.073  0.7015  1.7659 -0.7333
 5990TIP3    H217935   2.042   0.912   4.191  0.1520 -0.8528 -0.3631
 5991TIP3   OH217936   7.194   5.589   0.514  0.2108 -0.0646 -0.0320
 5991TIP3    H117937   7.115   5.538   0.497 -0.0710  0.6307 -0.8196
 5991TIP3    H217938   7.168   5.680   0.503  1.0542  0.1897 -0.0328
 5992TIP3   OH217939   3.286   0.685   1.987 -0.3290  0.8631  0.5342
 5992TIP3    H117940   3.277   0.685   1.892 -0.9685  0.1362  0.5831
 5992TIP3    H217941   3.249   0.769   2.014 -1.2460  0.5740  0.2217
 5993TIP3   OH217942   4.431   4.645   4.478 -0.2817 -0.0716  0.1387
 5993TIP3    H117943   4.378   4.705   4.530  0.6431  0.1274  0.8778
 5993TIP3    H217944   4.417   4.559   4.518  0.2843  0.0516  0.6124
 5994TIP3   OH217945   2.580   2.614   0.661  0.4049  0.6196 -0.4545
 5994TIP3    H117946   2.558   2.666   0.739  0.2923  0.1224 -0.1537
 5994TIP3    H217947   2.672   2.633   0.644  1.0686 -0.9405  1.1059
 5995TIP3   OH217948   5.465   1.907   2.893  0.0706 -0.4471  0.0908
 5995TIP3    H117949   5.549   1.921   2.937 -0.1553  0.8261  0.1575
 5995TIP3    H217950   5.445   1.991   2.851 -0.4736 -1.1699 -1.1576
 5996TIP3   OH217951   3.413   3.525   5.669 -0.1823 -0.1254 -0.4886
 5996TIP3    H117952   3.369   3.550   5.751  0.1697  0.0129 -0.3376
 5996TIP3    H217953   3.371   3.580   5.603  0.6780  1.0176 -0.1374
 5997TIP3   OH217954   2.931   2.547   0.267  0.1187 -0.4589 -0.0793
 5997TIP3    H117955   2.927   2.488   0.192 -0.8835 -0.4011 -0.0846
 5997TIP3    H217956   2.871   2.510   0.331  1.4451 -0.8685  0.9866
 5998TIP3   OH217957   5.427   5.588   5.686 -0.0224  0.7161  0.1036
 5998TIP3    H117958   5.518   5.610   5.666 -0.1383  0.2303 -1.0317
 5998TIP3    H217959   5.427   5.567   5.779  1.3222 -0.7419 -0.1892
 5999TIP3   OH217960   2.626   2.251   5.184  0.4016 -0.2563 -0.3387
 5999TIP3    H117961   2.702   2.261   5.128  0.6487 -0.6020 -0.0708
 5999TIP3    H217962   2.660   2.258   5.273  0.0855 -0.1845 -0.2194
 6000TIP3   OH217963   6.478   0.967   4.828 -0.2566  0.1732  0.4294
 6000TIP3    H117964   6.384   0.973   4.811 -0.0152  0.7199 -0.8222
 6000TIP3    H217965   6.497   0.874   4.823 -0.7719  0.0256  0.9995
 6001TIP3   OH217966   2.436   4.962   1.913  0.7300 -0.1219 -0.1854
 6001TIP3    H117967   2.401   4.873   1.922  1.4575 -0.3243  0.7125
 6001TIP3    H217968   2.362   5.019   1.935  0.3102 -0.4987 -0.5959
 6002TIP3   OH217969   5.403   1.281   2.968 -0.3886 -0.3400  0.7183
 6002TIP3    H117970   5.433   1.358   2.920 -1.0495 -0.6852 -0.2832
 6002TIP3    H217971   5.308   1.290   2.972 -0.6699 -1.9317 -0.9576
 6003TIP3   OH217972   6.704   1.158   1.486 -0.3187  0.2650 -0.2177
 6003TIP3    H117973   6.675   1.131   1.573 -0.8243 -0.1764 -0.5176
 6003TIP3    H217974   6.776   1.098   1.465  1.9070  2.3044  1.1499
 6004TIP3   OH217975   2.499   1.319   5.017  0.3362 -0.1623  0.4380
 6004TIP3    H117976   2.463   1.396   5.061  1.2403 -0.2467  1.3618
 6004TIP3    H217977   2.518   1.257   5.088  0.7996 -0.7351 -0.1738
 6005TIP3   OH217978   6.289   2.181   3.423  0.2722  0.2485  0.6208
 6005TIP3    H117979   6.363   2.213   3.370  1.7169 -2.2981  0.9578
 6005TIP3    H217980   6.237   2.130   3.362  0.4341 -0.4172  1.0346
 6006TIP3   OH217981   5.262   3.818   0.946  0.1688  0.2964  0.4039
 6006TIP3    H117982   5.195   3.805   0.879  0.7994 -0.0363 -0.1776
 6006TIP3    H217983   5.278   3.731   0.982  0.1076  0.4125  0.7124
 6007TIP3   OH217984   4.441   2.286   5.150  0.2474 -0.3217 -0.4094
 6007TIP3    H117985   4.393   2.367   5.168  1.1817 -0.3635  2.9485
 6007TIP3    H217986   4.372   2.220   5.144 -0.3794  0.1092  1.2074
 6008TIP3   OH217987   3.492   5.593   5.567 -0.5024 -0.4596  0.3740
 6008TIP3    H117988   3.536   5.544   5.637  1.9179  0.1443 -0.6154
 6008TIP3    H217989   3.461   5.525   5.506  0.2837 -0.8818  0.4332
 6009TIP3   OH217990   0.842   3.837   0.132  0.3743 -0.1482 -0.2522
 6009TIP3    H117991   0.884   3.751   0.127  1.3132  0.3452 -1.2554
 6009TIP3    H217992   0.779   3.838   0.060  1.6547  0.6369 -1.4188
 6010TIP3   OH217993   3.656   0.771   5.756 -0.1581  0.7548 -0.1386
 6010TIP3    H117994   3.745   0.807   5.756 -0.1929  0.9797  1.9930
 6010TIP3    H217995   3.600   0.848   5.766 -0.5176  0.5136 -0.3132
 6011TIP3   OH217996   5.556   5.235   2.790  0.0724 -0.1803  0.3298
 6011TIP3    H117997   5.540   5.250   2.884  0.3707 -1.2110  0.5583
 6011TIP3    H217998   5.494   5.293   2.746 -0.1891  0.1980  1.1645
 6012TIP3   OH217999   0.168   2.053   0.300 -0.3442  0.5609 -0.1516
 6012TIP3    H118000   0.219   1.972   0.302 -0.8634  0.1085 -2.6676
 6012TIP3    H218001   0.176   2.087   0.389 -0.0320 -2.1836  0.9867
 6013TIP3   OH218002   2.249   5.137   3.248  0.5268 -0.3728  0.3343
 6013TIP3    H118003   2.247   5.047   3.279 -0.6254 -0.2005  0.7927
 6013TIP3    H218004   2.293   5.132   3.163  0.0669 -1.4217  0.1498
 6014TIP3   OH218005   3.641   5.856   3.484  0.0928  0.5545  0.3467
 6014TIP3    H118006   3.622   5.866   3.391 -0.5026  2.6380  0.6591
 6014TIP3    H218007   3.557   5.874   3.528  0.6466  0.7695  1.3425
 6015TIP3   OH218008   5.323   1.582   1.081  0.0959 -0.0519 -0.1173
 6015TIP3    H118009   5.348   1.561   1.171  1.2632 -0.1835 -0.4550
 6015TIP3    H218010   5.328   1.677   1.076 -0.9233  0.0394  0.2024
 6016TIP3   OH218011   4.351   0.539   0.600 -0.0048 -0.0129 -0.2098
 6016TIP3    H118012   4.344   0.561   0.507 -0.6102  2.6099  0.3886
 6016TIP3    H218013   4.272   0.488   0.618  0.0316 -0.4029 -1.0787
 6017TIP3   OH218014   0.868   5.224   5.315 -0.6499  0.3487 -0.2213
 6017TIP3    H118015   0.853   5.294   5.379  2.2998 -1.1442  2.3126
 6017TIP3    H218016   0.939   5.257   5.260  1.5682 -0.9691  1.7211
 6018TIP3   OH218017   6.257   4.439   1.865 -0.4448  0.0745  0.2866
 6018TIP3    H118018   6.212   4.361   1.831 -0.0116 -0.2005  0.3265
 6018TIP3    H218019   6.340   4.441   1.818 -0.1241  0.0711  0.8342
 6019TIP3   OH218020   2.390   1.540   5.128 -0.7510  0.1872  1.0409
 6019TIP3    H118021   2.403   1.618   5.182 -1.2499 -0.5688  2.2951
 6019TIP3    H218022   2.321   1.564   5.066  0.2818  1.2802  0.2687
 6020TIP3   OH218023   3.472   4.659   1.374  0.2898  0.1724 -0.2274
 6020TIP3    H118024   3.557   4.676   1.416  0.6614 -1.6058 -0.2070
 6020TIP3    H218025   3.430   4.594   1.431 -0.0202 -0.8155 -1.5547
 6021TIP3   OH218026   4.906   1.813   3.503  0.1410 -0.1666 -0.3474
 6021TIP3    H118027   4.947   1.763   3.573  0.7215 -0.7759 -1.1134
 6021TIP3    H218028   4.816   1.826   3.534  0.5490  0.1214  0.7853
 6022TIP3   OH218029   0.924   0.790   5.541 -0.0620 -0.1070  0.1834
 6022TIP3    H118030   0.836   0.753   5.535 -0.0829 -0.0398  0.0765
 6022TIP3    H218031   0.949   0.779   5.633  0.6907 -2.1662 -0.2027
 6023TIP3   OH218032   0.572   1.642   0.079  0.4730 -0.3262 -0.1141
 6023TIP3    H118033   0.560   1.731   0.112  2.7801  0.2413 -0.5718
 6023TIP3    H218034   0.525   1.586   0.141 -0.8443  1.1743  0.2900
 6024TIP3   OH218035   7.162   1.091   3.420 -0.2201  0.0061 -0.2874
 6024TIP3    H118036   7.207   1.019   3.374  0.1249 -0.6185  0.9826
 6024TIP3    H218037   7.083   1.106   3.368  0.6946  0.1041 -1.7221
 6025TIP3   OH218038   1.712   4.135   3.770 -0.2336 -0.1529 -0.1402
 6025TIP3    H118039   1.774   4.119   3.842 -0.7253 -0.9006  0.1232
 6025TIP3    H218040   1.752   4.206   3.720  0.9785 -0.7975 -0.1284
 6026TIP3   OH218041   3.501   3.477   0.356 -0.0948 -0.3452 -0.2294
 6026TIP3    H118042   3.532   3.526   0.432  1.8855 -1.3084 -0.3327
 6026TIP3    H218043   3.466   3.544   0.297  1.8089  0.8973 -0.0415
 6027TIP3   OH218044   3.010   1.299   3.667 -0.4397  0.2755  0.1262
 6027TIP3    H118045   3.037   1.383   3.628  0.9603  0.6183  1.7296
 6027TIP3    H218046   3.018   1.313   3.761 -0.3052 -1.6240  0.4282
 6028TIP3   OH218047   7.189   5.661   4.502  0.1727 -0.0200  0.5563
 6028TIP3    H118048   7.095   5.662   4.521  0.3096 -2.3267  1.7317
 6028TIP3    H218049   7.228   5.611   4.575  2.4561  1.6276  0.5839
 6029TIP3   OH218050   0.660   0.044   5.567  0.0505 -0.2656 -0.1545
 6029TIP3    H118051   0.701  -0.012   5.632 -1.5177 -0.3815  0.7973
 6029TIP3    H218052   0.717   0.120   5.561  0.7760 -0.7331  0.5675
 6030TIP3   OH218053   1.810   3.575   0.932 -0.2576  0.2245 -0.3011
 6030TIP3    H118054   1.809   3.638   1.003  0.4562 -1.1220  0.9637
 6030TIP3    H218055   1.901   3.575   0.902  0.0522 -1.0896  0.5714
 6031TIP3   OH218056   6.416   5.169   1.885  0.6758 -0.2201  0.4011
 6031TIP3    H118057   6.331   5.175   1.929  1.1858  1.5382  1.2557
 6031TIP3    H218058   6.405   5.100   1.820 -1.3075 -0.2401  0.7044
 6032TIP3   OH218059   5.458   2.200   4.760 -0.0507 -0.1934  0.1994
 6032TIP3    H118060   5.482   2.292   4.760  1.1776 -0.4911 -0.0658
 6032TIP3    H218061   5.368   2.198   4.790 -0.5939  1.2187 -1.2143
 6033TIP3   OH218062   5.177   4.578   4.282  0.1229  0.3035  0.2642
 6033TIP3    H118063   5.135   4.525   4.350 -0.9966 -0.7580 -1.2180
 6033TIP3    H218064   5.200   4.516   4.213  1.1573  1.3725 -0.3990
 6034TIP3   OH218065   2.082   5.851   5.343 -0.5438  0.3035 -0.3399
 6034TIP3    H118066   2.096   5.943   5.367 -2.7315  0.8985 -1.1006
 6034TIP3    H218067   2.070   5.852   5.248 -0.7801 -0.7385 -0.3376
 6035TIP3   OH218068   3.638   1.437   0.652 -0.6689  0.2784 -0.4791
 6035TIP3    H118069   3.712   1.447   0.592  1.6013  0.7600  2.1700
 6035TIP3    H218070   3.624   1.342   0.657  1.5277 -0.0628  0.7958
 6036TIP3   OH218071   2.836   1.196   3.048 -0.2192  0.0925 -0.4001
 6036TIP3    H118072   2.778   1.267   3.019 -0.5623  0.0817  0.2389
 6036TIP3    H218073   2.841   1.138   2.972  0.4165  1.0120 -1.0870
 6037TIP3   OH218074   4.095   0.900   0.709 -0.0238 -0.1798  0.7079
 6037TIP3    H118075   4.169   0.958   0.729  2.3429 -2.2801 -1.1363
 6037TIP3    H218076   4.065   0.929   0.623  0.2509 -0.7759  0.4044
 6038TIP3   OH218077   3.443   6.289   2.506 -0.4901 -0.5130 -0.0423
 6038TIP3    H118078   3.357   6.296   2.465  0.4493 -0.4456 -2.1887
 6038TIP3    H218079   3.435   6.336   2.589 -2.0196  1.2035 -1.0799
 6039TIP3   OH218080   5.934   4.219   5.392  0.3818 -0.0896  0.0957
 6039TIP3    H118081   5.882   4.197   5.469 -1.6584 -0.5082 -1.3208
 6039TIP3    H218082   5.992   4.144   5.378 -1.1519 -1.2426 -0.3014
 6040TIP3   OH218083   6.828   0.509   2.182  0.1470 -0.1018 -0.5674
 6040TIP3    H118084   6.764   0.438   2.171 -0.9448  0.9465 -1.2938
 6040TIP3    H218085   6.806   0.547   2.268  1.7913 -1.6264  0.5815
 6041TIP3   OH218086   4.814   3.397   4.047 -0.0825 -0.0136  0.3337
 6041TIP3    H118087   4.725   3.373   4.022 -0.0542  0.5068 -0.2662
 6041TIP3    H218088   4.822   3.490   4.025  1.3080 -0.5518 -1.6899
 6042TIP3   OH218089   2.437   5.688   2.232 -0.4860 -0.2690  0.6327
 6042TIP3    H118090   2.526   5.682   2.197 -0.0375 -1.4607  1.8683
 6042TIP3    H218091   2.433   5.772   2.277 -0.1621  0.0199  0.1214
 6043TIP3   OH218092   7.128   4.101   0.017  0.0316  0.3190 -0.6401
 6043TIP3    H118093   7.220   4.126   0.024 -0.2071  1.0468  0.0035
 6043TIP3    H218094   7.083   4.180  -0.012 -0.5926  0.4071  0.4792
 6044TIP3   OH218095   3.924   0.151   2.113  0.1308  0.6007  0.3072
 6044TIP3    H118096   4.019   0.153   2.107  0.2939 -3.2705 -0.8793
 6044TIP3    H218097   3.895   0.154   2.021 -0.9043  1.4281  0.6418
 6045TIP3   OH218098   6.549   3.807   2.934  0.2000  0.6665 -0.1264
 6045TIP3    H118099   6.614   3.762   2.988  0.3393  1.3722  0.3014
 6045TIP3    H218100   6.600   3.862   2.876  0.1481 -1.3046 -2.1693
 6046TIP3   OH218101   4.058   6.447   4.924 -0.1408 -0.7799  0.3295
 6046TIP3    H118102   4.031   6.524   4.875  1.8818 -1.4651 -2.0937
 6046TIP3    H218103   4.119   6.480   4.990 -1.9319  0.0092  1.6675
 6047TIP3   OH218104   7.189   0.154   4.153 -0.0356 -0.3249 -0.2148
 6047TIP3    H118105   7.150   0.233   4.115 -1.3019  0.1074  1.8467
 6047TIP3    H218106   7.122   0.087   4.144  0.8118 -1.0619 -1.4080
 6048TIP3   OH218107   0.528   6.275   2.735  0.3031 -0.4995 -0.0641
 6048TIP3    H118108   0.594   6.333   2.697 -1.9322  1.1599 -1.6832
 6048TIP3    H218109   0.476   6.331   2.793 -2.4319 -0.4985 -2.3066
 6049TIP3   OH218110   2.389   6.169   5.471 -0.4676 -0.1277  0.2474
 6049TIP3    H118111   2.377   6.174   5.566 -1.5900 -0.6455  0.1532
 6049TIP3    H218112   2.300   6.169   5.436 -0.0579  0.9127 -0.8653
 6050TIP3   OH218113   1.894   3.861   0.923  0.0594 -0.0535  0.1228
 6050TIP3    H118114   1.913   3.832   1.012  0.1964  2.4790  0.9958
 6050TIP3    H218115   1.834   3.935   0.934 -0.7802 -0.3715 -1.9628
 6051TIP3   OH218116   6.418   5.652   0.059 -0.0411 -0.1060  0.3869
 6051TIP3    H118117   6.355   5.721   0.081 -0.5840 -0.0767 -1.0769
 6051TIP3    H218118   6.439   5.668  -0.034  0.0422 -1.7265  0.0933
 6052TIP3   OH218119   4.372   6.632   3.072  0.5007  0.4423 -0.0688
 6052TIP3    H118120   4.465   6.609   3.062 -0.2368 -2.7474 -0.7592
 6052TIP3    H218121   4.346   6.592   3.155 -0.7121 -0.6181 -0.9223
 6053TIP3   OH218122   1.465   2.946   2.468  0.4745 -0.3109  0.0822
 6053TIP3    H118123   1.421   2.910   2.391  1.8218 -1.3217 -0.2600
 6053TIP3    H218124   1.396   2.953   2.535 -0.6736  0.4176 -1.1366
 6054TIP3   OH218125   2.236   3.421   3.841  0.4626 -0.3239 -0.0178
 6054TIP3    H118126   2.305   3.397   3.780  0.5835  0.5242 -0.2220
 6054TIP3    H218127   2.162   3.446   3.786  0.6911  0.7997  0.1541
 6055TIP3   OH218128   3.471   0.304   2.983 -0.3725 -0.5405  0.4114
 6055TIP3    H118129   3.498   0.295   3.075  0.2144  0.1784  0.3202
 6055TIP3    H218130   3.553   0.295   2.934  0.1218  3.4214  0.2217
 6056TIP3   OH218131   3.690   4.791   3.785 -0.5532  0.4433  0.0025
 6056TIP3    H118132   3.694   4.789   3.880  0.1890 -1.1532 -0.0288
 6056TIP3    H218133   3.651   4.707   3.761  0.8412  0.0666 -1.1245
 6057TIP3   OH218134   3.192   6.622   3.310 -0.0278  0.2642  0.0408
 6057TIP3    H118135   3.118   6.574   3.272  1.0723 -1.6296  0.1690
 6057TIP3    H218136   3.267   6.564   3.297  1.3127  1.8124  0.5744
 6058TIP3   OH218137   3.677   6.188   0.238  0.7392  0.7754  0.0359
 6058TIP3    H118138   3.632   6.248   0.177 -0.0496  0.1671 -0.0013
 6058TIP3    H218139   3.761   6.231   0.256  1.0881  0.8648 -1.6515
 6059TIP3   OH218140   5.107   4.201   4.383 -0.1262  0.3144  0.2462
 6059TIP3    H118141   5.012   4.194   4.392 -0.0588 -0.7173  0.1932
 6059TIP3    H218142   5.140   4.113   4.398  0.7045  0.3313 -1.2516
 6060TIP3   OH218143   1.151   6.417   2.479  0.7523 -0.3110  0.2108
 6060TIP3    H118144   1.081   6.381   2.533  0.3613 -1.1957 -0.8589
 6060TIP3    H218145   1.226   6.423   2.538 -0.4622  1.6811  1.6818
 6061TIP3   OH218146   1.093   2.281   0.754  0.3701 -0.2500 -0.1873
 6061TIP3    H118147   1.062   2.234   0.832  0.1330 -1.6735 -1.1004
 6061TIP3    H218148   1.185   2.258   0.747  0.6986  0.8537  0.3366
 6062TIP3   OH218149   7.113   4.148   1.817 -0.0837  0.2340  0.7522
 6062TIP3    H118150   7.163   4.073   1.849  0.1679 -0.1696 -0.5386
 6062TIP3    H218151   7.172   4.223   1.830 -1.0011  0.5816  3.7354
 6063TIP3   OH218152   5.969   6.024   2.984  0.0615 -0.0284 -0.0632
 6063TIP3    H118153   5.939   5.958   3.046  0.1483 -0.7262 -0.7475
 6063TIP3    H218154   6.042   5.983   2.939 -2.3929 -1.1888 -3.4270
 6064TIP3   OH218155   5.287   0.140   5.855 -0.0703 -0.2542 -0.5806
 6064TIP3    H118156   5.380   0.131   5.876  0.1409 -1.1970 -1.7870
 6064TIP3    H218157   5.244   0.150   5.940  0.9755 -1.4100  0.1174
 6065TIP3   OH218158   4.597   4.194   3.716  0.1443 -0.0628 -0.5490
 6065TIP3    H118159   4.547   4.264   3.675  2.1343  0.5269 -2.1513
 6065TIP3    H218160   4.671   4.238   3.757  0.7665 -1.0982 -0.5093
 6066TIP3   OH218161   4.184   5.743   4.835  0.1426 -0.1486 -0.2701
 6066TIP3    H118162   4.091   5.734   4.813  0.3752  0.6970 -1.7323
 6066TIP3    H218163   4.207   5.659   4.874 -1.2855 -0.2852  0.3331
 6067TIP3   OH218164   0.120   6.133   3.508  0.3161  0.0046  0.4400
 6067TIP3    H118165   0.112   6.184   3.589  0.7548 -0.2680  0.6544
 6067TIP3    H218166   0.196   6.077   3.521 -0.2155 -0.7807  0.2366
 6068TIP3   OH218167   3.410   5.254   3.418 -0.4369  0.4889 -0.0916
 6068TIP3    H118168   3.499   5.283   3.402 -0.0937 -0.4272  0.1041
 6068TIP3    H218169   3.371   5.324   3.471  0.1297  0.9369 -0.2646
 6069TIP3   OH218170   5.785   6.198   2.436  0.3966 -0.8150 -0.4942
 6069TIP3    H118171   5.722   6.145   2.484  2.0375 -2.1704  0.2489
 6069TIP3    H218172   5.798   6.151   2.353 -0.6110  0.2450 -1.3028
 6070TIP3   OH218173   4.470   4.218   4.625  0.0295  0.3355 -0.2126
 6070TIP3    H118174   4.458   4.124   4.623  2.0442  0.0294 -1.2220
 6070TIP3    H218175   4.425   4.250   4.546 -0.7764  0.2574  0.2065
 6071TIP3   OH218176   4.981   3.807   4.276 -0.2034  0.5436  0.0569
 6071TIP3    H118177   5.006   3.830   4.366 -0.4356 -0.6527  0.4416
 6071TIP3    H218178   4.904   3.752   4.286  0.4302 -0.5246 -0.8156
 6072TIP3   OH218179   3.901   5.161   0.080 -0.6225 -0.4387  0.1317
 6072TIP3    H118180   3.904   5.227   0.149  1.1024 -1.5692  1.2023
 6072TIP3    H218181   3.816   5.174   0.038  0.0751  3.2272 -0.5014
 6073TIP3   OH218182   3.158   3.914   2.308  0.2394  0.5562 -0.1949
 6073TIP3    H118183   3.099   3.839   2.319  0.8141  0.1252  0.0666
 6073TIP3    H218184   3.171   3.921   2.214  0.4110  0.1304 -0.2089
 6074TIP3   OH218185   3.467   4.882   2.448  0.0259  0.2052 -0.0925
 6074TIP3    H118186   3.522   4.955   2.419 -0.6821  0.8298  0.1058
 6074TIP3    H218187   3.400   4.922   2.503 -0.5065 -0.5641 -0.1559
 6075TIP3   OH218188   0.078   0.660   3.497 -0.3959 -0.6750 -0.1198
 6075TIP3    H118189   0.171   0.639   3.492  0.0814  0.7823  1.6903
 6075TIP3    H218190   0.063   0.681   3.589 -2.2768  0.2119 -0.5779
 6076TIP3   OH218191   2.551   2.768   4.351  0.4844  0.5861 -0.3459
 6076TIP3    H118192   2.639   2.783   4.316  1.0832 -3.2735 -0.9344
 6076TIP3    H218193   2.561   2.779   4.446  1.8419 -0.5296 -0.3282
 6077TIP3   OH218194   3.538   4.027   1.810 -0.1136  0.0829  0.4184
 6077TIP3    H118195   3.528   4.019   1.904 -1.4334  0.4018  0.3242
 6077TIP3    H218196   3.621   4.073   1.798  0.3797 -0.5358  1.3868
 6078TIP3   OH218197   1.755   3.981   0.431 -0.1146 -0.2088  0.1371
 6078TIP3    H118198   1.750   4.025   0.516  0.3581  1.1774 -0.5405
 6078TIP3    H218199   1.829   3.920   0.440  1.0334  1.1416  0.1977
 6079TIP3   OH218200   6.451   2.494   2.724  0.4956 -0.1357  0.0425
 6079TIP3    H118201   6.544   2.516   2.729  0.0530  2.0702 -0.2056
 6079TIP3    H218202   6.424   2.523   2.637 -0.7498  0.7905  0.6996
 6080TIP3   OH218203   5.794   1.270   1.434 -0.0752  0.1994  0.2684
 6080TIP3    H118204   5.701   1.252   1.444 -0.4066 -0.5211 -3.0546
 6080TIP3    H218205   5.815   1.328   1.507 -3.2164  0.7747  0.8564
 6081TIP3   OH218206   1.996   3.866   3.850 -0.3559  0.6054  0.2587
 6081TIP3    H118207   2.005   3.958   3.826  1.2367  0.1176 -1.3195
 6081TIP3    H218208   1.948   3.827   3.776  0.6315 -0.1402 -0.0131
 6082TIP3   OH218209   0.403   0.042   5.632 -0.0646  0.6078  0.2470
 6082TIP3    H118210   0.496   0.068   5.627 -0.7196  3.0311 -1.5294
 6082TIP3    H218211   0.374   0.042   5.541 -1.5975 -1.1448  0.6930
 6083TIP3   OH218212   0.106   5.894   4.552 -0.7202 -0.3154 -0.2615
 6083TIP3    H118213   0.069   5.809   4.529 -1.1753 -0.3666  0.6279
 6083TIP3    H218214   0.196   5.874   4.580 -1.2501 -0.7207  1.2850
 6084TIP3   OH218215   3.287   4.246   1.048  0.2405 -0.3671 -0.6208
 6084TIP3    H118216   3.205   4.248   1.097  0.1582  0.4276 -0.7737
 6084TIP3    H218217   3.268   4.192   0.972  0.2900 -1.3776  0.0723
 6085TIP3   OH218218   3.370   1.838   0.859  0.0494  0.2732  0.4635
 6085TIP3    H118219   3.426   1.909   0.828  1.0983  0.7928  3.2726
 6085TIP3    H218220   3.427   1.761   0.862 -0.9020 -0.6265 -1.8753
 6086TIP3   OH218221   4.930   2.951   0.510 -0.5306  0.0195 -0.2756
 6086TIP3    H118222   4.955   2.965   0.419 -3.5194 -0.1229 -1.2202
 6086TIP3    H218223   4.889   3.033   0.537 -2.6563 -0.9925 -0.2222
 6087TIP3   OH218224   3.604   0.446   5.195  0.4794 -0.0822 -0.3874
 6087TIP3    H118225   3.636   0.418   5.280 -2.9669 -2.4962  0.3428
 6087TIP3    H218226   3.558   0.528   5.212 -1.5244 -1.3166  0.5409
 6088TIP3   OH218227   3.518   2.163   2.457  0.1856 -0.2549  0.3671
 6088TIP3    H118228   3.435   2.207   2.474  0.5010  0.2599  0.6367
 6088TIP3    H218229   3.496   2.089   2.401 -0.6298 -0.8512  1.4421
 6089TIP3   OH218230   3.695   6.600   3.074 -0.0204 -0.2253  0.0745
 6089TIP3    H118231   3.786   6.623   3.058 -0.4959  1.1701 -0.8504
 6089TIP3    H218232   3.645   6.669   3.031 -1.5179 -0.6664  1.0177
 6090TIP3   OH218233   0.730   6.314   1.754 -0.2187 -0.3400 -0.0871
 6090TIP3    H118234   0.709   6.240   1.810 -0.8713  0.7598  1.1833
 6090TIP3    H218235   0.824   6.304   1.735 -0.4418 -1.8210 -0.4968
 6091TIP3   OH218236   3.727   5.873   1.030  0.0378  0.1793 -0.1337
 6091TIP3    H118237   3.683   5.804   0.980  0.3558 -0.1890  0.0908
 6091TIP3    H218238   3.816   5.840   1.042  0.3531  0.8776 -0.5055
 6092TIP3   OH218239   1.171   5.364   4.020  0.3852 -0.0861  0.0401
 6092TIP3    H118240   1.226   5.430   3.978  0.4780  1.0028  1.7640
 6092TIP3    H218241   1.081   5.391   3.999  0.3413  1.6993  2.1381
 6093TIP3   OH218242   6.182   3.486   4.974 -0.3685 -0.9723 -0.0558
 6093TIP3    H118243   6.156   3.465   5.064 -1.6847 -1.3428 -0.5096
 6093TIP3    H218244   6.223   3.406   4.942  1.7097 -0.3170  0.7349
 6094TIP3   OH218245   1.263   4.200   2.472 -0.3618 -0.4021  0.0652
 6094TIP3    H118246   1.288   4.257   2.399 -2.7103 -0.4281 -0.8695
 6094TIP3    H218247   1.245   4.115   2.430  1.4630 -1.3972  1.1976
 6095TIP3   OH218248   6.492   6.186   1.944 -0.0396  0.0558  0.1002
 6095TIP3    H118249   6.558   6.231   1.997  0.1296 -1.4656  1.2557
 6095TIP3    H218250   6.409   6.205   1.987  0.0353 -0.7206  0.6065
 6096TIP3   OH218251   0.331   3.391   0.861 -0.2983  0.8042  0.1738
 6096TIP3    H118252   0.384   3.367   0.937 -0.3580 -1.1586 -0.3388
 6096TIP3    H218253   0.302   3.307   0.825  0.2608  1.6008 -2.3742
 6097TIP3   OH218254   3.316   3.644   1.181 -0.2101  0.8135  0.1017
 6097TIP3    H118255   3.361   3.648   1.265  1.2504  0.7324 -0.6465
 6097TIP3    H218256   3.252   3.574   1.192  0.4570  0.3050  0.9240
 6098TIP3   OH218257   3.307   4.077   3.106  0.1105 -0.2765  0.0377
 6098TIP3    H118258   3.243   4.020   3.063 -0.2290 -0.5293  0.8701
 6098TIP3    H218259   3.387   4.064   3.056 -0.0950 -1.1022 -0.0962
 6099TIP3   OH218260   0.583   4.415   1.040  0.0225  0.3581  0.5143
 6099TIP3    H118261   0.527   4.366   0.980 -6.3528  4.3823  2.1245
 6099TIP3    H218262   0.638   4.468   0.983 -0.8082 -0.7953 -1.4898
 6100TIP3   OH218263   2.182   2.230   4.486  0.5871 -0.3079 -0.1153
 6100TIP3    H118264   2.143   2.261   4.404  2.3412  0.0824 -0.8418
 6100TIP3    H218265   2.149   2.290   4.553  1.0040  0.8482 -0.9253
 6101TIP3   OH218266   4.683   0.950   5.711 -0.2200 -0.3971 -0.8300
 6101TIP3    H118267   4.625   0.990   5.776  0.2752 -0.4872 -0.3156
 6101TIP3    H218268   4.627   0.933   5.635 -0.8551 -0.4592 -0.3575
 6102TIP3   OH218269   6.597   4.314   3.470 -0.0668 -0.0416  0.1695
 6102TIP3    H118270   6.646   4.237   3.496 -0.0372  0.3199  1.2193
 6102TIP3    H218271   6.607   4.318   3.375  2.6903  0.5466  0.4240
 6103TIP3   OH218272   6.959   4.602   1.118  0.1609  0.5372 -0.0181
 6103TIP3    H118273   6.907   4.571   1.192  0.3740  2.0649  0.8148
 6103TIP3    H218274   7.026   4.658   1.157  1.3194  0.0680 -1.2349
 6104TIP3   OH218275   6.868   6.531   1.932  0.2005  0.7002  0.7312
 6104TIP3    H118276   6.915   6.469   1.876 -1.1849  0.4456 -0.2214
 6104TIP3    H218277   6.898   6.617   1.903  0.5623  0.5273  0.5899
 6105TIP3   OH218278   1.296   4.558   3.460  0.1586 -0.0170 -0.5085
 6105TIP3    H118279   1.217   4.612   3.467  0.1779 -0.0408 -0.0842
 6105TIP3    H218280   1.300   4.533   3.368  0.4654  1.1982 -0.8412
 6106TIP3   OH218281   0.422   3.778   0.210  0.4715  0.1841  0.3837
 6106TIP3    H118282   0.379   3.816   0.286  1.3174  0.8042  0.5727
 6106TIP3    H218283   0.457   3.853   0.162  0.7896 -0.2599 -0.0963
 6107TIP3   OH218284   0.505   4.419   0.696 -0.0642  0.3611 -0.2446
 6107TIP3    H118285   0.459   4.359   0.755  1.9695 -1.8867 -0.7934
 6107TIP3    H218286   0.437   4.453   0.638 -1.8026  1.1285  2.0695
 6108TIP3   OH218287   1.661   5.886   1.733 -0.2575  0.1374 -0.0798
 6108TIP3    H118288   1.594   5.944   1.770 -0.7358 -0.3536 -0.1719
 6108TIP3    H218289   1.612   5.820   1.684  0.3357  0.2619 -0.8568
 6109TIP3   OH218290   7.050   4.952   0.904 -0.3953  0.3881  0.0995
 6109TIP3    H118291   7.043   5.013   0.831 -0.4852 -0.1144 -0.3102
 6109TIP3    H218292   7.093   5.003   0.973  0.2370  0.6873 -0.5017
 6110TIP3   OH218293   4.628   1.607   2.014  0.2254  0.0974  0.5391
 6110TIP3    H118294   4.647   1.566   2.099 -0.2435 -2.7019 -0.5950
 6110TIP3    H218295   4.554   1.665   2.031  0.2182 -0.3242  2.0759
 6111TIP3   OH218296   1.564   6.024   2.308 -0.8062  0.7974  0.1122
 6111TIP3    H118297   1.621   5.957   2.346  0.7911  1.9159 -0.2059
 6111TIP3    H218298   1.514   5.977   2.241  0.5179 -0.0287 -0.3453
 6112TIP3   OH218299   2.484   6.265   0.828 -0.3822 -0.4112 -0.6311
 6112TIP3    H118300   2.460   6.255   0.736 -0.3238  0.0963 -0.7041
 6112TIP3    H218301   2.403   6.295   0.870  0.2556  2.0257 -1.0048
 6113TIP3   OH218302   5.660   4.417   3.006 -0.0687 -0.4108  0.3784
 6113TIP3    H118303   5.569   4.390   2.988 -0.6234  0.2810  1.9656
 6113TIP3    H218304   5.712   4.365   2.945 -1.4009 -2.0951  0.5751
 6114TIP3   OH218305   6.448   1.295   4.136 -0.2531  0.7436 -0.0532
 6114TIP3    H118306   6.399   1.214   4.122 -1.0270  1.3537 -0.9791
 6114TIP3    H218307   6.521   1.290   4.074 -1.1067  1.3826 -1.1364
 6115TIP3   OH218308   1.797   5.244   2.382  0.1328  0.3891 -0.1759
 6115TIP3    H118309   1.779   5.297   2.304  1.3955  4.0321  1.7707
 6115TIP3    H218310   1.892   5.238   2.385  0.0955  0.3055  1.0472
 6116TIP3   OH218311   3.169   0.362   2.505 -0.0551  0.3671 -0.2748
 6116TIP3    H118312   3.135   0.291   2.451  0.0827 -1.3925  1.8128
 6116TIP3    H218313   3.253   0.386   2.464 -0.0976 -0.6800 -1.0114
 6117TIP3   OH218314   2.212   0.507   4.318 -0.2407  0.2506  0.3063
 6117TIP3    H118315   2.118   0.501   4.302 -0.1181  1.8871 -1.4884
 6117TIP3    H218316   2.237   0.422   4.353 -2.2403 -0.5177 -0.0346
 6118TIP3   OH218317   1.310   1.675   1.072  0.5796 -0.0172  0.0952
 6118TIP3    H118318   1.227   1.627   1.071  0.6400 -0.1185 -1.1882
 6118TIP3    H218319   1.362   1.631   1.140  0.2155 -1.0468 -0.2763
 6119TIP3   OH218320   0.815   3.059   4.368  0.5107 -0.0145 -0.1842
 6119TIP3    H118321   0.790   2.985   4.314 -0.8710 -0.3988  0.9070
 6119TIP3    H218322   0.733   3.108   4.382  0.4769 -0.6795  2.5973
 6120TIP3   OH218323   0.524   0.736   0.132 -0.7895 -0.1353  0.0983
 6120TIP3    H118324   0.436   0.704   0.152 -0.6494 -0.2437  0.5588
 6120TIP3    H218325   0.568   0.739   0.217 -0.7544  1.1829  0.0504
 6121TIP3   OH218326   2.978   4.680   5.193  0.0224  0.2624  0.5752
 6121TIP3    H118327   2.913   4.612   5.214 -1.7487  1.4691 -0.7165
 6121TIP3    H218328   2.977   4.738   5.268  0.1792 -0.1235  0.8818
 6122TIP3   OH218329   2.862   4.298   3.643 -0.4430 -0.1407  0.2996
 6122TIP3    H118330   2.784   4.281   3.590  0.8460 -1.0636 -1.4226
 6122TIP3    H218331   2.897   4.380   3.608  0.1172 -0.4677  0.0913
 6123TIP3   OH218332   7.187   4.699   3.398 -0.3212 -0.2633  0.5291
 6123TIP3    H118333   7.098   4.669   3.413 -0.3394  0.0549  1.1069
 6123TIP3    H218334   7.185   4.792   3.420 -0.3390  0.2514 -1.5088
 6124TIP3   OH218335   5.444   4.409   0.258 -0.2765 -0.6780 -0.5825
 6124TIP3    H118336   5.379   4.447   0.317  0.1515  1.9683 -1.6764
 6124TIP3    H218337   5.404   4.327   0.228 -1.4170 -1.0259  1.6503
 6125TIP3   OH218338   5.480   0.995   4.180  0.3272 -0.1292 -0.3194
 6125TIP3    H118339   5.557   0.943   4.202 -0.0902 -0.4648  0.3770
 6125TIP3    H218340   5.408   0.952   4.225  0.0062  1.1724  0.4644
 6126TIP3   OH218341   6.242   0.390   1.494  0.4833  0.6664  0.1061
 6126TIP3    H118342   6.336   0.400   1.475  0.5122  1.2358  0.5386
 6126TIP3    H218343   6.239   0.352   1.582  0.3208 -0.7488 -0.4713
 6127TIP3   OH218344   3.847   3.819   1.747  0.2648  0.3314  0.6837
 6127TIP3    H118345   3.794   3.898   1.739  1.1765  0.9557  0.7905
 6127TIP3    H218346   3.821   3.766   1.671 -0.4494  0.6610  0.6870
 6128TIP3   OH218347   1.512   3.189   1.166  0.2697  0.1703  0.5585
 6128TIP3    H118348   1.508   3.278   1.200  3.0981 -0.1142  1.9617
 6128TIP3    H218349   1.513   3.199   1.071  0.5575  1.6231  0.6956
 6129TIP3   OH218350   4.137   0.923   4.190  0.1103  0.0499  0.0504
 6129TIP3    H118351   4.099   0.957   4.271  0.0207 -0.2299  0.1278
 6129TIP3    H218352   4.064   0.918   4.129 -0.4432 -2.4067  0.8094
 6130TIP3   OH218353   2.308   4.828   3.320 -0.4929  0.6802 -0.2530
 6130TIP3    H118354   2.290   4.809   3.412 -1.8635  1.0942 -0.4183
 6130TIP3    H218355   2.387   4.778   3.300 -1.2247 -0.9084  0.6570
 6131TIP3   OH218356   2.907   0.775   2.083  0.0540  0.0399 -0.3241
 6131TIP3    H118357   2.835   0.747   2.026 -1.1130  0.3326  0.9479
 6131TIP3    H218358   2.959   0.696   2.097 -1.9758 -1.0755  1.4862
 6132TIP3   OH218359   3.838   3.889   3.065 -0.2532  0.2946 -0.7009
 6132TIP3    H118360   3.857   3.799   3.092  0.6942  0.5137 -0.6247
 6132TIP3    H218361   3.822   3.935   3.147  0.6167  0.4977 -0.6351
 6133TIP3   OH218362   6.507   5.480   5.846 -0.2861  0.4252 -0.6910
 6133TIP3    H118363   6.439   5.420   5.816 -1.2819  0.6281  1.0131
 6133TIP3    H218364   6.576   5.473   5.780 -1.7401 -0.1384 -2.2453
 6134TIP3   OH218365   3.502   0.437   0.198 -0.2158 -0.3613  0.5772
 6134TIP3    H118366   3.496   0.416   0.105 -0.0337  0.3347  0.4048
 6134TIP3    H218367   3.593   0.419   0.221  0.0203  0.5195  0.3550
 6135TIP3   OH218368   1.478   6.193   0.028  0.1489  0.0762  0.5587
 6135TIP3    H118369   1.549   6.183  -0.036 -0.0580  0.4658  0.2661
 6135TIP3    H218370   1.500   6.130   0.097  0.5027 -0.1783  0.2232
 6136TIP3   OH218371   1.358   1.880   2.018  0.3561  0.1018  0.1306
 6136TIP3    H118372   1.287   1.941   1.999 -0.4538 -0.8563 -0.0402
 6136TIP3    H218373   1.401   1.866   1.934  0.0943 -0.1032  0.0296
 6137TIP3   OH218374   1.320   6.052   1.485 -0.1943  0.2418 -0.2947
 6137TIP3    H118375   1.372   6.075   1.407 -1.5181  0.8812 -1.0242
 6137TIP3    H218376   1.272   5.973   1.459  0.8090 -0.6800  0.5751
 6138TIP3   OH218377   0.605   5.386   3.800 -0.1064  0.7163  0.1596
 6138TIP3    H118378   0.552   5.361   3.876  0.3671  1.9877  0.9390
 6138TIP3    H218379   0.554   5.357   3.725  0.2356 -2.2382  0.9310
 6139TIP3   OH218380   6.270   2.481   5.702 -0.1147 -0.0951 -0.1790
 6139TIP3    H118381   6.259   2.552   5.638 -0.2971 -0.6008 -0.7208
 6139TIP3    H218382   6.349   2.505   5.750 -0.2604  0.5536 -0.2465
 6140TIP3   OH218383   2.836   3.653   3.265  0.1609  0.8326 -0.1632
 6140TIP3    H118384   2.914   3.649   3.209 -0.2412  0.8193 -0.7294
 6140TIP3    H218385   2.856   3.722   3.329  1.3592 -0.3670  0.8143
 6141TIP3   OH218386   1.671   5.076   1.510 -0.4471  0.3194 -0.6313
 6141TIP3    H118387   1.598   5.088   1.571 -1.1705 -2.8540 -0.7038
 6141TIP3    H218388   1.746   5.114   1.556 -1.3312 -0.2513  1.4183
 6142TIP3   OH218389   3.338   6.494   3.015 -0.0104  0.0559  0.2757
 6142TIP3    H118390   3.347   6.449   3.099  1.3281  0.2236  0.2444
 6142TIP3    H218391   3.273   6.443   2.967 -2.0826  0.9068  2.0180
 6143TIP3   OH218392   1.410   4.331   2.271 -0.4499 -0.3481 -0.3398
 6143TIP3    H118393   1.364   4.415   2.265 -0.7171 -0.4922 -0.2989
 6143TIP3    H218394   1.451   4.321   2.184 -0.3698 -0.1516 -0.3270
 6144TIP3   OH218395   4.359   3.021   0.316  0.6452  0.2816 -0.0968
 6144TIP3    H118396   4.326   3.078   0.247 -0.4730 -0.7723 -0.4665
 6144TIP3    H218397   4.330   3.062   0.397 -0.1727  0.2455 -0.3631
 6145TIP3   OH218398   5.659   2.296   2.903  0.4698  0.2888 -0.2302
 6145TIP3    H118399   5.723   2.228   2.881 -0.6367 -1.8683  2.5510
 6145TIP3    H218400   5.577   2.264   2.866  0.4337  1.6407 -1.3897
 6146TIP3   OH218401   5.068   3.754   1.780  0.9197 -0.5275 -0.1948
 6146TIP3    H118402   5.162   3.762   1.761  1.1116 -4.4273 -1.8015
 6146TIP3    H218403   5.061   3.675   1.834 -1.3717  0.7298  1.5629
 6147TIP3   OH218404   3.450   4.023   5.521  0.3385  0.4598 -0.1004
 6147TIP3    H118405   3.387   4.092   5.544 -0.1056  0.3770 -1.0199
 6147TIP3    H218406   3.521   4.034   5.584  0.0909  1.5054  0.0250
 6148TIP3   OH218407   2.693   2.009   4.033 -0.1733 -0.7987  0.0613
 6148TIP3    H118408   2.678   1.953   4.109 -1.2425 -1.1750 -0.4046
 6148TIP3    H218409   2.615   2.064   4.027  1.4208  1.8113  1.3300
 6149TIP3   OH218410   3.945   5.415   5.723 -0.3237 -0.6098 -0.1234
 6149TIP3    H118411   3.910   5.476   5.788 -0.8217 -1.9558  0.9286
 6149TIP3    H218412   3.894   5.433   5.644  0.3056  1.0625 -0.1898
 6150TIP3   OH218413   0.441   3.409   4.736 -0.1289  0.0302  0.1736
 6150TIP3    H118414   0.414   3.325   4.697 -2.8125  0.6845  0.4289
 6150TIP3    H218415   0.531   3.422   4.705 -0.8953 -1.1690 -2.8952
 6151TIP3   OH218416   3.885   2.724   5.800 -0.2895  0.7973  0.4989
 6151TIP3    H118417   3.893   2.813   5.766  3.2078 -0.2731 -2.0601
 6151TIP3    H218418   3.920   2.729   5.889  1.2511  1.7644 -0.1357
 6152TIP3   OH218419   0.374   1.270   4.852  0.3388 -0.1090 -0.5905
 6152TIP3    H118420   0.458   1.231   4.831 -0.2204 -0.9545 -1.3725
 6152TIP3    H218421   0.310   1.213   4.808 -0.6479  0.3723  0.1838
 6153TIP3   OH218422   6.537   4.895   3.545  0.1043 -0.4955 -0.1077
 6153TIP3    H118423   6.545   4.975   3.597 -0.4087 -0.8276  0.4956
 6153TIP3    H218424   6.605   4.837   3.580 -0.2785 -0.7404  0.2367
 6154TIP3   OH218425   2.813   2.098   3.645  0.6896 -0.9002  0.2466
 6154TIP3    H118426   2.719   2.089   3.660 -0.0842  3.7518 -0.4563
 6154TIP3    H218427   2.853   2.056   3.721 -2.2255  1.3356  3.3405
 6155TIP3   OH218428   4.693   1.682   1.632 -0.6424 -0.3093  0.2234
 6155TIP3    H118429   4.627   1.613   1.641 -0.0319 -1.1063 -1.0731
 6155TIP3    H218430   4.748   1.673   1.710 -2.8017  1.2871  2.0829
 6156TIP3   OH218431   0.613   2.546   3.905 -0.2558 -0.2289 -0.2378
 6156TIP3    H118432   0.676   2.527   3.975  1.5240  0.7953 -1.4705
 6156TIP3    H218433   0.619   2.640   3.893 -4.0723  0.3899  1.3556
 6157TIP3   OH218434   0.133   5.349   1.443 -0.3180  0.5949 -0.1751
 6157TIP3    H118435   0.079   5.378   1.369 -0.9506 -1.5627 -0.6385
 6157TIP3    H218436   0.071   5.305   1.502  0.7584 -1.1755 -0.2969
 6158TIP3   OH218437   3.515   5.405   0.619 -0.1631 -0.0361  0.4394
 6158TIP3    H118438   3.542   5.317   0.645  0.1867  0.4913  1.9921
 6158TIP3    H218439   3.535   5.409   0.525  1.3373 -1.0631  0.6664
 6159TIP3   OH218440   3.734   5.125   3.565 -0.7744  0.2048 -0.1762
 6159TIP3    H118441   3.769   5.164   3.645 -2.6697 -0.4945  1.0613
 6159TIP3    H218442   3.709   5.200   3.511  4.4043  0.8698 -2.1747
 6160TIP3   OH218443   5.685   0.502   3.164  0.0222  0.2752 -0.1161
 6160TIP3    H118444   5.610   0.521   3.109  0.4334  0.8399 -0.4971
 6160TIP3    H218445   5.647   0.472   3.247 -0.5960 -0.5064 -0.6709
 6161TIP3   OH218446   3.838   2.971   3.030 -0.9008 -0.2541  0.3088
 6161TIP3    H118447   3.904   3.033   2.999 -0.8435 -1.0287 -1.1850
 6161TIP3    H218448   3.878   2.885   3.017 -1.8247 -0.6957  0.3262
 6162TIP3   OH218449   5.689   0.841   3.441  0.0390  0.4374 -0.2702
 6162TIP3    H118450   5.714   0.889   3.520 -2.7909  0.1881  0.8793
 6162TIP3    H218451   5.634   0.901   3.392 -0.6870 -0.4413 -0.5596
 6163TIP3   OH218452   1.948   0.882   3.106  0.5853  0.2410 -0.7360
 6163TIP3    H118453   1.993   0.827   3.043  0.6595  1.4106 -1.7323
 6163TIP3    H218454   1.975   0.848   3.191  3.0325  0.6189 -1.2790
 6164TIP3   OH218455   6.367   3.615   1.782 -0.5912 -0.5441 -0.1651
 6164TIP3    H118456   6.383   3.550   1.713  3.5671  0.3188 -0.3225
 6164TIP3    H218457   6.343   3.694   1.734  1.9776 -0.0326 -0.7890
 6165TIP3   OH218458   6.213   0.995   2.918 -0.3273  0.2517 -0.3246
 6165TIP3    H118459   6.241   1.080   2.883  0.0779  0.6655  0.9765
 6165TIP3    H218460   6.292   0.957   2.956  0.2067 -2.0168 -3.2773
 6166TIP3   OH218461   4.662   2.682   4.740  0.4773 -0.2918 -0.5716
 6166TIP3    H118462   4.652   2.623   4.666  0.5963  0.5036 -1.2313
 6166TIP3    H218463   4.699   2.762   4.703  0.6761  0.0713  0.3670
 6167TIP3   OH218464   5.937   0.256   0.232 -0.2052 -0.1419 -0.3869
 6167TIP3    H118465   5.843   0.262   0.214 -0.4832 -2.2940  0.0469
 6167TIP3    H218466   5.966   0.179   0.183  1.3167  0.3689 -0.3498
 6168TIP3   OH218467   6.418   4.001   4.338 -0.2544  0.1740 -0.5999
 6168TIP3    H118468   6.371   3.975   4.258 -0.2155  0.2787 -0.6578
 6168TIP3    H218469   6.438   4.094   4.324  2.2478 -0.4567 -1.7209
 6169TIP3   OH218470   1.959   4.395   5.619 -0.6728 -0.1819  0.6702
 6169TIP3    H118471   1.961   4.404   5.524  2.3320  1.1172  0.7601
 6169TIP3    H218472   1.980   4.303   5.634  1.1266  0.1014  0.0633
 6170TIP3   OH218473   3.384   1.258   3.122  0.0326  0.5981  0.6788
 6170TIP3    H118474   3.339   1.281   3.204 -0.7224 -0.1511  0.4860
 6170TIP3    H218475   3.476   1.278   3.140  0.0183 -0.3715  2.0320
 6171TIP3   OH218476   2.212   5.930   2.375 -0.3517 -0.3707  0.7179
 6171TIP3    H118477   2.246   5.999   2.317 -1.2653 -2.4834 -2.6470
 6171TIP3    H218478   2.250   5.949   2.461  0.4224  3.5217 -0.3165
 6172TIP3   OH218479   3.330   6.683   1.252 -0.3406 -0.5560 -0.4382
 6172TIP3    H118480   3.399   6.664   1.189 -2.1095 -1.7285 -2.1463
 6172TIP3    H218481   3.351   6.628   1.328  0.0213 -1.7465 -1.3747
 6173TIP3   OH218482   0.528   3.993   3.538  0.4771 -0.6208  0.1212
 6173TIP3    H118483   0.546   3.960   3.450 -3.9385 -0.9575 -0.8663
 6173TIP3    H218484   0.528   3.916   3.594 -0.7798 -1.0346 -0.4243
 6174TIP3   OH218485   4.692   4.746   0.678  0.2911 -0.6292  0.3213
 6174TIP3    H118486   4.763   4.808   0.698  0.3956 -0.6977  0.1639
 6174TIP3    H218487   4.670   4.708   0.763 -1.0364  0.9532  0.7474
 6175TIP3   OH218488   6.561   4.909   4.849 -0.1323  0.2464  0.1766
 6175TIP3    H118489   6.477   4.917   4.895 -0.1519  0.1927  0.1511
 6175TIP3    H218490   6.619   4.867   4.912  0.2435  1.4318  0.6446
 6176TIP3   OH218491   7.146   0.484   3.028  0.0282 -0.0557 -0.1353
 6176TIP3    H118492   7.147   0.476   3.123 -0.0534  0.2257 -0.1117
 6176TIP3    H218493   7.189   0.404   2.997  1.0899  0.3888  0.1662
 6177TIP3   OH218494   5.814   1.718   5.007  0.1309 -0.1954 -0.3435
 6177TIP3    H118495   5.853   1.667   4.936 -0.2268 -1.5854  0.4325
 6177TIP3    H218496   5.862   1.801   5.005  2.6479 -1.5221  0.0580
 6178TIP3   OH218497   5.290   3.291   3.416  0.3260 -0.1513  0.3715
 6178TIP3    H118498   5.273   3.197   3.422 -0.5001 -0.0890 -0.6602
 6178TIP3    H218499   5.358   3.307   3.481  1.0625 -1.6053  0.0066
 6179TIP3   OH218500   4.220   0.092   2.317 -0.2591  0.3078  0.0397
 6179TIP3    H118501   4.271   0.039   2.378 -2.0417  0.0719  1.4033
 6179TIP3    H218502   4.160   0.030   2.276 -0.6699  0.8626 -0.2065
 6180TIP3   OH218503   6.243   0.173   2.745  0.0144 -0.0590  0.2566
 6180TIP3    H118504   6.182   0.099   2.740  1.0509 -0.9160 -0.1023
 6180TIP3    H218505   6.264   0.192   2.653 -1.1277  1.4584  0.2819
 6181TIP3   OH218506   6.469   4.634   5.188  0.4948  0.4309 -0.0691
 6181TIP3    H118507   6.381   4.633   5.151  0.1434  2.1819  0.6418
 6181TIP3    H218508   6.467   4.567   5.257 -0.1855  0.2843 -0.2247
 6182TIP3   OH218509   2.159   4.434   1.599  0.3938 -0.4808 -0.2947
 6182TIP3    H118510   2.071   4.457   1.629  0.1294  0.4088 -1.6519
 6182TIP3    H218511   2.144   4.366   1.532  0.7564 -0.4752 -0.3811
 6183TIP3   OH218512   5.230   1.982   4.973  0.1487 -0.5858 -0.1862
 6183TIP3    H118513   5.227   2.066   4.927 -0.4152 -0.6607 -0.2888
 6183TIP3    H218514   5.201   2.003   5.062  0.5268 -0.5770 -0.0625
 6184TIP3   OH218515   1.796   3.692   5.275 -0.3330 -0.2690  0.1235
 6184TIP3    H118516   1.873   3.694   5.219  0.4169  0.4763  1.1389
 6184TIP3    H218517   1.730   3.742   5.228  0.1867  0.0820 -0.2439
 6185TIP3   OH218518   6.590   4.855   0.537  0.1390 -0.1899  0.5161
 6185TIP3    H118519   6.535   4.818   0.468  1.8787 -1.1334 -0.4709
 6185TIP3    H218520   6.594   4.786   0.604 -0.0555 -0.0333  0.6894
 6186TIP3   OH218521   2.725   1.343   3.682  0.0546 -0.1349 -0.3314
 6186TIP3    H118522   2.808   1.315   3.720 -0.3197 -0.0359  0.5678
 6186TIP3    H218523   2.686   1.263   3.647  0.7753 -0.0965 -1.2706
 6187TIP3   OH218524   0.963   4.403   0.512  0.1343 -0.0520  0.9540
 6187TIP3    H118525   0.989   4.345   0.440  2.3902 -1.1233  2.5107
 6187TIP3    H218526   0.891   4.357   0.555 -0.2932 -0.0672  0.2495
 6188TIP3   OH218527   5.188   6.608   4.586 -0.0670 -0.0396 -0.2207
 6188TIP3    H118528   5.250   6.604   4.658  0.3078 -0.2741 -0.5540
 6188TIP3    H218529   5.240   6.586   4.508 -0.4754  0.1615 -0.5542
 6189TIP3   OH218530   5.154   4.506   5.300 -0.0075 -0.1129  0.8277
 6189TIP3    H118531   5.105   4.484   5.221 -1.3918  0.9307  1.3659
 6189TIP3    H218532   5.244   4.520   5.270 -0.0847 -1.6267 -0.2410
 6190TIP3   OH218533   5.965   2.792   3.869 -0.4138  0.7022  0.1726
 6190TIP3    H118534   5.949   2.709   3.824  2.1617 -0.1941  0.7564
 6190TIP3    H218535   5.884   2.843   3.855 -1.8561 -1.6611 -0.6449
 6191TIP3   OH218536   6.509   0.827   1.863 -0.2245  0.1727  0.2640
 6191TIP3    H118537   6.516   0.744   1.911 -0.5369  0.5983  1.0611
 6191TIP3    H218538   6.462   0.804   1.782  1.8070 -0.8860 -0.6885
 6192TIP3   OH218539   3.742   0.257   4.390 -0.0697 -0.1217  0.4280
 6192TIP3    H118540   3.704   0.316   4.324  1.7202  0.0673 -0.4988
 6192TIP3    H218541   3.666   0.217   4.433 -1.3070  1.1268 -0.4961
 6193TIP3   OH218542   1.716   3.381   2.019  0.2639  0.5437 -0.2113
 6193TIP3    H118543   1.744   3.377   1.927 -0.3702  1.0230 -0.4304
 6193TIP3    H218544   1.695   3.473   2.034  0.0236  0.4090  0.3145
 6194TIP3   OH218545   4.907   4.873   3.560  0.4075 -0.5650  0.7193
 6194TIP3    H118546   4.991   4.829   3.544  0.2086 -1.0178  0.8938
 6194TIP3    H218547   4.844   4.801   3.567  0.0129 -0.2275  0.6282
 6195TIP3   OH218548   5.524   1.138   1.383  0.2623 -0.3349 -0.6411
 6195TIP3    H118549   5.471   1.197   1.436  0.5674 -2.1345  1.8141
 6195TIP3    H218550   5.491   1.150   1.294 -2.2270  0.7570  0.3449
 6196TIP3   OH218551   0.472   3.848   5.718 -0.0244 -0.0739 -0.0202
 6196TIP3    H118552   0.524   3.918   5.679 -0.1979  0.1593  0.1618
 6196TIP3    H218553   0.388   3.853   5.673  0.0340 -0.3028 -0.1557
 6197TIP3   OH218554   3.248   1.397   2.919 -0.2064  0.2588 -0.3249
 6197TIP3    H118555   3.180   1.414   2.983 -0.3419  1.4347 -0.7612
 6197TIP3    H218556   3.305   1.332   2.961  0.3499  1.8264  1.4737
 6198TIP3   OH218557   5.824   3.902   3.037 -0.0899  0.2413 -0.1247
 6198TIP3    H118558   5.791   3.950   2.961  0.0211  1.3735  0.5197
 6198TIP3    H218559   5.919   3.900   3.024 -0.0695  0.4473 -0.0104
 6199TIP3   OH218560   3.133   1.718   2.947  0.0722 -0.1317  0.2136
 6199TIP3    H118561   3.148   1.664   3.025 -0.2384 -1.6575 -0.7576
 6199TIP3    H218562   3.053   1.767   2.966  1.5618  1.7972  2.0367
 6200TIP3   OH218563   1.976   3.781   0.466 -0.0702 -0.2261 -0.8105
 6200TIP3    H118564   2.059   3.735   0.460  1.7526  2.5093  1.0660
 6200TIP3    H218565   1.934   3.745   0.544 -0.4545 -1.2585 -1.4769
 6201TIP3   OH218566   1.897   2.333   2.864 -0.0391 -0.4301  0.7132
 6201TIP3    H118567   1.875   2.351   2.773  0.6140 -0.2607  0.5826
 6201TIP3    H218568   1.862   2.246   2.881  1.1016 -1.0890 -0.1501
 6202TIP3   OH218569   3.037   1.483   3.408  0.3051 -0.2270 -0.2711
 6202TIP3    H118570   3.044   1.576   3.388  1.8049  0.2152  1.9470
 6202TIP3    H218571   2.944   1.463   3.399 -0.6182  2.3099  2.2697
 6203TIP3   OH218572   2.459   0.215   5.278 -0.2578 -0.3222 -0.0994
 6203TIP3    H118573   2.425   0.202   5.190 -1.9715 -0.5498  0.5468
 6203TIP3    H218574   2.418   0.146   5.330  1.2638 -0.6283  0.7573
 6204TIP3   OH218575   6.161   0.537   1.227 -0.1343 -0.0988 -0.3047
 6204TIP3    H118576   6.199   0.615   1.187 -0.2656 -0.5386 -1.3223
 6204TIP3    H218577   6.212   0.465   1.191 -1.2401 -0.6198 -0.8735
 6205TIP3   OH218578   3.741   3.839   4.236  0.0224  0.1817  0.5754
 6205TIP3    H118579   3.831   3.870   4.228  0.0869 -0.2623 -0.5929
 6205TIP3    H218580   3.712   3.824   4.145 -1.0563 -0.1610  0.9563
 6206TIP3   OH218581   5.258   2.097   3.271  0.2317  0.4331 -0.1325
 6206TIP3    H118582   5.275   2.004   3.261  2.0149  0.7559 -0.3361
 6206TIP3    H218583   5.175   2.101   3.320 -0.1185 -1.2284 -0.5304
 6207TIP3   OH218584   0.279   6.004   4.754  0.3206 -0.0688  0.7312
 6207TIP3    H118585   0.197   5.981   4.797  1.0981 -0.7147  1.9252
 6207TIP3    H218586   0.311   5.922   4.716  0.4647  0.1637  0.3362
 6208TIP3   OH218587   4.050   2.249   3.477  0.2189  0.5893 -0.1129
 6208TIP3    H118588   4.071   2.207   3.560 -0.4408 -0.8000 -0.6152
 6208TIP3    H218589   4.133   2.287   3.448  0.6349  0.3982  0.7855
 6209TIP3   OH218590   0.177   0.588   2.451  0.3958  0.2648 -0.2912
 6209TIP3    H118591   0.117   0.558   2.520  0.6113  1.1552  0.2974
 6209TIP3    H218592   0.183   0.514   2.391  0.5369 -0.6913  0.8691
 6210TIP3   OH218593   0.846   3.798   4.713  0.2695  0.3457  0.3848
 6210TIP3    H118594   0.928   3.820   4.756 -0.2360  2.5392  0.3306
 6210TIP3    H218595   0.859   3.822   4.621 -0.6334  1.3952  0.5091
 6211TIP3   OH218596   4.995   6.255   1.050 -0.7175  0.6496 -0.3318
 6211TIP3    H118597   5.078   6.231   1.092 -2.6678 -0.2449  3.4446
 6211TIP3    H218598   4.993   6.203   0.969  2.0813  0.2548 -0.2516
 6212TIP3   OH218599   0.643   4.951   5.089 -0.4667 -0.2295  0.0273
 6212TIP3    H118600   0.600   4.869   5.068 -0.9616 -0.0467  0.3122
 6212TIP3    H218601   0.661   4.992   5.004  3.7331 -2.5543 -0.4923
 6213TIP3   OH218602   6.438   1.259   3.272  1.1401  0.0737  0.4190
 6213TIP3    H118603   6.480   1.179   3.305 -1.4748 -1.0178  1.3460
 6213TIP3    H218604   6.388   1.292   3.347 -0.7248  0.5272 -0.9807
 6214TIP3   OH218605   3.580   1.146   2.810 -0.1367  0.3694 -0.5052
 6214TIP3    H118606   3.580   1.050   2.807 -0.9492  0.3340  0.2704
 6214TIP3    H218607   3.667   1.168   2.843 -0.9560 -0.2685  2.4387
 6215TIP3   OH218608   0.610   0.544   1.303  0.1439  0.6591 -0.4610
 6215TIP3    H118609   0.689   0.591   1.329 -0.8953  1.8255  0.7069
 6215TIP3    H218610   0.544   0.568   1.368 -1.5430  0.7126 -2.0984
 6216TIP3   OH218611   4.896   2.162   2.938 -0.2127  0.2923  0.3206
 6216TIP3    H118612   4.964   2.135   2.876  0.9677  0.7761  1.3588
 6216TIP3    H218613   4.852   2.236   2.895  0.5668  0.5994  0.0393
 6217TIP3   OH218614   3.456   5.018   2.981 -0.3255  0.2519  0.0479
 6217TIP3    H118615   3.414   4.944   3.025 -1.6457  0.7516 -0.3325
 6217TIP3    H218616   3.478   5.079   3.052  0.2054 -0.2089  0.2938
 6218TIP3   OH218617   3.548   6.447   5.590 -0.0104  0.4365 -0.0611
 6218TIP3    H118618   3.471   6.494   5.620  1.0084  0.4797  2.8062
 6218TIP3    H218619   3.621   6.485   5.640  1.4852 -1.2578 -0.8304
 6219TIP3   OH218620   3.436   6.685   0.389  0.1194 -0.2171  0.0769
 6219TIP3    H118621   3.423   6.591   0.404  0.6419 -0.3695 -0.3952
 6219TIP3    H218622   3.355   6.714   0.347 -0.0597 -0.4476  0.2597
 6220TIP3   OH218623   2.029   5.434   1.024  0.0493  0.0436 -0.2328
 6220TIP3    H118624   2.106   5.470   1.069  0.3030 -0.7938  0.0218
 6220TIP3    H218625   1.961   5.432   1.092 -0.5165  1.6591 -0.6841
 6221TIP3   OH218626   2.995   5.673   5.766  0.2185 -0.1572  0.2589
 6221TIP3    H118627   3.014   5.582   5.792 -0.6137 -0.7090 -0.9814
 6221TIP3    H218628   3.044   5.685   5.685 -0.2176  0.2748  0.0594
 6222TIP3   OH218629   2.802   1.283   1.723  0.3098 -0.2986 -0.3443
 6222TIP3    H118630   2.830   1.192   1.733  2.1406  0.1990 -0.5213
 6222TIP3    H218631   2.711   1.284   1.751  0.5122 -2.0202  0.4718
 6223TIP3   OH218632   3.711   3.366   1.774 -0.0312 -0.4652  0.2797
 6223TIP3    H118633   3.670   3.301   1.718 -2.0193 -0.2586  1.4034
 6223TIP3    H218634   3.660   3.363   1.855 -1.5297  3.7623 -0.2525
 6224TIP3   OH218635   4.927   4.374   5.226  0.4058 -0.0617 -0.0981
 6224TIP3    H118636   4.959   4.301   5.279 -3.4769 -1.8827  0.0508
 6224TIP3    H218637   4.929   4.341   5.136 -0.1764  0.0965 -0.1740
 6225TIP3   OH218638   2.977   3.129   5.555 -0.4298 -0.2689 -0.1619
 6225TIP3    H118639   2.916   3.198   5.525 -3.8915 -2.8623  0.2372
 6225TIP3    H218640   3.036   3.116   5.481 -0.8501  1.8242 -0.9444
 6226TIP3   OH218641   3.776   1.550   1.565  0.1503 -0.3116  0.1761
 6226TIP3    H118642   3.704   1.613   1.558  0.2376 -0.1035  1.1223
 6226TIP3    H218643   3.808   1.559   1.654  1.0233 -0.7705 -0.0808
 6227TIP3   OH218644   0.666   0.158   3.270  0.0352  0.1282  0.3375
 6227TIP3    H118645   0.694   0.137   3.359 -1.1388  0.0086  0.6859
 6227TIP3    H218646   0.740   0.131   3.215  0.8311  0.3434  1.2750
 6228TIP3   OH218647   1.109   0.089   1.333  0.0840  0.4796  0.2126
 6228TIP3    H118648   1.142   0.070   1.245  0.1656  0.1389  0.3139
 6228TIP3    H218649   1.166   0.040   1.392 -1.6444 -1.6115  0.2920
 6229TIP3   OH218650   2.622   1.751   0.237 -0.2361  0.5781  0.0954
 6229TIP3    H118651   2.573   1.826   0.202  1.2245  1.1294 -0.8447
 6229TIP3    H218652   2.636   1.695   0.160 -1.4680 -0.7899  0.8151
 6230TIP3   OH218653   0.113   6.633   0.328  0.1417 -0.3301 -0.6198
 6230TIP3    H118654   0.205   6.657   0.317  0.6689 -1.9797 -0.1280
 6230TIP3    H218655   0.075   6.704   0.379  0.5955  1.4129 -2.5691
 6231TIP3   OH218656   1.609   2.858   1.739  0.1402  0.2825 -0.8072
 6231TIP3    H118657   1.590   2.840   1.647  1.1141  1.2734 -1.2270
 6231TIP3    H218658   1.525   2.850   1.783 -0.1594 -1.2934 -1.5895
 6232TIP3   OH218659   5.789   0.049   0.941  0.6763 -0.5127  0.6579
 6232TIP3    H118660   5.812   0.078   0.853 -1.8655 -0.3974 -0.0422
 6232TIP3    H218661   5.844   0.102   0.999  0.8318  1.0047 -0.8075
 6233TIP3   OH218662   0.025   5.326   3.021  0.1774 -0.1385 -0.1331
 6233TIP3    H118663   0.120   5.321   3.035  0.3051 -0.8464 -1.1836
 6233TIP3    H218664   0.013   5.406   2.969 -0.2299  2.0959  3.0542
 6234TIP3   OH218665   6.472   4.239   5.558  0.4161  0.0161 -0.2365
 6234TIP3    H118666   6.541   4.247   5.624  3.6692  0.5429 -3.3863
 6234TIP3    H218667   6.456   4.145   5.553  0.6798 -0.0961  0.7157
 6235TIP3   OH218668   6.530   1.747   2.496 -0.5134  0.5619 -0.1408
 6235TIP3    H118669   6.499   1.658   2.516  0.0078  0.2025 -0.8655
 6235TIP3    H218670   6.481   1.803   2.555 -0.2149 -0.2894  0.9410
 6236TIP3   OH218671   2.842   1.625   3.259 -0.4507 -0.1916  0.0323
 6236TIP3    H118672   2.756   1.617   3.300  0.3033  0.2900  1.8040
 6236TIP3    H218673   2.845   1.716   3.228 -0.4975 -0.1390  0.1805
 6237TIP3   OH218674   1.080   4.259   1.635 -0.4440 -0.1081 -0.2742
 6237TIP3    H118675   1.060   4.235   1.545 -1.4799  2.2059 -0.7451
 6237TIP3    H218676   0.997   4.295   1.669  0.9201  2.9192  0.1894
 6238TIP3   OH218677   2.464   6.040   2.787 -0.2118 -0.7679 -0.3087
 6238TIP3    H118678   2.385   6.016   2.738  1.1646 -4.7452 -0.9374
 6238TIP3    H218679   2.482   5.963   2.841  1.4457  1.3261  2.3781
 6239TIP3   OH218680   2.747   4.403   0.765  0.2449  0.1889 -0.4515
 6239TIP3    H118681   2.667   4.369   0.725  1.1165 -0.6433 -1.5428
 6239TIP3    H218682   2.791   4.326   0.800  0.4819  0.6709  0.3563
 6240TIP3   OH218683   5.710   2.194   5.620 -0.1658 -0.3743  0.3640
 6240TIP3    H118684   5.626   2.152   5.639 -1.9394  3.0049  0.6731
 6240TIP3    H218685   5.765   2.170   5.695 -0.3464 -3.5234 -0.3444
 6241TIP3   OH218686   0.225   3.894   5.574  0.1836  0.5441  0.6753
 6241TIP3    H118687   0.135   3.879   5.543  0.4303 -1.2875  0.7254
 6241TIP3    H218688   0.272   3.925   5.496  0.4820 -2.7208 -0.5953
 6242TIP3   OH218689   1.389   3.119   3.329 -0.6799  0.0757  0.0520
 6242TIP3    H118690   1.444   3.198   3.335 -1.9503  1.0180 -0.1852
 6242TIP3    H218691   1.398   3.078   3.415  0.8141 -0.1026 -0.1664
 6243TIP3   OH218692   3.588   0.663   1.977 -0.4584 -0.5023  0.0826
 6243TIP3    H118693   3.552   0.714   1.904 -1.2285  1.3710  1.6640
 6243TIP3    H218694   3.517   0.605   2.004 -0.0147 -1.5301 -0.9259
 6244TIP3   OH218695   3.194   3.823   0.990 -0.0147  0.4113  0.4258
 6244TIP3    H118696   3.235   3.792   1.071  0.4884  1.7811  0.7287
 6244TIP3    H218697   3.109   3.779   0.987  0.8686 -1.4036  0.5147
 6245TIP3   OH218698   3.195   3.406   5.203 -0.0061  0.3726  0.0997
 6245TIP3    H118699   3.141   3.406   5.281  0.0284  0.5527  0.1253
 6245TIP3    H218700   3.260   3.337   5.218  0.7007  1.1553  0.7222
 6246TIP3   OH218701   2.189   0.892   4.958  0.0413 -0.6725  0.3954
 6246TIP3    H118702   2.220   0.920   5.044  0.2656 -0.5050  0.2599
 6246TIP3    H218703   2.240   0.814   4.938  2.5592  1.2184 -1.1283
 6247TIP3   OH218704   0.246   3.564   5.833  0.5597  0.1106  0.2985
 6247TIP3    H118705   0.290   3.479   5.827  1.5827  0.6458 -0.0648
 6247TIP3    H218706   0.312   3.622   5.872  0.3666  1.0563 -0.7333
 6248TIP3   OH218707   4.592   5.362   4.870 -0.4006 -0.3984 -0.2064
 6248TIP3    H118708   4.518   5.408   4.831  0.7215  1.3577 -0.4295
 6248TIP3    H218709   4.664   5.378   4.809  0.6217 -0.3442  0.9666
 6249TIP3   OH218710   0.729   1.730   0.641  0.3972  0.6500 -0.8997
 6249TIP3    H118711   0.799   1.739   0.576 -0.3245  0.5620 -1.7062
 6249TIP3    H218712   0.774   1.730   0.725  1.3412  0.8872 -1.3942
 6250TIP3   OH218713   6.060   4.754   2.898  0.1208  0.3711 -0.3212
 6250TIP3    H118714   6.043   4.767   2.991  0.0582  0.9861 -0.4169
 6250TIP3    H218715   6.079   4.660   2.890 -0.8265  0.1198  0.1632
 6251TIP3   OH218716   5.239   4.126   2.164 -0.1262  0.5192  0.0638
 6251TIP3    H118717   5.152   4.129   2.125  0.1611  0.7644 -0.5769
 6251TIP3    H218718   5.267   4.218   2.167 -0.8597  0.7413  2.5430
 6252TIP3   OH218719   5.242   4.391   2.049  0.1931 -0.2060  0.3676
 6252TIP3    H118720   5.333   4.406   2.025 -0.7864  1.3513 -3.0004
 6252TIP3    H218721   5.212   4.321   1.992 -1.1936  0.6635 -0.0463
 6253TIP3   OH218722   1.026   2.423   3.032  0.4680  0.0506 -0.4026
 6253TIP3    H118723   0.946   2.471   3.009 -0.0510 -1.0144 -0.8804
 6253TIP3    H218724   0.997   2.333   3.046  1.0689  0.2242  2.5936
 6254TIP3   OH218725   4.092   6.732   2.105 -0.1763  0.5584  0.7845
 6254TIP3    H118726   4.029   6.672   2.066 -0.2945 -0.0341  1.8522
 6254TIP3    H218727   4.171   6.680   2.119  0.5594  1.2759 -0.4766
 6255TIP3   OH218728   0.555   1.573   2.356  0.2485  0.3158 -0.0790
 6255TIP3    H118729   0.568   1.592   2.263 -1.8689  0.7765 -0.3282
 6255TIP3    H218730   0.504   1.492   2.357 -0.8913  1.0147  0.6118
 6256TIP3   OH218731   4.314   5.169   2.754 -0.2338 -0.2105  0.4872
 6256TIP3    H118732   4.245   5.103   2.747 -0.9401  0.3257  1.9051
 6256TIP3    H218733   4.342   5.165   2.845  1.8304 -0.5857 -0.1194
 6257TIP3   OH218734   2.209   0.324   5.698  0.6018  0.2058  0.7252
 6257TIP3    H118735   2.173   0.270   5.628  1.9622 -0.8826  0.8246
 6257TIP3    H218736   2.149   0.399   5.704  0.1570  0.0446 -1.2095
 6258TIP3   OH218737   0.975   0.043   4.268  0.3622  0.0635 -0.8279
 6258TIP3    H118738   0.926   0.124   4.280  2.5128  1.4693 -0.8709
 6258TIP3    H218739   0.935  -0.019   4.328 -0.6182  1.5109  0.0809
 6259TIP3   OH218740   6.343   3.891   4.715  0.9211  0.3889 -0.1105
 6259TIP3    H118741   6.254   3.885   4.681 -0.3155  3.7965  2.0017
 6259TIP3    H218742   6.399   3.861   4.642 -1.8268 -0.5266 -2.0014
 6260TIP3   OH218743   6.017   3.539   2.328  0.0046  0.2899 -0.2322
 6260TIP3    H118744   6.071   3.553   2.406  1.4450 -1.0277 -0.9628
 6260TIP3    H218745   5.964   3.462   2.349 -1.0827  1.1186  0.1808
 6261TIP3   OH218746   6.559   5.830   4.062  0.3243  0.1045 -0.1177
 6261TIP3    H118747   6.550   5.921   4.034 -1.8120  0.1111  0.4517
 6261TIP3    H218748   6.526   5.829   4.152 -0.7884 -1.4175 -0.4990
 6262TIP3   OH218749   2.026   3.700   1.127 -0.1016 -0.0266 -0.1329
 6262TIP3    H118750   2.101   3.653   1.091 -0.5273 -0.7763 -0.0501
 6262TIP3    H218751   1.997   3.646   1.201 -1.3167 -0.2386 -0.7507
 6263TIP3   OH218752   3.055   5.101   5.618  0.4765 -0.2815  0.2476
 6263TIP3    H118753   3.091   5.176   5.666 -0.8157  0.8922 -0.5565
 6263TIP3    H218754   3.035   5.136   5.531  2.4200 -2.2535 -1.0990
 6264TIP3   OH218755   6.661   0.409   3.426  0.1332 -0.5733  0.0920
 6264TIP3    H118756   6.616   0.326   3.413  0.0828 -0.3869 -1.0071
 6264TIP3    H218757   6.623   0.468   3.361 -1.5569  1.0447  2.4019
 6265TIP3   OH218758   1.656   3.042   2.643 -0.6394 -0.2527 -0.0942
 6265TIP3    H118759   1.642   2.981   2.715  0.6424  0.3197  0.6708
 6265TIP3    H218760   1.599   3.010   2.573 -0.1587 -2.2143  0.3494
 6266TIP3   OH218761   2.763   6.683   3.969  0.0551  0.8637 -0.3222
 6266TIP3    H118762   2.778   6.596   3.933  1.3701  0.6861  0.5832
 6266TIP3    H218763   2.716   6.730   3.900 -0.1646 -0.3785 -1.0428
 6267TIP3   OH218764   6.651   1.031   2.820  0.0509 -0.2475  0.2958
 6267TIP3    H118765   6.726   1.088   2.835 -1.4994  1.8613  0.4950
 6267TIP3    H218766   6.608   1.068   2.743 -0.0056 -2.3163 -0.7214
 6268TIP3   OH218767   4.983   2.036   2.677 -0.1134 -0.2654 -0.1197
 6268TIP3    H118768   5.004   2.118   2.632 -1.1651 -0.2734 -0.6472
 6268TIP3    H218769   4.951   1.978   2.608  1.4614 -1.4479  0.0949
 6269TIP3   OH218770   0.639   1.715   1.879 -0.0398  0.0880  0.5387
 6269TIP3    H118771   0.677   1.803   1.877 -2.4676  1.1884 -0.9319
 6269TIP3    H218772   0.675   1.671   1.803  0.3474  0.1830  0.6661
 6270TIP3   OH218773   6.431   3.516   0.537  0.4720  0.8137 -0.0485
 6270TIP3    H118774   6.345   3.487   0.566  0.8249 -0.0418  0.2068
 6270TIP3    H218775   6.422   3.529   0.443 -0.1465  1.5641  0.1037
 6271TIP3   OH218776   5.479   2.163   0.155  0.0850  0.1794  0.5745
 6271TIP3    H118777   5.513   2.231   0.213 -0.4033  1.3889 -0.5098
 6271TIP3    H218778   5.453   2.210   0.076  1.6278 -1.5326 -1.0313
 6272TIP3   OH218779   5.099   5.771   1.029  0.4313  0.0939 -0.3100
 6272TIP3    H118780   5.054   5.699   1.074 -1.8125  1.5404 -0.0892
 6272TIP3    H218781   5.150   5.813   1.098  0.5155 -0.3296 -0.1057
 6273TIP3   OH218782   3.457   1.820   1.959  0.2356 -0.2872 -0.0968
 6273TIP3    H118783   3.393   1.752   1.942 -1.2081  0.7263  0.9806
 6273TIP3    H218784   3.533   1.774   1.994 -1.5074 -1.2768  2.7672
 6274TIP3   OH218785   4.981   5.350   2.877 -0.2232 -0.6540 -0.5433
 6274TIP3    H118786   4.950   5.389   2.795 -0.7168 -0.5743 -0.3208
 6274TIP3    H218787   4.968   5.256   2.866  0.6113 -0.7307 -0.9310
 6275TIP3   OH218788   4.087   4.448   4.170 -0.0278  0.0222  0.2271
 6275TIP3    H118789   4.161   4.498   4.203 -0.6555  0.4566  1.0460
 6275TIP3    H218790   4.020   4.457   4.239 -0.4284 -1.3083  0.0511
 6276TIP3   OH218791   6.211   3.549   1.488 -0.6004  0.2360  0.2048
 6276TIP3    H118792   6.224   3.551   1.393 -2.5764  2.3804 -0.1180
 6276TIP3    H218793   6.242   3.463   1.515  0.6196 -0.1927 -2.2752
 6277TIP3   OH218794   1.234   6.666   0.261 -0.0184  0.4647 -0.0568
 6277TIP3    H118795   1.319   6.633   0.289 -0.4005  0.3747  1.0429
 6277TIP3    H218796   1.218   6.743   0.315 -0.5481  0.6011 -0.3923
 6278TIP3   OH218797   2.382   0.845   4.171 -0.3798  0.4773 -0.0437
 6278TIP3    H118798   2.295   0.884   4.172 -1.0366 -0.8960  1.6692
 6278TIP3    H218799   2.389   0.798   4.254  0.6938 -2.2011 -1.5171
 6279TIP3   OH218800   2.843   0.094   2.286 -0.1758 -0.0123 -0.2215
 6279TIP3    H118801   2.803   0.168   2.240  0.1096  0.1704 -0.1767
 6279TIP3    H218802   2.888   0.045   2.217 -0.0822  0.0419 -0.1989
 6280TIP3   OH218803   4.333   0.836   2.714  0.1797 -0.1540 -0.2452
 6280TIP3    H118804   4.401   0.833   2.781  1.4784  0.2144 -1.5115
 6280TIP3    H218805   4.303   0.745   2.705 -1.6823  0.0746  2.4128
 6281TIP3   OH218806   6.869   1.445   3.915  0.4159 -0.1510 -0.8747
 6281TIP3    H118807   6.914   1.514   3.964 -1.0334  0.3056 -0.1526
 6281TIP3    H218808   6.940   1.400   3.868  1.4959  1.2596 -0.6815
 6282TIP3   OH218809   2.594   1.429   3.186 -0.0077 -0.1591 -0.1803
 6282TIP3    H118810   2.649   1.451   3.111 -0.4493 -1.4144 -0.9026
 6282TIP3    H218811   2.535   1.361   3.154 -1.1279  0.2450  0.9307
 6283TIP3   OH218812   3.329   0.433   2.077  0.3535 -0.1487 -0.1034
 6283TIP3    H118813   3.316   0.523   2.046 -0.9991  0.1977  1.3252
 6283TIP3    H218814   3.302   0.378   2.003  1.1721  0.5904 -0.9870
 6284TIP3   OH218815   0.680   4.670   5.725 -0.0783  0.3922 -0.4212
 6284TIP3    H118816   0.698   4.716   5.807 -0.5304 -0.5340  0.2093
 6284TIP3    H218817   0.634   4.591   5.751  0.1190 -0.1125 -1.5488
 6285TIP3   OH218818   3.960   0.287   1.591  0.0758 -0.0106  0.4456
 6285TIP3    H118819   4.009   0.224   1.538  2.3678 -0.5278  2.9180
 6285TIP3    H218820   3.993   0.372   1.565  2.3851 -0.3454  1.9736
 6286TIP3   OH218821   4.009   2.000   4.170 -0.1616  0.6011  0.3494
 6286TIP3    H118822   4.013   1.971   4.261 -1.0283  1.7649  0.7809
 6286TIP3    H218823   4.092   1.969   4.131 -1.1007 -2.6785  0.6301
 6287TIP3   OH218824   5.705   5.271   2.431  0.2841  0.1070 -0.0482
 6287TIP3    H118825   5.700   5.354   2.384  0.6791 -0.3172 -0.8673
 6287TIP3    H218826   5.712   5.296   2.523  2.5014  1.0567 -0.4004
 6288TIP3   OH218827   0.618   1.864   2.388 -0.2688 -0.5171  0.3166
 6288TIP3    H118828   0.678   1.902   2.324 -1.2069 -0.4103 -0.5229
 6288TIP3    H218829   0.619   1.770   2.369 -0.6962 -0.4607  0.0179
 6289TIP3   OH218830   4.823   0.316   2.845  0.3889  0.3074  0.1793
 6289TIP3    H118831   4.876   0.396   2.848  1.0161  0.1860 -3.2441
 6289TIP3    H218832   4.873   0.252   2.894  1.3018  1.3010  0.5915
 6290TIP3   OH218833   0.997   0.161   3.609 -0.5441 -0.0647  0.7469
 6290TIP3    H118834   0.972   0.196   3.694  1.7082  0.3740  1.3018
 6290TIP3    H218835   1.088   0.133   3.621  0.1261  0.8137 -1.7300
 6291TIP3   OH218836   5.305   1.013   1.624 -0.2990 -0.1154  0.9677
 6291TIP3    H118837   5.213   1.037   1.613  0.0482  0.8206 -0.1009
 6291TIP3    H218838   5.312   0.984   1.715 -1.3016  1.3993  1.5680
 6292TIP3   OH218839   3.749   0.492   1.317  0.1628 -0.9402  0.1377
 6292TIP3    H118840   3.688   0.533   1.256  2.6114  1.6482 -0.7932
 6292TIP3    H218841   3.766   0.406   1.279  1.4197  0.4816 -2.8910
 6293TIP3   OH218842   4.865   5.464   0.982 -0.3661  0.4829 -0.7061
 6293TIP3    H118843   4.818   5.406   0.922 -0.2803 -0.7958  0.4362
 6293TIP3    H218844   4.805   5.538   0.995 -1.0396  0.0203 -1.1332
 6294TIP3   OH218845   6.214   4.725   1.674 -0.8371 -0.3666 -0.2584
 6294TIP3    H118846   6.287   4.666   1.657 -2.1768 -2.6570  1.4512
 6294TIP3    H218847   6.141   4.689   1.624 -1.7021 -0.2123  0.8530
 6295TIP3   OH218848   0.523   1.745   1.554  0.6989 -0.0672  0.3640
 6295TIP3    H118849   0.498   1.655   1.533  0.0069  0.4675 -1.1871
 6295TIP3    H218850   0.465   1.769   1.626 -0.0747 -0.4071 -0.1334
 6296TIP3   OH218851   1.811   1.496   3.862 -1.0087  0.2890 -0.1389
 6296TIP3    H118852   1.725   1.535   3.877 -1.9432 -2.1615  1.4910
 6296TIP3    H218853   1.872   1.569   3.868 -2.9494  2.1629 -1.7011
 6297TIP3   OH218854   0.152   0.636   1.215 -0.2530  0.3789  0.3942
 6297TIP3    H118855   0.077   0.618   1.159 -0.2127  1.3794  0.0145
 6297TIP3    H218856   0.132   0.591   1.298 -1.4822  1.0225  0.4653
 6298TIP3   OH218857   2.976   0.901   4.416 -0.2948  0.0049 -0.1526
 6298TIP3    H118858   2.992   0.812   4.384 -0.2108  0.0098 -0.1244
 6298TIP3    H218859   2.881   0.911   4.413 -0.2532  1.9224 -5.7219
 6299TIP3   OH218860   0.497   2.041   2.569 -0.1874  0.2254 -0.1851
 6299TIP3    H118861   0.546   1.988   2.506 -0.5808 -0.2973 -0.0593
 6299TIP3    H218862   0.552   2.042   2.647  0.6274  1.4529 -0.7472
 6300TIP3   OH218863   7.151   1.381   0.439 -0.0516  0.0346  0.2829
 6300TIP3    H118864   7.090   1.309   0.422  0.8034 -0.6131 -0.1324
 6300TIP3    H218865   7.095   1.456   0.458 -0.9656 -0.9046  1.4463
 6301TIP3   OH218866   6.420   0.584   4.543  0.1000  1.0749  0.1901
 6301TIP3    H118867   6.499   0.617   4.500  0.6943  0.4162  0.7487
 6301TIP3    H218868   6.407   0.496   4.506 -0.8794  1.5024 -0.5326
 6302TIP3   OH218869   6.960   0.835   3.488 -0.5946  0.3022 -0.3694
 6302TIP3    H118870   7.003   0.788   3.417 -0.2114 -0.5214  0.3883
 6302TIP3    H218871   6.917   0.910   3.445 -0.7751 -0.4412 -1.5242
 6303TIP3   OH218872   6.272   6.443   5.614 -0.1146 -0.1497 -0.0856
 6303TIP3    H118873   6.270   6.365   5.559 -0.7754 -0.8654  0.9320
 6303TIP3    H218874   6.183   6.478   5.610  0.3436  0.9853 -1.1087
 6304TIP3   OH218875   3.292   2.222   3.493  0.3476 -0.3489  0.0474
 6304TIP3    H118876   3.237   2.299   3.509  1.2655  0.3817 -0.2527
 6304TIP3    H218877   3.336   2.240   3.410 -0.2014 -1.6657 -0.5695
 6305TIP3   OH218878   5.622   0.401   2.622  0.2065  0.4724  0.5165
 6305TIP3    H118879   5.598   0.415   2.713 -0.2279 -1.6549  0.7767
 6305TIP3    H218880   5.539   0.399   2.574 -0.2096 -4.1396  1.0178
 6306TIP3   OH218881   6.409   0.359   1.105 -0.0822 -0.1107 -0.1510
 6306TIP3    H118882   6.368   0.350   1.019  0.1786 -0.0038 -0.2906
 6306TIP3    H218883   6.469   0.285   1.110 -2.7299 -2.3103  1.4798
 6307TIP3   OH218884   6.098   1.970   1.044 -0.0859 -0.6437  0.7498
 6307TIP3    H118885   6.131   2.007   1.126  0.2901 -0.3380  0.4705
 6307TIP3    H218886   6.113   1.876   1.052  1.7581 -0.4297  0.2650
 6308TIP3   OH218887   0.796   3.063  -0.005 -0.3859  0.2285 -0.5144
 6308TIP3    H118888   0.727   3.004  -0.034  0.0208 -0.5352  0.0163
 6308TIP3    H218889   0.814   3.036   0.086  0.1097  0.8829 -0.4092
 6309TIP3   OH218890   6.798   3.317   5.441 -0.1982  0.0968  0.5709
 6309TIP3    H118891   6.777   3.224   5.450 -0.5006  0.2301  1.3422
 6309TIP3    H218892   6.891   3.318   5.418  0.2012 -0.3653  2.0476
 6310TIP3   OH218893   5.297   6.310   5.578  0.4364 -0.1286  0.9079
 6310TIP3    H118894   5.307   6.293   5.672  1.4329 -3.9167  0.2873
 6310TIP3    H218895   5.383   6.343   5.550 -0.1098  1.8226  1.3749
 6311TIP3   OH218896   1.736   0.929   1.714 -0.1453 -0.2304 -0.2919
 6311TIP3    H118897   1.753   1.021   1.732  1.8530 -0.0133 -2.7697
 6311TIP3    H218898   1.644   0.926   1.688  0.0416  1.2426 -1.1830
 6312TIP3   OH218899   3.911   6.470   3.977 -0.0542 -0.5041 -0.4238
 6312TIP3    H118900   3.937   6.516   3.896  0.7415 -1.1789 -0.5635
 6312TIP3    H218901   3.868   6.390   3.947 -0.1572 -0.5426 -0.1767
 6313TIP3   OH218902   1.637   3.347   0.904 -0.1265  0.0279 -0.5949
 6313TIP3    H118903   1.704   3.414   0.900 -1.4600  1.5278  0.6572
 6313TIP3    H218904   1.612   3.333   0.813  1.1354  0.2027 -0.9858
 6314TIP3   OH218905   0.065   5.354   0.736  0.2283 -0.0161 -0.5984
 6314TIP3    H118906  -0.008   5.293   0.740  0.4012 -0.4160 -2.4461
 6314TIP3    H218907   0.025   5.440   0.753 -0.5473 -0.3123 -0.8863
 6315TIP3   OH218908   6.769   1.568   4.591 -0.0263 -0.2310  0.8538
 6315TIP3    H118909   6.769   1.477   4.624  1.3165 -0.5740 -0.0260
 6315TIP3    H218910   6.760   1.559   4.496 -0.5123  0.6070  0.8107
 6316TIP3   OH218911   4.539   5.089   3.742  0.2919 -0.5369 -0.2411
 6316TIP3    H118912   4.524   5.134   3.826 -2.8105  1.3676 -1.6214
 6316TIP3    H218913   4.531   5.159   3.677 -1.5283 -2.5465 -2.3319
 6317TIP3   OH218914   5.231   6.038   3.556 -0.1515 -0.1353 -0.1255
 6317TIP3    H118915   5.194   6.102   3.496  1.2404  2.0123  1.1604
 6317TIP3    H218916   5.205   6.069   3.643  1.6278 -0.5525  0.6002
 6318TIP3   OH218917   1.049   4.665   3.314 -0.4403 -0.3379  0.3269
 6318TIP3    H118918   1.018   4.688   3.227  0.4777 -0.4096 -0.0267
 6318TIP3    H218919   0.977   4.615   3.353 -1.1091  0.2531 -0.1419
 6319TIP3   OH218920   6.381   5.460   0.454  0.0458 -0.1817 -0.1875
 6319TIP3    H118921   6.326   5.438   0.379  0.4844  0.3157 -0.6638
 6319TIP3    H218922   6.468   5.472   0.417  0.1065  0.8969  0.2638
 6320TIP3   OH218923   1.145   6.808   3.120  0.0194  0.1589  0.2938
 6320TIP3    H118924   1.151   6.713   3.125 -2.1721 -0.1325 -1.1842
 6320TIP3    H218925   1.149   6.828   3.027  0.4125  1.5277  0.5825
 6321TIP3   OH218926   2.151   6.569   2.633  0.1656  0.2287  0.0353
 6321TIP3    H118927   2.170   6.653   2.675 -1.1199 -0.0201  1.1990
 6321TIP3    H218928   2.082   6.531   2.687  0.5396 -1.4652 -0.6229
 6322TIP3   OH218929   6.560   6.652   0.231 -0.8357 -0.2960  0.3714
 6322TIP3    H118930   6.573   6.745   0.215 -0.8986 -0.3299  0.1051
 6322TIP3    H218931   6.503   6.648   0.307 -1.8364 -0.0917 -0.3546
 6323TIP3   OH218932   0.745   3.111   2.777  0.3931  0.2965 -0.2777
 6323TIP3    H118933   0.762   3.200   2.745 -0.6452  0.9635  0.9763
 6323TIP3    H218934   0.712   3.123   2.866  0.4076 -1.3664 -0.0242
 6324TIP3   OH218935   1.313   1.016   5.878 -0.9290 -0.4048 -0.3691
 6324TIP3    H118936   1.384   0.967   5.837  0.5388  0.3311  1.1861
 6324TIP3    H218937   1.271   1.062   5.805  1.0971  0.2526 -1.1879
 6325TIP3   OH218938   0.819   2.255   4.873  0.1675 -0.3279 -0.4028
 6325TIP3    H118939   0.908   2.239   4.841  0.0366 -0.6420 -0.6264
 6325TIP3    H218940   0.818   2.218   4.961  0.7141  1.1021  0.2415
 6326TIP3   OH218941   6.315   0.460   1.891  0.4875 -0.2003  0.4278
 6326TIP3    H118942   6.319   0.389   1.828 -0.3613  0.1848 -0.0759
 6326TIP3    H218943   6.315   0.540   1.837  3.5367  0.3146  1.0140
 6327TIP3   OH218944   1.823   0.588   3.434 -0.7860  0.0535  0.0522
 6327TIP3    H118945   1.746   0.627   3.474 -0.4886  0.0314  0.6477
 6327TIP3    H218946   1.886   0.661   3.428 -0.0042 -0.4403  1.7284
 6328TIP3   OH218947   6.483   5.247   1.190  0.5806 -0.4771  0.5471
 6328TIP3    H118948   6.506   5.283   1.276  1.4671 -1.0047  0.5418
 6328TIP3    H218949   6.548   5.179   1.175  1.2589  0.4979 -1.1406
 6329TIP3   OH218950   3.294   4.104   1.647 -0.0488  0.4188  0.2545
 6329TIP3    H118951   3.302   4.060   1.563 -0.2717 -1.7401  1.2968
 6329TIP3    H218952   3.374   4.082   1.694 -0.1548  1.1640  0.8039
 6330TIP3   OH218953   2.720   6.416   1.907 -0.1035  0.0114 -0.0518
 6330TIP3    H118954   2.794   6.472   1.882 -1.0433  2.6140  2.5115
 6330TIP3    H218955   2.761   6.333   1.930  1.5535  0.0892 -2.2926
 6331TIP3   OH218956   5.395   6.639   5.385  0.1223 -0.1042  0.4344
 6331TIP3    H118957   5.431   6.697   5.452  1.0043 -0.0049 -0.1141
 6331TIP3    H218958   5.444   6.557   5.395  0.5316  0.0354 -0.3236
 6332TIP3   OH218959   1.900   4.524   0.678  0.2581  0.1152  0.1234
 6332TIP3    H118960   1.819   4.540   0.630 -0.9406  1.6843  2.4539
 6332TIP3    H218961   1.947   4.459   0.626 -2.4233 -0.7415 -1.4158
 6333TIP3   OH218962   7.127   2.493   4.591  0.2794  0.2987 -0.1261
 6333TIP3    H118963   7.115   2.522   4.501 -1.0756 -0.9350 -0.3826
 6333TIP3    H218964   7.183   2.416   4.584 -0.2710 -0.1223  0.0127
 6334TIP3   OH218965   3.524   4.966   4.964 -0.2107  0.0689  1.2211
 6334TIP3    H118966   3.556   5.004   5.046  0.5046  0.2020  0.8901
 6334TIP3    H218967   3.564   4.879   4.960 -0.0647  0.1486  0.9066
 6335TIP3   OH218968   0.316   3.185   2.555 -0.5203  0.1841 -0.6727
 6335TIP3    H118969   0.343   3.166   2.645 -1.2904 -0.3258 -0.5422
 6335TIP3    H218970   0.284   3.275   2.557 -0.7021  0.1122 -0.3995
 6336TIP3   OH218971   0.561   3.292   0.975 -0.4555  0.2610 -0.3105
 6336TIP3    H118972   0.533   3.200   0.969 -0.1302  0.1348  0.0819
 6336TIP3    H218973   0.641   3.296   0.923 -1.9239  0.9392 -2.6421
 6337TIP3   OH218974   2.788   2.772   1.423  0.3691 -0.4071 -0.0976
 6337TIP3    H118975   2.869   2.808   1.387 -0.3137 -0.5897 -1.9183
 6337TIP3    H218976   2.809   2.681   1.444  0.6925 -0.3996 -0.3814
 6338TIP3   OH218977   2.289   4.284   5.711 -0.1951 -0.3171  0.3460
 6338TIP3    H118978   2.304   4.336   5.632 -1.9077 -2.0179 -1.2020
 6338TIP3    H218979   2.207   4.238   5.694  0.1034 -1.8229  2.5617
 6339TIP3   OH218980   2.414   0.151   2.613  0.1468 -0.0756  0.6884
 6339TIP3    H118981   2.346   0.084   2.622 -0.2880  0.3535  0.6929
 6339TIP3    H218982   2.446   0.140   2.524 -0.2479  0.0026  0.5311
 6340TIP3   OH218983   2.752   5.860   4.210 -0.4697  0.6273  0.0566
 6340TIP3    H118984   2.762   5.808   4.130  0.3234 -1.0266  1.1700
 6340TIP3    H218985   2.781   5.948   4.185  2.1927 -0.3956 -0.8952
 6341TIP3   OH218986   0.565   2.353   4.861 -0.1913  0.0351  0.1084
 6341TIP3    H118987   0.658   2.339   4.846 -0.3283 -0.2438 -0.4998
 6341TIP3    H218988   0.526   2.266   4.862 -0.6227  0.1947 -0.8839
 6342TIP3   OH218989   4.874   6.618   1.499 -0.8955 -0.2481  0.9744
 6342TIP3    H118990   4.910   6.539   1.539 -1.5561 -1.7323 -1.1486
 6342TIP3    H218991   4.950   6.675   1.486  0.1458 -1.7996 -0.1141
 6343TIP3   OH218992   2.629   0.032   5.528 -0.0431  0.2939  0.3129
 6343TIP3    H118993   2.664  -0.010   5.449 -1.1380  0.9060 -0.5260
 6343TIP3    H218994   2.681   0.112   5.538  0.2706  0.0844  0.3682
 6344TIP3   OH218995   3.733   5.587   1.850 -0.2602 -0.0747  0.1190
 6344TIP3    H118996   3.798   5.641   1.805  0.8131 -1.4886 -0.0933
 6344TIP3    H218997   3.649   5.623   1.821  0.3948 -0.0849 -2.0374
 6345TIP3   OH218998   0.697   1.199   1.523  0.2808  0.1015  0.7651
 6345TIP3    H118999   0.714   1.202   1.617  0.5878  1.3316  0.6833
 6345TIP3    H219000   0.781   1.175   1.484  0.6506  1.4586  0.6891
 6346TIP3   OH219001   4.390   2.605   1.883 -0.3634  0.1496  0.2658
 6346TIP3    H119002   4.380   2.694   1.848 -2.4440  0.1856  0.8400
 6346TIP3    H219003   4.485   2.590   1.883 -0.0859  1.5553 -1.8030
 6347TIP3   OH219004   1.676   5.072   0.965  0.1219 -0.4716  0.0376
 6347TIP3    H119005   1.616   5.012   1.009  0.7006 -0.9840  0.1289
 6347TIP3    H219006   1.652   5.159   0.999 -1.3478 -0.5104 -0.8002
 6348TIP3   OH219007   2.223   4.550   3.191 -0.2369  0.1231  0.5964
 6348TIP3    H119008   2.277   4.584   3.262  0.7659 -0.6350  0.2223
 6348TIP3    H219009   2.159   4.620   3.174 -0.0724  0.5873  1.7790
 6349TIP3   OH219010   3.995   1.069   2.535  0.6113  0.7679  1.0799
 6349TIP3    H119011   4.029   1.066   2.445 -0.0138 -4.2479  0.7122
 6349TIP3    H219012   4.074   1.068   2.590  0.9758  2.3370  0.6463
 6350TIP3   OH219013   6.242   6.074   1.482  0.5100 -0.1601 -0.6603
 6350TIP3    H119014   6.218   6.096   1.572 -0.2833 -1.9393 -0.3913
 6350TIP3    H219015   6.305   6.141   1.456  2.8012 -1.0663  2.1226
 6351TIP3   OH219016   5.587   4.063   1.434  0.0820 -0.4589  0.6915
 6351TIP3    H119017   5.498   4.058   1.399  0.5764  0.5070 -0.7875
 6351TIP3    H219018   5.614   3.972   1.443 -0.5298 -0.7529 -0.2815
 6352TIP3   OH219019   4.541   2.871   0.963  0.2122 -0.5525 -0.3480
 6352TIP3    H119020   4.580   2.836   1.043 -0.5462 -0.8136 -0.0834
 6352TIP3    H219021   4.606   2.934   0.930  0.4664 -0.3309  0.5484
 6353TIP3   OH219022   1.952   5.488   0.776  0.4766 -0.1364 -0.1014
 6353TIP3    H119023   2.015   5.554   0.747  1.2211 -0.6007  0.4088
 6353TIP3    H219024   1.990   5.453   0.857 -1.8396  1.5790  1.8716
 6354TIP3   OH219025   3.521   5.580   0.259 -0.1751 -0.1400  0.4330
 6354TIP3    H119026   3.483   5.613   0.341 -1.6238 -0.2982 -0.1557
 6354TIP3    H219027   3.468   5.504   0.237  0.9240 -0.7852 -0.0740
 6355TIP3   OH219028   4.251   4.533   0.685  0.0045  0.2640 -0.3292
 6355TIP3    H119029   4.303   4.530   0.605  0.1284  1.0011 -0.2830
 6355TIP3    H219030   4.314   4.515   0.756 -0.0324 -0.0132 -0.3660
 6356TIP3   OH219031   1.388   2.817   5.713  0.0157 -0.3172 -0.6267
 6356TIP3    H119032   1.308   2.870   5.717 -0.0962 -0.4863 -0.6196
 6356TIP3    H219033   1.417   2.811   5.804  0.8017  0.8995 -0.7681
 6357TIP3   OH219034   5.839   3.846   1.147 -0.4594  0.0907  0.4307
 6357TIP3    H119035   5.934   3.859   1.153 -0.3718  0.4587 -1.3331
 6357TIP3    H219036   5.822   3.836   1.054 -2.1994  0.3050  0.6978
 6358TIP3   OH219037   4.880   3.185   3.827 -0.2682 -0.1413  0.5817
 6358TIP3    H119038   4.786   3.183   3.843 -0.2548  1.1477  0.9347
 6358TIP3    H219039   4.916   3.236   3.900  0.8840 -1.7586  1.1996
 6359TIP3   OH219040   4.768   0.744   2.482 -0.1463  0.7145 -0.6095
 6359TIP3    H119041   4.789   0.835   2.505  1.3237  0.2037  0.1922
 6359TIP3    H219042   4.756   0.745   2.387  0.0001  1.7161 -0.6265
 6360TIP3   OH219043   1.995   2.891   4.294 -0.3826 -0.7126 -0.5889
 6360TIP3    H119044   1.935   2.960   4.268  0.9520  0.8399  0.2572
 6360TIP3    H219045   1.949   2.845   4.365 -1.6761 -1.3602 -1.8014
 6361TIP3   OH219046   0.327   5.458   4.243  0.4897 -0.1937  0.5673
 6361TIP3    H119047   0.261   5.527   4.255  2.8015  1.8533  2.8813
 6361TIP3    H219048   0.321   5.406   4.324  2.4153  0.7905  1.4082
 6362TIP3   OH219049   2.440   4.468   1.591 -0.4309 -0.4940 -0.1848
 6362TIP3    H119050   2.345   4.483   1.590 -0.3952  0.9477  3.2677
 6362TIP3    H219051   2.477   4.553   1.565 -0.1587 -0.1732  1.1659
 6363TIP3   OH219052   4.090   4.248   4.783  0.1936  0.0641  0.4428
 6363TIP3    H119053   4.073   4.269   4.691  1.2914 -0.1264  0.1759
 6363TIP3    H219054   4.118   4.157   4.782  1.1602  0.3434  0.8313
 6364TIP3   OH219055   1.554   0.955   5.707 -0.5335 -0.3804  0.0027
 6364TIP3    H119056   1.642   0.983   5.683  0.1423 -1.9290  0.5646
 6364TIP3    H219057   1.497   0.999   5.644  0.6105  0.7723 -0.2696
 6365TIP3   OH219058   6.537   1.097   5.389 -0.0582 -0.2574  0.0209
 6365TIP3    H119059   6.492   1.019   5.421  0.7664 -1.0264 -0.6508
 6365TIP3    H219060   6.548   1.082   5.296  3.2534 -1.0071  0.4195
 6366TIP3   OH219061   1.817   0.797   5.239  0.2602 -0.3426 -0.6060
 6366TIP3    H119062   1.739   0.850   5.258  0.4952 -0.1740 -0.0917
 6366TIP3    H219063   1.873   0.853   5.186  1.0394  0.3773  0.9265
 6367TIP3   OH219064   0.096   2.748   4.758  0.1742 -0.3505 -0.7378
 6367TIP3    H119065   0.122   2.657   4.767  0.2244 -0.2050  0.8206
 6367TIP3    H219066   0.003   2.749   4.780 -0.2694 -0.2635 -2.4515
 6368TIP3   OH219067   0.038   5.626   3.125 -0.1502 -0.3787 -0.7412
 6368TIP3    H119068  -0.021   5.677   3.070  0.6023  2.4219  0.8412
 6368TIP3    H219069   0.124   5.635   3.083  0.2600  1.0119  0.3197
 6369TIP3   OH219070   0.435   4.220   2.649  0.1852 -0.4678 -0.1331
 6369TIP3    H119071   0.387   4.171   2.582 -0.5296  2.5262 -2.0076
 6369TIP3    H219072   0.380   4.212   2.727 -2.0654  0.5869 -1.4895
 6370TIP3   OH219073   4.657   5.342   2.685  0.3751 -0.4512 -0.0515
 6370TIP3    H119074   4.743   5.354   2.645  0.3915  1.3717  0.4315
 6370TIP3    H219075   4.595   5.358   2.614  0.4242  0.4516  0.1030
 6371TIP3   OH219076   3.253   0.387   5.491 -0.3635  0.0553  0.1068
 6371TIP3    H119077   3.284   0.308   5.447  1.5703  0.0781  1.2870
 6371TIP3    H219078   3.185   0.356   5.551 -0.5093 -0.5077 -0.3415
 6372TIP3   OH219079   7.189   0.148   4.773  0.3401  0.2826 -0.4545
 6372TIP3    H119080   7.143   0.211   4.830 -1.0625  0.8178 -2.0807
 6372TIP3    H219081   7.118   0.103   4.727  1.4267  0.3843 -2.2998
 6373TIP3   OH219082   6.332   2.304   2.926 -0.3085 -0.3171  0.1468
 6373TIP3    H119083   6.377   2.362   2.865  1.0511 -0.7558  0.6823
 6373TIP3    H219084   6.313   2.225   2.874 -1.2145  0.1825 -0.2990
 6374TIP3   OH219085   4.313   0.174   3.498 -1.0862  0.0554  0.8069
 6374TIP3    H119086   4.258   0.154   3.574  0.8799  0.8967  2.5649
 6374TIP3    H219087   4.278   0.255   3.463 -1.8272 -0.1762  0.9971
 6375TIP3   OH219088   0.092   2.967   2.631 -0.2863 -0.2174  0.1553
 6375TIP3    H119089   0.028   3.038   2.634 -0.9123 -0.7982  1.3251
 6375TIP3    H219090   0.173   3.008   2.602 -0.4831  1.0850  1.3876
 6376TIP3   OH219091   5.286   4.670   5.893  0.3141  0.1866  0.0160
 6376TIP3    H119092   5.361   4.610   5.886  0.8767  0.4545  2.6695
 6376TIP3    H219093   5.305   4.739   5.829  0.8192 -1.2039 -1.4291
 6377TIP3   OH219094   4.208   0.486   1.785 -0.3308  0.2856  0.1696
 6377TIP3    H119095   4.120   0.516   1.762 -0.7293 -0.5259  0.5944
 6377TIP3    H219096   4.267   0.547   1.739 -1.1021  0.1661 -1.0184
 6378TIP3   OH219097   2.121   1.774   0.754 -0.0615  0.0588  0.5635
 6378TIP3    H119098   2.167   1.710   0.809  1.9292 -0.3061 -1.3789
 6378TIP3    H219099   2.044   1.798   0.805 -1.5264 -4.6192  1.0860
 6379TIP3   OH219100   5.887   1.426   2.076  0.2384  0.4468 -0.0288
 6379TIP3    H119101   5.836   1.445   1.997 -0.7811  0.7439  0.6711
 6379TIP3    H219102   5.978   1.436   2.049 -0.0610  0.0873 -1.2833
 6380TIP3   OH219103   6.568   0.163   3.382 -0.2063  0.8164 -0.1495
 6380TIP3    H119104   6.560   0.102   3.309 -0.6581  2.6432 -1.7128
 6380TIP3    H219105   6.526   0.118   3.456  0.8832 -1.3580 -0.7743
 6381TIP3   OH219106   4.254   3.724   0.910  0.1126 -0.0598 -0.4086
 6381TIP3    H119107   4.289   3.809   0.884  1.7544 -0.8986 -1.0747
 6381TIP3    H219108   4.289   3.709   0.997  1.1270 -0.7207 -0.9126
 6382TIP3   OH219109   0.653   5.078   0.220  0.4643 -0.3962  0.1495
 6382TIP3    H119110   0.735   5.034   0.240  1.0557  1.2464  1.5583
 6382TIP3    H219111   0.652   5.156   0.276 -2.2798 -0.6004  0.5611
 6383TIP3   OH219112   4.672   4.206   5.428 -0.4833  0.0802  0.0130
 6383TIP3    H119113   4.610   4.142   5.464  0.0468 -0.2411  0.3722
 6383TIP3    H219114   4.742   4.210   5.493  1.3056 -1.7168 -1.6714
 6384TIP3   OH219115   0.993   0.491   4.344  0.5186 -0.0768 -0.4341
 6384TIP3    H119116   1.034   0.415   4.384 -1.4150 -0.4808  0.9462
 6384TIP3    H219117   1.015   0.564   4.401 -1.1246 -0.4132  0.6987
 6385TIP3   OH219118   2.581   6.413   4.511  0.2694  0.6019 -0.4625
 6385TIP3    H119119   2.494   6.450   4.523  1.0398  1.9438  1.2903
 6385TIP3    H219120   2.633   6.485   4.475  0.4622 -0.4808 -2.4940
 6386TIP3   OH219121   2.390   1.680   3.660 -0.5782  0.0104  0.2391
 6386TIP3    H119122   2.403   1.621   3.734 -0.4316  1.1360  1.1440
 6386TIP3    H219123   2.452   1.751   3.676  1.6063 -1.0789 -2.4972
 6387TIP3   OH219124   4.158   0.830   0.310 -0.1587  0.2336 -0.6903
 6387TIP3    H119125   4.206   0.900   0.354 -2.4303  0.4454  1.7694
 6387TIP3    H219126   4.200   0.749   0.341  0.3583  0.4526 -0.8138
 6388TIP3   OH219127   3.183   3.915   2.019 -0.0618  0.7136  0.1330
 6388TIP3    H119128   3.264   3.965   2.025 -0.2393  0.8748  1.4015
 6388TIP3    H219129   3.155   3.925   1.927  1.9241 -0.2819 -0.6380
 6389TIP3   OH219130   1.424   2.304   3.430 -0.5288  0.1191  0.1499
 6389TIP3    H119131   1.359   2.363   3.392  1.8508  1.2498 -2.4991
 6389TIP3    H219132   1.389   2.216   3.414 -1.1767  0.6778 -1.7542
 6390TIP3   OH219133   3.483   0.933   0.896 -0.2151 -0.2667  0.3740
 6390TIP3    H119134   3.507   0.945   0.804 -0.7360  0.1912  0.2938
 6390TIP3    H219135   3.525   0.850   0.921  2.0684  0.8401  0.4734
 6391TIP3   OH219136   4.160   0.925   3.024  0.0107  0.1174  0.4974
 6391TIP3    H119137   4.226   0.994   3.018 -1.7684  1.8010 -1.0141
 6391TIP3    H219138   4.211   0.844   3.035  2.3010  1.3534 -0.3241
 6392TIP3   OH219139   6.537   1.202   0.804  0.1017 -0.2211  0.1413
 6392TIP3    H119140   6.510   1.268   0.740 -3.5643  0.1813  1.9024
 6392TIP3    H219141   6.490   1.123   0.779  0.1396 -0.6073  1.2301
 6393TIP3   OH219142   1.966   0.184   1.315  0.3124 -0.1012  0.2626
 6393TIP3    H119143   1.945   0.230   1.234 -0.2464 -2.3956 -0.9901
 6393TIP3    H219144   1.980   0.253   1.379 -1.7989  1.7696 -1.1504
 6394TIP3   OH219145   5.734   4.388   3.983  0.6054  0.3976  0.0719
 6394TIP3    H119146   5.823   4.376   3.950  0.7449 -0.3523  0.6990
 6394TIP3    H219147   5.746   4.435   4.066  0.4354  0.1161  0.2578
 6395TIP3   OH219148   6.082   1.550   1.320 -0.3839 -0.3608  0.3976
 6395TIP3    H119149   6.105   1.457   1.321 -0.3618 -0.3584  1.7501
 6395TIP3    H219150   6.131   1.588   1.393 -1.4171  0.4468  0.6950
 6396TIP3   OH219151   0.454   1.521   0.288  0.2292 -0.1008  0.2730
 6396TIP3    H119152   0.530   1.503   0.344  0.3902  1.6214  0.6626
 6396TIP3    H219153   0.380   1.486   0.336  0.5319  0.1257  0.9102
 6397TIP3   OH219154   0.628   1.850   5.222  0.2207 -0.3872 -0.1132
 6397TIP3    H119155   0.616   1.884   5.133  0.0257  0.0741  0.0890
 6397TIP3    H219156   0.704   1.897   5.256  0.0836 -0.3116  0.0890
 6398TIP3   OH219157   0.552   3.957   2.388 -0.0925 -0.0964 -0.2730
 6398TIP3    H119158   0.645   3.932   2.387  0.5809  1.8681  1.8870
 6398TIP3    H219159   0.529   3.960   2.481 -0.8843  3.9156 -0.4052
 6399TIP3   OH219160   4.316   1.044   1.291  0.0548 -0.3814  0.3777
 6399TIP3    H119161   4.317   0.980   1.363  1.8829 -0.7106  0.1042
 6399TIP3    H219162   4.231   1.088   1.300  0.3440 -0.1902  2.9301
 6400TIP3   OH219163   1.514   2.180   4.933  0.2138 -0.3719  0.2522
 6400TIP3    H119164   1.606   2.205   4.940  1.1774 -3.4717  0.4144
 6400TIP3    H219165   1.502   2.116   5.003 -1.5656 -1.3570 -0.8758
 6401TIP3   OH219166   3.528   2.358   4.486  0.2543 -0.2524 -0.3627
 6401TIP3    H119167   3.555   2.339   4.396  1.1408  0.2669 -0.2157
 6401TIP3    H219168   3.608   2.386   4.530  0.0662 -1.6332  0.9173
 6402TIP3   OH219169   4.237   5.389   0.157  0.3316 -0.1645  0.2254
 6402TIP3    H119170   4.212   5.402   0.066 -0.9747 -1.4933  0.3540
 6402TIP3    H219171   4.312   5.330   0.153  1.5402  1.3377 -0.0372
 6403TIP3   OH219172   3.239   0.328   1.845 -0.1726  0.6815 -0.1445
 6403TIP3    H119173   3.178   0.262   1.810 -0.2482  0.6836 -0.0168
 6403TIP3    H219174   3.302   0.342   1.774  0.1165  0.1307  0.0069
 6404TIP3   OH219175   1.914   5.596   1.310  0.0964  0.3912  0.4407
 6404TIP3    H119176   1.835   5.650   1.302  0.3289  0.5721 -0.8915
 6404TIP3    H219177   1.888   5.525   1.368 -0.7956  0.8987  0.6911
 6405TIP3   OH219178   5.989   0.389   1.804 -0.3280  0.3404  0.3899
 6405TIP3    H119179   6.070   0.438   1.790  0.3406 -1.1462 -1.2602
 6405TIP3    H219180   5.926   0.427   1.742 -0.5917  0.7605  0.9008
 6406TIP3   OH219181   4.772   4.615   2.510  0.3249  0.2808  0.2228
 6406TIP3    H119182   4.794   4.634   2.418  1.3008  1.0151  0.5982
 6406TIP3    H219183   4.758   4.701   2.549 -0.3509 -0.0449  0.7191
 6407TIP3   OH219184   0.522   5.910   3.791 -0.1240 -0.2771  0.1377
 6407TIP3    H119185   0.617   5.917   3.795 -0.2347  2.4711  0.4782
 6407TIP3    H219186   0.494   5.909   3.883 -0.4293 -0.1964  0.0485
 6408TIP3   OH219187   1.065   0.141   5.447  0.0114  0.3507 -0.5296
 6408TIP3    H119188   1.113   0.119   5.527  1.4855 -0.7838 -1.6486
 6408TIP3    H219189   1.009   0.214   5.471  0.6790  0.2713  1.4329
 6409TIP3   OH219190   2.336   0.842   3.179  0.0882 -0.0132  0.1941
 6409TIP3    H119191   2.381   0.923   3.154 -0.9716  0.2860 -0.8206
 6409TIP3    H219192   2.381   0.773   3.130  1.0737 -0.0829  1.1545
 6410TIP3   OH219193   1.031   0.687   3.107  0.1267 -0.5141  0.1447
 6410TIP3    H119194   0.958   0.640   3.148 -0.5565 -0.3815 -0.8919
 6410TIP3    H219195   1.080   0.723   3.181 -2.3540  1.7015  0.8612
 6411TIP3   OH219196   4.861   4.807   3.066 -0.2059 -0.2206 -0.4556
 6411TIP3    H119197   4.903   4.742   3.009 -1.9464 -1.8173 -0.0418
 6411TIP3    H219198   4.770   4.811   3.036 -0.1587  2.0789 -0.4569
 6412TIP3   OH219199   6.058   6.798   2.696  0.0795  0.1065 -0.2566
 6412TIP3    H119200   6.004   6.720   2.684 -0.0710  0.4110 -1.7960
 6412TIP3    H219201   6.002   6.871   2.668  0.6769  0.6115 -0.1670
 6413TIP3   OH219202   4.180   5.905   1.740  0.5680  0.4048  0.3739
 6413TIP3    H119203   4.156   5.827   1.791  0.2312 -0.2468 -0.7235
 6413TIP3    H219204   4.224   5.869   1.663  0.6911  1.3313  0.0102
 6414TIP3   OH219205   3.372   4.054   4.511  0.0896  0.2470  0.3091
 6414TIP3    H119206   3.369   4.146   4.488  1.7096  0.4596  0.8164
 6414TIP3    H219207   3.465   4.030   4.503 -0.3205 -1.3934 -0.0346
 6415TIP3   OH219208   2.976   2.227   1.960 -0.2477 -0.6702  0.1327
 6415TIP3    H119209   3.032   2.303   1.973 -1.2175  0.1296 -0.2514
 6415TIP3    H219210   3.035   2.159   1.927  0.1780  0.7834 -2.3578
 6416TIP3   OH219211   4.211   3.959   4.697 -0.8043 -0.1220  1.0287
 6416TIP3    H119212   4.234   3.868   4.679  1.5778  0.6171 -0.0093
 6416TIP3    H219213   4.118   3.965   4.673 -0.4095 -1.7078 -1.2674
 6417TIP3   OH219214   3.607   4.312   0.216 -0.2009 -0.2879 -0.1314
 6417TIP3    H119215   3.674   4.314   0.285  2.0642 -1.8940 -2.1126
 6417TIP3    H219216   3.650   4.354   0.141 -2.2931  0.6754 -0.8538
 6418TIP3   OH219217   0.778   5.715   3.526  0.0898  0.4932 -0.2157
 6418TIP3    H119218   0.704   5.743   3.579  0.4757 -0.9428  1.1528
 6418TIP3    H219219   0.851   5.770   3.555 -0.3714  1.8472 -1.5022
 6419TIP3   OH219220   0.200   4.273   4.376 -0.1928  0.2724 -0.2919
 6419TIP3    H119221   0.176   4.365   4.386  4.4427  1.6293  0.4171
 6419TIP3    H219222   0.217   4.263   4.282 -1.1052 -0.0444 -0.4359
 6420TIP3   OH219223   4.920   6.490   4.767  0.0559  0.0272 -0.1364
 6420TIP3    H119224   4.959   6.407   4.795  0.4045  0.4515  0.6477
 6420TIP3    H219225   4.925   6.487   4.671  2.0144  0.0684 -0.0717
 6421TIP3   OH219226   6.375   0.194   5.149 -0.8828  0.2190 -0.0260
 6421TIP3    H119227   6.467   0.219   5.138 -0.1846 -0.9506  2.4629
 6421TIP3    H219228   6.366   0.113   5.099 -0.6765  0.5484 -0.6052
 6422TIP3   OH219229   0.412   1.661   5.348  0.2592 -0.9413 -0.4158
 6422TIP3    H119230   0.475   1.722   5.311 -0.6355 -1.1299 -2.4414
 6422TIP3    H219231   0.336   1.715   5.371  0.4319 -0.9647  0.2321
 6423TIP3   OH219232   2.945   4.722   0.633  0.0147  0.1550 -0.2415
 6423TIP3    H119233   3.008   4.671   0.581  0.1014  0.6229 -0.6059
 6423TIP3    H219234   2.996   4.752   0.709  0.5014  1.2809 -0.9796
 6424TIP3   OH219235   5.767   5.277   0.493  0.4227  0.3625  0.0801
 6424TIP3    H119236   5.680   5.314   0.477  0.5302  0.1888 -1.0214
 6424TIP3    H219237   5.765   5.248   0.584 -0.8554 -0.1160 -0.0854
 6425TIP3   OH219238   3.311   0.158   0.441 -0.5489  0.1404  0.4938
 6425TIP3    H119239   3.274   0.166   0.529 -0.4379  1.9438  0.4200
 6425TIP3    H219240   3.237   0.178   0.383  0.0088  1.7253  0.2878
 6426TIP3   OH219241   0.327   5.544   3.930  0.8327 -0.0250  0.4455
 6426TIP3    H119242   0.422   5.532   3.942  1.6112 -0.1685 -4.0311
 6426TIP3    H219243   0.288   5.465   3.967  2.9188 -1.7458 -0.7222
 6427TIP3   OH219244   4.878   3.835   1.238 -0.2068 -0.5650  0.1262
 6427TIP3    H119245   4.921   3.762   1.282  1.5178 -0.1952 -0.8279
 6427TIP3    H219246   4.834   3.883   1.308  0.2087 -1.4749  1.0406
 6428TIP3   OH219247   3.941   1.358   3.223 -0.1831  0.1182 -0.0226
 6428TIP3    H119248   4.005   1.416   3.265  0.9309 -2.0607  1.5021
 6428TIP3    H219249   3.991   1.312   3.156  0.1064 -2.0367  1.5779
 6429TIP3   OH219250   0.972   4.458   4.956  0.1892 -0.2455 -0.2584
 6429TIP3    H119251   0.880   4.453   4.930 -0.5108  1.9636  1.4611
 6429TIP3    H219252   1.003   4.539   4.917  1.2820 -0.7171 -0.3881
 6430TIP3   OH219253   4.088   5.390   1.191 -0.6686  0.2614  0.3117
 6430TIP3    H119254   4.001   5.429   1.182 -0.8409 -0.3001 -0.5133
 6430TIP3    H219255   4.079   5.328   1.263 -1.4291 -1.0685 -0.8903
 6431TIP3   OH219256   6.958   6.463   2.172 -0.1582 -0.0844 -0.4364
 6431TIP3    H119257   6.948   6.507   2.088 -1.1236  1.8085  0.6061
 6431TIP3    H219258   6.981   6.533   2.233 -2.2515 -0.8973  1.4047
 6432TIP3   OH219259   4.661   3.944   0.414  0.1852  0.3175  0.1814
 6432TIP3    H119260   4.676   3.923   0.506 -0.4307  0.2832  0.2768
 6432TIP3    H219261   4.609   4.024   0.415 -0.8969 -0.3664 -0.1027
 6433TIP3   OH219262   2.876   1.873   0.436 -0.4322  0.2894 -0.0015
 6433TIP3    H119263   2.939   1.888   0.365  0.5432  0.1907  0.8220
 6433TIP3    H219264   2.794   1.852   0.391  0.2493 -0.1249 -1.0980
 6434TIP3   OH219265   4.313   3.984   4.982  0.0778  0.1762 -0.5577
 6434TIP3    H119266   4.408   3.992   4.975 -0.0817  1.6152 -1.3588
 6434TIP3    H219267   4.283   3.977   4.891 -0.6391  0.5010 -0.3533
 6435TIP3   OH219268   3.142   0.028   3.407 -0.4317  0.0582  0.3273
 6435TIP3    H119269   3.201   0.013   3.480 -0.2654  2.5427  0.7799
 6435TIP3    H219270   3.171   0.110   3.368 -2.1854  0.1861 -0.8653
 6436TIP3   OH219271   0.415  -0.001   4.362  0.7837  0.2761 -0.3692
 6436TIP3    H119272   0.394   0.059   4.434  2.5600 -1.8214  2.0988
 6436TIP3    H219273   0.339   0.003   4.304 -0.7350  2.1427  1.5985
 6437TIP3   OH219274   3.233   6.722   0.588 -0.0656  0.2677 -0.2756
 6437TIP3    H119275   3.320   6.708   0.551  0.2509  1.2601  0.0558
 6437TIP3    H219276   3.173   6.697   0.519  0.5027  1.4215 -1.2131
 6438TIP3   OH219277   4.130   1.215   5.171  0.3667 -0.4222 -0.2418
 6438TIP3    H119278   4.193   1.144   5.164  1.4751  0.5159 -0.2124
 6438TIP3    H219279   4.126   1.236   5.264  1.7004  0.9386 -0.4511
 6439TIP3   OH219280   6.963   3.743   5.108 -0.5433 -0.1437  0.1113
 6439TIP3    H119281   6.898   3.813   5.097  0.6970  1.1240  0.5705
 6439TIP3    H219282   6.941   3.703   5.192 -0.5514  0.4764  0.4067
 6440TIP3   OH219283   0.895   5.978   2.245  0.2001  0.5330 -0.4876
 6440TIP3    H119284   0.921   5.900   2.294  1.5250 -0.6836 -2.9883
 6440TIP3    H219285   0.976   6.009   2.205 -0.9097  1.1287 -2.3669
 6441TIP3   OH219286   5.399   0.105   0.242  0.1163 -0.3744  0.3818
 6441TIP3    H119287   5.310   0.074   0.261  0.0677 -0.3834  0.1430
 6441TIP3    H219288   5.393   0.142   0.154  0.9322 -2.8542 -0.8165
 6442TIP3   OH219289   0.149   1.895   4.768  0.1087  0.4980  0.2171
 6442TIP3    H119290   0.099   1.882   4.688  1.3076  1.0191 -0.6603
 6442TIP3    H219291   0.234   1.928   4.737  1.8760 -2.5587  1.4150
 6443TIP3   OH219292   2.684   1.310   2.172  0.2384 -0.2046  0.1216
 6443TIP3    H119293   2.748   1.272   2.233  0.6564 -0.8293 -0.6895
 6443TIP3    H219294   2.731   1.381   2.129 -0.2016  0.5440  0.8375
 6444TIP3   OH219295   2.497   3.412   0.046  0.1570  0.1234  0.1765
 6444TIP3    H119296   2.547   3.494   0.049 -1.2940  1.0146  1.0021
 6444TIP3    H219297   2.560   3.347   0.014  1.6134  1.3545  0.4293
 6445TIP3   OH219298   1.225   5.049   4.858 -0.2312 -0.0953  0.1093
 6445TIP3    H119299   1.227   4.963   4.899 -0.1176 -0.0206  0.2571
 6445TIP3    H219300   1.302   5.094   4.891 -0.8323  0.4292  0.8289
 6446TIP3   OH219301   6.648   5.012   1.177 -0.5129  0.1067 -0.4640
 6446TIP3    H119302   6.705   4.966   1.239  0.4195  2.7471  0.7943
 6446TIP3    H219303   6.707   5.069   1.128 -1.5557 -0.2766 -2.2336
 6447TIP3   OH219304   2.949   5.766   4.708 -0.4883 -0.7980  0.6547
 6447TIP3    H119305   3.044   5.774   4.694 -0.5275  0.7415  1.0662
 6447TIP3    H219306   2.916   5.728   4.626  0.1202  1.6645 -0.8414
 6448TIP3   OH219307   4.811   0.494   1.764 -0.0641 -0.1575  0.2161
 6448TIP3    H119308   4.825   0.558   1.834  0.5333 -1.1256  1.0142
 6448TIP3    H219309   4.799   0.547   1.685 -0.7502  0.9594  1.0424
 6449TIP3   OH219310   1.728   0.522   1.978  0.0792 -0.0756 -0.1663
 6449TIP3    H119311   1.698   0.531   1.887 -1.3845  0.7190  0.3726
 6449TIP3    H219312   1.797   0.455   1.973 -2.6994 -3.1374 -1.2814
 6450TIP3   OH219313   2.001   3.711   5.069 -0.3673 -0.0880 -0.2813
 6450TIP3    H119314   2.069   3.645   5.055  0.4453  0.1717  2.0378
 6450TIP3    H219315   1.933   3.689   5.005 -0.1670 -3.2345  0.4228
 6451TIP3   OH219316   1.373   3.092   5.088 -0.6209 -1.0356 -0.5433
 6451TIP3    H119317   1.326   3.176   5.096 -1.3308 -1.5899  1.8134
 6451TIP3    H219318   1.339   3.054   5.007 -1.5633  0.1970 -0.7668
 6452TIP3   OH219319   3.116   5.953   3.386 -0.6395  0.3082  0.4245
 6452TIP3    H119320   3.177   5.991   3.323  0.1637  1.2242  1.7038
 6452TIP3    H219321   3.040   5.928   3.334  0.5810 -0.2997 -1.1139
 6453TIP3   OH219322   1.904   0.927   2.600  0.3443  0.4788 -0.1249
 6453TIP3    H119323   1.966   0.883   2.543 -0.3557 -0.7067 -0.0150
 6453TIP3    H219324   1.829   0.947   2.544 -0.4714 -0.9593  0.3891
 6454TIP3   OH219325   1.648   2.011   3.372  0.0634 -0.5843 -0.3329
 6454TIP3    H119326   1.731   1.966   3.384  0.0333 -0.0925  2.4090
 6454TIP3    H219327   1.638   2.019   3.278  3.3045 -0.3062 -0.7489
 6455TIP3   OH219328   3.264   5.706   0.587  0.4249  0.1470  0.1334
 6455TIP3    H119329   3.261   5.666   0.500  1.7573 -0.0146  0.1349
 6455TIP3    H219330   3.304   5.638   0.643  0.4045  0.5687  0.6686
 6456TIP3   OH219331   4.701   6.471   0.681 -0.0552 -0.2387  0.7102
 6456TIP3    H119332   4.741   6.526   0.748 -1.5873  0.5625  1.0198
 6456TIP3    H219333   4.755   6.392   0.678 -0.1364 -0.4340  3.1063
 6457TIP3   OH219334   2.636   6.603   2.478  0.1849  0.0430 -0.5322
 6457TIP3    H119335   2.547   6.580   2.454  0.0611 -0.4586  0.3733
 6457TIP3    H219336   2.646   6.694   2.448 -0.7507  0.2312 -0.3086
 6458TIP3   OH219337   5.200   1.540   1.707 -0.5898  0.3379 -0.1730
 6458TIP3    H119338   5.280   1.561   1.660 -1.8375 -0.6664 -2.9639
 6458TIP3    H219339   5.226   1.472   1.770  0.9793  1.0698  0.0151
 6459TIP3   OH219340   3.157   1.674   3.820  0.1998  0.1534 -0.2170
 6459TIP3    H119341   3.199   1.598   3.860  1.2659  0.4046 -0.8056
 6459TIP3    H219342   3.137   1.647   3.730 -2.9707 -0.6990  0.6544
 6460TIP3   OH219343   2.456   5.688   3.422  0.5669 -0.1846  0.5967
 6460TIP3    H119344   2.443   5.599   3.389  1.3845 -0.4466  0.9510
 6460TIP3    H219345   2.499   5.676   3.507 -0.3012  0.5169  1.1600
 6461TIP3   OH219346   6.467   1.693   3.151 -0.0199  0.2234 -0.0207
 6461TIP3    H119347   6.525   1.618   3.163 -0.8614 -0.2863  0.8873
 6461TIP3    H219348   6.498   1.733   3.070 -0.1234 -1.6070 -1.0111
 6462TIP3   OH219349   5.731   0.488   0.495  0.6435 -0.0350 -0.1088
 6462TIP3    H119350   5.669   0.537   0.548  0.1694  0.4972 -1.1335
 6462TIP3    H219351   5.684   0.407   0.472  0.7596 -0.1548  0.0716
 6463TIP3   OH219352   1.735   5.010   5.579 -0.1695 -0.0118 -0.2292
 6463TIP3    H119353   1.774   5.032   5.664  0.3546  2.2579 -0.9777
 6463TIP3    H219354   1.766   4.921   5.561  1.9302  0.4373  0.7796
 6464TIP3   OH219355   6.268   5.753   3.751 -0.8903 -0.1583 -0.0214
 6464TIP3    H119356   6.322   5.721   3.679  0.1771 -2.2678  1.6019
 6464TIP3    H219357   6.196   5.691   3.757 -0.8287 -0.1578  0.8548
 6465TIP3   OH219358   4.240   2.093   5.206 -0.5983  0.0275  0.2474
 6465TIP3    H119359   4.306   2.040   5.250 -0.1813 -0.0337 -0.4297
 6465TIP3    H219360   4.173   2.030   5.179 -0.5952 -0.0124  0.3331
 6466TIP3   OH219361   0.189   6.097   1.950 -0.2906 -0.4980 -0.0379
 6466TIP3    H119362   0.234   6.025   1.995  0.5171  0.0483  0.0493
 6466TIP3    H219363   0.229   6.176   1.986 -2.3550  0.0838  1.1720
 6467TIP3   OH219364   0.834   1.877   0.851 -0.5202  0.5060  0.4596
 6467TIP3    H119365   0.766   1.928   0.895  0.2389  1.7065  0.2941
 6467TIP3    H219366   0.911   1.887   0.907 -0.9415 -2.4999  1.7247
 6468TIP3   OH219367   2.693   3.617   0.071 -0.3723  0.0311 -0.0432
 6468TIP3    H119368   2.654   3.678   0.133 -1.7089 -0.6212 -0.2123
 6468TIP3    H219369   2.782   3.604   0.103 -1.1170 -0.5379  1.9158
 6469TIP3   OH219370   3.651   3.324   5.331  0.4357 -0.1196  0.0658
 6469TIP3    H119371   3.647   3.414   5.299  0.5564 -0.3931 -0.7328
 6469TIP3    H219372   3.591   3.323   5.406 -0.8783  0.2236 -0.9349
 6470TIP3   OH219373   2.001   3.576   1.385  0.0786 -0.0395  0.1429
 6470TIP3    H119374   1.939   3.646   1.404 -0.2341 -0.2862  0.0338
 6470TIP3    H219375   2.083   3.606   1.425  0.0568  0.5735 -0.2614
 6471TIP3   OH219376   2.862   4.624   3.932 -0.0507  0.1677  0.0374
 6471TIP3    H119377   2.889   4.535   3.953 -2.2823 -1.0541 -1.7445
 6471TIP3    H219378   2.929   4.656   3.872 -0.5159 -1.3714 -1.3944
 6472TIP3   OH219379   1.345   4.829   1.580 -0.0376  0.0163  0.4185
 6472TIP3    H119380   1.418   4.803   1.637  0.0372  0.1526  0.3847
 6472TIP3    H219381   1.370   4.915   1.546  1.0224 -1.0785 -1.7168
 6473TIP3   OH219382   0.410   1.999   2.258  0.5149 -0.1436 -0.4379
 6473TIP3    H119383   0.370   2.065   2.315 -0.9224 -1.3059 -0.0510
 6473TIP3    H219384   0.468   1.950   2.315  0.8371  0.1474 -0.5095
 6474TIP3   OH219385   1.431   3.099   2.917  0.3655  0.6859  0.1921
 6474TIP3    H119386   1.374   3.156   2.970  1.4682  0.2768  1.9200
 6474TIP3    H219387   1.516   3.143   2.918  1.2712 -0.9763  1.6517
 6475TIP3   OH219388   4.094   1.307   2.066 -0.1606  0.6313  0.3765
 6475TIP3    H119389   4.023   1.296   2.002  0.6241  1.0834 -0.6019
 6475TIP3    H219390   4.069   1.251   2.139 -2.5991  2.3912  1.0271
 6476TIP3   OH219391   5.684   6.450   1.293 -0.4776  0.0819  0.5944
 6476TIP3    H119392   5.599   6.493   1.298  0.1247  1.5363 -0.6640
 6476TIP3    H219393   5.710   6.460   1.201  1.3191  0.2481  1.0882
 6477TIP3   OH219394   5.327   0.568   0.251 -0.0371  0.1248  0.4339
 6477TIP3    H119395   5.403   0.519   0.283  1.6216  2.6410  0.6322
 6477TIP3    H219396   5.349   0.593   0.162 -1.4812 -0.6567 -0.1810
 6478TIP3   OH219397   1.085   5.279   1.850  0.4063  0.0522  0.4350
 6478TIP3    H119398   1.020   5.261   1.917  0.3174 -0.5498  0.1944
 6478TIP3    H219399   1.107   5.372   1.862 -3.4527  1.5427 -2.0098
 6479TIP3   OH219400   6.021   4.850   1.373  0.2971  0.0928 -0.3383
 6479TIP3    H119401   6.041   4.894   1.456  1.6281  0.0179 -0.5947
 6479TIP3    H219402   6.066   4.902   1.307 -0.7323  0.1370 -1.0297
 6480TIP3   OH219403   3.319   1.791   2.768  0.1781 -0.5647 -0.0449
 6480TIP3    H119404   3.324   1.870   2.822  2.4830 -0.5368 -0.2350
 6480TIP3    H219405   3.267   1.730   2.821 -0.1919  0.4814  0.8509
 6481TIP3   OH219406   1.229   3.965   2.335 -0.3130 -0.5814  0.2111
 6481TIP3    H119407   1.194   3.984   2.248  0.1332  0.7855  0.3088
 6481TIP3    H219408   1.187   3.882   2.360 -2.6297  0.3860 -0.1365
 6482TIP3   OH219409   3.511   3.197   0.364 -0.1934 -0.1668  0.3054
 6482TIP3    H119410   3.507   3.291   0.350  1.4324 -0.3789 -2.0528
 6482TIP3    H219411   3.588   3.184   0.420 -0.2091 -0.1486  0.3318
 6483TIP3   OH219412   1.504   3.842   1.231  0.0236 -0.4120 -0.1471
 6483TIP3    H119413   1.502   3.912   1.297 -2.2357 -2.2547  1.9534
 6483TIP3    H219414   1.564   3.873   1.164  2.9046  1.4441  2.9909
 6484TIP3   OH219415   4.265   2.796   5.477 -0.4403 -0.4310  0.1310
 6484TIP3    H119416   4.334   2.860   5.459  0.9329 -1.2853  1.9936
 6484TIP3    H219417   4.200   2.843   5.529  1.3795 -0.8429  2.9661
 6485TIP3   OH219418   6.089   0.642   5.100 -0.2368  0.5306 -0.1739
 6485TIP3    H119419   6.032   0.656   5.024  0.3870 -0.9770 -0.9669
 6485TIP3    H219420   6.038   0.588   5.159 -0.0703  0.1399 -0.3771
 6486TIP3   OH219421   6.218   6.096   1.200 -0.1376 -0.0752 -0.1480
 6486TIP3    H119422   6.211   6.072   1.293  1.4487 -1.4667 -0.3340
 6486TIP3    H219423   6.309   6.123   1.189 -0.8263  2.1552 -0.9022
 6487TIP3   OH219424   0.923   4.040   3.425  0.4691  0.1592 -0.4434
 6487TIP3    H119425   0.857   4.108   3.437  0.3286  0.3837 -2.1326
 6487TIP3    H219426   0.953   4.018   3.513 -1.7120  0.1727  0.3429
 6488TIP3   OH219427   6.091   0.044   1.692  0.0605  0.3815  1.0584
 6488TIP3    H119428   6.051   0.022   1.608 -0.8224  0.0659  1.5544
 6488TIP3    H219429   6.020   0.039   1.755  0.8100  0.1470  1.9087
 6489TIP3   OH219430   2.336   3.640   2.666 -0.1706 -0.3192  0.1985
 6489TIP3    H119431   2.364   3.690   2.743  1.2948 -0.9718  0.1315
 6489TIP3    H219432   2.418   3.614   2.624 -0.8681  1.7832 -2.8079
 6490TIP3   OH219433   2.431   3.403   1.674  0.3294 -0.0859  0.0012
 6490TIP3    H119434   2.453   3.315   1.704  0.7934  0.0115 -0.0451
 6490TIP3    H219435   2.346   3.393   1.633  0.0042 -0.3547  0.7225
 6491TIP3   OH219436   3.652   4.000   1.375  0.2058 -0.4304  0.5645
 6491TIP3    H119437   3.584   4.065   1.390  0.5915  0.5597 -1.6112
 6491TIP3    H219438   3.612   3.917   1.401 -2.7701 -0.2474 -2.6960
 6492TIP3   OH219439   4.701   1.644   3.253  0.1195  0.3335 -0.0552
 6492TIP3    H119440   4.641   1.583   3.209  0.9051 -1.3085  1.0579
 6492TIP3    H219441   4.775   1.652   3.193 -0.4302  1.0098 -0.6588
 6493TIP3   OH219442   2.218   5.659   2.688  0.0567 -0.3688 -0.6482
 6493TIP3    H119443   2.171   5.628   2.611  2.6694 -1.8174 -1.8201
 6493TIP3    H219444   2.238   5.580   2.738 -0.7534  0.4518  1.0655
 6494TIP3   OH219445   7.042   0.820   5.586 -0.4483  0.2393 -0.2703
 6494TIP3    H119446   7.089   0.738   5.568 -1.0410 -0.1919  0.0904
 6494TIP3    H219447   7.085   0.855   5.665 -0.0319  0.4112 -0.5669
 6495TIP3   OH219448   5.263   0.422   4.346  0.0878 -0.2276  0.4428
 6495TIP3    H119449   5.337   0.378   4.304  0.2197  2.6879 -2.8973
 6495TIP3    H219450   5.185   0.385   4.304  0.0609  0.7400 -0.4130
 6496TIP3   OH219451   4.324   0.722   3.128 -0.3147  0.8015  0.4881
 6496TIP3    H119452   4.349   0.686   3.214 -0.5576  0.3668  0.3784
 6496TIP3    H219453   4.249   0.669   3.101 -0.3129  1.0165  0.0605
 6497TIP3   OH219454   3.782   3.069   0.506 -0.0434 -0.0731 -0.0290
 6497TIP3    H119455   3.833   3.027   0.437  0.1884  0.7735 -0.3901
 6497TIP3    H219456   3.842   3.134   0.544 -0.6830  0.5861 -0.1204
 6498TIP3   OH219457   3.146   3.366   2.454 -0.2155 -0.2485  0.2457
 6498TIP3    H119458   3.083   3.390   2.387  0.8643  0.1048 -0.6700
 6498TIP3    H219459   3.173   3.450   2.492 -1.0281 -0.4611  1.3399
 6499TIP3   OH219460   3.971   4.024   4.471  0.0336  0.1506  0.5067
 6499TIP3    H119461   4.015   3.942   4.493 -0.1628  0.3734  1.8220
 6499TIP3    H219462   3.881   4.011   4.501 -0.0391  0.7836  0.5710
 6500TIP3   OH219463   4.393   3.890   0.660 -0.5112  0.1914 -0.0710
 6500TIP3    H119464   4.438   3.936   0.732 -1.3359  0.3154  0.3777
 6500TIP3    H219465   4.356   3.960   0.606 -1.8247  0.0946  0.6496
 6501TIP3   OH219466   1.147   0.908   3.525 -0.0825 -0.3633 -0.6370
 6501TIP3    H119467   1.086   0.835   3.524  0.0715 -0.4911 -1.2601
 6501TIP3    H219468   1.231   0.870   3.501  0.0078  0.0080 -0.9221
 6502TIP3   OH219469   5.918   0.615   4.056  0.3303 -0.1289  0.0946
 6502TIP3    H119470   5.881   0.647   3.974  0.4625  1.0580  0.4690
 6502TIP3    H219471   5.978   0.545   4.030  0.2723  0.1445 -0.8073
 6503TIP3   OH219472   5.968   4.232   3.121 -0.2641 -0.2671 -0.0851
 6503TIP3    H119473   6.048   4.270   3.158 -0.8330 -0.8159  1.8192
 6503TIP3    H219474   5.911   4.218   3.196 -1.0882 -2.4506 -1.0230
 6504TIP3   OH219475   4.067   1.847   0.656  0.0108 -0.0677  0.2787
 6504TIP3    H119476   4.083   1.878   0.745 -1.0819 -1.3148  0.9567
 6504TIP3    H219477   3.973   1.862   0.642  0.1461 -0.0075 -0.6139
 6505TIP3   OH219478   4.059   6.501   1.179  0.2216  0.0712  0.9730
 6505TIP3    H119479   4.049   6.447   1.101 -2.2521 -0.3111  1.4507
 6505TIP3    H219480   4.153   6.510   1.191  0.7016 -2.4550 -0.2752
 6506TIP3   OH219481   0.394   2.947   4.468 -0.6304 -0.2068 -0.2847
 6506TIP3    H119482   0.440   2.942   4.385 -0.8343 -0.3109 -0.3918
 6506TIP3    H219483   0.345   2.864   4.474 -0.9199 -0.0330 -0.2411
 6507TIP3   OH219484   5.629   2.711   0.786  0.8576 -0.2869  0.0503
 6507TIP3    H119485   5.596   2.679   0.702  1.4304  2.1442 -1.1819
 6507TIP3    H219486   5.719   2.679   0.791  0.6627 -0.8547 -0.0103
 6508TIP3   OH219487   0.433   3.128   4.685  0.2655  0.2211 -0.1278
 6508TIP3    H119488   0.448   3.079   4.604 -1.5935  0.9563 -0.9879
 6508TIP3    H219489   0.382   3.069   4.740 -0.0248  0.3699 -0.2365
 6509TIP3   OH219490   1.917   4.988   1.893  0.1727 -0.2282 -0.0951
 6509TIP3    H119491   1.874   5.062   1.849  0.7720 -0.5107 -1.1875
 6509TIP3    H219492   1.855   4.962   1.961 -0.4035  0.7685 -0.2094
 6510TIP3   OH219493   5.686   2.807  -0.017 -0.4672  0.0769 -0.0965
 6510TIP3    H119494   5.686   2.714   0.006 -1.0729 -0.0751 -0.6580
 6510TIP3    H219495   5.605   2.841   0.023 -1.5797 -0.2092 -1.9890
 6511TIP3   OH219496   2.844   2.981   4.670 -0.1480  0.2116  0.4989
 6511TIP3    H119497   2.939   2.985   4.654 -0.3006 -1.1188 -1.0756
 6511TIP3    H219498   2.805   2.983   4.583 -1.7105  2.3364  1.1700
 6512TIP3   OH219499   4.507   6.763   0.074  0.2189  0.4506  0.4616
 6512TIP3    H119500   4.463   6.739   0.155  0.1899 -0.1624  0.2710
 6512TIP3    H219501   4.441   6.812   0.024 -0.6723 -1.4663 -0.3247
 6513TIP3   OH219502   5.780   4.206   4.803 -0.3026 -0.1642  0.1541
 6513TIP3    H119503   5.807   4.161   4.722 -0.7215  0.5137 -0.3720
 6513TIP3    H219504   5.844   4.277   4.812  0.6281 -1.1001  1.2236
 6514TIP3   OH219505   3.969   4.530   2.379  0.3027 -0.4713  0.2587
 6514TIP3    H119506   3.906   4.497   2.444  0.5285 -0.9595  0.2339
 6514TIP3    H219507   4.004   4.610   2.418  0.6442 -0.9117  0.8755
 6515TIP3   OH219508   6.223   6.491   0.153  0.4187 -0.6733  0.0291
 6515TIP3    H119509   6.154   6.441   0.196 -0.7344  0.3969 -0.5059
 6515TIP3    H219510   6.191   6.582   0.155  2.1678 -0.0130  0.4696
 6516TIP3   OH219511   3.079   6.329   3.892 -0.7573 -0.1036 -0.2487
 6516TIP3    H119512   3.070   6.252   3.836 -1.3042 -0.5421  0.4201
 6516TIP3    H219513   2.990   6.365   3.897 -0.6434  0.1370  0.0427
 6517TIP3   OH219514   7.068   4.381   3.369  0.1871  0.3811  0.2302
 6517TIP3    H119515   7.112   4.340   3.295  4.1360  2.7521  0.9579
 6517TIP3    H219516   7.093   4.328   3.445 -0.5026  0.2281  0.3597
 6518TIP3   OH219517   2.609   1.728   2.478  0.0045 -0.4289  0.0171
 6518TIP3    H119518   2.700   1.711   2.452  0.0228 -0.8690  0.3515
 6518TIP3    H219519   2.573   1.641   2.496 -0.7273 -0.3318 -0.8871
 6519TIP3   OH219520   5.370   1.810   4.067  0.3438 -0.7013 -0.6770
 6519TIP3    H119521   5.404   1.756   4.138  0.6924 -0.1358 -0.4075
 6519TIP3    H219522   5.415   1.894   4.076  0.3065 -0.5826 -1.4980
 6520TIP3   OH219523   6.707   0.573   1.709 -0.3611  0.8578  0.0013
 6520TIP3    H119524   6.649   0.498   1.723  0.8338 -0.6968 -2.5886
 6520TIP3    H219525   6.769   0.569   1.782 -0.0517 -1.0365 -0.3086
 6521TIP3   OH219526   5.308   3.406   3.156 -0.3358  0.2013 -1.1044
 6521TIP3    H119527   5.230   3.414   3.101 -0.3190  3.2176 -0.8528
 6521TIP3    H219528   5.279   3.355   3.232 -1.6575  0.0628 -1.6824
 6522TIP3   OH219529   0.647   5.232   2.543  0.1537 -0.0548  0.4195
 6522TIP3    H119530   0.599   5.217   2.461  2.8951 -0.5407 -1.2486
 6522TIP3    H219531   0.690   5.148   2.561 -0.6161 -0.0332  2.5646
 6523TIP3   OH219532   1.337   5.483   5.139 -0.5381  0.3465  0.1102
 6523TIP3    H119533   1.254   5.529   5.155 -0.6288  0.1451  0.2239
 6523TIP3    H219534   1.356   5.500   5.047 -1.1229 -0.2792 -0.1388
 6524TIP3   OH219535   3.647   1.184   1.222 -0.0423  0.2581  0.5414
 6524TIP3    H119536   3.667   1.227   1.138 -0.4452 -0.6148 -0.0199
 6524TIP3    H219537   3.655   1.254   1.287 -1.4037  1.3741 -0.4198
 6525TIP3   OH219538   0.806   5.602   2.314  0.2376 -0.0869 -0.2680
 6525TIP3    H119539   0.862   5.664   2.362  0.3527  0.3566 -0.9621
 6525TIP3    H219540   0.724   5.650   2.300  0.0732 -0.3462 -0.1953
 6526TIP3   OH219541   2.224   6.309   0.957  0.9742 -0.0918 -0.1349
 6526TIP3    H119542   2.223   6.401   0.933  0.0028  0.3870  1.6404
 6526TIP3    H219543   2.283   6.304   1.032  0.1814 -0.7182  0.4670
 6527TIP3   OH219544   0.824   5.997   4.118  0.4054 -0.1809  0.3740
 6527TIP3    H119545   0.900   6.030   4.166  1.9122 -1.1748 -1.1780
 6527TIP3    H219546   0.846   5.905   4.098 -1.4645 -0.6647  0.3634
 6528TIP3   OH219547   2.935   3.277   0.074 -0.6550  0.4407  0.8524
 6528TIP3    H119548   2.998   3.334   0.029 -1.3706  0.2168 -0.4821
 6528TIP3    H219549   2.971   3.266   0.162  1.2996  0.1460  0.0708
 6529TIP3   OH219550   4.558   0.112   4.824  0.2926  0.1490  0.0320
 6529TIP3    H119551   4.647   0.112   4.860  0.7388  0.5517 -1.0406
 6529TIP3    H219552   4.520   0.195   4.854  0.7658  0.6222 -0.6640
 6530TIP3   OH219553   5.003   0.231   3.665  0.3987  0.1952 -0.6591
 6530TIP3    H119554   5.055   0.151   3.663  1.2077  0.7131 -1.1695
 6530TIP3    H219555   4.912   0.201   3.660  0.5774 -0.7680  1.1530
 6531TIP3   OH219556   6.406   0.326   2.410  0.3496  0.1999  0.3321
 6531TIP3    H119557   6.473   0.323   2.479 -0.7165  0.3114  1.4047
 6531TIP3    H219558   6.400   0.236   2.378 -0.7753 -0.3696  2.0326
 6532TIP3   OH219559   5.398   3.081   5.681  0.0227 -0.5246  0.1960
 6532TIP3    H119560   5.460   3.020   5.720 -0.6145 -0.2384  1.7121
 6532TIP3    H219561   5.378   3.043   5.595 -0.5743 -2.6427  1.1955
 6533TIP3   OH219562   6.525   1.165   2.179 -0.6540 -0.0014  0.1878
 6533TIP3    H119563   6.617   1.143   2.192 -0.6233  1.2822  2.7036
 6533TIP3    H219564   6.480   1.080   2.176  0.4127 -0.6010  0.8173
 6534TIP3   OH219565   6.730   4.073   3.498 -0.4227 -0.4698  0.1185
 6534TIP3    H119566   6.801   4.031   3.449 -0.1137  0.1173  0.0497
 6534TIP3    H219567   6.669   4.002   3.518 -0.5556 -0.7336 -1.1222
 6535TIP3   OH219568   5.179   2.314   5.129  0.2516 -0.3095  0.0555
 6535TIP3    H119569   5.258   2.322   5.183  0.1768 -0.8356  0.2535
 6535TIP3    H219570   5.117   2.267   5.185  0.0256 -0.4830 -0.3354
 6536TIP3   OH219571   1.349   6.327   5.699 -0.5641  0.0456  0.6715
 6536TIP3    H119572   1.336   6.334   5.604  0.4885  1.9633  0.6305
 6536TIP3    H219573   1.270   6.283   5.730 -0.5237 -1.5047 -1.1852
 6537TIP3   OH219574   2.565   0.982   4.360  0.2754  0.0419  0.0148
 6537TIP3    H119575   2.647   1.022   4.331 -0.0564  2.2031  1.8600
 6537TIP3    H219576   2.532   0.937   4.282  3.0107 -0.6514 -0.8765
 6538TIP3   OH219577   0.316   0.726   1.966  0.3607 -0.1443  0.7213
 6538TIP3    H119578   0.290   0.658   1.903 -0.4646 -0.5692  1.5043
 6538TIP3    H219579   0.234   0.755   2.005  0.8650  0.1669  1.5640
 6539TIP3   OH219580   6.434   4.948   3.292  0.0119  0.6416  0.2127
 6539TIP3    H119581   6.500   4.948   3.361  1.2048  1.8016 -0.8467
 6539TIP3    H219582   6.428   4.857   3.263  0.3479  0.3473  1.0616
 6540TIP3   OH219583   5.895   6.566   2.702 -0.3222  0.3315 -0.1542
 6540TIP3    H119584   5.809   6.558   2.661 -0.6676  0.3870  0.5413
 6540TIP3    H219585   5.897   6.497   2.769  0.2906  0.1388 -0.3632
 6541TIP3   OH219586   3.580   4.324   4.863  0.0021 -0.3736 -0.0245
 6541TIP3    H119587   3.518   4.374   4.916  0.3748 -0.1230  0.1747
 6541TIP3    H219588   3.558   4.346   4.773  0.3740  0.4012  0.0727
 6542TIP3   OH219589   1.335   6.030   4.098  0.5420 -0.9436 -0.1627
 6542TIP3    H119590   1.379   6.065   4.176  2.7209 -1.2911 -1.1436
 6542TIP3    H219591   1.315   5.940   4.120  2.1291 -1.3702 -0.2986
 6543TIP3   OH219592   1.984   2.407   0.121 -0.4330 -0.0106  0.0960
 6543TIP3    H119593   2.019   2.495   0.106 -1.5266  0.6542  1.2451
 6543TIP3    H219594   2.062   2.352   0.126  0.3191  1.0002  0.0032
 6544TIP3   OH219595   1.712   4.205   0.272  0.3592 -0.1596  0.3671
 6544TIP3    H119596   1.668   4.149   0.208  3.3315 -0.4957 -1.5754
 6544TIP3    H219597   1.752   4.144   0.334 -0.0323  0.0453  0.8321
 6545TIP3   OH219598   6.272   2.085   1.262  0.1660 -0.1993  0.2546
 6545TIP3    H119599   6.309   2.034   1.334 -0.8671  1.5667  2.1540
 6545TIP3    H219600   6.336   2.154   1.246  0.2483 -0.4052 -0.3103
 6546TIP3   OH219601   1.543   1.768   2.928  0.2898 -0.2644  0.1215
 6546TIP3    H119602   1.495   1.742   3.007  1.7167 -2.1484  0.4301
 6546TIP3    H219603   1.479   1.819   2.877  0.3061  4.2467  3.9785
 6547TIP3   OH219604   6.780   4.679   2.174  0.7166  0.3647 -0.1848
 6547TIP3    H119605   6.696   4.708   2.211  0.7660  1.0611 -0.6063
 6547TIP3    H219606   6.784   4.720   2.088  1.8847  1.0436  0.1783
 6548TIP3   OH219607   2.438   3.821   3.340  0.7889  0.3251  0.5227
 6548TIP3    H119608   2.488   3.818   3.258 -0.3061 -0.4511 -0.1446
 6548TIP3    H219609   2.369   3.884   3.323  2.2662  2.4671  1.9202
 6549TIP3   OH219610   6.078   3.607   3.369 -0.2328  1.0500  0.0702
 6549TIP3    H119611   6.012   3.562   3.317 -1.2947  2.8755 -0.2754
 6549TIP3    H219612   6.103   3.544   3.436 -1.1369 -0.2589 -0.7748
 6550TIP3   OH219613   2.007   2.405   4.293  0.2331 -0.0158  0.2067
 6550TIP3    H119614   1.955   2.484   4.278 -0.3267 -0.2589  0.8069
 6550TIP3    H219615   2.090   2.421   4.247 -0.3355  0.4121 -0.6902
 6551TIP3   OH219616   1.058   6.016   1.884 -0.1733 -0.3452 -1.0056
 6551TIP3    H119617   0.994   6.079   1.916 -0.6226 -1.6233  0.6825
 6551TIP3    H219618   1.127   6.071   1.845 -0.2551  1.2452  0.9299
 6552TIP3   OH219619   3.350   1.357   1.441 -0.4085  0.0853  0.1390
 6552TIP3    H119620   3.435   1.322   1.467  0.4288  0.0183 -2.3761
 6552TIP3    H219621   3.356   1.451   1.457  0.3518  0.1525 -0.5024
 6553TIP3   OH219622   2.896   1.672   2.410 -0.5373  0.0949  0.0632
 6553TIP3    H119623   2.933   1.603   2.354 -0.3455 -1.0043  1.4850
 6553TIP3    H219624   2.970   1.729   2.430  0.6223 -2.2181  3.0848
 6554TIP3   OH219625   3.929   6.388   3.363  0.5715 -0.3002 -0.0160
 6554TIP3    H119626   3.981   6.343   3.296  0.9851  0.3787 -0.1547
 6554TIP3    H219627   3.991   6.444   3.409 -0.1117  0.8730 -0.4893
 6555TIP3   OH219628   0.295   1.498   4.113  0.3599 -0.3967 -0.5928
 6555TIP3    H119629   0.242   1.446   4.175 -0.9979  0.0528 -1.3334
 6555TIP3    H219630   0.377   1.450   4.106  1.3715  0.4745  2.9670
 6556TIP3   OH219631   3.278   0.652   5.189  0.3658  0.2014  0.5264
 6556TIP3    H119632   3.233   0.714   5.246  0.3044  1.1135 -0.4879
 6556TIP3    H219633   3.370   0.677   5.194  0.3107  0.5217 -0.0642
 6557TIP3   OH219634   5.122   6.104   3.835  0.2559 -0.3456 -0.2863
 6557TIP3    H119635   5.099   6.197   3.827 -0.9726 -0.4281  1.6514
 6557TIP3    H219636   5.197   6.103   3.895  1.2854 -0.5421 -1.5265
 6558TIP3   OH219637   1.380   6.701   1.260 -0.2866 -0.0669 -0.3893
 6558TIP3    H119638   1.474   6.686   1.270 -0.0289  1.0875 -0.9616
 6558TIP3    H219639   1.365   6.700   1.165 -0.5659  1.3411 -0.3739
 6559TIP3   OH219640   6.484   0.976   3.027  0.3948  0.2434  0.3492
 6559TIP3    H119641   6.533   0.895   3.042 -0.0168  0.1523  1.2393
 6559TIP3    H219642   6.537   1.024   2.963  1.9462  0.3982  1.6884
 6560TIP3   OH219643   6.589   3.186   3.538 -0.0745 -0.2660 -0.2474
 6560TIP3    H119644   6.536   3.112   3.508 -0.2502 -0.4886  0.5856
 6560TIP3    H219645   6.538   3.224   3.609  0.7990 -0.3694  0.4438
 6561TIP3   OH219646   5.992   5.917   5.548  0.2746 -0.2208  0.4423
 6561TIP3    H119647   5.986   5.876   5.634 -0.8152 -0.4101  0.2909
 6561TIP3    H219648   5.975   5.846   5.486 -2.1054  0.4696  0.1958
 6562TIP3   OH219649   1.662   0.565   1.712 -0.2066 -0.5835 -0.1719
 6562TIP3    H119650   1.573   0.565   1.746 -0.2348  0.3638 -0.2196
 6562TIP3    H219651   1.662   0.495   1.646 -2.1639  2.0146 -3.2552
 6563TIP3   OH219652   2.088   5.906   4.344 -0.0073  0.1244  0.1679
 6563TIP3    H119653   2.095   5.830   4.401 -1.6053  0.0548  0.3050
 6563TIP3    H219654   1.996   5.932   4.349  0.5196  2.1608  0.2394
 6564TIP3   OH219655   4.413   1.084   3.047 -0.0489  0.0370 -0.2089
 6564TIP3    H119656   4.490   1.071   3.103 -0.1962  0.5382  0.1209
 6564TIP3    H219657   4.448   1.088   2.958 -0.0065 -2.7156 -0.3932
 6565TIP3   OH219658   2.524   2.250   3.188 -0.2305  0.6222 -0.3400
 6565TIP3    H119659   2.452   2.212   3.238 -1.9580  1.9187 -1.7342
 6565TIP3    H219660   2.504   2.229   3.097  0.6237  1.8397 -0.8337
 6566TIP3   OH219661   3.879   6.504   4.596  0.6105  0.0486 -0.2932
 6566TIP3    H119662   3.930   6.494   4.515  0.8611  0.3577 -0.1761
 6566TIP3    H219663   3.931   6.564   4.650  1.0735 -1.1506  0.6270
 6567TIP3   OH219664   5.420   6.458   2.052  0.1982 -0.3509  0.4529
 6567TIP3    H119665   5.333   6.437   2.018  0.3917 -0.0470 -0.2456
 6567TIP3    H219666   5.435   6.393   2.121 -0.1136 -1.1392 -0.2059
 6568TIP3   OH219667   0.695   3.250   2.999 -0.4338  0.1149  0.4608
 6568TIP3    H119668   0.779   3.291   2.980  1.5151 -2.6639  2.2774
 6568TIP3    H219669   0.703   3.220   3.089 -3.7660  0.4662  0.9797
 6569TIP3   OH219670   4.965   4.049   4.149  0.6412 -0.3134 -0.3646
 6569TIP3    H119671   5.035   4.043   4.083 -0.5902 -0.5316 -1.6963
 6569TIP3    H219672   4.965   3.964   4.192  0.2609 -0.8308 -1.3596
 6570TIP3   OH219673   5.413   6.237   5.814  0.3337 -0.6721 -0.1200
 6570TIP3    H119674   5.422   6.142   5.805 -2.0585 -0.8778 -1.3057
 6570TIP3    H219675   5.438   6.256   5.904  2.9655 -2.0753 -0.4789
 6571TIP3   OH219676   6.309   0.506   4.908  0.2866  0.4800  0.1602
 6571TIP3    H119677   6.287   0.427   4.858 -0.4980  1.2651 -0.7620
 6571TIP3    H219678   6.225   0.549   4.923  0.4544  0.2042  2.3353
 6572TIP3   OH219679   5.906   6.410   3.256  0.1101 -0.0170 -0.5453
 6572TIP3    H119680   5.995   6.390   3.224 -0.0247  0.9163 -1.5772
 6572TIP3    H219681   5.848   6.364   3.194 -0.1406  0.1708 -0.4485
 6573TIP3   OH219682   5.818   0.617   0.219  0.5790  1.5869 -0.5856
 6573TIP3    H119683   5.770   0.545   0.263  1.0679  1.6084 -0.0098
 6573TIP3    H219684   5.749   0.677   0.192  0.0859  0.5463 -1.7531
 6574TIP3   OH219685   3.126   5.218   4.268 -0.8126  0.0949  0.0167
 6574TIP3    H119686   3.069   5.145   4.291 -1.4302  0.9290  1.2213
 6574TIP3    H219687   3.204   5.176   4.231 -1.3393 -1.1480  0.2606
 6575TIP3   OH219688   5.500   5.933   4.130 -0.0573  0.0707 -0.2091
 6575TIP3    H119689   5.573   5.993   4.133  0.1173 -0.0571 -1.3327
 6575TIP3    H219690   5.517   5.877   4.054  0.3635 -2.1576  1.4121
 6576TIP3   OH219691   4.306   5.495   1.391 -0.1408  0.0946 -0.2941
 6576TIP3    H119692   4.334   5.406   1.369 -0.6736  0.1359 -1.1957
 6576TIP3    H219693   4.211   5.490   1.395 -0.2416  0.8391 -1.4137
 6577TIP3   OH219694   6.075   5.590   3.848 -0.0305 -0.2727  0.0856
 6577TIP3    H119695   6.073   5.531   3.773 -0.2607  0.6458 -0.6488
 6577TIP3    H219696   6.013   5.552   3.910  1.2566 -1.8684  0.4804
 6578TIP3   OH219697   6.912   1.163   1.752  0.1633  0.0982 -0.3013
 6578TIP3    H119698   6.982   1.120   1.704  0.5197  1.2030 -0.7986
 6578TIP3    H219699   6.832   1.120   1.722  0.4787  0.0253 -1.0481
 6579TIP3   OH219700   2.313   1.986   4.693  0.2293  0.0158  0.1640
 6579TIP3    H119701   2.254   1.971   4.768  0.4073 -1.4390  0.0356
 6579TIP3    H219702   2.383   1.921   4.704  1.7877  1.6406  0.2521
 6580TIP3   OH219703   3.306   2.372   4.999  0.6130 -0.2074  0.0779
 6580TIP3    H119704   3.282   2.280   4.988  2.8189 -0.7795 -0.5613
 6580TIP3    H219705   3.260   2.418   4.928 -0.5101 -0.7929  0.4136
 6581TIP3   OH219706   3.447   6.616   3.916 -0.0788  0.0519  0.2269
 6581TIP3    H119707   3.387   6.548   3.945  1.0611 -0.9669  0.2480
 6581TIP3    H219708   3.420   6.635   3.826 -0.0126 -0.8753  0.0092
 6582TIP3   OH219709   5.021   5.690   2.583 -0.6300  0.4357  0.7249
 6582TIP3    H119710   5.006   5.775   2.543  1.5119  1.3856  1.7687
 6582TIP3    H219711   5.066   5.709   2.665  0.0249 -1.7082  0.9394
 6583TIP3   OH219712   0.931   1.014   4.583  0.3208 -0.5233  0.1926
 6583TIP3    H119713   0.970   0.928   4.598  1.5320  0.3903  2.9826
 6583TIP3    H219714   0.842   0.995   4.555  1.1194 -2.6512 -1.1813
 6584TIP3   OH219715   4.817   0.107   1.825 -0.7665 -0.3759  0.5486
 6584TIP3    H119716   4.746   0.148   1.776  1.7729 -0.1660 -3.3093
 6584TIP3    H219717   4.785   0.018   1.842 -2.9026  0.4527  1.3199
 6585TIP3   OH219718   3.371   2.413   1.536  0.1500 -0.2969 -0.0499
 6585TIP3    H119719   3.385   2.492   1.587 -0.6339  1.3319 -2.1930
 6585TIP3    H219720   3.306   2.363   1.585 -1.9989  2.0903 -0.2727
 6586TIP3   OH219721   2.480   2.893   3.176  0.2843  0.3860  0.4776
 6586TIP3    H119722   2.502   2.926   3.089  0.8566  0.2677  0.5801
 6586TIP3    H219723   2.564   2.874   3.218 -0.0002  0.0531  0.9090
 6587TIP3   OH219724   7.101   5.836   0.514  0.0641  0.7273  0.1033
 6587TIP3    H119725   7.119   5.849   0.421  0.2037 -0.5167 -0.0523
 6587TIP3    H219726   7.149   5.906   0.558  0.7418  0.7656 -0.6873
 6588TIP3   OH219727   3.891   2.082   3.297 -0.1563 -0.5482 -0.0746
 6588TIP3    H119728   3.796   2.078   3.309 -0.0612 -1.4691  0.4695
 6588TIP3    H219729   3.922   2.139   3.368 -0.3885  0.6874 -0.9205
 6589TIP3   OH219730   2.787   5.350   0.428  0.0614 -0.0896 -0.1014
 6589TIP3    H119731   2.838   5.288   0.377  1.0325  0.7648 -0.2001
 6589TIP3    H219732   2.835   5.433   0.421 -0.9032  0.5435  0.4795
 6590TIP3   OH219733   4.355   3.676   4.163 -0.6922 -0.1356 -0.6500
 6590TIP3    H119734   4.324   3.745   4.104 -0.6165 -0.0690 -0.6117
 6590TIP3    H219735   4.321   3.595   4.125  0.1540 -0.1928 -1.3300
 6591TIP3   OH219736   3.953   3.466   3.390  0.4269  0.1765  0.4568
 6591TIP3    H119737   4.045   3.454   3.366  0.1345 -1.8666  0.1941
 6591TIP3    H219738   3.956   3.513   3.474  1.6138  2.0038 -0.5341
 6592TIP3   OH219739   0.209   1.290   5.832  0.0311 -0.8092 -0.1233
 6592TIP3    H119740   0.254   1.306   5.749 -0.2899 -0.7206 -0.2798
 6592TIP3    H219741   0.118   1.317   5.816  0.1212 -0.1075  0.4649
 6593TIP3   OH219742   0.709   0.836   4.222  0.0243 -0.3435 -0.1025
 6593TIP3    H119743   0.622   0.868   4.197  0.3464 -1.1775 -2.5522
 6593TIP3    H219744   0.754   0.822   4.139  1.7868 -1.9386  1.0492
 6594TIP3   OH219745   1.594   1.691   3.255 -0.8469 -0.6274  0.5189
 6594TIP3    H119746   1.689   1.702   3.263 -0.6758 -0.2902 -1.3437
 6594TIP3    H219747   1.579   1.598   3.272  0.0801 -1.0467 -0.7749
 6595TIP3   OH219748   2.335   1.561   3.007  0.0084  0.2445 -0.7268
 6595TIP3    H119749   2.425   1.570   2.975 -0.0522 -2.5789 -1.9913
 6595TIP3    H219750   2.334   1.476   3.053 -1.6492  0.9740  0.7087
 6596TIP3   OH219751   3.575   5.496   4.793  0.5485  0.8884 -0.1925
 6596TIP3    H119752   3.600   5.441   4.719 -0.6826 -0.1488  0.1356
 6596TIP3    H219753   3.488   5.528   4.771 -0.1262  0.0291  1.0737
 6597TIP3   OH219754   6.190   5.193   0.129  0.2384  0.2739  0.4273
 6597TIP3    H119755   6.242   5.125   0.172 -0.4566  1.0926  2.6855
 6597TIP3    H219756   6.252   5.265   0.116  0.3944  0.1100  0.2475
 6598TIP3   OH219757   6.379   1.339   0.318  0.0632 -0.2399  0.0528
 6598TIP3    H119758   6.428   1.270   0.273 -1.5842 -0.9644 -0.7209
 6598TIP3    H219759   6.350   1.397   0.247 -0.4601 -0.0117  0.4488
 6599TIP3   OH219760   6.265   5.314   1.020 -0.4616  0.5787  0.3182
 6599TIP3    H119761   6.191   5.319   1.081  1.1266 -0.1344  2.4114
 6599TIP3    H219762   6.342   5.331   1.074  0.9632  0.9737 -1.7327
 6600TIP3   OH219763   6.108   4.229   2.551 -0.2958 -0.3455 -0.1402
 6600TIP3    H119764   6.052   4.264   2.482  0.5022 -0.3042 -0.7838
 6600TIP3    H219765   6.192   4.272   2.538  0.5108 -1.9814 -0.5233
 6601TIP3   OH219766   1.788   6.231   3.817  0.4021  0.5353 -0.3512
 6601TIP3    H119767   1.722   6.253   3.884 -0.6813 -1.2911 -0.7416
 6601TIP3    H219768   1.737   6.215   3.738  1.2044 -1.6137 -0.4980
 6602TIP3   OH219769   4.065   0.421   2.045 -0.0709  0.2897 -0.0899
 6602TIP3    H119770   3.973   0.407   2.063 -0.1131  1.2621  0.5066
 6602TIP3    H219771   4.077   0.389   1.956 -0.9341 -0.0429 -0.0945
 6603TIP3   OH219772   1.335   2.981   5.332 -0.0054 -0.2907  0.0768
 6603TIP3    H119773   1.416   3.002   5.377  0.1401  0.6880 -0.6095
 6603TIP3    H219774   1.340   3.029   5.249 -1.6170  0.4010  0.3323
 6604TIP3   OH219775   1.727   4.060   0.707  0.1133  0.2611 -0.2573
 6604TIP3    H119776   1.675   4.034   0.783  0.6239  2.8563  1.0816
 6604TIP3    H219777   1.803   4.104   0.744  1.5288 -0.3517 -2.2669
 6605TIP3   OH219778   5.521   6.405   2.337  0.3814  0.6815  0.0051
 6605TIP3    H119779   5.453   6.469   2.353  0.9791  1.6827 -1.3241
 6605TIP3    H219780   5.590   6.453   2.292  1.0750 -0.7662 -0.5549
 6606TIP3   OH219781   6.350   3.072   3.108 -0.8482  0.4363 -0.0399
 6606TIP3    H119782   6.303   3.017   3.044 -3.2060  1.1084  1.0138
 6606TIP3    H219783   6.442   3.062   3.084 -1.4915 -0.8408 -2.3425
 6607TIP3   OH219784   5.289   3.882   0.251  0.3774  1.0006  0.3714
 6607TIP3    H119785   5.198   3.870   0.224 -0.0915  1.9441  1.4279
 6607TIP3    H219786   5.337   3.813   0.206 -1.0246 -0.1506  0.5744
 6608TIP3   OH219787   2.256   2.658   3.436 -0.0339  0.0225  0.2658
 6608TIP3    H119788   2.204   2.587   3.474 -0.1724 -0.2353 -0.4020
 6608TIP3    H219789   2.325   2.613   3.387  0.7918  0.3563  1.0724
 6609TIP3   OH219790   0.260   0.740   0.236 -0.2693 -0.4367 -0.0620
 6609TIP3    H119791   0.238   0.833   0.241  1.4925 -0.0244  1.0159
 6609TIP3    H219792   0.178   0.695   0.253 -1.3164  0.8891 -1.3032
 6610TIP3   OH219793   6.776   0.623   5.459  0.4746 -0.1026  0.3975
 6610TIP3    H119794   6.745   0.572   5.534  0.4445 -0.2091  0.3125
 6610TIP3    H219795   6.783   0.712   5.493 -2.4075  0.4711 -0.2268
 6611TIP3   OH219796   3.369   3.890   1.475 -0.1671 -0.5683  0.1184
 6611TIP3    H119797   3.344   3.927   1.391  3.1655 -1.4914 -1.4551
 6611TIP3    H219798   3.354   3.796   1.465 -0.7075 -0.5835  0.9602
 6612TIP3   OH219799   0.183   4.209   2.016  0.0634 -0.2422  0.2016
 6612TIP3    H119800   0.210   4.197   1.925  0.5867  0.8406  0.1904
 6612TIP3    H219801   0.117   4.279   2.012 -2.2832 -2.3388  0.3201
 6613TIP3   OH219802   6.865   1.078   0.511  0.0253  0.0142  0.4068
 6613TIP3    H119803   6.805   1.004   0.504  0.5270 -0.3946  0.3643
 6613TIP3    H219804   6.836   1.124   0.590 -0.8628  0.3017 -0.0783
 6614TIP3   OH219805   3.824   4.890   0.076 -0.4780  0.5701 -0.0968
 6614TIP3    H119806   3.876   4.955   0.124  0.3548  0.8233 -1.2934
 6614TIP3    H219807   3.884   4.816   0.063 -0.0039  1.2830 -2.4177
 6615TIP3   OH219808   4.745   0.431   2.239 -0.3399 -0.2944  0.0614
 6615TIP3    H119809   4.652   0.412   2.232 -0.4370  0.3791 -0.6328
 6615TIP3    H219810   4.766   0.478   2.158  0.3836  0.4187  0.6465
 6616TIP3   OH219811   2.504   0.380   4.093  0.3960  0.3053 -0.5567
 6616TIP3    H119812   2.446   0.306   4.074  0.0172  1.0082 -2.3236
 6616TIP3    H219813   2.580   0.365   4.036  0.7919  0.7581 -0.1591
 6617TIP3   OH219814   5.598   5.927   0.511 -0.0940 -0.3503 -0.3109
 6617TIP3    H119815   5.668   5.863   0.502 -1.2490 -1.6145 -0.6065
 6617TIP3    H219816   5.523   5.887   0.467 -1.0915  0.8257  0.2621
 6618TIP3   OH219817   1.824   6.535   5.643 -0.4630 -0.2313  0.1241
 6618TIP3    H119818   1.825   6.583   5.727  0.5549 -0.6634  0.3661
 6618TIP3    H219819   1.902   6.565   5.598 -1.5935  0.8711 -1.2047
 6619TIP3   OH219820   2.133   0.635   1.251  0.0350  0.3162  0.2098
 6619TIP3    H119821   2.210   0.692   1.245 -0.3099  0.7198 -0.4455
 6619TIP3    H219822   2.168   0.552   1.283  0.7478  0.4995 -0.0656
 6620TIP3   OH219823   0.693   6.559   3.363 -0.8932 -0.2986 -0.7679
 6620TIP3    H119824   0.727   6.553   3.452  0.9249 -0.8678 -1.4422
 6620TIP3    H219825   0.695   6.652   3.343 -1.0639 -0.1930 -0.3027
 6621TIP3   OH219826   7.076   6.113   0.805  0.1508 -0.3311 -0.3669
 6621TIP3    H119827   7.122   6.144   0.883 -0.2349  1.7541 -0.9157
 6621TIP3    H219828   6.985   6.139   0.819  0.1084  0.2248 -1.5720
 6622TIP3   OH219829   0.075   4.995   2.534 -0.1316  0.4913  0.4774
 6622TIP3    H119830   0.068   4.899   2.540 -0.7715  0.5820  1.4110
 6622TIP3    H219831   0.167   5.012   2.517  0.0810 -0.2740  0.8420
 6623TIP3   OH219832   7.145   1.953   2.458  0.1645 -0.3046 -0.8083
 6623TIP3    H119833   7.162   1.879   2.516 -1.0889  0.4811  0.6430
 6623TIP3    H219834   7.219   2.012   2.473 -0.9465  0.6495  1.3477
 6624TIP3   OH219835   0.730   6.553   0.768  0.1118  0.5092  0.0459
 6624TIP3    H119836   0.696   6.463   0.770 -0.9413  0.8995  0.2783
 6624TIP3    H219837   0.718   6.585   0.857  2.6963  0.1130  0.6076
 6625TIP3   OH219838   5.899   5.964   3.879  0.5087 -0.0644  0.0835
 6625TIP3    H119839   5.945   5.928   3.804 -1.5104 -1.3976 -0.6021
 6625TIP3    H219840   5.898   5.894   3.943 -0.1675  0.0995  0.2590
 6626TIP3   OH219841   1.955   3.308   5.002 -0.0155 -0.6644 -0.1006
 6626TIP3    H119842   1.964   3.309   5.097 -2.7669  1.6470  0.2751
 6626TIP3    H219843   1.976   3.218   4.976 -1.0688 -1.9035  2.9263
 6627TIP3   OH219844   4.788   4.532   1.303 -0.4556  0.4421  0.2447
 6627TIP3    H119845   4.817   4.443   1.285  0.4902  0.4965  1.3765
 6627TIP3    H219846   4.861   4.587   1.275 -1.2373  0.9301 -0.9406
 6628TIP3   OH219847   0.549   2.836   5.667  0.0189  0.6030 -0.3045
 6628TIP3    H119848   0.494   2.795   5.734  2.1520 -1.8972  0.0625
 6628TIP3    H219849   0.536   2.782   5.589  2.2640 -0.4042 -0.0547
 6629TIP3   OH219850   2.436   2.011   5.255  0.2546 -0.2418  0.2156
 6629TIP3    H119851   2.454   2.101   5.281 -0.8422  0.3767 -1.0438
 6629TIP3    H219852   2.461   2.007   5.163  0.8073 -1.3953  0.3914
 6630TIP3   OH219853   0.852   5.043   5.526  0.2332  0.4154 -0.3002
 6630TIP3    H119854   0.904   5.087   5.458  2.2075 -0.0503  0.8179
 6630TIP3    H219855   0.894   5.069   5.608 -2.9274  2.1423  0.9784
 6631TIP3   OH219856   1.286   0.607   4.824  0.2605  0.7836  0.0121
 6631TIP3    H119857   1.284   0.649   4.910 -1.9615 -0.0234  0.4175
 6631TIP3    H219858   1.195   0.606   4.796  0.7412 -0.4209 -1.6488
 6632TIP3   OH219859   4.984   0.516   2.992  0.2836  0.7590  0.4759
 6632TIP3    H119860   5.002   0.596   3.042  2.8627  0.7470 -0.3099
 6632TIP3    H219861   4.986   0.446   3.056 -1.9713  1.2400  1.1685
 6633TIP3   OH219862   2.381   5.277   4.725  0.1136 -0.1481 -0.4445
 6633TIP3    H119863   2.461   5.228   4.743 -0.5609 -1.1736 -0.1458
 6633TIP3    H219864   2.400   5.324   4.644  1.3726  0.4446  0.1575
 6634TIP3   OH219865   1.950   0.975   3.485 -0.0324 -0.2669 -0.2521
 6634TIP3    H119866   2.036   0.933   3.485  0.4280  0.5437 -2.3758
 6634TIP3    H219867   1.969   1.068   3.471 -1.1867  0.1848  1.0403
 6635TIP3   OH219868   6.622   4.254   0.444 -0.0242  0.6452  0.1438
 6635TIP3    H119869   6.650   4.333   0.490  0.4677  0.1205  0.7782
 6635TIP3    H219870   6.665   4.260   0.359 -1.4985  1.9692 -0.5573
 6636TIP3   OH219871   6.956   1.875   3.035  0.0556 -0.2504 -0.0664
 6636TIP3    H119872   6.937   1.947   2.975  0.4132  0.9165  1.1531
 6636TIP3    H219873   6.925   1.797   2.990 -4.0338  1.0298  0.1285
 6637TIP3   OH219874   0.017   4.794   3.783 -0.2276 -0.0799  0.2518
 6637TIP3    H119875  -0.055   4.762   3.729 -1.6314  3.0577  0.0317
 6637TIP3    H219876   0.092   4.740   3.759 -1.8418 -1.6350 -1.5851
 6638TIP3   OH219877   2.763   2.112   3.246  0.3119  0.2173 -0.6919
 6638TIP3    H119878   2.677   2.154   3.253  0.2633  0.2676 -1.5211
 6638TIP3    H219879   2.819   2.163   3.304 -0.4509 -0.4758  0.7094
 6639TIP3   OH219880   7.190   0.743   0.048 -0.3838 -0.0634 -0.5790
 6639TIP3    H119881   7.135   0.769  -0.026  0.5226  0.1637 -1.1788
 6639TIP3    H219882   7.239   0.822   0.071 -0.5330 -0.1778  0.1585
 6640TIP3   OH219883   4.095   1.890   2.210  0.4791  0.0115  0.4687
 6640TIP3    H119884   4.033   1.872   2.281 -1.5156 -0.2092 -1.2386
 6640TIP3    H219885   4.121   1.803   2.179  0.1251  0.0928 -0.0652
 6641TIP3   OH219886   5.603   4.241   0.396 -0.6849  1.0439 -0.3820
 6641TIP3    H119887   5.672   4.223   0.332 -0.3398 -0.5971  0.4244
 6641TIP3    H219888   5.547   4.306   0.352  0.5098  1.2718 -1.6442
 6642TIP3   OH219889   5.019   2.932   3.162  0.0578 -0.1141 -0.3800
 6642TIP3    H119890   5.022   2.994   3.089  0.4658 -0.2903 -0.5142
 6642TIP3    H219891   4.930   2.941   3.196 -0.1767 -0.1133 -0.9711
 6643TIP3   OH219892   5.970   5.208   3.256 -0.2411 -0.3253  0.3520
 6643TIP3    H119893   5.984   5.208   3.161  2.8917 -0.8810  0.6846
 6643TIP3    H219894   5.937   5.120   3.275 -1.2083 -0.1026 -0.2338
 6644TIP3   OH219895   2.690   0.857   0.638 -0.2441 -0.0942 -0.5389
 6644TIP3    H119896   2.624   0.909   0.592 -1.5157 -0.4244  0.8272
 6644TIP3    H219897   2.727   0.916   0.703 -0.5881 -0.4534 -0.0105
 6645TIP3   OH219898   6.525   0.716   0.715  0.7267 -0.1089  0.4418
 6645TIP3    H119899   6.487   0.661   0.784 -1.7039  1.8849  0.8389
 6645TIP3    H219900   6.511   0.667   0.634 -0.1546 -0.6884  0.9328
 6646TIP3   OH219901   4.136   4.920   3.183 -0.1181 -0.4651  0.3070
 6646TIP3    H119902   4.148   4.967   3.265  2.8700  1.9649 -1.2959
 6646TIP3    H219903   4.106   4.988   3.122  0.9665 -1.3807 -1.3095
 6647TIP3   OH219904   1.545   3.982   1.494 -0.5604  0.1519  0.3700
 6647TIP3    H119905   1.499   3.931   1.561 -0.9023  0.8979  0.7055
 6647TIP3    H219906   1.486   4.053   1.472  0.2601  0.8905  0.5086
 6648TIP3   OH219907   4.516   3.874   3.236 -0.4277  0.1397 -0.5108
 6648TIP3    H119908   4.475   3.954   3.202 -2.0474 -1.1781 -1.8751
 6648TIP3    H219909   4.466   3.854   3.315 -0.1092  0.3956 -0.2426
 6649TIP3   OH219910   4.713   4.495   4.049 -0.3335  0.7629  0.1181
 6649TIP3    H119911   4.724   4.585   4.019 -0.3149  0.6100 -0.3388
 6649TIP3    H219912   4.734   4.498   4.143  1.2921  0.9142 -0.2315
 6650TIP3   OH219913   5.626   4.803   3.319 -0.1522 -0.3002  0.2983
 6650TIP3    H119914   5.706   4.851   3.339  0.3899 -0.1181 -2.0875
 6650TIP3    H219915   5.590   4.846   3.241 -2.6650 -0.3015  1.3577
 6651TIP3   OH219916   0.621   5.625   5.576 -0.0434 -0.6285 -0.0923
 6651TIP3    H119917   0.581   5.538   5.571 -1.1698 -0.0991 -0.7123
 6651TIP3    H219918   0.605   5.664   5.491 -1.8715  1.1409  0.9705
 6652TIP3   OH219919   4.282   6.169   2.989 -0.5430 -0.2693 -0.2403
 6652TIP3    H119920   4.347   6.113   3.032 -1.1910  0.5959  2.0467
 6652TIP3    H219921   4.249   6.117   2.916 -1.7601 -3.2830  2.2643
 6653TIP3   OH219922   0.391   0.114   3.199  0.1578 -0.1327 -0.3119
 6653TIP3    H119923   0.372   0.145   3.287 -0.1773 -0.8614 -0.1191
 6653TIP3    H219924   0.485   0.129   3.188  0.0285  0.8383 -0.1971
 6654TIP3   OH219925   6.693   0.274   2.201  0.4686  0.3434 -0.0564
 6654TIP3    H119926   6.769   0.223   2.229  0.6883  0.4866 -0.3854
 6654TIP3    H219927   6.622   0.209   2.192  0.7888  0.0649 -0.6352
 6655TIP3   OH219928   3.297   6.557   0.053  0.7000 -0.1018  0.1016
 6655TIP3    H119929   3.262   6.617   0.119  2.5820  2.0694 -0.7283
 6655TIP3    H219930   3.276   6.599  -0.031  0.6040 -1.4877 -0.5939
 6656TIP3   OH219931   5.594   3.638   5.748  0.5201  0.3012  0.0084
 6656TIP3    H119932   5.527   3.665   5.686  0.6430 -1.7262 -1.1033
 6656TIP3    H219933   5.569   3.679   5.831 -2.1042 -0.3897 -0.3620
 6657TIP3   OH219934   2.451   1.441   1.970  0.1919 -0.0196 -0.0057
 6657TIP3    H119935   2.522   1.411   2.027  0.0192 -0.3360  0.0428
 6657TIP3    H219936   2.372   1.435   2.024  0.0057 -0.4513 -0.3218
 6658TIP3   OH219937   1.202   3.534   4.984 -0.1968 -0.1200  0.2593
 6658TIP3    H119938   1.215   3.628   4.975  0.5449 -0.2197  0.1811
 6658TIP3    H219939   1.168   3.506   4.899  1.0057 -0.1373 -0.2427
 6659TIP3   OH219940   4.464   2.857   2.459  0.1226 -0.2899 -0.3840
 6659TIP3    H119941   4.458   2.892   2.370 -2.0317 -0.1573 -0.2247
 6659TIP3    H219942   4.486   2.932   2.514  0.6513 -0.2199 -0.6839
 6660TIP3   OH219943   1.361   0.742   2.737 -0.7177 -0.1652 -0.0507
 6660TIP3    H119944   1.437   0.692   2.709 -0.7259  0.1517 -0.6593
 6660TIP3    H219945   1.360   0.819   2.679  0.1102  1.2853  1.7650
 6661TIP3   OH219946   4.655   1.442   2.661 -0.6265 -0.0288 -0.3069
 6661TIP3    H119947   4.725   1.501   2.692 -0.0654 -0.6984 -0.2812
 6661TIP3    H219948   4.701   1.375   2.611 -1.2442 -0.5567 -0.1721
 6662TIP3   OH219949   5.828   3.511   2.988 -0.2269  0.3050 -0.1492
 6662TIP3    H119950   5.777   3.592   2.986 -1.7238 -0.6236 -2.4849
 6662TIP3    H219951   5.771   3.445   2.949  2.4462 -0.9710 -2.2153
 6663TIP3   OH219952   3.148   6.519   0.895  0.1774 -0.1940  0.1780
 6663TIP3    H119953   3.205   6.472   0.833 -0.5712 -0.4851 -0.3118
 6663TIP3    H219954   3.174   6.610   0.887 -0.5102 -0.0851 -1.2757
 6664TIP3   OH219955   2.994   3.657   1.013 -0.2645 -0.3060  0.2968
 6664TIP3    H119956   3.007   3.601   0.937 -1.0712  1.1373 -0.9661
 6664TIP3    H219957   3.004   3.598   1.088  0.6279 -1.7563 -0.8990
 6665TIP3   OH219958   0.577   6.503   1.386  0.7064 -0.2608 -0.1194
 6665TIP3    H119959   0.567   6.412   1.360  0.2332 -0.7357  1.6134
 6665TIP3    H219960   0.507   6.549   1.340 -1.4897 -1.4181  1.8607
 6666TIP3   OH219961   1.896   0.135   5.549  0.0908 -0.1728 -0.1468
 6666TIP3    H119962   1.919   0.047   5.577  2.5127  0.0825 -1.0631
 6666TIP3    H219963   1.978   0.184   5.554 -0.8676  1.6464 -1.0713
 6667TIP3   OH219964   6.167   0.342   4.741 -0.1611 -0.0943  0.7116
 6667TIP3    H119965   6.202   0.367   4.656  1.9937  0.3831  1.6732
 6667TIP3    H219966   6.087   0.293   4.721  0.1517  0.2312 -1.5545
 6668TIP3   OH219967   0.822   0.728   3.418 -0.0108  0.6915 -0.2706
 6668TIP3    H119968   0.820   0.678   3.337 -1.6753 -0.2559  0.3014
 6668TIP3    H219969   0.753   0.794   3.407 -0.6647  0.1723  0.5850
 6669TIP3   OH219970   5.224   5.317   1.107  0.5219 -0.3671  0.0462
 6669TIP3    H119971   5.174   5.240   1.135  0.2692 -0.3524 -0.3520
 6669TIP3    H219972   5.207   5.323   1.013 -0.7259  1.0937  0.3321
 6670TIP3   OH219973   5.852   0.046   5.128 -0.1728 -0.6977 -0.0143
 6670TIP3    H119974   5.806   0.083   5.203 -0.4135  0.5004 -0.7278
 6670TIP3    H219975   5.928   0.104   5.115 -0.8257 -0.1179 -1.4504
 6671TIP3   OH219976   1.177   4.951   2.955 -0.2888  0.1458  0.1638
 6671TIP3    H119977   1.227   5.009   3.012  0.3978  1.1782 -1.4190
 6671TIP3    H219978   1.104   4.921   3.010  1.0734 -0.0134  1.9795
 6672TIP3   OH219979   5.873   6.127   0.627 -0.6648  0.4704  0.2118
 6672TIP3    H119980   5.932   6.202   0.616 -0.7606  0.3544 -1.3201
 6672TIP3    H219981   5.916   6.072   0.692 -0.2720  1.5393  0.8837
 6673TIP3   OH219982   6.341   1.126   3.813  0.1376 -0.5177  0.3363
 6673TIP3    H119983   6.333   1.219   3.836 -0.0449 -1.1247  3.1456
 6673TIP3    H219984   6.390   1.088   3.886  0.8205 -2.5203 -1.1019
 6674TIP3   OH219985   6.446   2.750   4.963 -0.7558 -0.2238 -0.5606
 6674TIP3    H119986   6.521   2.756   4.903  0.4238 -3.3959  0.4211
 6674TIP3    H219987   6.375   2.713   4.910 -0.6513 -0.1996 -0.7173
 6675TIP3   OH219988   6.119   1.534   1.993  0.0176  0.8294 -0.1260
 6675TIP3    H119989   6.185   1.468   2.012 -0.4990 -0.1045 -1.4683
 6675TIP3    H219990   6.136   1.603   2.057 -0.3735 -1.2177  2.3495
 6676TIP3   OH219991   3.482   6.191   0.585 -0.9444 -0.5044 -0.5430
 6676TIP3    H119992   3.433   6.136   0.646 -1.4641 -0.8295 -1.2388
 6676TIP3    H219993   3.564   6.143   0.571  0.7231  1.2048  2.5036
 6677TIP3   OH219994   5.554   4.655   2.499  0.3050  0.0473 -0.0639
 6677TIP3    H119995   5.541   4.561   2.492  0.7603  0.0371 -0.8008
 6677TIP3    H219996   5.646   4.665   2.523  0.0347  0.2796  0.9585
 6678TIP3   OH219997   4.000   3.143   0.382 -0.4895 -0.1435  0.6007
 6678TIP3    H119998   4.085   3.122   0.420  0.3360 -0.9322 -1.5501
 6678TIP3    H219999   4.010   3.233   0.350 -0.7748  0.0634  1.0668
 6679TIP3   OH220000   0.463   1.910   4.211  0.5841  0.4864  0.1477
 6679TIP3    H120001   0.447   1.924   4.304 -0.1456 -3.1803  0.7636
 6679TIP3    H220002   0.554   1.880   4.207  0.4693  0.1883 -0.2413
 6680TIP3   OH220003   4.290   0.191   5.337 -0.0299 -0.9619  0.2369
 6680TIP3    H120004   4.308   0.280   5.307  2.4019 -0.0586  3.7513
 6680TIP3    H220005   4.257   0.202   5.426  0.2705 -3.5905  0.7526
 6681TIP3   OH220006   3.283   2.096   5.037 -0.4132  0.0662  0.4868
 6681TIP3    H120007   3.285   2.118   5.130  0.6774 -1.2578  0.8060
 6681TIP3    H220008   3.311   2.005   5.033  1.0915  0.5409 -1.2492
 6682TIP3   OH220009   2.755   6.291   0.604 -0.3242 -0.1107 -0.0340
 6682TIP3    H120010   2.721   6.202   0.600  0.7230 -0.5227  0.1627
 6682TIP3    H220011   2.802   6.295   0.688 -1.8710  1.1761  0.8381
 6683TIP3   OH220012   6.581   3.174   2.784 -0.4911  0.7183  0.0487
 6683TIP3    H120013   6.636   3.252   2.787 -2.2293  2.0303 -0.7965
 6683TIP3    H220014   6.524   3.182   2.861 -0.3443  0.0068  0.2381
 6684TIP3   OH220015   4.611   4.773   2.963 -0.5794  0.0412 -0.2439
 6684TIP3    H120016   4.561   4.697   2.995  0.6940 -0.3203  0.9935
 6684TIP3    H220017   4.570   4.848   3.006  0.7093 -0.3841  1.8743
 6685TIP3   OH220018   2.344   4.436   5.492 -0.0783 -0.3524 -0.2049
 6685TIP3    H120019   2.381   4.524   5.500 -0.6064 -0.0569 -0.8506
 6685TIP3    H220020   2.351   4.416   5.398 -1.4065 -0.3370 -0.3285
 6686TIP3   OH220021   1.841   3.536   0.624 -0.0112  0.1242  0.0724
 6686TIP3    H120022   1.752   3.563   0.647 -0.3818  0.3951 -1.5633
 6686TIP3    H220023   1.841   3.441   0.640 -1.0809 -0.1439 -1.2436
 6687TIP3   OH220024   4.303   5.769   1.545 -0.2256 -0.0754 -1.2752
 6687TIP3    H120025   4.315   5.683   1.505  2.9149  0.1742 -1.1112
 6687TIP3    H220026   4.312   5.831   1.472 -1.4876  0.2117 -1.2240
 6688TIP3   OH220027   6.331   2.747   0.412  0.6689 -0.7923  1.2981
 6688TIP3    H120028   6.311   2.829   0.366  1.6265 -1.4222 -0.3407
 6688TIP3    H220029   6.302   2.762   0.501 -0.4644  0.8324  0.7069
 6689TIP3   OH220030   2.669   1.726   4.148 -0.1300  0.4261 -0.6013
 6689TIP3    H120031   2.751   1.725   4.099  0.4777  5.2286 -0.1406
 6689TIP3    H220032   2.695   1.731   4.240 -1.1085 -0.8193 -0.2158
 6690TIP3   OH220033   6.144   6.540   0.830 -0.0585  0.0985  0.1702
 6690TIP3    H120034   6.225   6.579   0.796 -0.8368 -0.2751 -2.2947
 6690TIP3    H220035   6.172   6.492   0.908  2.1549 -0.2891 -0.7813
 6691TIP3   OH220036   6.497   1.045   0.385  0.4529  0.3048  0.2901
 6691TIP3    H120037   6.477   1.006   0.301 -0.5129  0.0418  0.6184
 6691TIP3    H220038   6.580   1.007   0.412  0.5460  0.0654 -0.3411
 6692TIP3   OH220039   2.319   4.030   1.940 -0.4183  0.6042  0.2118
 6692TIP3    H120040   2.391   4.092   1.927 -0.6773  0.7201 -0.7496
 6692TIP3    H220041   2.291   4.043   2.030  0.1932  1.1756  0.3237
 6693TIP3   OH220042   4.835   1.273   0.838  0.6821  0.0272  0.1418
 6693TIP3    H120043   4.771   1.310   0.777  1.3551 -0.3842 -0.8537
 6693TIP3    H220044   4.788   1.264   0.920 -0.2492  0.6368 -0.3070
 6694TIP3   OH220045   0.955   1.626   0.454  0.7637  0.5489 -0.1155
 6694TIP3    H120046   0.943   1.582   0.538 -0.1147 -0.6566 -0.8422
 6694TIP3    H220047   1.046   1.657   0.456  1.3774 -1.1574  0.5157
 6695TIP3   OH220048   3.491   0.588   1.217  0.2928 -0.1928  0.1792
 6695TIP3    H120049   3.470   0.495   1.221 -0.2190 -0.2035 -1.8771
 6695TIP3    H220050   3.415   0.632   1.257 -0.8198 -0.5591 -1.4290
 6696TIP3   OH220051   4.783   5.890   4.553  0.3278  0.1968  0.5759
 6696TIP3    H120052   4.723   5.822   4.521 -0.3213  0.2882  1.5605
 6696TIP3    H220053   4.868   5.845   4.560  0.1281 -0.2413  0.2651
 6697TIP3   OH220054   5.412   6.431   0.185  0.1861 -0.0082 -0.5391
 6697TIP3    H120055   5.481   6.391   0.132 -0.9284 -1.4376 -0.9659
 6697TIP3    H220056   5.444   6.426   0.275  1.0806  0.3293 -0.8282
 6698TIP3   OH220057   5.132   3.775   5.851  0.8184  0.2194 -0.0002
 6698TIP3    H120058   5.040   3.747   5.851  0.5181  1.0767 -1.7377
 6698TIP3    H220059   5.130   3.864   5.887  1.1198 -0.1113  0.8674
 6699TIP3   OH220060   1.272   0.982   3.774 -0.1799  0.5179  0.1418
 6699TIP3    H120061   1.227   0.975   3.689 -0.5393  0.6473  0.3216
 6699TIP3    H220062   1.320   0.900   3.782 -0.2062  0.4706 -0.1518
 6700TIP3   OH220063   2.556   4.683   2.894  0.4422 -0.1032  0.3685
 6700TIP3    H120064   2.650   4.675   2.914  0.3938 -0.0778  0.6062
 6700TIP3    H220065   2.522   4.742   2.960  0.5064  0.9527 -0.5144
 6701TIP3   OH220066   1.240   4.612   5.184 -0.0246 -0.7053 -0.2156
 6701TIP3    H120067   1.283   4.678   5.238  0.3590  0.2647 -1.6589
 6701TIP3    H220068   1.310   4.574   5.132 -0.4920 -1.1266 -0.5479
 6702TIP3   OH220069   2.160   4.603   2.779  0.7956 -0.5877  0.0603
 6702TIP3    H120070   2.128   4.618   2.868  0.8914  0.5754 -0.0756
 6702TIP3    H220071   2.201   4.517   2.781  1.7338 -0.1240  1.4131
 6703TIP3   OH220072   4.370   0.715   5.098  0.2940 -0.2130  0.3727
 6703TIP3    H120073   4.449   0.768   5.091 -1.1683  2.1343  0.6402
 6703TIP3    H220074   4.337   0.708   5.008  0.8030 -1.2495  0.2507
 6704TIP3   OH220075   4.817   5.459   1.376  0.1837  0.0601 -0.1603
 6704TIP3    H120076   4.883   5.427   1.437  0.4806  1.6978  0.4102
 6704TIP3    H220077   4.774   5.531   1.422 -2.6214 -1.4565 -0.1704
 6705TIP3   OH220078   0.296   4.783   1.795 -0.1778 -0.1382 -0.3785
 6705TIP3    H120079   0.322   4.807   1.707 -0.6325  0.6219 -0.3226
 6705TIP3    H220080   0.374   4.744   1.834  0.2457  0.1931 -0.8777
 6706TIP3   OH220081   5.607   0.123   3.255 -0.1737  0.3440 -0.2230
 6706TIP3    H120082   5.677   0.147   3.194 -0.0052 -1.4303 -0.7688
 6706TIP3    H220083   5.605   0.028   3.253 -1.5012  0.3175  1.0640
 6707TIP3   OH220084   1.138   1.657   1.536  0.2627  0.0711 -0.0904
 6707TIP3    H120085   1.109   1.573   1.500  0.9177 -0.2981  0.2272
 6707TIP3    H220086   1.182   1.634   1.618  2.1795  0.5305 -0.9387
 6708TIP3   OH220087   1.630   6.184   3.581  0.0406 -0.3216  0.3306
 6708TIP3    H120088   1.551   6.237   3.571  0.9119  1.0019  0.1713
 6708TIP3    H220089   1.600   6.094   3.569 -1.4032  0.1609  0.0853
 6709TIP3   OH220090   2.015   2.479   4.585 -0.2849  0.0313 -0.2220
 6709TIP3    H120091   1.933   2.468   4.633  0.2147 -1.2524  0.3846
 6709TIP3    H220092   1.993   2.453   4.495 -0.5416 -0.3760 -0.0473
 6710TIP3   OH220093   6.303   4.850   3.886  0.1931 -0.2903  0.1710
 6710TIP3    H120094   6.249   4.838   3.964 -2.8531  1.2886 -1.5125
 6710TIP3    H220095   6.366   4.918   3.910  0.7230 -1.3023  1.8057
 6711TIP3   OH220096   6.214   3.363   5.548 -0.0056  0.5471  0.5197
 6711TIP3    H120097   6.175   3.352   5.635 -2.1354 -0.7001 -0.5024
 6711TIP3    H220098   6.190   3.283   5.501  1.3627  1.0478 -1.1261
 6712TIP3   OH220099   5.311   1.774   4.641  0.1538  0.0406 -0.4800
 6712TIP3    H120100   5.300   1.863   4.674  0.9117 -0.9870  3.0981
 6712TIP3    H220101   5.314   1.782   4.546  0.4254  3.8301 -0.2727
 6713TIP3   OH220102   1.923   0.566   3.712 -0.7059 -0.0804 -0.2914
 6713TIP3    H120103   1.866   0.642   3.699  0.0369  1.0778  2.3119
 6713TIP3    H220104   1.873   0.508   3.770  0.3593  0.6121  1.4204
 6714TIP3   OH220105   2.525   1.919   1.242  0.4847  0.7859 -0.3272
 6714TIP3    H120106   2.603   1.967   1.214  0.8160  0.0559 -0.6852
 6714TIP3    H220107   2.557   1.860   1.310  0.3926 -0.0339 -0.9851
 6715TIP3   OH220108   5.605   5.691   4.715  1.1830  0.1533  0.1058
 6715TIP3    H120109   5.673   5.631   4.747  0.0490  0.0544  2.5801
 6715TIP3    H220110   5.577   5.654   4.632  2.5318 -1.1049  0.1744
 6716TIP3   OH220111   0.300   6.693   2.520 -0.5456  0.1140 -0.1215
 6716TIP3    H120112   0.393   6.672   2.518 -0.4300  0.6738 -0.8634
 6716TIP3    H220113   0.290   6.766   2.459 -1.3000  0.7701  0.7630
 6717TIP3   OH220114   1.837   2.159   1.115  0.2376 -0.0538  0.0239
 6717TIP3    H120115   1.930   2.143   1.094  0.5311 -0.7228  1.6787
 6717TIP3    H220116   1.833   2.252   1.138  0.7822 -0.3264  1.2667
 6718TIP3   OH220117   4.122   3.045   1.481  0.7887 -0.1230 -0.5109
 6718TIP3    H120118   4.069   3.002   1.414  0.2240 -0.8944  0.4035
 6718TIP3    H220119   4.068   3.118   1.512 -0.3272 -1.6426  1.2913
 6719TIP3   OH220120   1.465   2.598   2.589  0.0678  0.1401  0.4175
 6719TIP3    H120121   1.523   2.570   2.659  0.0016 -1.4161 -0.1067
 6719TIP3    H220122   1.432   2.684   2.617  2.4261  0.9798  0.8068
 6720TIP3   OH220123   2.102   4.599   1.138 -0.1191 -0.1240  0.1178
 6720TIP3    H120124   2.187   4.584   1.096 -0.0850  1.3520 -0.4197
 6720TIP3    H220125   2.041   4.611   1.066  0.2611  4.2361  0.2329
 6721TIP3   OH220126   6.169   1.412   0.678  0.1338 -0.4375  0.3723
 6721TIP3    H120127   6.207   1.336   0.635  3.2677  1.2039 -0.0311
 6721TIP3    H220128   6.141   1.380   0.764  1.2127 -2.0584  0.1572
 6722TIP3   OH220129   3.983   0.760   2.553  0.1794  0.0540  0.5456
 6722TIP3    H120130   4.022   0.846   2.541  1.4162 -0.7655 -1.6970
 6722TIP3    H220131   4.056   0.703   2.579  0.1130 -1.0256 -1.4730
 6723TIP3   OH220132   6.711   4.433   4.378 -0.8912 -0.2666 -0.4135
 6723TIP3    H120133   6.680   4.520   4.353 -1.8168 -0.7524 -0.9776
 6723TIP3    H220134   6.704   4.431   4.473 -0.9286  0.2524 -0.4051
 6724TIP3   OH220135   7.234   2.887   1.750 -0.0965  0.2019  0.0486
 6724TIP3    H120136   7.205   2.881   1.841 -0.6531 -1.1491 -0.2009
 6724TIP3    H220137   7.154   2.897   1.700  0.0841 -0.6156 -0.4144
 6725TIP3   OH220138   1.338   4.939   2.207  0.7868  0.4706 -0.2517
 6725TIP3    H120139   1.267   4.970   2.151 -0.0886 -0.9403  0.0041
 6725TIP3    H220140   1.312   4.963   2.295 -0.0676 -1.1708 -0.0138
 6726TIP3   OH220141   5.657   1.650   3.614  0.5384 -0.0873 -0.5114
 6726TIP3    H120142   5.587   1.660   3.679 -0.1399 -0.8887 -1.1010
 6726TIP3    H220143   5.676   1.739   3.585 -0.4075  0.1160 -0.5249
 6727TIP3   OH220144   2.956   5.945   0.674  0.2802 -0.0973 -0.2646
 6727TIP3    H120145   2.935   5.851   0.676  1.4535 -0.3949 -0.7670
 6727TIP3    H220146   2.874   5.988   0.696 -0.5992 -1.2012 -1.2155
 6728TIP3   OH220147   7.097   5.191   4.409 -0.1428 -0.1682  0.1121
 6728TIP3    H120148   7.182   5.151   4.424 -0.6974 -1.5166 -0.1869
 6728TIP3    H220149   7.052   5.131   4.350 -1.6903 -0.0234  1.0865
 6729TIP3   OH220150   2.159   0.716   5.401  0.0361  0.3940  0.1636
 6729TIP3    H120151   2.082   0.661   5.414  0.6000 -0.0139  2.1014
 6729TIP3    H220152   2.132   0.803   5.430  0.0248  0.4891 -0.1218
 6730TIP3   OH220153   3.332   1.800   3.589 -0.2171 -0.0041  0.6869
 6730TIP3    H120154   3.361   1.810   3.498 -1.7540  1.0123  0.2857
 6730TIP3    H220155   3.352   1.708   3.610  0.0201 -0.3048 -0.7200
 6731TIP3   OH220156   0.463   6.420   0.802  0.3777  0.6417 -0.2048
 6731TIP3    H120157   0.437   6.509   0.825  1.1854  0.5562  1.1843
 6731TIP3    H220158   0.410   6.364   0.859  0.7883  0.2971 -0.1561
 6732TIP3   OH220159   1.413   5.800   5.076 -0.5082  0.2170  0.2485
 6732TIP3    H120160   1.436   5.889   5.050 -0.4802 -0.1961 -1.2637
 6732TIP3    H220161   1.486   5.747   5.044 -1.5878 -0.6137 -0.9221
 6733TIP3   OH220162   0.102   1.400   1.193  0.1173 -0.2532 -0.0007
 6733TIP3    H120163   0.090   1.422   1.100 -0.1981  0.6995  0.2598
 6733TIP3    H220164   0.090   1.305   1.196  0.3238 -0.3272 -0.9670
 6734TIP3   OH220165   3.300   0.997   1.103  0.5484  0.1690 -0.4509
 6734TIP3    H120166   3.358   1.013   1.029  0.9514  0.6749 -0.0362
 6734TIP3    H220167   3.274   1.085   1.132 -0.8791 -0.0550 -0.9813
 6735TIP3   OH220168   3.769   4.781   5.836  0.2018  0.1199 -0.5102
 6735TIP3    H120169   3.743   4.690   5.848  0.5112 -0.1888 -1.9718
 6735TIP3    H220170   3.698   4.832   5.876 -0.6609 -0.7469 -0.8924
 6736TIP3   OH220171   1.982   2.185   2.463 -0.7014  0.1418 -0.3803
 6736TIP3    H120172   2.006   2.110   2.408  0.1582  0.9934 -1.1908
 6736TIP3    H220173   1.887   2.193   2.451 -0.9445 -1.2697  0.3241
 6737TIP3   OH220174   5.998   2.505   0.307 -0.3838  0.1697 -0.3346
 6737TIP3    H120175   5.908   2.474   0.300 -0.3258 -1.2131  3.0406
 6737TIP3    H220176   6.047   2.428   0.338  1.5983  1.3423 -0.3868
 6738TIP3   OH220177   7.058   3.335   5.349  0.1140  0.4310  0.1243
 6738TIP3    H120178   7.115   3.279   5.297  0.4481 -0.1579  1.0992
 6738TIP3    H220179   7.117   3.378   5.411 -0.5776 -0.8084  1.6985
 6739TIP3   OH220180   5.857   0.958   3.651  0.4529 -0.3180 -0.4064
 6739TIP3    H120181   5.945   0.953   3.689 -0.3285  1.2569  1.8498
 6739TIP3    H220182   5.831   1.050   3.664 -1.9391 -0.9820  0.0127
 6740TIP3   OH220183   4.036   3.101   3.737 -0.1479 -0.2294  0.0601
 6740TIP3    H120184   3.944   3.103   3.763 -0.3866  0.7757 -0.8077
 6740TIP3    H220185   4.048   3.015   3.697 -0.7038 -0.3593  0.1628
 6741TIP3   OH220186   2.109   0.611   5.118  0.0768 -0.0732 -0.1309
 6741TIP3    H120187   2.104   0.607   5.213  0.9257  2.7804  0.1429
 6741TIP3    H220188   2.029   0.657   5.092 -0.4329 -1.3503 -0.8758
 6742TIP3   OH220189   1.339   5.430   2.055  0.2911 -0.1098 -0.1262
 6742TIP3    H120190   1.311   5.520   2.076  0.5156 -0.2563  0.8673
 6742TIP3    H220191   1.410   5.412   2.117 -0.7557 -1.5014  0.7361
 6743TIP3   OH220192   4.565   0.952   1.684 -0.0119 -0.0739  0.1576
 6743TIP3    H120193   4.636   1.015   1.675 -0.8797  0.9210  0.1526
 6743TIP3    H220194   4.585   0.885   1.619  0.6271  0.4803 -0.2332
 6744TIP3   OH220195   1.634   2.910   5.887  0.3321  0.1128 -0.1814
 6744TIP3    H120196   1.712   2.946   5.930  0.5745  0.5913 -0.9793
 6744TIP3    H220197   1.669   2.859   5.813 -0.0387 -1.3630  0.6291
 6745TIP3   OH220198   6.585   1.063   5.710  0.4325  0.4662  0.2929
 6745TIP3    H120199   6.570   1.081   5.617  0.1558  0.7647  0.3932
 6745TIP3    H220200   6.652   0.994   5.710 -0.5417 -0.5243 -0.1680
 6746TIP3   OH220201   5.256   1.599   5.072 -0.5089 -0.2120 -0.8210
 6746TIP3    H120202   5.304   1.520   5.098 -0.1431  0.0106 -0.8051
 6746TIP3    H220203   5.202   1.620   5.148 -1.5020 -1.1112 -1.2530
 6747TIP3   OH220204   3.527   4.834   4.644 -0.4112 -0.2357 -0.1399
 6747TIP3    H120205   3.571   4.799   4.722 -0.1646  0.4938  0.0570
 6747TIP3    H220206   3.545   4.769   4.576  0.9105 -0.0193 -0.0385
 6748TIP3   OH220207   3.242   5.604   0.325 -0.0555  0.1235 -0.2974
 6748TIP3    H120208   3.181   5.676   0.310 -0.4579  0.3019  1.7989
 6748TIP3    H220209   3.237   5.551   0.246  0.4390  2.4861 -2.0094
 6749TIP3   OH220210   6.200   5.465   5.575 -0.2653 -0.1779 -0.0498
 6749TIP3    H120211   6.127   5.463   5.637  0.9869 -0.1019  1.5004
 6749TIP3    H220212   6.246   5.547   5.595  1.6229 -1.3592  0.7353
 6750TIP3   OH220213   0.761   2.658   5.230  0.1969  0.0108 -0.4760
 6750TIP3    H120214   0.745   2.623   5.143  0.1886 -0.7909 -0.1643
 6750TIP3    H220215   0.850   2.695   5.226  0.8943 -1.5746 -0.3669
 6751TIP3   OH220216   4.292   0.693   3.671 -0.1877 -0.4922 -0.3057
 6751TIP3    H120217   4.360   0.652   3.725 -0.0448 -0.6544 -0.6043
 6751TIP3    H220218   4.278   0.779   3.711 -1.0528 -1.1277  0.7974
 6752TIP3   OH220219   3.642   4.674   2.492  0.0342  0.0917  0.2047
 6752TIP3    H120220   3.720   4.726   2.474 -0.1364 -0.1152 -1.2460
 6752TIP3    H220221   3.569   4.733   2.473 -0.1599  0.0034  0.6751
 6753TIP3   OH220222   4.573   5.977   0.780 -0.0106 -0.1797  0.1813
 6753TIP3    H120223   4.591   5.932   0.862  0.3880 -2.1439 -0.9198
 6753TIP3    H220224   4.478   5.967   0.768 -0.1402  0.5060  0.6149
 6754TIP3   OH220225   3.547   4.372   2.184  0.0205  0.0036 -0.0628
 6754TIP3    H120226   3.543   4.467   2.178 -1.2882  0.0445  0.8990
 6754TIP3    H220227   3.580   4.355   2.273  2.0081 -0.4663 -0.8457
 6755TIP3   OH220228   2.225   0.566   2.249 -0.4830 -0.5285 -0.2136
 6755TIP3    H120229   2.194   0.580   2.160  0.7103 -1.3999 -0.7941
 6755TIP3    H220230   2.147   0.575   2.304 -1.1087  0.7348 -1.2528
 6756TIP3   OH220231   3.642   3.637   1.583 -0.0204  0.2949  0.4867
 6756TIP3    H120232   3.659   3.601   1.671 -0.6220 -0.6966  0.2138
 6756TIP3    H220233   3.546   3.646   1.579 -0.0035  0.2347 -0.1093
 6757TIP3   OH220234   0.568   0.980   1.448  0.5044 -0.3686 -0.4349
 6757TIP3    H120235   0.480   0.995   1.481  0.3793 -1.1968 -0.3843
 6757TIP3    H220236   0.612   1.065   1.458 -0.7540  0.5184 -1.9734
 6758TIP3   OH220237   3.238   2.127   1.047 -0.6703 -0.2236  0.3822
 6758TIP3    H120238   3.275   2.121   1.135 -1.0023  1.2632  0.6531
 6758TIP3    H220239   3.312   2.107   0.989 -0.2569 -0.4723  0.9813
 6759TIP3   OH220240   1.082   0.955   0.764  0.6164 -0.2913  0.3225
 6759TIP3    H120241   1.096   0.890   0.694  1.2577  1.1061 -0.9088
 6759TIP3    H220242   1.139   0.926   0.835  0.8148 -1.1263 -0.1593
 6760TIP3   OH220243   1.639  -0.011   2.369 -0.2213  1.1175  0.1826
 6760TIP3    H120244   1.696   0.056   2.407 -0.3322  1.4736 -0.2613
 6760TIP3    H220245   1.582   0.038   2.310 -1.9368  0.9902  1.6474
 6761TIP3   OH220246   7.030   2.140   1.590 -0.0032  0.2301 -0.6452
 6761TIP3    H120247   7.025   2.109   1.680 -1.5355  2.0583 -0.0245
 6761TIP3    H220248   7.115   2.185   1.585 -0.6366  1.6470  0.4845
 6762TIP3   OH220249   2.922   5.074   4.402  0.0328 -0.2595  0.0722
 6762TIP3    H120250   2.840   5.105   4.441 -0.4913 -1.2764 -0.1878
 6762TIP3    H220251   2.946   4.998   4.454 -0.0635 -0.9419 -0.8596
 6763TIP3   OH220252   2.366   3.125   5.180 -0.0594  0.5607  0.0715
 6763TIP3    H120253   2.428   3.085   5.120 -2.3359 -0.0972 -1.9908
 6763TIP3    H220254   2.352   3.058   5.248  1.0587  0.5337  0.2931
 6764TIP3   OH220255   6.425   3.965   3.225  0.2524 -0.8245  0.4690
 6764TIP3    H120256   6.394   4.026   3.292  1.5290 -0.8526  1.1215
 6764TIP3    H220257   6.365   3.891   3.232 -1.3862  0.3667 -0.4194
 6765TIP3   OH220258   6.372   2.071   0.835  0.4279  0.5202  0.1179
 6765TIP3    H120259   6.318   1.995   0.813 -0.5940  0.6657  1.9173
 6765TIP3    H220260   6.360   2.131   0.762 -0.6410 -0.0921 -0.2303
 6766TIP3   OH220261   0.039   0.542   0.743  0.5671 -0.1039 -0.1492
 6766TIP3    H120262   0.047   0.470   0.805 -2.5807 -1.6798 -1.3248
 6766TIP3    H220263  -0.008   0.610   0.792  0.4129 -0.2937 -0.0293
 6767TIP3   OH220264   6.998   5.045   1.892  0.0423 -0.0543 -0.4137
 6767TIP3    H120265   7.068   5.107   1.910  1.2334 -1.4084 -0.2225
 6767TIP3    H220266   6.932   5.096   1.846  1.0870  1.2857 -0.4746
 6768TIP3   OH220267   4.200   4.896   4.148 -0.4387  0.1254 -0.2793
 6768TIP3    H120268   4.280   4.856   4.114 -0.1738  0.3892  0.0223
 6768TIP3    H220269   4.179   4.844   4.226 -0.4587  0.1752 -0.2518
 6769TIP3   OH220270   5.118   2.489   2.063  0.1041  0.2459 -0.7824
 6769TIP3    H120271   5.176   2.422   2.098  1.2664  1.5104 -0.2161
 6769TIP3    H220272   5.030   2.459   2.086  0.7151 -0.0801  1.3054
 6770TIP3   OH220273   4.131   0.157   3.698  0.1278 -0.1290 -0.5694
 6770TIP3    H120274   4.083   0.104   3.762 -1.1621  0.6307 -0.8712
 6770TIP3    H220275   4.127   0.246   3.733  1.4402 -0.0652 -0.5452
 6771TIP3   OH220276   3.654   0.524   1.628  0.2286 -0.1982  0.5069
 6771TIP3    H120277   3.726   0.550   1.684  1.0763 -0.6107 -0.3588
 6771TIP3    H220278   3.646   0.594   1.563 -0.4145  0.0355  0.8243
 6772TIP3   OH220279   0.015   3.417   3.028 -0.0492 -0.1318  0.7921
 6772TIP3    H120280   0.084   3.351   3.018  0.7331  0.6489  0.9648
 6772TIP3    H220281  -0.055   3.387   2.969  1.3159  0.2297 -1.1107
 6773TIP3   OH220282   3.276   4.185   3.606  0.1367  0.4998  0.5093
 6773TIP3    H120283   3.217   4.259   3.617  2.3500  2.4176  0.3626
 6773TIP3    H220284   3.303   4.189   3.514 -1.8929 -2.3459 -0.3437
 6774TIP3   OH220285   2.048   5.012   5.613 -0.8262  0.3973  0.4396
 6774TIP3    H120286   2.024   4.967   5.532 -0.2945 -1.1896  1.1382
 6774TIP3    H220287   2.129   5.058   5.592 -0.3463 -0.5225  0.2220
 6775TIP3   OH220288   1.168   5.214   4.518  0.7525 -0.2378 -0.0077
 6775TIP3    H120289   1.239   5.267   4.554  2.4368 -1.6709 -1.0330
 6775TIP3    H220290   1.133   5.266   4.446 -0.5282  1.2651  1.6025
 6776TIP3   OH220291   3.023   0.208   0.354  0.6220  0.5047  0.3427
 6776TIP3    H120292   2.993   0.135   0.300  1.6970  1.3995 -1.5858
 6776TIP3    H220293   2.949   0.226   0.413 -0.4692 -0.7649 -0.5689
 6777TIP3   OH220294   0.919   2.733   3.102 -0.0914  0.1194 -0.4101
 6777TIP3    H120295   0.965   2.771   3.177 -0.3691 -0.2208 -0.0651
 6777TIP3    H220296   0.833   2.775   3.104  0.1791  0.7193 -1.0256
 6778TIP3   OH220297   3.308   6.076   2.166 -0.0087  0.1473  0.5717
 6778TIP3    H120298   3.330   6.020   2.241  1.3750  1.0170  0.8597
 6778TIP3    H220299   3.389   6.124   2.148 -1.0521  1.8222  0.1352
 6779TIP3   OH220300   2.513   4.653   5.528 -0.1372  0.0415  0.3923
 6779TIP3    H120301   2.577   4.581   5.534 -1.1427 -0.8625  0.7430
 6779TIP3    H220302   2.492   4.673   5.619  1.2125  1.8350  0.3675
 6780TIP3   OH220303   0.531   5.787   0.800 -0.0068 -0.2281 -0.0600
 6780TIP3    H120304   0.437   5.804   0.800 -0.1558 -0.9776 -0.4531
 6780TIP3    H220305   0.550   5.762   0.709  0.6251  0.1885 -0.0488
 6781TIP3   OH220306   0.243   1.993   5.034  0.1131  0.1754  0.2794
 6781TIP3    H120307   0.274   1.967   4.947 -1.1877  1.2200 -0.5275
 6781TIP3    H220308   0.209   1.912   5.073  0.6559 -0.2877 -0.1853
 6782TIP3   OH220309   0.097   2.176   1.702 -0.5329 -0.3246  0.2708
 6782TIP3    H120310   0.186   2.167   1.736 -0.4321  0.1087  0.1171
 6782TIP3    H220311   0.042   2.177   1.780 -0.1623  2.5966  0.5914
 6783TIP3   OH220312   2.944   3.605   0.136  0.6335 -0.2207 -0.3498
 6783TIP3    H120313   2.996   3.547   0.192  1.8819  2.5968  1.6499
 6783TIP3    H220314   2.962   3.693   0.170 -1.6118  1.3231 -2.8130
 6784TIP3   OH220315   2.968   3.431   2.907 -0.2098 -0.2226 -0.5573
 6784TIP3    H120316   2.885   3.389   2.885 -0.5094  0.1709 -0.1915
 6784TIP3    H220317   3.034   3.381   2.858 -0.9202  1.1941 -3.1326
 6785TIP3   OH220318   3.008   4.822   5.430  0.8854  0.1017  0.5390
 6785TIP3    H120319   3.042   4.911   5.436 -0.2856  0.5592  0.6594
 6785TIP3    H220320   2.924   4.825   5.476 -0.9998 -0.1081 -2.6027
 6786TIP3   OH220321   2.436   2.986   2.917 -0.1026  0.0384 -0.3673
 6786TIP3    H120322   2.433   2.894   2.891  0.3151  0.5824 -2.5501
 6786TIP3    H220323   2.350   3.003   2.957  0.4701 -1.7067  1.7590
 6787TIP3   OH220324   5.936   3.640   5.505 -0.1605  0.3487  0.4796
 6787TIP3    H120325   5.888   3.591   5.439  0.1948  0.8568 -0.1656
 6787TIP3    H220326   5.912   3.731   5.489  1.2193  0.6438 -0.0409
 6788TIP3   OH220327   5.209   6.365   4.050 -0.1893  0.2414 -0.2619
 6788TIP3    H120328   5.304   6.360   4.047 -0.2079  0.2376 -1.0053
 6788TIP3    H220329   5.185   6.320   4.131  0.4096 -0.1722 -0.3106
 6789TIP3   OH220330   3.537   5.864   5.667  0.1439 -0.5169 -0.3565
 6789TIP3    H120331   3.536   5.785   5.613  0.5798 -0.4930 -0.4037
 6789TIP3    H220332   3.601   5.922   5.624 -0.0404 -0.2123 -0.2213
 6790TIP3   OH220333   4.437   1.911   3.135 -0.1561  0.1830  0.9168
 6790TIP3    H120334   4.362   1.950   3.090  0.0261 -0.1783  0.2819
 6790TIP3    H220335   4.425   1.816   3.126  0.9210  0.1157 -0.1532
 6791TIP3   OH220336   6.583   0.811   1.290 -0.1780  0.2609 -0.1879
 6791TIP3    H120337   6.633   0.801   1.370 -2.3642  0.0482  1.2236
 6791TIP3    H220338   6.568   0.722   1.259 -0.3608  0.2810 -0.1589
 6792TIP3   OH220339   4.471   2.672   1.402  0.0146  1.0180 -0.7250
 6792TIP3    H120340   4.430   2.601   1.451 -0.9578  1.1883 -1.2548
 6792TIP3    H220341   4.532   2.712   1.464  0.7412 -0.4021 -0.4964
 6793TIP3   OH220342   3.074   3.408   5.730 -0.1741 -0.1364 -0.3065
 6793TIP3    H120343   3.109   3.366   5.808 -1.4856 -0.8220 -0.0565
 6793TIP3    H220344   2.983   3.377   5.725 -0.4558  0.8105 -1.4523
 6794TIP3   OH220345   5.114   4.717   5.470  0.2010  0.9645 -0.5336
 6794TIP3    H120346   5.142   4.793   5.419  1.3248  0.4015 -0.8114
 6794TIP3    H220347   5.134   4.642   5.413  4.2903  0.0581  1.7102
 6795TIP3   OH220348   0.860   1.365   5.284  0.5971  0.3840  0.0603
 6795TIP3    H120349   0.893   1.453   5.264 -0.0129  0.8948  1.2158
 6795TIP3    H220350   0.770   1.378   5.312 -0.0172 -0.8011 -1.2505
 6796TIP3   OH220351   3.716   1.728   0.420  0.2164  0.3432 -0.2860
 6796TIP3    H120352   3.630   1.698   0.391  0.3579 -0.2616 -0.0957
 6796TIP3    H220353   3.738   1.799   0.360  0.7129 -1.1922 -2.0452
 6797TIP3   OH220354   6.021   2.321   5.759  0.0643 -0.3759  0.5839
 6797TIP3    H120355   5.996   2.256   5.693 -0.6074  0.2476  0.2107
 6797TIP3    H220356   6.104   2.356   5.728 -0.3477  0.0600 -0.0530
 6798TIP3   OH220357   0.379   2.540   4.445  0.3914 -0.0148  0.6056
 6798TIP3    H120358   0.339   2.470   4.393  1.3244  0.0179 -0.1773
 6798TIP3    H220359   0.326   2.618   4.424  0.8968  0.0546 -0.5180
 6799TIP3   OH220360   3.193   2.164   4.194  0.7369  0.1945  0.2943
 6799TIP3    H120361   3.244   2.246   4.196  0.3324  0.4337  1.3399
 6799TIP3    H220362   3.176   2.150   4.101  0.3699  1.5847  0.1240
 6800TIP3   OH220363   6.776   6.491   0.301  0.6916 -0.4097  1.1750
 6800TIP3    H120364   6.701   6.537   0.264  0.7291  0.1890  1.8272
 6800TIP3    H220365   6.764   6.496   0.396 -0.4194 -3.5642  1.3380
 6801TIP3   OH220366   6.621   4.732   3.947 -0.3334  0.0401  0.4178
 6801TIP3    H120367   6.638   4.746   3.854 -1.4314  0.3513  0.2541
 6801TIP3    H220368   6.552   4.666   3.950  0.5646 -0.9161  1.0598
 6802TIP3   OH220369   7.135   6.036   1.512  0.1141 -0.2142  0.2665
 6802TIP3    H120370   7.141   6.011   1.604 -2.1729 -1.3273  0.1743
 6802TIP3    H220371   7.209   5.992   1.470 -0.1440 -1.6041  1.2141
 6803TIP3   OH220372   6.827   1.249   3.233 -0.2054 -0.3759  0.1754
 6803TIP3    H120373   6.774   1.181   3.274  0.3887 -1.0932 -0.2341
 6803TIP3    H220374   6.883   1.203   3.171 -1.3163  0.6971 -1.7159
 6804TIP3   OH220375   2.194   3.107   3.748  0.6814  0.2734 -0.6723
 6804TIP3    H120376   2.141   3.138   3.674  1.2568  0.8201 -0.8618
 6804TIP3    H220377   2.180   3.012   3.749 -0.4007  0.4162 -0.6377
 6805TIP3   OH220378   4.907   1.740   5.315  0.0501 -0.1411  0.0876
 6805TIP3    H120379   4.996   1.723   5.348 -0.7380 -1.7444  1.4999
 6805TIP3    H220380   4.865   1.790   5.385 -0.1055  0.8598 -0.6972
 6806TIP3   OH220381   5.880   1.040   5.158 -0.1477  0.2920 -0.1731
 6806TIP3    H120382   5.888   0.982   5.083  1.1539 -0.7881  0.7418
 6806TIP3    H220383   5.940   1.113   5.140  0.5043 -0.1951  0.0061
 6807TIP3   OH220384   5.843   3.594   0.520  0.2894 -0.0266 -0.2544
 6807TIP3    H120385   5.850   3.501   0.499  1.3332  0.1783 -0.8444
 6807TIP3    H220386   5.756   3.602   0.561  0.0277 -1.1827 -0.5385
 6808TIP3   OH220387   6.057   1.701   1.793  0.8526  0.0228  0.2206
 6808TIP3    H120388   5.968   1.732   1.809  0.9591  0.8773 -0.6652
 6808TIP3    H220389   6.070   1.630   1.855  0.0064  0.7242  1.2453
 6809TIP3   OH220390   6.036   0.895   2.156  0.8022  0.7448 -0.2135
 6809TIP3    H120391   5.998   0.974   2.193  0.5225  0.7524 -0.5093
 6809TIP3    H220392   6.033   0.831   2.227 -2.2950 -0.0922 -0.9532
 6810TIP3   OH220393   2.374   6.332   1.196  0.2341 -0.2785 -0.1057
 6810TIP3    H120394   2.468   6.317   1.188  0.1832 -1.2496  0.8064
 6810TIP3    H220395   2.367   6.415   1.243  0.6016  0.3735 -1.1595
 6811TIP3   OH220396   2.324   4.079   2.232  0.5578 -0.1639 -0.1001
 6811TIP3    H120397   2.377   4.011   2.273  1.3988  0.9297  0.6755
 6811TIP3    H220398   2.387   4.139   2.193 -0.1748  0.1760 -0.7820
 6812TIP3   OH220399   0.872   1.138   1.056 -0.0980  0.5187  0.1323
 6812TIP3    H120400   0.897   1.218   1.010 -0.2373  0.2322 -0.4582
 6812TIP3    H220401   0.827   1.085   0.990 -3.0924  1.3700  1.3435
 6813TIP3   OH220402   5.044   4.339   3.175 -0.1487 -0.3923  0.1733
 6813TIP3    H120403   5.007   4.271   3.230 -3.1373  0.7540 -0.2672
 6813TIP3    H220404   5.030   4.309   3.085 -0.0832  0.1236 -0.0157
 6814TIP3   OH220405   6.395   2.038   3.045  0.0994  0.1750 -0.3580
 6814TIP3    H120406   6.481   2.004   3.024  0.6097  0.4017  1.2270
 6814TIP3    H220407   6.383   2.112   2.986  0.6615 -0.3074 -1.0899
 6815TIP3   OH220408   1.383   3.316   0.138  0.3257 -0.4441 -0.0074
 6815TIP3    H120409   1.364   3.248   0.073 -0.5354 -0.6046  0.3880
 6815TIP3    H220410   1.316   3.383   0.122  1.1787  0.3275 -0.4015
 6816TIP3   OH220411   1.034   1.200   0.636  0.3074  0.2408 -0.4139
 6816TIP3    H120412   1.061   1.205   0.545  0.0742 -0.5974 -0.5318
 6816TIP3    H220413   1.045   1.108   0.660 -0.8426  0.1937  0.0160
 6817TIP3   OH220414   6.260   2.139   0.593  0.1095  0.3485  0.6182
 6817TIP3    H120415   6.225   2.081   0.527 -0.4088  1.7278 -0.3577
 6817TIP3    H220416   6.186   2.160   0.649 -0.9622  3.7168 -1.7758
 6818TIP3   OH220417   1.939   6.625   3.582 -0.0160  0.1334 -0.3652
 6818TIP3    H120418   1.880   6.689   3.543 -0.2787 -0.1961 -0.5205
 6818TIP3    H220419   1.905   6.540   3.552 -0.0613 -0.1121  0.3625
 6819TIP3   OH220420   0.225   0.683   0.621 -0.7357 -0.4085 -0.9099
 6819TIP3    H120421   0.184   0.624   0.685  1.6234  0.5622  1.7233
 6819TIP3    H220422   0.175   0.764   0.630  0.9868  0.4977  1.6529
 6820TIP3   OH220423   2.183   5.829   3.364 -0.4085 -0.3070  0.3382
 6820TIP3    H120424   2.122   5.787   3.425 -1.3472  0.1597 -0.2445
 6820TIP3    H220425   2.260   5.772   3.364 -0.6216 -0.6300  1.4967
 6821TIP3   OH220426   0.833   3.996   2.344  0.3936 -0.1054 -0.1044
 6821TIP3    H120427   0.871   4.023   2.428 -0.7426  1.7417 -0.1286
 6821TIP3    H220428   0.888   3.923   2.315  1.6559  0.1244  1.5660
 6822TIP3   OH220429   2.103   5.302   5.318  0.2335  0.6577 -0.1822
 6822TIP3    H120430   2.016   5.341   5.328  0.3957  0.9501  0.1027
 6822TIP3    H220431   2.147   5.358   5.254  0.9100  1.7225  1.1600
 6823TIP3   OH220432   6.849   2.074   5.533  0.3606 -0.1263  0.5702
 6823TIP3    H120433   6.802   2.112   5.458  1.6032 -1.2213 -0.8205
 6823TIP3    H220434   6.914   2.140   5.557  0.9612 -0.3688 -0.3268
 6824TIP3   OH220435   0.685   5.360   1.008  0.2079 -0.3917 -0.0259
 6824TIP3    H120436   0.633   5.281   1.027  0.5902 -0.9490 -1.1886
 6824TIP3    H220437   0.690   5.406   1.092 -1.5307 -0.6895  0.2829
 6825TIP3   OH220438   2.021   0.148   4.954 -0.5611  0.0668  0.0909
 6825TIP3    H120439   1.983   0.236   4.954 -0.4117  0.1309 -0.0798
 6825TIP3    H220440   2.016   0.119   4.863 -1.3112 -0.4058  0.2676
 6826TIP3   OH220441   1.448   0.892   0.445  0.2046 -0.1437 -0.2121
 6826TIP3    H120442   1.431   0.831   0.517 -0.5404  0.0880 -0.1812
 6826TIP3    H220443   1.501   0.842   0.383  0.0861 -0.6392  0.0812
 6827TIP3   OH220444   1.129   5.275   2.263 -0.7604 -0.5322 -0.0272
 6827TIP3    H120445   1.177   5.255   2.183  1.0596  0.9932  0.6204
 6827TIP3    H220446   1.077   5.352   2.242 -0.3188 -0.1599  0.2158
 6828TIP3   OH220447   0.980   1.847   1.112  0.3961 -0.0411  0.3733
 6828TIP3    H120448   1.059   1.891   1.144 -0.8400  2.4638  0.2201
 6828TIP3    H220449   0.920   1.918   1.088  0.1722 -1.5568 -5.1574
 6829TIP3   OH220450   3.223   3.578   4.957  0.0151 -0.1250  0.1445
 6829TIP3    H120451   3.259   3.514   5.018  2.4186  1.0227  0.0474
 6829TIP3    H220452   3.278   3.571   4.880 -0.1703  1.4873 -0.1690
 6830TIP3   OH220453   5.039   4.099   3.859 -0.1219 -0.4204 -0.2470
 6830TIP3    H120454   5.117   4.141   3.824  0.5958 -1.0157  0.6001
 6830TIP3    H220455   4.967   4.157   3.835  1.0696  2.9960  3.4994
 6831TIP3   OH220456   2.292   1.502   0.361  0.3207 -0.8215 -0.6695
 6831TIP3    H120457   2.311   1.460   0.277  0.2139 -0.6121 -0.7976
 6831TIP3    H220458   2.234   1.575   0.339 -1.3215 -1.9240 -0.1935
 6832TIP3   OH220459   2.816   0.162   1.142  0.0249 -0.3892  0.3213
 6832TIP3    H120460   2.791   0.078   1.103  0.5599 -2.0133  3.2212
 6832TIP3    H220461   2.733   0.204   1.163 -0.3137 -1.4213  1.1858
 6833TIP3   OH220462   5.404   2.597   0.267  0.4330  0.0743  0.9593
 6833TIP3    H120463   5.473   2.651   0.304  0.0851 -0.0834  1.8722
 6833TIP3    H220464   5.398   2.624   0.175  1.5575  0.2284  0.9180
 6834TIP3   OH220465   7.047   6.669   2.332 -0.4129 -0.0472  0.3513
 6834TIP3    H120466   6.959   6.707   2.331 -0.5450 -0.2849 -2.0793
 6834TIP3    H220467   7.088   6.707   2.410 -2.2377  1.0510  0.8489
 6835TIP3   OH220468   2.790   5.976   2.791 -0.4450 -0.4617 -0.1953
 6835TIP3    H120469   2.777   5.881   2.782 -2.7483 -0.3912  1.4250
 6835TIP3    H220470   2.728   6.002   2.859 -0.8815  2.4401 -1.5437
 6836TIP3   OH220471   4.294   1.818   0.506  0.4257  0.3132 -0.9410
 6836TIP3    H120472   4.363   1.806   0.571 -0.0156 -1.3741 -0.7375
 6836TIP3    H220473   4.225   1.864   0.553  0.0974 -0.9123 -0.1743
 6837TIP3   OH220474   6.295   1.025   3.233 -0.0863  0.4723  0.7770
 6837TIP3    H120475   6.280   1.118   3.213 -1.7624  0.1794  0.5636
 6837TIP3    H220476   6.384   1.009   3.204 -0.4849  1.4967 -1.1936
 6838TIP3   OH220477   6.586   1.248   3.896  0.4072 -0.1430 -0.5404
 6838TIP3    H120478   6.677   1.270   3.877  0.9908 -1.7904  0.1125
 6838TIP3    H220479   6.568   1.172   3.840  0.6358 -2.0873  1.8681
 6839TIP3   OH220480   5.909   2.228   3.173  0.0704 -0.5001 -0.1808
 6839TIP3    H120481   5.996   2.266   3.181  0.2763 -0.7837 -0.9929
 6839TIP3    H220482   5.920   2.155   3.112 -0.7796 -0.4002 -0.4634
 6840TIP3   OH220483   5.390   5.497   1.261  0.3673 -0.5341 -0.0948
 6840TIP3    H120484   5.336   5.548   1.322  1.1628  1.2529 -0.8141
 6840TIP3    H220485   5.328   5.446   1.209 -0.8091  2.2548 -1.6227
 6841TIP3   OH220486   6.138   3.801   4.268  0.5692  0.3484  0.4968
 6841TIP3    H120487   6.094   3.871   4.219 -0.6071 -0.4151  0.4022
 6841TIP3    H220488   6.071   3.732   4.276  1.9218 -1.0933 -0.0981
 6842TIP3   OH220489   1.726   1.558   2.858 -0.3165  0.1240  0.1365
 6842TIP3    H120490   1.703   1.647   2.832  1.3430  0.5173 -0.0580
 6842TIP3    H220491   1.687   1.503   2.790 -1.5476  0.6609  0.3788
 6843TIP3   OH220492   1.981   1.253   1.287 -0.0976  0.0278  0.0496
 6843TIP3    H120493   2.029   1.170   1.292  0.9914  0.3844 -2.6601
 6843TIP3    H220494   2.049   1.317   1.266 -0.9786  1.5921  1.7524
 6844TIP3   OH220495   5.743   3.525   1.438  0.3215 -0.3961  0.1729
 6844TIP3    H120496   5.807   3.456   1.450  0.2531 -0.3831  0.6226
 6844TIP3    H220497   5.793   3.601   1.408  0.4281 -0.5664 -0.0829
 6845TIP3   OH220498   4.273   5.821   1.263  0.1211  0.4688 -0.0545
 6845TIP3    H120499   4.344   5.765   1.231 -0.6813 -0.4511 -0.2771
 6845TIP3    H220500   4.235   5.859   1.183  0.4822  1.1327  0.0772
 6846TIP3   OH220501   5.879   3.159   3.537  0.2016  0.0416 -0.3260
 6846TIP3    H120502   5.799   3.128   3.578  0.0146  0.2656 -0.5202
 6846TIP3    H220503   5.851   3.200   3.456  0.2449  2.0896  0.6047
 6847TIP3   OH220504   0.100   1.505   3.816 -0.0266  0.7439 -0.1761
 6847TIP3    H120505   0.183   1.483   3.858  0.2751  0.6044 -0.8326
 6847TIP3    H220506   0.045   1.428   3.830 -0.1734  0.9861  0.5817
 6848TIP3   OH220507   4.123   0.808   1.918 -0.0839  0.0472  0.0745
 6848TIP3    H120508   4.188   0.749   1.955 -0.2367 -1.4686 -1.9165
 6848TIP3    H220509   4.054   0.751   1.883 -0.6393  1.4001 -1.1835
 6849TIP3   OH220510   2.159   5.228   4.432 -0.1594 -0.5951 -0.1997
 6849TIP3    H120511   2.108   5.286   4.488  0.5668  0.3845 -0.5377
 6849TIP3    H220512   2.131   5.140   4.457 -1.4751 -0.1041  0.1327
 6850TIP3   OH220513   4.527   6.026   0.295  0.2182  0.1565  0.3987
 6850TIP3    H120514   4.527   5.991   0.206 -1.8755 -0.0189  0.3991
 6850TIP3    H220515   4.608   6.077   0.301  0.1705  0.6180 -1.7926
 6851TIP3   OH220516   5.500   5.003   4.881 -0.5696 -0.4164  0.0443
 6851TIP3    H120517   5.571   4.951   4.844 -0.9026 -0.6325 -0.2971
 6851TIP3    H220518   5.532   5.093   4.879 -0.4711 -0.4609 -0.5122
 6852TIP3   OH220519   2.693   0.272   1.480  0.1812 -0.1585  0.3698
 6852TIP3    H120520   2.774   0.247   1.524  0.9749 -0.1868 -1.0489
 6852TIP3    H220521   2.722   0.319   1.402 -1.1444 -0.9981 -0.6651
 6853TIP3   OH220522   5.434   4.549   4.705 -0.6348  0.6981 -0.6433
 6853TIP3    H120523   5.426   4.547   4.800  1.7488 -1.1017 -0.4105
 6853TIP3    H220524   5.354   4.506   4.674  0.2531 -2.2105  0.7703
 6854TIP3   OH220525   6.682   1.542   1.802 -0.1025 -0.2482 -0.2745
 6854TIP3    H120526   6.675   1.464   1.856 -1.5167 -0.2414 -0.4096
 6854TIP3    H220527   6.755   1.524   1.743  2.5168  0.3156  2.5017
 6855TIP3   OH220528   5.799   5.488   0.875 -0.5361 -0.2234  0.6577
 6855TIP3    H120529   5.723   5.504   0.931 -1.9487 -0.7503 -1.0189
 6855TIP3    H220530   5.830   5.401   0.902 -1.8474 -0.9378 -0.0309
 6856TIP3   OH220531   0.901   3.583   0.191  0.2260 -0.0422 -0.2816
 6856TIP3    H120532   0.828   3.522   0.193  0.5437 -0.4114  1.2969
 6856TIP3    H220533   0.895   3.632   0.273  0.5947  1.3336 -1.0392
 6857TIP3   OH220534   0.721   1.389   4.163 -0.0147 -0.6095  0.1582
 6857TIP3    H120535   0.643   1.334   4.160  0.4685 -1.3479  0.7258
 6857TIP3    H220536   0.776   1.349   4.230 -0.1587  1.2862  1.4673
 6858TIP3   OH220537   0.004   1.187   2.125 -0.2044 -0.3881 -0.2044
 6858TIP3    H120538   0.081   1.196   2.069  0.7484  0.0379  1.1159
 6858TIP3    H220539  -0.060   1.247   2.087  0.5873  0.2394 -0.5868
 6859TIP3   OH220540   0.448   0.355   5.417 -0.0644 -0.0339  0.2138
 6859TIP3    H120541   0.531   0.366   5.463  0.0590  0.0732 -0.0316
 6859TIP3    H220542   0.390   0.315   5.481  0.6717 -1.6952 -0.1034
 6860TIP3   OH220543   4.551   2.065   5.715  0.0804 -0.1195  0.7106
 6860TIP3    H120544   4.507   1.982   5.699  0.5816 -0.0874 -1.0092
 6860TIP3    H220545   4.482   2.122   5.750 -0.2827 -1.2058  1.8308
 6861TIP3   OH220546   1.887   2.522   3.473  0.1313 -0.4179 -0.3567
 6861TIP3    H120547   1.832   2.594   3.443 -0.1466  0.8247  2.8133
 6861TIP3    H220548   1.831   2.445   3.468 -1.1296  0.4114  0.5434
 6862TIP3   OH220549   0.573   5.193   2.264  0.3444  0.0476  0.2972
 6862TIP3    H120550   0.644   5.129   2.257  0.2797  0.0531 -0.4688
 6862TIP3    H220551   0.596   5.262   2.202  0.1678  0.5400  0.7698
 6863TIP3   OH220552   4.292   3.965   2.971 -0.3241 -0.0075 -0.0770
 6863TIP3    H120553   4.308   3.883   2.924 -0.2783 -0.3340  0.5089
 6863TIP3    H220554   4.275   4.029   2.901  1.4099 -0.1021 -0.6518
 6864TIP3   OH220555   5.981   5.100   2.583 -0.2901 -0.4058 -0.0705
 6864TIP3    H120556   5.978   5.011   2.548 -0.5665 -0.4319  0.0159
 6864TIP3    H220557   5.918   5.149   2.530 -0.4218 -0.3524  0.1346
 6865TIP3   OH220558   1.038   3.399   4.794 -0.3804  0.7480 -0.0301
 6865TIP3    H120559   1.077   3.353   4.720  0.0453  0.3503  0.4391
 6865TIP3    H220560   0.974   3.338   4.830  1.0563 -0.0050  1.3582
 6866TIP3   OH220561   5.905   5.606   0.617  0.1411  0.6702  0.8796
 6866TIP3    H120562   5.864   5.546   0.679 -2.1487  0.4170 -0.7888
 6866TIP3    H220563   5.969   5.654   0.670 -1.6699  0.4462  3.4685
 6867TIP3   OH220564   1.715   3.663   1.683  0.0240  0.5388  0.1392
 6867TIP3    H120565   1.658   3.650   1.608  1.0256  0.5762 -0.6418
 6867TIP3    H220566   1.759   3.746   1.665  1.1352 -0.0223  0.1884
 6868TIP3   OH220567   6.047   2.824   0.262  0.0838 -0.1276  0.5366
 6868TIP3    H120568   5.959   2.861   0.251  0.2778  0.0122 -0.7164
 6868TIP3    H220569   6.037   2.731   0.239  0.5435  0.2097 -1.1258
 6869TIP3   OH220570   5.546   1.023   3.674 -0.0875  0.9017 -0.0063
 6869TIP3    H120571   5.507   1.071   3.748  1.1763  0.9307  0.6809
 6869TIP3    H220572   5.585   1.092   3.620  2.4972  0.7046  1.4335
 6870TIP3   OH220573   4.429   4.162   5.697  0.1021 -0.3427 -0.1524
 6870TIP3    H120574   4.336   4.151   5.713  0.2602 -2.8611 -0.5990
 6870TIP3    H220575   4.441   4.139   5.605  0.9200  1.9700 -0.6851
 6871TIP3   OH220576   3.374   6.255   5.716  0.1103 -0.5943  0.2000
 6871TIP3    H120577   3.428   6.297   5.648  0.2375  0.5290  0.9678
 6871TIP3    H220578   3.306   6.320   5.736 -0.3965 -1.2329  0.5987
 6872TIP3   OH220579   7.148   5.407   1.267 -0.3400 -0.1381 -0.2348
 6872TIP3    H120580   7.203   5.391   1.190 -1.1827 -0.4198 -0.7915
 6872TIP3    H220581   7.169   5.497   1.293 -2.2330  1.1125 -2.6602
 6873TIP3   OH220582   5.026   0.324   4.234 -0.3120  0.1690 -0.0135
 6873TIP3    H120583   5.072   0.362   4.159 -1.6201  2.7383  0.3619
 6873TIP3    H220584   5.039   0.230   4.225  2.1107  0.5875 -1.7463
 6874TIP3   OH220585   1.208   6.273   3.743 -0.1937 -0.8760 -0.1093
 6874TIP3    H120586   1.212   6.186   3.781  0.2400 -0.2926  1.2366
 6874TIP3    H220587   1.246   6.263   3.656 -1.6096 -2.3270 -0.6095
 6875TIP3   OH220588   2.645   3.989   1.105 -0.3607 -0.1147  0.1191
 6875TIP3    H120589   2.563   3.955   1.070  0.4488 -0.7859 -1.2314
 6875TIP3    H220590   2.707   3.982   1.032  0.9616  0.1345  1.1697
 6876TIP3   OH220591   1.784   1.395   0.814 -0.6272 -0.0433 -0.0612
 6876TIP3    H120592   1.844   1.470   0.811 -0.0022 -0.3228  2.7991
 6876TIP3    H220593   1.730   1.410   0.891 -1.8326 -1.6164 -0.5388
 6877TIP3   OH220594   5.472   1.235   1.749 -0.3994  0.2967  0.4647
 6877TIP3    H120595   5.472   1.142   1.726  1.4409  0.6061 -1.0829
 6877TIP3    H220596   5.519   1.239   1.832  1.2572 -0.0368 -0.4033
 6878TIP3   OH220597   0.838   0.661   3.863  0.8353  0.1373 -0.3713
 6878TIP3    H120598   0.926   0.637   3.891  1.1872  0.8919 -0.8187
 6878TIP3    H220599   0.825   0.750   3.895 -0.6785 -0.7772  1.7595
 6879TIP3   OH220600   2.175   6.083   3.982  0.2616  0.0804  0.3642
 6879TIP3    H120601   2.160   6.174   4.006  1.2841  0.6304 -0.9303
 6879TIP3    H220602   2.270   6.077   3.969  0.0756 -0.8302 -0.7988
 6880TIP3   OH220603   5.956   3.563   2.689 -0.3962 -0.1050  0.0274
 6880TIP3    H120604   5.908   3.599   2.764 -1.3476  1.7147 -1.3999
 6880TIP3    H220605   5.890   3.519   2.636  0.2702 -1.3423  0.1575
 6881TIP3   OH220606   6.102   6.302   0.638 -0.9131  0.3302 -0.4501
 6881TIP3    H120607   6.188   6.303   0.679  0.2456  0.5802 -2.7361
 6881TIP3    H220608   6.094   6.388   0.597 -1.8204 -0.0485 -1.1119
 6882TIP3   OH220609   1.344   4.467   3.191 -0.3544 -0.2165 -0.2367
 6882TIP3    H120610   1.403   4.396   3.165 -0.3305  0.2205 -1.4411
 6882TIP3    H220611   1.256   4.431   3.176 -0.4265 -0.7256  1.1824
 6883TIP3   OH220612   0.119   6.323   1.209  0.1375 -0.5965 -0.1002
 6883TIP3    H120613   0.056   6.394   1.224  0.0649 -0.8031  0.5784
 6883TIP3    H220614   0.161   6.309   1.294  1.3204 -0.2585 -0.6124
 6884TIP3   OH220615   7.078   0.711   3.751  0.1607  0.4992  0.3607
 6884TIP3    H120616   7.052   0.762   3.827  2.7241  2.0525  0.3303
 6884TIP3    H220617   7.055   0.766   3.676  0.7880  0.5407  0.1962
 6885TIP3   OH220618   0.176   1.061   3.126  0.2406  0.1904  0.2560
 6885TIP3    H120619   0.145   1.024   3.208 -0.2326  0.6447  0.2812
 6885TIP3    H220620   0.222   1.141   3.150  2.0369 -0.7817  0.2893
 6886TIP3   OH220621   1.452   3.645   5.247 -0.6804  0.7687  0.1756
 6886TIP3    H120622   1.502   3.718   5.213 -1.0147  1.2076  0.6177
 6886TIP3    H220623   1.484   3.569   5.198 -0.7508  1.2993 -0.7025
 6887TIP3   OH220624   1.231   3.230   3.125  0.5729 -0.5349  0.8155
 6887TIP3    H120625   1.252   3.321   3.150  0.2620 -0.4380  0.7245
 6887TIP3    H220626   1.268   3.177   3.195  0.6367 -0.3295  0.9385
 6888TIP3   OH220627   2.162   5.188   4.849 -0.1509 -0.7099 -0.3440
 6888TIP3    H120628   2.238   5.226   4.805 -0.7471 -0.6868 -1.3776
 6888TIP3    H220629   2.188   5.099   4.870  0.7578 -0.1912  0.8432
 6889TIP3   OH220630   3.010   3.149   4.004 -0.2763 -0.0261  0.3092
 6889TIP3    H120631   2.933   3.204   3.990 -0.7243 -0.0719  2.2138
 6889TIP3    H220632   3.016   3.095   3.925 -1.9737  0.2446 -0.0486
 6890TIP3   OH220633   3.843   4.526   1.988  0.6156 -0.1048  0.3438
 6890TIP3    H120634   3.790   4.450   1.965  0.9917 -0.6902  1.3584
 6890TIP3    H220635   3.785   4.579   2.043  0.7659 -0.2779  0.6700
 6891TIP3   OH220636   5.184   6.442   1.927  0.2687 -0.4553  0.0717
 6891TIP3    H120637   5.198   6.502   1.853 -1.0361 -0.8937 -0.5591
 6891TIP3    H220638   5.158   6.359   1.887 -2.4418 -0.1759  0.9862
 6892TIP3   OH220639   6.718   1.419   1.400 -0.2537  0.7153  0.0081
 6892TIP3    H120640   6.724   1.473   1.479 -1.0035  0.4448  0.2545
 6892TIP3    H220641   6.733   1.330   1.430  0.4418  0.7125 -0.3163
 6893TIP3   OH220642   6.236   1.335   3.097 -0.3047  0.9450  0.2449
 6893TIP3    H120643   6.317   1.313   3.144 -0.6029 -0.3710  0.1885
 6893TIP3    H220644   6.255   1.312   3.005 -0.6228  0.9499  0.1774
 6894TIP3   OH220645   3.495   2.724   2.705  0.7821 -0.4529 -0.2900
 6894TIP3    H120646   3.474   2.681   2.787 -0.2819  1.8094  0.7100
 6894TIP3    H220647   3.576   2.772   2.723  0.5469  0.0483 -0.5398
 6895TIP3   OH220648   1.825   5.911   4.409  0.2484 -0.2151 -0.7404
 6895TIP3    H120649   1.825   5.969   4.486 -0.7397 -0.3132 -0.6552
 6895TIP3    H220650   1.778   5.833   4.438  1.6145 -1.0972 -0.8404
 6896TIP3   OH220651   5.822   5.533   5.233  0.1351 -0.1734  0.5303
 6896TIP3    H120652   5.846   5.561   5.145  1.0214  1.4222  1.2457
 6896TIP3    H220653   5.895   5.480   5.263  0.1567 -0.1169  0.5773
 6897TIP3   OH220654   1.182   2.038   1.915 -0.4015  0.3535 -0.5400
 6897TIP3    H120655   1.178   2.132   1.902 -0.0739  0.1815 -2.1158
 6897TIP3    H220656   1.118   2.002   1.853  0.9855 -0.5487 -1.4963
 6898TIP3   OH220657   3.636   5.639   5.253 -0.3997 -0.4112  0.1670
 6898TIP3    H120658   3.649   5.671   5.343 -3.1839 -0.4223  0.6650
 6898TIP3    H220659   3.657   5.715   5.198 -0.3078  0.1357  0.9321
 6899TIP3   OH220660   2.413   5.332   4.400 -0.0398  0.4739 -0.8221
 6899TIP3    H120661   2.328   5.297   4.424 -0.1975  1.0142 -0.5905
 6899TIP3    H220662   2.399   5.427   4.391  0.1678  0.3902 -2.3233
 6900TIP3   OH220663   4.513   2.936   3.267  0.2928 -0.3905 -0.1783
 6900TIP3    H120664   4.470   2.864   3.314 -1.5213  1.7268  1.6988
 6900TIP3    H220665   4.475   2.934   3.179 -0.9054 -0.8238  0.3328
 6901TIP3   OH220666   3.272   5.025   1.422 -0.4169 -0.5413 -0.5493
 6901TIP3    H120667   3.257   5.096   1.359 -0.0262  1.1141  1.1201
 6901TIP3    H220668   3.363   5.000   1.409 -1.0141 -2.0330 -2.3316
 6902TIP3   OH220669   5.237   2.900   1.413 -0.3159 -1.0251  0.3366
 6902TIP3    H120670   5.184   2.821   1.409  0.0417 -1.2310 -0.3852
 6902TIP3    H220671   5.326   2.869   1.428 -0.1763 -0.7557  0.0680
 6903TIP3   OH220672   1.969   5.879   2.274  0.2094 -0.3298  0.0730
 6903TIP3    H120673   1.956   5.951   2.212  0.1697 -1.2320 -0.9920
 6903TIP3    H220674   2.063   5.882   2.294  0.1702  0.1380  0.2051
 6904TIP3   OH220675   3.713   3.450   2.581  0.7818 -0.6085 -0.4581
 6904TIP3    H120676   3.768   3.471   2.656 -0.8531  0.4069  0.5203
 6904TIP3    H220677   3.756   3.493   2.507  2.3071 -1.4581 -0.1176
 6905TIP3   OH220678   4.324   5.878   3.638 -0.2224  0.5046 -0.3066
 6905TIP3    H120679   4.417   5.883   3.617 -0.6957  2.3518 -2.3602
 6905TIP3    H220680   4.315   5.927   3.719  0.6607 -0.1783  0.2165
 6906TIP3   OH220681   2.662   5.461   3.437  0.1471  0.0338  0.1991
 6906TIP3    H120682   2.723   5.483   3.367  0.8020  0.5472  0.9268
 6906TIP3    H220683   2.679   5.369   3.456 -0.8040 -0.4308 -1.0639
 6907TIP3   OH220684   0.855   4.384   4.592  0.0299 -0.5494  0.2750
 6907TIP3    H120685   0.849   4.294   4.623 -1.9831 -0.0721  1.3687
 6907TIP3    H220686   0.765   4.414   4.586  0.6628  1.4026 -0.1076
 6908TIP3   OH220687   2.005   3.401   4.374 -0.2002  0.0702  0.0749
 6908TIP3    H120688   1.966   3.431   4.456 -0.4459 -2.0970  0.8181
 6908TIP3    H220689   2.097   3.386   4.395  0.1918  1.3481 -0.6075
 6909TIP3   OH220690   5.413   0.928   4.856 -0.6171 -0.0585  0.3178
 6909TIP3    H120691   5.468   0.921   4.778 -1.2429  0.6038 -0.2013
 6909TIP3    H220692   5.388   0.838   4.876 -0.2971 -0.2511 -0.1340
 6910TIP3   OH220693   0.082   4.447   1.921 -0.3912 -0.4358 -0.1955
 6910TIP3    H120694   0.100   4.495   2.002 -1.1962 -0.4618  0.0159
 6910TIP3    H220695   0.088   4.514   1.852 -0.8445 -0.1591  0.0229
 6911TIP3   OH220696   5.413   5.938   0.165  0.1938  0.5652  0.5338
 6911TIP3    H120697   5.497   5.969   0.199  0.4977  1.1403 -0.6776
 6911TIP3    H220698   5.360   6.017   0.157 -0.7125  0.1160  1.9161
 6912TIP3   OH220699   4.163   5.709   0.120  0.3241  0.2346 -0.0939
 6912TIP3    H120700   4.205   5.630   0.154 -0.0125 -1.2662 -2.9262
 6912TIP3    H220701   4.232   5.755   0.072  0.0921  0.8256  0.1181
 6913TIP3   OH220702   6.485   0.698   4.785 -0.0825  0.2409 -0.1036
 6913TIP3    H120703   6.476   0.683   4.691  2.7106 -0.5281 -0.3382
 6913TIP3    H220704   6.425   0.635   4.825  0.4658 -1.1462 -1.3593
 6914TIP3   OH220705   4.996   5.996   1.821 -0.1591  0.3898 -0.6800
 6914TIP3    H120706   5.077   6.046   1.821  0.0476  0.0686 -1.0037
 6914TIP3    H220707   5.004   5.937   1.896  0.2962 -0.2412 -1.2144
 6915TIP3   OH220708   5.192   0.943   2.222  0.0412 -0.2564 -0.3523
 6915TIP3    H120709   5.133   0.869   2.209 -0.4859  0.1863 -0.5277
 6915TIP3    H220710   5.186   0.964   2.315  0.0581 -0.3188 -0.3370
 6916TIP3   OH220711   5.619   0.756   1.837  0.4149 -0.0204 -0.4336
 6916TIP3    H120712   5.536   0.804   1.844  0.8452  0.5541  1.0885
 6916TIP3    H220713   5.650   0.776   1.749 -1.0872 -0.3206 -1.0680
 6917TIP3   OH220714   3.961   2.789   2.517  0.5414  0.0454  0.2381
 6917TIP3    H120715   4.036   2.730   2.523  1.2008  0.6382 -1.5906
 6917TIP3    H220716   3.962   2.837   2.600  0.6600 -1.6713  1.2889
 6918TIP3   OH220717   2.418   5.991   0.612  0.1842 -0.0049 -0.0014
 6918TIP3    H120718   2.371   5.914   0.643  0.6591 -0.3962 -0.2283
 6918TIP3    H220719   2.408   5.988   0.517  0.8761 -0.2467 -0.0760
 6919TIP3   OH220720   2.988   0.392   5.881 -0.1518 -0.3536 -0.5241
 6919TIP3    H120721   3.047   0.332   5.837 -0.4116 -1.3727  0.4812
 6919TIP3    H220722   3.010   0.478   5.844  0.4774 -0.9971 -1.7046
 6920TIP3   OH220723   1.820   3.546   4.582  0.0882 -0.3139 -0.2613
 6920TIP3    H120724   1.794   3.613   4.519 -0.8277  0.1954  0.6359
 6920TIP3    H220725   1.847   3.594   4.659  0.7845 -0.9477 -0.0981
 6921TIP3   OH220726   6.125   1.491   4.741  0.3691 -0.4679 -0.5160
 6921TIP3    H120727   6.183   1.562   4.769  0.3953 -0.2107 -1.2099
 6921TIP3    H220728   6.144   1.480   4.648 -0.2101 -0.8474 -0.5914
 6922TIP3   OH220729   4.789   3.976   1.495  0.2053  0.3284 -0.1658
 6922TIP3    H120730   4.763   3.900   1.546  1.0200 -0.2205 -0.5472
 6922TIP3    H220731   4.707   4.015   1.465 -0.2064 -0.6360 -0.3068
 6923TIP3   OH220732   4.220   3.804   3.805  0.0548  0.2275  0.2207
 6923TIP3    H120733   4.236   3.891   3.841  1.9679 -0.7928  2.0554
 6923TIP3    H220734   4.137   3.776   3.845 -1.0298  1.5048 -1.0682
 6924TIP3   OH220735   6.417   4.788   4.495  0.2932  0.5699  0.3423
 6924TIP3    H120736   6.391   4.766   4.405 -3.1342  3.8233  0.2749
 6924TIP3    H220737   6.511   4.773   4.497  0.4036 -0.3573 -3.5604
 6925TIP3   OH220738   4.049   6.740   0.803  0.1753 -0.4794 -0.6782
 6925TIP3    H120739   4.043   6.645   0.793  0.0041 -0.5370 -0.0895
 6925TIP3    H220740   3.974   6.775   0.755 -0.2585 -0.6994 -0.1640
 6926TIP3   OH220741   6.360   5.408   0.179 -0.1425  0.0001  0.1055
 6926TIP3    H120742   6.421   5.461   0.126 -0.7591 -1.6690 -2.4491
 6926TIP3    H220743   6.277   5.456   0.174 -0.1058  0.0421 -0.1388
 6927TIP3   OH220744   2.354   5.320   0.665 -0.4776  1.2601 -0.4842
 6927TIP3    H120745   2.294   5.378   0.619 -1.6618  2.0356  1.9277
 6927TIP3    H220746   2.303   5.240   0.679  0.4471  0.3671 -1.9171
 6928TIP3   OH220747   4.588   1.962   0.484 -0.4398  0.4695  0.2648
 6928TIP3    H120748   4.552   2.044   0.450  0.8105  0.7142 -0.5482
 6928TIP3    H220749   4.511   1.909   0.506 -1.3152  0.8335 -1.6895
 6929TIP3   OH220750   1.343   2.113   4.312 -0.3344  0.0172 -0.4445
 6929TIP3    H120751   1.253   2.134   4.338 -0.5026 -0.4460 -0.6509
 6929TIP3    H220752   1.392   2.114   4.394 -0.6296 -0.2438 -0.2643
 6930TIP3   OH220753   0.873   0.654   0.238  0.3441  0.1547 -0.4755
 6930TIP3    H120754   0.911   0.580   0.287  1.1271  1.6776  1.3165
 6930TIP3    H220755   0.781   0.656   0.264 -0.0706 -1.0599 -1.7046
 6931TIP3   OH220756   1.394   2.158   0.977  0.2424 -0.3401 -0.0934
 6931TIP3    H120757   1.392   2.080   1.033 -1.6912 -0.5994 -0.4420
 6931TIP3    H220758   1.311   2.202   0.996  1.1578  1.4761 -0.1557
 6932TIP3   OH220759   6.680   6.653   4.361 -0.8381  0.2667  0.1231
 6932TIP3    H120760   6.635   6.733   4.334 -1.8552  0.0807  1.2105
 6932TIP3    H220761   6.666   6.648   4.455 -1.7131 -1.7424 -0.0660
 6933TIP3   OH220762   2.680   1.316   4.697 -0.0752 -0.0703 -0.6056
 6933TIP3    H120763   2.759   1.360   4.665 -0.2075  0.5292 -0.1363
 6933TIP3    H220764   2.650   1.372   4.768  0.6481 -1.7623  1.1168
 6934TIP3   OH220765   5.528   5.020   1.204  0.3087  0.3888  0.1249
 6934TIP3    H120766   5.560   4.933   1.231  1.8028 -0.0345 -2.5925
 6934TIP3    H220767   5.493   5.006   1.116  1.3815  2.6589 -0.7418
 6935TIP3   OH220768   5.696   4.071   2.434  0.7288 -0.4601 -0.8295
 6935TIP3    H120769   5.640   3.994   2.439 -0.4446  0.3616 -0.9820
 6935TIP3    H220770   5.783   4.039   2.456  0.3771 -1.9443 -1.5053
 6936TIP3   OH220771   2.170   2.097   5.900 -0.0557  0.2029 -0.4602
 6936TIP3    H120772   2.159   2.023   5.841  2.8922 -2.3779  1.8417
 6936TIP3    H220773   2.259   2.128   5.884 -0.6708  2.2182 -0.2179
 6937TIP3   OH220774   5.330   2.823   0.460 -0.4110  0.3313  0.2881
 6937TIP3    H120775   5.243   2.791   0.484 -0.0516 -0.5379  0.4838
 6937TIP3    H220776   5.314   2.890   0.393 -1.2742  0.8653  1.0126
 6938TIP3   OH220777   5.551   5.777   1.834 -0.6370 -0.0885  0.3463
 6938TIP3    H120778   5.465   5.801   1.867 -1.3648 -1.4886 -0.4340
 6938TIP3    H220779   5.540   5.774   1.739  0.8787  1.8671  0.0294
 6939TIP3   OH220780   5.471   0.364   3.003 -0.1225 -0.1016  0.1535
 6939TIP3    H120781   5.456   0.366   3.097 -1.2562 -2.6691  0.1179
 6939TIP3    H220782   5.384   0.373   2.964  0.4801  2.5616 -0.7915
 6940TIP3   OH220783   6.946   4.281   1.195  0.3820 -0.2215 -0.3694
 6940TIP3    H120784   6.994   4.340   1.137 -1.7088  2.5910  0.5716
 6940TIP3    H220785   6.885   4.337   1.242 -0.7247 -2.9580  1.7490
 6941TIP3   OH220786   5.648   0.825   4.313 -0.0058 -0.3070 -0.0966
 6941TIP3    H120787   5.607   0.744   4.345  1.0301 -0.5835  0.5654
 6941TIP3    H220788   5.734   0.827   4.355  1.1994 -0.3630 -2.4049
 6942TIP3   OH220789   6.312   3.730   4.997 -0.0147  0.1676 -0.4872
 6942TIP3    H120790   6.326   3.769   4.911 -0.6888 -0.1414 -0.7484
 6942TIP3    H220791   6.279   3.642   4.978  1.1746 -0.4290  0.0866
 6943TIP3   OH220792   3.589   3.202   1.600  0.1891 -0.0666 -0.3946
 6943TIP3    H120793   3.529   3.245   1.539  1.1317  1.8425 -0.0592
 6943TIP3    H220794   3.536   3.137   1.645 -1.5138  1.2336 -0.4554
 6944TIP3   OH220795   1.034   1.041   3.173 -0.3863 -0.1804  0.3023
 6944TIP3    H120796   0.999   1.004   3.091 -0.4938 -1.5275  0.9273
 6944TIP3    H220797   1.125   1.012   3.175  0.0715  1.1385 -0.0513
 6945TIP3   OH220798   0.721   3.002   1.438  0.6738 -0.2295 -0.3329
 6945TIP3    H120799   0.633   2.966   1.448 -0.2910  2.1550  0.4944
 6945TIP3    H220800   0.734   3.010   1.343  1.0194 -2.7852 -0.5574
 6946TIP3   OH220801   0.829   3.364   3.401 -0.6028  0.5750  0.0129
 6946TIP3    H120802   0.869   3.277   3.392  0.1876  0.9907 -0.5515
 6946TIP3    H220803   0.744   3.346   3.442 -0.5591 -0.4935 -0.3155
 6947TIP3   OH220804   3.749   6.001   5.566  0.3246  0.0409 -0.0727
 6947TIP3    H120805   3.823   6.058   5.590  0.1334  0.2488  0.0204
 6947TIP3    H220806   3.791   5.923   5.531  0.6028 -0.0861  0.5255
 6948TIP3   OH220807   5.047   4.450   1.783  0.2089  0.2047  1.0017
 6948TIP3    H120808   5.024   4.409   1.699  1.6723 -0.4830  0.9004
 6948TIP3    H220809   5.070   4.377   1.840  0.7161  0.7528  1.5144
 6949TIP3   OH220810   5.438   0.648   1.569  0.0820 -0.2128  0.2416
 6949TIP3    H120811   5.452   0.717   1.504 -0.9393  0.1942  0.4401
 6949TIP3    H220812   5.482   0.571   1.532  0.1441  0.2117 -0.5896
 6950TIP3   OH220813   3.161   0.104   4.360  0.3211 -0.2416  0.0532
 6950TIP3    H120814   3.106   0.051   4.303  0.2621 -0.9568  0.7563
 6950TIP3    H220815   3.216   0.041   4.407  0.9276  0.3817  0.2078
 6951TIP3   OH220816   3.348   0.516   2.336 -0.1344  0.5922  0.0214
 6951TIP3    H120817   3.443   0.508   2.336 -0.1073  0.8810 -0.1236
 6951TIP3    H220818   3.322   0.490   2.248 -0.1825  0.5778  0.0402
 6952TIP3   OH220819   2.037   2.332   5.717  0.1025 -0.3771  0.4794
 6952TIP3    H120820   1.961   2.276   5.731 -0.5149 -0.0327 -1.2007
 6952TIP3    H220821   2.006   2.420   5.739  0.7194 -0.5048  1.9725
 6953TIP3   OH220822   4.480   0.673   5.630  0.0191 -0.0387  0.7670
 6953TIP3    H120823   4.427   0.603   5.593 -0.9256  0.3898  1.2603
 6953TIP3    H220824   4.570   0.643   5.621 -0.2606 -0.5069 -0.6704
 6954TIP3   OH220825   1.418   3.582   0.514  0.8089  0.6067 -0.2855
 6954TIP3    H120826   1.379   3.668   0.530  0.8177  0.5660 -0.0374
 6954TIP3    H220827   1.472   3.565   0.592  1.0060  0.4881 -0.4473
 6955TIP3   OH220828   4.293   5.501   2.755  0.4592 -0.1519  0.3246
 6955TIP3    H120829   4.227   5.432   2.752  0.7177 -0.4729  1.5029
 6955TIP3    H220830   4.341   5.485   2.836  1.0952  0.8925  0.1741
 6956TIP3   OH220831   2.580   2.787   4.643 -0.0642 -0.3845 -0.3874
 6956TIP3    H120832   2.636   2.775   4.720  1.3208 -0.4097 -1.3651
 6956TIP3    H220833   2.528   2.707   4.639  1.2852 -1.2837 -0.5929
 6957TIP3   OH220834   4.782   5.787   0.239  0.8235  0.9745 -0.1022
 6957TIP3    H120835   4.804   5.810   0.149 -1.3251  0.1389 -0.9080
 6957TIP3    H220836   4.778   5.691   0.238 -0.5248  1.0046  0.5101
 6958TIP3   OH220837   5.947   3.357   0.735  0.0007 -0.4151 -0.4933
 6958TIP3    H120838   5.869   3.409   0.754  1.7159  2.0432  0.2900
 6958TIP3    H220839   5.924   3.268   0.761 -2.2795  0.3773  0.4040
 6959TIP3   OH220840   0.181   4.429   4.785 -0.3122  0.9458  0.8210
 6959TIP3    H120841   0.119   4.492   4.748 -1.3758  0.4747  1.7679
 6959TIP3    H220842   0.257   4.482   4.809 -0.9740  1.7838  1.1124
 6960TIP3   OH220843   4.657   1.198   1.826 -0.4131 -0.2402  0.6814
 6960TIP3    H120844   4.603   1.212   1.903 -0.6425  0.2973  0.4241
 6960TIP3    H220845   4.644   1.276   1.772  1.6145  0.5434  1.2040
 6961TIP3   OH220846   3.858   5.753   4.295 -0.0974  0.6634 -0.4651
 6961TIP3    H120847   3.763   5.737   4.296  0.0541 -0.3173 -0.7709
 6961TIP3    H220848   3.897   5.666   4.298  0.7811  0.9575 -2.1016
 6962TIP3   OH220849   4.984   2.759   1.689 -0.0693 -0.3350 -0.1572
 6962TIP3    H120850   5.044   2.690   1.716  0.4446  0.2656  0.2855
 6962TIP3    H220851   4.914   2.714   1.643  1.3639 -0.9302 -1.8376
 6963TIP3   OH220852   6.279   1.499   1.043 -0.2862 -0.2256 -0.1470
 6963TIP3    H120853   6.342   1.428   1.028 -1.3893 -1.6281  1.4596
 6963TIP3    H220854   6.195   1.463   1.014 -1.0047  0.0868  1.4461
 6964TIP3   OH220855   1.074   1.952   0.446 -0.3113 -0.4594 -0.3400
 6964TIP3    H120856   1.028   1.970   0.364  0.9074  0.0665 -0.9239
 6964TIP3    H220857   1.013   1.980   0.515 -1.2740 -0.7502 -1.0573
 6965TIP3   OH220858   3.787   2.379   0.247  0.0960  0.0419 -0.4035
 6965TIP3    H120859   3.836   2.298   0.243 -1.2342 -0.9356  1.5879
 6965TIP3    H220860   3.841   2.442   0.199  2.7619 -1.1901  0.7786
 6966TIP3   OH220861   6.580   1.576   2.069 -0.1418 -0.7141  0.2416
 6966TIP3    H120862   6.588   1.567   1.974 -1.1335 -0.8064  0.1579
 6966TIP3    H220863   6.539   1.661   2.082  0.0380 -0.6786  0.5909
 6967TIP3   OH220864   1.845   4.699   5.166  0.1382  0.3925 -0.4133
 6967TIP3    H120865   1.864   4.743   5.083 -1.0531  0.4831 -0.6640
 6967TIP3    H220866   1.915   4.635   5.177 -0.2132 -0.3060 -1.9963
 6968TIP3   OH220867   0.284   3.039   3.276 -0.1996 -0.3968  0.0318
 6968TIP3    H120868   0.296   2.960   3.223 -2.1750 -0.4355 -0.3964
 6968TIP3    H220869   0.277   3.006   3.366  0.8074 -0.5229  0.0807
 6969TIP3   OH220870   0.929   3.912   3.914  0.3174  0.1824 -0.2992
 6969TIP3    H120871   0.899   3.862   3.989  0.9260 -0.7408 -0.6497
 6969TIP3    H220872   1.023   3.920   3.926  0.5726 -0.8243 -1.4288
 6970TIP3   OH220873   6.974   6.287   2.984 -0.7354  0.5249 -0.3236
 6970TIP3    H120874   6.968   6.258   2.893 -1.4136  1.5614 -0.6285
 6970TIP3    H220875   7.052   6.243   3.018  0.4127  1.2478 -1.8509
 6971TIP3   OH220876   1.346   0.723   1.770  0.6578 -0.5481 -0.1792
 6971TIP3    H120877   1.303   0.712   1.686 -0.4435  0.2421  0.2497
 6971TIP3    H220878   1.383   0.812   1.767  2.9162 -1.4448 -0.7976
 6972TIP3   OH220879   5.235   6.320   3.087  0.1150 -0.2377  0.6069
 6972TIP3    H120880   5.196   6.279   3.165  0.0298 -1.2357  0.0579
 6972TIP3    H220881   5.329   6.307   3.098  0.2843  1.5716  1.5999
 6973TIP3   OH220882   2.707   6.081   3.889  0.1408  0.1699 -0.2574
 6973TIP3    H120883   2.792   6.037   3.878  0.3656  0.2582  0.9428
 6973TIP3    H220884   2.643   6.020   3.853  0.5071 -0.9223  0.8579
 6974TIP3   OH220885   6.877   1.854   3.488  0.3543  0.1279  0.1457
 6974TIP3    H120886   6.875   1.904   3.570  1.4450 -0.4369  0.5458
 6974TIP3    H220887   6.906   1.918   3.422  0.4160  0.3508  0.3848
 6975TIP3   OH220888   3.564   2.407   2.313  0.0432  0.3459 -0.0110
 6975TIP3    H120889   3.508   2.394   2.389  0.4607 -0.3174  0.1921
 6975TIP3    H220890   3.621   2.480   2.337 -0.1861  0.4943  0.0914
 6976TIP3   OH220891   3.489   1.909   5.643 -0.5901  0.1029 -0.2657
 6976TIP3    H120892   3.553   1.871   5.582 -0.6438  0.5303 -0.5923
 6976TIP3    H220893   3.492   2.003   5.625  0.1271  0.3678  1.0830
 6977TIP3   OH220894   2.993   5.392   4.435 -0.0757 -0.0597 -0.4176
 6977TIP3    H120895   2.931   5.442   4.382  0.0509  1.0046  0.3966
 6977TIP3    H220896   3.000   5.307   4.391 -3.6744 -1.0328  0.5249
 6978TIP3   OH220897   1.515   1.403   4.378 -0.4625 -0.0551 -0.3397
 6978TIP3    H120898   1.548   1.380   4.465  2.4496  0.0279 -1.3017
 6978TIP3    H220899   1.475   1.323   4.345  1.2277 -1.0555 -0.0785
 6979TIP3   OH220900   2.448   6.362   0.559 -0.1392 -0.3015 -0.1942
 6979TIP3    H120901   2.541   6.339   0.564  0.0663  0.7017  0.8342
 6979TIP3    H220902   2.447   6.457   0.550 -1.0728 -0.3227 -0.4135
 6980TIP3   OH220903   2.045   5.625   1.938  0.3304  0.3628  0.0970
 6980TIP3    H120904   2.059   5.630   2.033 -0.1130  0.1875  0.1769
 6980TIP3    H220905   1.975   5.689   1.921 -0.3643 -0.3842  0.0623
 6981TIP3   OH220906   0.140   0.270   0.366  0.3134  0.3467 -0.3998
 6981TIP3    H120907   0.084   0.333   0.411  0.9593  1.4218 -1.0657
 6981TIP3    H220908   0.085   0.233   0.298 -0.6647 -1.2661  1.1793
 6982TIP3   OH220909   2.577   5.674   0.767  0.1414  0.0201  0.3190
 6982TIP3    H120910   2.573   5.587   0.807 -0.2483 -0.2374 -0.2659
 6982TIP3    H220911   2.582   5.735   0.841 -0.7318 -0.4333  0.7545
 6983TIP3   OH220912   4.412   1.313   2.711  0.1513 -0.1595 -0.0249
 6983TIP3    H120913   4.471   1.354   2.649  1.3967 -1.6504  0.1179
 6983TIP3    H220914   4.371   1.386   2.758  2.4689  0.9351  0.4132
 6984TIP3   OH220915   5.960   3.323   4.474 -0.4901 -0.0102 -0.8741
 6984TIP3    H120916   5.909   3.305   4.395  1.1330 -0.6375 -1.8347
 6984TIP3    H220917   5.959   3.240   4.523 -2.2887  0.6409  0.3048
 6985TIP3   OH220918   5.376   5.977   1.566 -0.2191 -0.6606 -0.0397
 6985TIP3    H120919   5.462   6.019   1.572 -0.2252 -0.4598 -1.1560
 6985TIP3    H220920   5.322   6.026   1.628  0.0781  0.2251 -0.4654
 6986TIP3   OH220921   1.338   2.323   4.775 -0.4250  0.2499  0.0218
 6986TIP3    H120922   1.402   2.270   4.821  0.8164  0.9506 -0.8542
 6986TIP3    H220923   1.370   2.413   4.783 -1.2429  0.6051 -0.5062
 6987TIP3   OH220924   3.063   3.497   1.855 -0.1224  0.1105 -0.2509
 6987TIP3    H120925   2.975   3.498   1.893  1.3840  1.9408  3.7567
 6987TIP3    H220926   3.107   3.424   1.900  0.8176  0.1304 -1.1059
 6988TIP3   OH220927   2.710   2.609   4.863  0.9240 -0.7128 -0.1091
 6988TIP3    H120928   2.670   2.608   4.950 -0.8947  0.8881 -0.8546
 6988TIP3    H220929   2.656   2.550   4.811  1.4974 -1.0102 -0.3761
 6989TIP3   OH220930   3.479   0.119   3.575 -0.6719  0.1502 -0.0463
 6989TIP3    H120931   3.541   0.056   3.611 -0.5553  0.7273  0.7785
 6989TIP3    H220932   3.522   0.153   3.497 -1.9572 -2.9700 -2.3625
 6990TIP3   OH220933   1.804   1.158   5.268 -0.0582  0.5418 -0.3711
 6990TIP3    H120934   1.808   1.072   5.226  0.7359 -0.0286  0.8087
 6990TIP3    H220935   1.889   1.198   5.250  1.3264 -0.7165  2.6118
 6991TIP3   OH220936   5.625   1.437   0.638  0.0365 -0.3773  0.2452
 6991TIP3    H120937   5.587   1.349   0.645 -0.4464 -0.2235 -0.3135
 6991TIP3    H220938   5.629   1.454   0.544 -0.0550  0.2724  0.3530
 6992TIP3   OH220939   3.249   0.018   3.697 -0.4328  0.5492 -0.5301
 6992TIP3    H120940   3.251   0.039   3.791 -3.7418  2.3883 -0.7538
 6992TIP3    H220941   3.331   0.054   3.663  1.5946 -1.4687  1.7565
 6993TIP3   OH220942   3.146   4.472   5.424 -0.3289 -0.1896 -0.1003
 6993TIP3    H120943   3.094   4.506   5.497  1.2587  0.0046  0.9905
 6993TIP3    H220944   3.097   4.396   5.393 -0.8451 -0.5157  1.4311
 6994TIP3   OH220945   1.924   1.535   1.035  0.5518 -0.0323 -0.4965
 6994TIP3    H120946   2.018   1.517   1.035  0.3848 -1.0682  0.7181
 6994TIP3    H220947   1.917   1.631   1.028  1.7426  0.1586  0.6240
 6995TIP3   OH220948   4.455   5.179   1.991 -0.1988 -0.4280 -0.3338
 6995TIP3    H120949   4.422   5.156   2.078 -0.1604  1.8030  0.3222
 6995TIP3    H220950   4.504   5.102   1.964 -1.3690 -1.7166  1.0139
 6996TIP3   OH220951   3.712   1.867   0.660  0.2683 -0.3208  0.4079
 6996TIP3    H120952   3.701   1.821   0.577 -0.1835 -0.5392  0.5824
 6996TIP3    H220953   3.697   1.799   0.727 -0.2788  0.0413  0.6654
 6997TIP3   OH220954   4.809   0.116   2.210  0.4521  0.0398 -0.1545
 6997TIP3    H120955   4.847   0.176   2.274  0.6552 -0.2119 -0.0350
 6997TIP3    H220956   4.843   0.145   2.126  2.2448 -1.1616  0.1025
 6998TIP3   OH220957   5.948   1.060   3.028  0.1126 -0.1016 -0.5603
 6998TIP3    H120958   6.021   1.002   3.007  0.6520  1.0310 -1.9978
 6998TIP3    H220959   5.939   1.116   2.951 -1.4600  0.6306  0.1098
 6999TIP3   OH220960   1.462   2.485   4.040 -0.1590 -0.0866 -0.3874
 6999TIP3    H120961   1.505   2.463   3.957  0.3472  0.4385 -0.2681
 6999TIP3    H220962   1.529   2.530   4.091 -0.4447 -0.4837  0.3449
 7000TIP3   OH220963   5.866   4.690   4.607 -0.2428  0.1763  0.2761
 7000TIP3    H120964   5.810   4.618   4.638 -0.5332  0.1611 -0.2797
 7000TIP3    H220965   5.822   4.722   4.529 -0.7573  1.7452  1.1728
 7001TIP3   OH220966   0.595   1.560   2.086 -0.1338  0.6098  0.2068
 7001TIP3    H120967   0.631   1.613   2.014 -0.2331  0.5199  0.0905
 7001TIP3    H220968   0.522   1.512   2.046  0.5841 -0.3845  0.0541
 7002TIP3   OH220969   6.823   4.940   1.689 -0.3041  0.5244 -0.4339
 7002TIP3    H120970   6.816   5.020   1.638 -2.2882  0.5679 -0.1616
 7002TIP3    H220971   6.768   4.955   1.766 -1.5478 -1.4237 -0.8604
 7003TIP3   OH220972   3.442   4.522   2.608  0.6433  0.4318  0.1536
 7003TIP3    H120973   3.502   4.596   2.601  0.5540  0.7355  1.9729
 7003TIP3    H220974   3.469   4.477   2.689 -1.9580  0.9760  1.4531
 7004TIP3   OH220975   4.396   4.386   0.324  0.5891  0.1942  0.3913
 7004TIP3    H120976   4.456   4.422   0.259  0.4658  0.8883  0.6471
 7004TIP3    H220977   4.361   4.463   0.369 -0.5752 -0.1874  0.1767
 7005TIP3   OH220978   7.118   0.762   0.835 -0.2651  0.2946 -0.1564
 7005TIP3    H120979   7.047   0.770   0.770 -0.2728 -0.4966 -0.2478
 7005TIP3    H220980   7.158   0.849   0.836  0.3487  0.0912 -1.9447
 7006TIP3   OH220981   0.365   3.836   1.880  0.0685 -0.0234 -0.0184
 7006TIP3    H120982   0.373   3.825   1.785 -0.3217 -0.5905  0.0121
 7006TIP3    H220983   0.309   3.914   1.890  1.2872  0.9051 -0.2388
 7007TIP3   OH220984   6.152   3.301   1.328  0.3958 -0.2626 -0.1398
 7007TIP3    H120985   6.126   3.336   1.242 -0.2583  2.7357  1.1708
 7007TIP3    H220986   6.238   3.262   1.312 -0.6668 -1.9423 -2.5897
 7008TIP3   OH220987   1.427   1.841   4.604  0.4342  0.3254 -0.9168
 7008TIP3    H120988   1.410   1.778   4.534  0.7965  0.9274 -1.5549
 7008TIP3    H220989   1.417   1.790   4.685 -0.9944 -0.1527 -1.3598
 7009TIP3   OH220990   1.673   1.007   3.775  0.4486  0.5582 -0.2671
 7009TIP3    H120991   1.597   1.064   3.784 -0.2223 -0.1774 -1.1549
 7009TIP3    H220992   1.748   1.067   3.775 -0.2035  1.3960 -0.6574
 7010TIP3   OH220993   5.750   4.716   5.187  0.3043 -0.0643  0.3003
 7010TIP3    H120994   5.683   4.667   5.139  0.7603  0.4866 -0.9350
 7010TIP3    H220995   5.796   4.649   5.238  0.7308 -0.9045 -1.1346
 7011TIP3   OH220996   2.564   0.835   1.468 -0.3349 -0.0978 -0.5140
 7011TIP3    H120997   2.602   0.865   1.385  0.0904  0.3431 -0.1694
 7011TIP3    H220998   2.492   0.895   1.485  1.4509  1.8128  0.9437
 7012TIP3   OH220999   5.827   4.712   2.227  0.8114  0.0697 -0.0489
 7012TIP3    H121000   5.800   4.726   2.136 -1.1699 -1.8923  0.1366
 7012TIP3    H221001   5.914   4.674   2.221  0.4845 -0.5449 -1.1786
 7013TIP3   OH221002   5.985   2.873   3.504 -0.4792  0.3404  0.2277
 7013TIP3    H121003   5.925   2.801   3.490 -0.0841  0.2607 -1.2219
 7013TIP3    H221004   5.935   2.937   3.555 -0.8892 -0.8481  1.3742
 7014TIP3   OH221005   2.608   1.248   5.715  0.0343 -0.1284  0.0025
 7014TIP3    H121006   2.588   1.160   5.683 -1.5018 -0.0522  0.6892
 7014TIP3    H221007   2.555   1.259   5.793 -1.7057  2.2495 -1.3483
 7015TIP3   OH221008   4.526   5.303   5.643 -0.4293  0.2667  0.0333
 7015TIP3    H121009   4.608   5.310   5.692  0.1568  1.3590 -1.0530
 7015TIP3    H221010   4.539   5.226   5.587  0.0590  0.6998 -0.4649
 7016TIP3   OH221011   1.392   5.346   0.851 -0.0602  0.2557 -0.1537
 7016TIP3    H121012   1.411   5.432   0.814  0.6405 -0.1796 -0.8215
 7016TIP3    H221013   1.317   5.313   0.801  0.7078 -0.2119 -1.0103
 7017TIP3   OH221014   3.377   4.696   1.119  0.7111  0.0019  0.3908
 7017TIP3    H121015   3.414   4.627   1.064  1.5777 -0.0204  0.9797
 7017TIP3    H221016   3.408   4.675   1.207 -1.9893 -0.9320  1.2509
 7018TIP3   OH221017   4.005   6.347   2.464  0.2343 -0.4615  0.1518
 7018TIP3    H121018   4.006   6.341   2.559  0.6330  1.4320  0.2968
 7018TIP3    H221019   3.912   6.351   2.441  0.1576 -0.2495  0.5059
 7019TIP3   OH221020   5.578   5.271   0.957 -0.3805  0.1596 -0.0322
 7019TIP3    H121021   5.613   5.306   1.039 -0.4115 -1.4806  0.7354
 7019TIP3    H221022   5.490   5.239   0.980 -0.4562 -0.1652 -0.7423
 7020TIP3   OH221023   3.713   5.330   1.731  0.4138 -0.0792 -0.7375
 7020TIP3    H121024   3.726   5.405   1.790 -1.6029 -0.4507  0.2479
 7020TIP3    H221025   3.799   5.290   1.725  0.6778 -0.1527  2.1702
 7021TIP3   OH221026   0.923   4.891   5.105  0.3934  0.4407  0.1352
 7021TIP3    H121027   0.837   4.916   5.139  0.0367  2.5373 -2.0736
 7021TIP3    H221028   0.970   4.859   5.181 -2.1085 -0.1689  1.5393
 7022TIP3   OH221029   0.426   5.209   2.752 -0.1168 -0.4461 -0.3026
 7022TIP3    H121030   0.496   5.212   2.687 -1.5475 -1.0634 -1.9695
 7022TIP3    H221031   0.388   5.297   2.750 -0.2239 -0.4935 -0.3940
 7023TIP3   OH221032   1.459   6.760   0.070 -0.4585  0.5198 -0.1812
 7023TIP3    H121033   1.542   6.734   0.029 -1.9014 -3.6090 -0.9207
 7023TIP3    H221034   1.478   6.756   0.164  0.5721  1.3756 -0.3229
 7024TIP3   OH221035   6.595   4.753   3.137 -0.3674  0.1829 -0.1249
 7024TIP3    H121036   6.653   4.781   3.208  0.4061 -0.2758 -0.5556
 7024TIP3    H221037   6.639   4.676   3.099  0.0899  1.3619 -2.1485
 7025TIP3   OH221038   3.585   6.565   2.523  0.1666 -0.9824 -0.4998
 7025TIP3    H121039   3.577   6.615   2.442 -0.8737 -0.5617 -0.1544
 7025TIP3    H221040   3.663   6.600   2.565 -0.1797 -0.0883 -0.5723
 7026TIP3   OH221041   2.712   2.566   5.699 -0.0577  0.2865 -0.1442
 7026TIP3    H121042   2.802   2.590   5.678 -0.3980  0.4092 -1.5078
 7026TIP3    H221043   2.659   2.635   5.660 -0.6958  1.0494  1.9356
 7027TIP3   OH221044   1.954   5.662   0.065 -0.3246  0.1889 -0.1545
 7027TIP3    H121045   1.868   5.701   0.079 -0.5349  0.5764 -2.2194
 7027TIP3    H221046   1.940   5.597  -0.004  0.6874 -1.1578  0.8357
 7028TIP3   OH221047   4.703   1.171   1.069 -0.0903  0.3691  0.2897
 7028TIP3    H121048   4.725   1.114   1.143  0.9866  1.4386  0.8475
 7028TIP3    H221049   4.614   1.147   1.045  0.6084 -2.1609 -0.0977
 7029TIP3   OH221050   5.137   3.779   0.657 -0.1771  0.4116 -0.5427
 7029TIP3    H121051   5.076   3.735   0.599 -0.0349  1.5903 -1.6202
 7029TIP3    H221052   5.111   3.871   0.654  2.2658  1.1501 -1.9180
 7030TIP3   OH221053   2.543   5.848   1.008 -0.7212 -0.1111  0.0216
 7030TIP3    H121054   2.563   5.933   0.968 -0.7112 -0.6178 -1.1072
 7030TIP3    H221055   2.449   5.852   1.028 -0.4464  0.6387  1.1879
 7031TIP3   OH221056   1.180   2.913   2.983 -0.0862  0.7117  0.5828
 7031TIP3    H121057   1.123   2.847   2.942  0.5131 -0.9292  2.2156
 7031TIP3    H221058   1.120   2.984   3.007 -0.6710  1.0621 -1.6705
 7032TIP3   OH221059   0.635   1.266   3.484  0.1112  0.0828 -0.0513
 7032TIP3    H121060   0.562   1.212   3.514 -0.2454  0.6332  0.1023
 7032TIP3    H221061   0.697   1.205   3.445 -0.8989 -0.3066 -1.1182
 7033TIP3   OH221062   0.728   6.578   1.051 -0.9133 -0.2226 -0.2366
 7033TIP3    H121063   0.696   6.633   1.123 -1.4303 -1.8616  0.8515
 7033TIP3    H221064   0.690   6.492   1.068  0.6577 -1.1851 -1.2890
 7034TIP3   OH221065   0.531   5.361   5.873  0.1256 -0.2253 -0.2866
 7034TIP3    H121066   0.583   5.288   5.839 -1.0391 -2.2144  1.8462
 7034TIP3    H221067   0.594   5.417   5.917  1.0208 -0.0634 -1.7348
 7035TIP3   OH221068   4.537   2.222   0.395  0.2926  0.0660  0.6273
 7035TIP3    H121069   4.471   2.234   0.464 -0.6666  0.1367 -0.2805
 7035TIP3    H221070   4.507   2.278   0.324  1.0192 -0.3737 -0.0362
 7036TIP3   OH221071   2.334   4.346   5.208 -0.4800  0.2146 -0.4459
 7036TIP3    H121072   2.428   4.329   5.209 -0.6742 -0.9412  1.1915
 7036TIP3    H221073   2.311   4.344   5.115  0.8089 -1.2604 -0.7818
 7037TIP3   OH221074   6.080   1.328   0.177 -0.2276  0.1682 -0.2947
 7037TIP3    H121075   6.163   1.376   0.185  1.0388 -2.1395  1.6033
 7037TIP3    H221076   6.061   1.330   0.083  2.6794 -0.2861 -1.0064
 7038TIP3   OH221077   3.532   0.807   2.334  0.0022  0.4243  0.3747
 7038TIP3    H121078   3.620   0.772   2.318 -0.2498 -0.0680  0.0271
 7038TIP3    H221079   3.501   0.834   2.247 -0.1494  0.7063  0.5136
 7039TIP3   OH221080   2.217   2.728   4.217  0.5277  0.2617 -0.0567
 7039TIP3    H121081   2.177   2.792   4.275 -0.0216  0.6278 -0.8154
 7039TIP3    H221082   2.291   2.774   4.178 -0.0732  0.5715 -0.8655
 7040TIP3   OH221083   5.965   3.984   4.925  0.0587 -0.3336  0.3117
 7040TIP3    H121084   5.871   3.989   4.904 -0.7081 -0.6860  3.1454
 7040TIP3    H221085   5.985   3.891   4.923  0.5985 -0.2087 -1.0678
 7041TIP3   OH221086   6.375   1.118   5.909 -0.1119  0.4257 -0.1163
 7041TIP3    H121087   6.372   1.139   5.815  0.6268  2.1224  0.1924
 7041TIP3    H221088   6.464   1.142   5.936 -0.0095 -0.9167  0.8517
 7042TIP3   OH221089   3.737   4.555   2.720 -0.0440 -0.1139  0.3006
 7042TIP3    H121090   3.783   4.590   2.796  0.3624  1.3285 -0.5557
 7042TIP3    H221091   3.692   4.631   2.682  0.1728 -0.6751 -1.1636
 7043TIP3   OH221092   0.657   0.744   0.688 -0.0288  0.0545 -0.7577
 7043TIP3    H121093   0.736   0.725   0.740  1.1401  1.2700 -1.9962
 7043TIP3    H221094   0.587   0.697   0.733  1.3714 -0.9644  0.4741
 7044TIP3   OH221095   3.583   0.873   2.763  0.1960  0.3811  0.0534
 7044TIP3    H121096   3.626   0.895   2.680  1.6334 -0.8410  0.4340
 7044TIP3    H221097   3.506   0.823   2.737  0.8078 -0.2765 -0.5509
 7045TIP3   OH221098   0.241   0.820   0.989  0.0071  0.3462 -0.0872
 7045TIP3    H121099   0.177   0.879   0.948 -1.0531 -1.2017 -0.7188
 7045TIP3    H221100   0.200   0.794   1.071 -0.3107 -0.8281 -0.5987
 7046TIP3   OH221101   0.969   4.209   0.304  0.0338  0.4666 -0.0109
 7046TIP3    H121102   1.035   4.167   0.248  0.8926 -0.8906  1.8939
 7046TIP3    H221103   0.920   4.266   0.246  2.6440  1.2220 -1.6165
 7047TIP3   OH221104   2.306   1.928   3.039 -0.1368  0.4382 -0.0688
 7047TIP3    H121105   2.274   2.017   3.051 -0.2795  0.5020 -0.8739
 7047TIP3    H221106   2.228   1.877   3.018 -0.2329 -0.1074  1.4706
 7048TIP3   OH221107   7.166   1.152   5.518  0.4105 -0.0044  0.6254
 7048TIP3    H121108   7.125   1.224   5.566  0.3255  0.7406 -0.5428
 7048TIP3    H221109   7.161   1.078   5.578  0.1342  0.8524  1.6957
 7049TIP3   OH221110   1.827   0.546   4.581  0.3360 -0.1264 -0.1127
 7049TIP3    H121111   1.733   0.550   4.597  0.0137  0.3033 -1.8913
 7049TIP3    H221112   1.863   0.622   4.626 -0.1880 -0.1849  0.4128
 7050TIP3   OH221113   6.130   5.640   0.827  0.1938 -0.3909 -0.0028
 7050TIP3    H121114   6.118   5.713   0.888 -0.2347  0.0740 -0.6312
 7050TIP3    H221115   6.222   5.615   0.838 -0.1141 -0.9473  1.5084
 7051TIP3   OH221116   5.770   6.437   3.959 -0.4600  0.1538  0.4293
 7051TIP3    H121117   5.728   6.400   3.881  0.2092  0.2007  0.0309
 7051TIP3    H221118   5.807   6.361   4.005  0.0800  0.2209  0.1203
 7052TIP3   OH221119   7.093   0.951   1.741  0.4830  0.0564 -0.3884
 7052TIP3    H121120   7.180   0.988   1.756  0.1621  0.7695 -0.2565
 7052TIP3    H221121   7.101   0.860   1.768  1.1125  0.1925 -0.0980
 7053TIP3   OH221122   2.874   3.736   4.285  0.1255  0.1064 -0.1130
 7053TIP3    H121123   2.968   3.730   4.305  0.2367 -0.0855 -0.6678
 7053TIP3    H221124   2.856   3.829   4.279 -0.2767  0.2726  2.4934
 7054TIP3   OH221125   1.046   4.861   3.844  0.0973 -0.4002 -0.2033
 7054TIP3    H121126   0.977   4.838   3.906  1.2610 -1.6217  0.7083
 7054TIP3    H221127   1.098   4.781   3.836  0.8747  0.2055 -1.5771
 7055TIP3   OH221128   6.083   5.380   0.735  0.5144 -0.1561  0.4695
 7055TIP3    H121129   6.031   5.343   0.807 -2.7856  0.1798 -1.5504
 7055TIP3    H221130   6.086   5.474   0.754 -2.2324  0.2699 -0.7689
 7056TIP3   OH221131   1.452   0.961   1.738  0.0349 -0.3843  0.1934
 7056TIP3    H121132   1.405   1.032   1.782  0.2842  0.0050 -0.1554
 7056TIP3    H221133   1.455   0.988   1.646 -1.5587 -1.7709 -0.2980
 7057TIP3   OH221134   1.825   1.899   5.448  0.3311 -0.7452  0.4256
 7057TIP3    H121135   1.737   1.884   5.483  1.1951 -2.5370  2.0256
 7057TIP3    H221136   1.827   1.993   5.427 -2.0301 -0.7163  0.0377
 7058TIP3   OH221137   4.380   5.700   5.438  0.4243 -0.1107 -0.1760
 7058TIP3    H121138   4.369   5.606   5.424 -1.5741  0.1115 -0.4052
 7058TIP3    H221139   4.422   5.707   5.523  0.0296 -1.2013  0.1242
 7059TIP3   OH221140   0.980   2.772   2.824 -0.0097  0.4529 -0.3656
 7059TIP3    H121141   0.892   2.790   2.790  0.4957  2.2130 -0.8478
 7059TIP3    H221142   0.965   2.718   2.902 -1.5669  1.1364 -0.1520
 7060TIP3   OH221143   1.480   0.162   0.299  0.6196 -0.1839 -0.2484
 7060TIP3    H121144   1.436   0.079   0.280 -0.4944  0.3671 -0.1536
 7060TIP3    H221145   1.539   0.143   0.372 -1.3233 -0.3991  1.3409
 7061TIP3   OH221146   0.599   1.225   0.716 -0.3399  0.8031  0.3518
 7061TIP3    H121147   0.614   1.157   0.651  0.0912  0.2852  0.9842
 7061TIP3    H221148   0.516   1.202   0.756  0.7308 -0.4995  1.9342
 7062TIP3   OH221149   7.054   3.345   4.673  0.5444  0.6290 -0.0623
 7062TIP3    H121150   6.999   3.290   4.729  0.6487 -0.4057 -0.9228
 7062TIP3    H221151   7.032   3.316   4.584  0.4045  2.2028 -0.5579
 7063TIP3   OH221152   2.197   3.570   0.503  0.0067 -0.2236 -0.1204
 7063TIP3    H121153   2.210   3.527   0.418  0.3310 -0.6193  0.1316
 7063TIP3    H221154   2.211   3.501   0.568  1.0431  0.3684  0.3088
 7064TIP3   OH221155   1.824   5.371   5.213  0.0305  0.3502  0.1534
 7064TIP3    H121156   1.765   5.318   5.265  2.5330 -0.0637  2.8532
 7064TIP3    H221157   1.857   5.313   5.145 -0.1764 -0.4001  0.6918
 7065TIP3   OH221158   2.012   2.877   2.898 -0.3630 -0.2459 -0.1345
 7065TIP3    H121159   2.047   2.788   2.900  0.7413  0.1946  0.8335
 7065TIP3    H221160   1.997   2.895   2.805 -1.1666 -1.6390 -0.3024
 7066TIP3   OH221161   2.467   0.152   3.642  0.3783 -0.7639  0.2211
 7066TIP3    H121162   2.480   0.164   3.549 -2.1872 -1.1618 -0.2738
 7066TIP3    H221163   2.380   0.189   3.660  0.6380 -1.0211  2.3664
 7067TIP3   OH221164   1.548   0.209   3.677  0.1730 -0.0763 -0.2689
 7067TIP3    H121165   1.638   0.189   3.649  0.6119  1.3541  0.0460
 7067TIP3    H221166   1.531   0.147   3.748  2.1838  1.7217  1.9578
 7068TIP3   OH221167   5.886   3.310   2.413 -0.1660 -0.4786 -0.0568
 7068TIP3    H121168   5.901   3.283   2.503 -1.1019 -0.3584  0.1455
 7068TIP3    H221169   5.936   3.248   2.360  2.8829  1.2401  0.6022
 7069TIP3   OH221170   2.160   6.054   0.329  0.0649  0.0851  0.0041
 7069TIP3    H121171   2.226   6.094   0.385  0.7837 -1.6420  0.4537
 7069TIP3    H221172   2.104   6.005   0.389 -0.2654 -0.3038 -0.6045
 7070TIP3   OH221173   3.126   0.134   0.633 -0.1160  0.0787 -0.0238
 7070TIP3    H121174   3.119   0.116   0.727 -0.5943 -0.0012 -0.0693
 7070TIP3    H221175   3.061   0.077   0.593  0.1099  0.0861 -0.4099
 7071TIP3   OH221176   4.388   2.574   5.571  0.0979 -0.0131 -0.7341
 7071TIP3    H121177   4.355   2.658   5.540  0.4345  0.4510  0.1241
 7071TIP3    H221178   4.311   2.525   5.598 -0.1044 -0.0063 -1.2993
 7072TIP3   OH221179   2.793   5.024   0.031 -0.2310 -0.3518  0.3021
 7072TIP3    H121180   2.723   4.979   0.079  0.6322 -1.2253  0.7857
 7072TIP3    H221181   2.748   5.090  -0.020 -1.2399  0.3890  2.0529
 7073TIP3   OH221182   2.328   2.631   1.059 -0.4799 -0.1570 -0.9918
 7073TIP3    H121183   2.294   2.586   1.137 -0.2221 -0.0518 -0.8163
 7073TIP3    H221184   2.352   2.718   1.091  1.3834 -0.7241 -0.7627
 7074TIP3   OH221185   0.320   3.576   3.839 -0.3790 -0.5906  0.0194
 7074TIP3    H121186   0.312   3.534   3.754 -1.9315 -1.4424  0.5275
 7074TIP3    H221187   0.349   3.665   3.821  0.0644 -0.9963 -1.3254
 7075TIP3   OH221188   4.633   4.973   0.384  0.0405 -0.1566  0.0864
 7075TIP3    H121189   4.588   5.056   0.401 -1.3147 -0.8970  0.2612
 7075TIP3    H221190   4.722   4.987   0.415 -0.0898  1.3118 -0.1221
 7076TIP3   OH221191   4.522   5.440   0.470  0.4774  0.7449 -0.6123
 7076TIP3    H121192   4.518   5.347   0.446  1.1402  0.0836  1.5761
 7076TIP3    H221193   4.513   5.440   0.565  0.4716  2.9479 -0.5735
 7077TIP3   OH221194   3.911   3.224   4.512 -0.1242 -0.1265 -0.6401
 7077TIP3    H121195   3.857   3.166   4.566  0.0062 -0.3576 -0.7545
 7077TIP3    H221196   3.850   3.288   4.476 -0.1089  0.4456  0.3315
 7078TIP3   OH221197   5.806   2.075   2.790 -0.1087 -0.3333  0.2174
 7078TIP3    H121198   5.891   2.078   2.835  0.0636  0.2681 -0.1325
 7078TIP3    H221199   5.817   2.008   2.722  0.3641  0.3209 -0.3619
 7079TIP3   OH221200   6.707   4.402   2.131 -0.2387  0.0839  0.0746
 7079TIP3    H121201   6.756   4.464   2.185  0.1102  0.0304 -0.1798
 7079TIP3    H221202   6.768   4.376   2.062 -0.7965  0.4223 -0.5530
 7080TIP3   OH221203   6.592   6.706   5.357 -0.3294  0.2635 -0.2335
 7080TIP3    H121204   6.608   6.750   5.274  0.9398  0.4957  0.1207
 7080TIP3    H221205   6.527   6.760   5.401  0.8546  1.5537 -0.0090
 7081TIP3   OH221206   3.566   4.387   5.686 -0.4329 -0.0245  0.1715
 7081TIP3    H121207   3.521   4.472   5.691 -2.4544 -0.9479 -1.0293
 7081TIP3    H221208   3.602   4.385   5.597  2.3260  0.7835  1.1778
 7082TIP3   OH221209   3.877   6.195   3.954  0.2168 -0.0126 -0.4490
 7082TIP3    H121210   3.962   6.183   3.910  0.5272  0.2772  0.0640
 7082TIP3    H221211   3.815   6.147   3.899  0.6327  0.1746 -1.0986
 7083TIP3   OH221212   4.446   0.225   0.354 -0.0771 -0.0444  0.2430
 7083TIP3    H121213   4.406   0.305   0.321 -2.2657 -1.3235 -0.3928
 7083TIP3    H221214   4.527   0.216   0.304  0.3307  1.8425  0.4879
 7084TIP3   OH221215   2.246   0.559   4.025  0.1628  0.4169 -0.8309
 7084TIP3    H121216   2.209   0.471   4.033  1.2338  0.0179 -0.0834
 7084TIP3    H221217   2.281   0.579   4.112  0.5861  1.2917 -1.1857
 7085TIP3   OH221218   4.874   3.266   4.329  0.2889 -0.3337 -0.2197
 7085TIP3    H121219   4.882   3.173   4.352 -0.2607 -0.7772 -1.7112
 7085TIP3    H221220   4.788   3.272   4.287  0.1875  0.9305  0.1353
 7086TIP3   OH221221   2.026   4.214   0.066  0.2828  0.2815  0.1814
 7086TIP3    H121222   2.083   4.151   0.109  0.0852  0.2532  0.4036
 7086TIP3    H221223   1.993   4.269   0.137 -0.3810 -0.0337  0.1211
 7087TIP3   OH221224   4.941   3.610   0.585 -0.2030  0.0176 -0.6417
 7087TIP3    H121225   4.986   3.535   0.624 -0.4907  0.2384  0.1181
 7087TIP3    H221226   4.926   3.583   0.494 -1.1293 -1.2428 -0.1628
 7088TIP3   OH221227   4.123   3.534   4.917 -0.3995  0.2917  0.2374
 7088TIP3    H121228   4.044   3.570   4.958 -0.4613 -0.2627  0.6237
 7088TIP3    H221229   4.092   3.490   4.838 -0.2904  1.2976 -0.3681
 7089TIP3   OH221230   2.479   4.748   5.274  0.5355  0.2548  0.2049
 7089TIP3    H121231   2.530   4.829   5.271  1.6179 -0.3827  0.7236
 7089TIP3    H221232   2.470   4.728   5.367  0.5236 -0.3704  0.0757
 7090TIP3   OH221233   6.066   4.360   5.094 -0.4276 -0.1198 -0.3301
 7090TIP3    H121234   6.085   4.268   5.079  0.0608  0.1810 -1.7812
 7090TIP3    H221235   6.077   4.373   5.188 -1.0988 -1.6555 -0.0107
 7091TIP3   OH221236   4.530   4.405   3.540 -0.2980  0.5771  0.0513
 7091TIP3    H121237   4.487   4.464   3.479 -0.0709 -1.0265 -1.7769
 7091TIP3    H221238   4.622   4.405   3.513  0.2232  1.3389  1.7037
 7092TIP3   OH221239   0.084   2.250   4.540  0.7156  0.2135  0.1891
 7092TIP3    H121240   0.073   2.155   4.541  1.3938  0.1308  0.8424
 7092TIP3    H221241   0.144   2.268   4.613 -0.2596  1.2485  0.7832
 7093TIP3   OH221242   7.135   5.506   2.523  0.3459  0.3421 -0.2227
 7093TIP3    H121243   7.176   5.424   2.550 -0.6004 -0.5599 -1.4479
 7093TIP3    H221244   7.044   5.498   2.550  0.0544  0.6366 -1.0828
 7094TIP3   OH221245   6.414   2.189   5.571  0.2907  0.5855 -0.6167
 7094TIP3    H121246   6.438   2.103   5.537 -0.2038  0.1879  0.0059
 7094TIP3    H221247   6.327   2.206   5.534 -1.4826 -1.0453  2.4003
 7095TIP3   OH221248   6.191   4.489   2.396 -0.8219 -0.2820  1.1119
 7095TIP3    H121249   6.169   4.494   2.303 -2.3311 -1.4903  1.3636
 7095TIP3    H221250   6.279   4.451   2.397 -0.5074  0.3680  0.1770
 7096TIP3   OH221251   0.849   4.484   3.719 -0.4448 -0.5021 -0.0224
 7096TIP3    H121252   0.807   4.470   3.634 -1.6840  1.2993  0.2436
 7096TIP3    H221253   0.943   4.481   3.700 -0.6957 -0.2241 -1.4479
 7097TIP3   OH221254   4.925   5.132   1.248  0.0628 -0.0792 -0.6500
 7097TIP3    H121255   4.849   5.128   1.307  1.5939 -1.7358  1.3766
 7097TIP3    H221256   4.888   5.127   1.160 -2.2190  0.1871  0.2310
 7098TIP3   OH221257   6.352   4.527   2.685  0.4112  0.0628  0.1214
 7098TIP3    H121258   6.330   4.517   2.778  0.1040 -0.1891  0.0220
 7098TIP3    H221259   6.412   4.453   2.668 -1.8573 -1.7146 -0.6130
 7099TIP3   OH221260   4.729   0.149   1.136 -0.1034  0.3869 -0.0636
 7099TIP3    H121261   4.802   0.139   1.196 -0.2443  1.1059  0.2376
 7099TIP3    H221262   4.770   0.156   1.050  0.2767  1.8912  0.2084
 7100TIP3   OH221263   6.384   2.271   1.019  0.1155  0.3066  0.2156
 7100TIP3    H121264   6.310   2.321   0.984  0.7617  0.8501 -0.4186
 7100TIP3    H221265   6.379   2.186   0.975 -0.3943  0.1717  0.5246
 7101TIP3   OH221266   1.098   2.471   1.572 -0.3311  0.0469  0.2029
 7101TIP3    H121267   1.056   2.556   1.559 -0.4698 -0.1975 -1.0370
 7101TIP3    H221268   1.051   2.432   1.645 -0.2642  1.0222  0.7984
 7102TIP3   OH221269   1.623   2.000   5.758  0.4127 -0.1810 -0.4042
 7102TIP3    H121270   1.679   1.938   5.712  1.0394  0.4835 -0.5401
 7102TIP3    H221271   1.534   1.976   5.731  0.7861  0.6216 -2.4994
 7103TIP3   OH221272   6.208   4.352   3.195 -0.3552 -0.1195 -0.1327
 7103TIP3    H121273   6.254   4.295   3.257 -1.2258 -0.4348  0.2393
 7103TIP3    H221274   6.206   4.437   3.238  0.9493  0.2134 -0.6894
 7104TIP3   OH221275   0.220   5.770  -0.005 -0.2489 -0.1881  0.0068
 7104TIP3    H121276   0.143   5.826   0.005 -0.4675 -0.5740  0.5000
 7104TIP3    H221277   0.193   5.684   0.028  0.0303 -0.6403 -0.8930
 7105TIP3   OH221278   5.182   1.722   0.600  0.2809 -0.3111  0.2849
 7105TIP3    H121279   5.139   1.745   0.683 -1.0792 -1.2640 -0.1160
 7105TIP3    H221280   5.203   1.807   0.560  1.3106  0.1568  1.7596
 7106TIP3   OH221281   5.838   1.564   3.243  0.1303 -0.2333  0.6242
 7106TIP3    H121282   5.836   1.658   3.259  0.0635 -0.2508  0.7177
 7106TIP3    H221283   5.747   1.535   3.256 -0.3861  0.0810 -1.7709
 7107TIP3   OH221284   4.473   2.988   5.543  0.4979  0.4813  0.3401
 7107TIP3    H121285   4.568   2.999   5.543  0.3805  1.6404  0.6533
 7107TIP3    H221286   4.439   3.076   5.527 -0.5307  0.1185  0.4627
 7108TIP3   OH221287   2.503   1.236   1.025 -0.0482  0.2199  0.1929
 7108TIP3    H121288   2.577   1.220   1.084 -0.0571 -0.5348  0.0030
 7108TIP3    H221289   2.436   1.174   1.052  0.0452 -0.3182 -0.7808
 7109TIP3   OH221290   6.111   6.766   2.425  0.6870 -0.2847  0.5207
 7109TIP3    H121291   6.141   6.799   2.510  0.5499 -0.3571  0.5969
 7109TIP3    H221292   6.134   6.836   2.363 -1.2330  0.7865  0.9329
 7110TIP3   OH221293   5.786   1.880   4.161  0.6164  0.4729  0.3697
 7110TIP3    H121294   5.693   1.884   4.139 -0.2380  0.5149  3.5746
 7110TIP3    H221295   5.819   1.968   4.142 -0.2971  0.8356  0.4339
 7111TIP3   OH221296   5.743   6.452   0.684  0.1140  0.1566  0.9596
 7111TIP3    H121297   5.755   6.396   0.607  0.7559 -0.0251  1.1896
 7111TIP3    H221298   5.648   6.456   0.695 -0.1510  2.1924 -1.3060
 7112TIP3   OH221299   1.104   4.746   1.646  0.8738 -0.8178  0.1910
 7112TIP3    H121300   1.052   4.780   1.573  1.1687 -2.5525 -0.8809
 7112TIP3    H221301   1.192   4.780   1.631  0.3339  1.3697  1.5065
 7113TIP3   OH221302   1.012   6.352   1.735  0.1816 -0.4297  0.0691
 7113TIP3    H121303   1.031   6.317   1.822  0.0713 -0.9999 -0.1288
 7113TIP3    H221304   1.076   6.422   1.723 -0.8073  0.7283  1.2301
 7114TIP3   OH221305   1.220   4.861   0.935 -0.7173 -0.0187  0.0123
 7114TIP3    H121306   1.174   4.944   0.949  0.0140  0.5056 -0.6675
 7114TIP3    H221307   1.213   4.816   1.020  0.0529  1.3191  0.8296
 7115TIP3   OH221308   5.486   5.042   5.866  0.2409 -0.0946  0.6179
 7115TIP3    H121309   5.545   4.967   5.860 -0.7554 -1.0129  1.7763
 7115TIP3    H221310   5.399   5.006   5.848 -0.0530  1.1755 -0.7537
 7116TIP3   OH221311   0.119   3.817   2.343 -0.2823 -0.3476  0.6139
 7116TIP3    H121312   0.045   3.825   2.284  0.9951 -2.5667 -1.4451
 7116TIP3    H221313   0.109   3.731   2.383  1.4806 -0.9750 -0.2135
 7117TIP3   OH221314   6.086   6.730   5.476 -0.2560  0.1269 -0.0873
 7117TIP3    H121315   6.044   6.751   5.559  1.2848  0.6427  0.6013
 7117TIP3    H221316   6.144   6.804   5.458  1.7988 -1.3470  0.0220
 7118TIP3   OH221317   1.188   5.182   2.709  0.2947  0.0628 -0.1948
 7118TIP3    H121318   1.213   5.263   2.752 -0.4047  0.5981 -0.7615
 7118TIP3    H221319   1.099   5.164   2.740 -0.2006  0.4263 -1.3182
 7119TIP3   OH221320   3.155   4.417   3.501  0.4231  0.4259 -0.4883
 7119TIP3    H121321   3.150   4.478   3.574  1.1411 -0.7847  0.6174
 7119TIP3    H221322   3.064   4.403   3.475  0.2085  1.4170 -0.3046
 7120TIP3   OH221323   1.796   0.940   4.297  0.1285  0.2350 -0.0540
 7120TIP3    H121324   1.752   0.987   4.226  0.4161  0.8794  0.1870
 7120TIP3    H221325   1.761   0.980   4.377 -0.4257 -0.6960  0.1834
 7121TIP3   OH221326   2.168   1.442   2.751  0.3145  0.0364 -0.0055
 7121TIP3    H121327   2.108   1.479   2.816 -0.1818  0.2570 -0.5804
 7121TIP3    H221328   2.244   1.413   2.802  0.2748  0.9229  0.5782
 7122TIP3   OH221329   6.738   5.782   4.500  0.0363 -0.2792 -0.4330
 7122TIP3    H121330   6.825   5.822   4.504  0.1446 -0.6035  0.6109
 7122TIP3    H221331   6.678   5.856   4.499  0.3203  0.0140 -2.6858
 7123TIP3   OH221332   3.686   0.156   1.577 -0.1425 -0.6262 -0.6399
 7123TIP3    H121333   3.649   0.117   1.498  0.9994 -1.8964 -0.5824
 7123TIP3    H221334   3.767   0.197   1.548  0.2103 -0.9738 -0.1640
 7124TIP3   OH221335   5.326   4.593   3.603  0.0121 -0.1538  0.7328
 7124TIP3    H121336   5.417   4.582   3.573 -1.0290 -0.8458 -2.5505
 7124TIP3    H221337   5.286   4.507   3.591 -1.3393  0.3921  1.1559
 7125TIP3   OH221338   4.838   6.505   0.063  0.3849  0.4531 -0.3321
 7125TIP3    H121339   4.851   6.569  -0.007 -1.1650  1.3301  0.1546
 7125TIP3    H221340   4.803   6.555   0.136  1.9058 -0.4649  1.0976
 7126TIP3   OH221341   3.579   1.396   2.372  0.1586  0.0319 -0.3128
 7126TIP3    H121342   3.602   1.314   2.416 -0.2904 -0.8196 -1.6162
 7126TIP3    H221343   3.486   1.409   2.392  0.7794  1.5881  1.9687
 7127TIP3   OH221344   2.784   6.187   3.148 -0.5177 -0.2276 -0.2221
 7127TIP3    H121345   2.863   6.239   3.142 -0.9902  0.6759  0.9538
 7127TIP3    H221346   2.745   6.190   3.060  0.2743  0.0675 -0.5644
 7128TIP3   OH221347   6.105   0.086   2.123 -0.1396 -0.2922  0.2376
 7128TIP3    H121348   6.171   0.121   2.064 -1.8842 -1.2044 -2.3942
 7128TIP3    H221349   6.081   0.160   2.179  2.1561  0.3771  0.4476
 7129TIP3   OH221350   0.749   5.141   1.771  0.5272 -0.2161  0.2043
 7129TIP3    H121351   0.797   5.063   1.743 -0.7901 -0.9617 -0.0275
 7129TIP3    H221352   0.802   5.177   1.842  2.1163 -0.2524 -0.9000
 7130TIP3   OH221353   0.590   6.476   4.692  0.1543 -0.5156 -0.5741
 7130TIP3    H121354   0.633   6.482   4.607  1.5633 -2.2536 -0.0332
 7130TIP3    H221355   0.542   6.393   4.689 -0.3701 -0.2511  0.0879
 7131TIP3   OH221356   4.747   4.692   3.336 -0.2244  0.0051  0.2062
 7131TIP3    H121357   4.839   4.671   3.320 -0.4756 -0.8267 -0.1595
 7131TIP3    H221358   4.699   4.649   3.265 -0.7835  1.6483 -0.4639
 7132TIP3   OH221359   0.121   4.343   0.858  0.5003 -0.1582 -0.2708
 7132TIP3    H121360   0.168   4.397   0.922 -0.0595 -1.2736  1.1547
 7132TIP3    H221361   0.147   4.378   0.773  1.0326  1.6028  0.5623
 7133TIP3   OH221362   6.629   3.092   3.057 -0.4637  0.2444 -0.3662
 7133TIP3    H121363   6.706   3.111   3.002 -0.2868  0.6959  0.0294
 7133TIP3    H221364   6.666   3.060   3.139 -0.7239 -0.2335 -0.4320
 7134TIP3   OH221365   4.626   0.315   5.560 -0.0207 -0.0633  0.0897
 7134TIP3    H121366   4.720   0.328   5.566 -0.0886  0.2271  0.5397
 7134TIP3    H221367   4.614   0.222   5.577 -0.0267  0.3516  2.6615
 7135TIP3   OH221368   5.792   1.514   1.316 -0.2583  0.2012 -0.0037
 7135TIP3    H121369   5.818   1.430   1.354 -0.1607  0.5370  0.6715
 7135TIP3    H221370   5.873   1.564   1.310  0.1506 -0.6273 -2.7260
 7136TIP3   OH221371   6.461   1.901   0.101 -0.1762 -0.4739  0.7395
 7136TIP3    H121372   6.410   1.940   0.030 -2.5846 -2.2120  1.3944
 7136TIP3    H221373   6.478   1.974   0.162  0.8159  0.7583 -0.9096
 7137TIP3   OH221374   0.787   2.188   3.162  0.1941 -0.0286 -0.3565
 7137TIP3    H121375   0.762   2.107   3.206  1.3220  0.4530  1.2641
 7137TIP3    H221376   0.868   2.167   3.117  1.2321  0.4795  1.1752
 7138TIP3   OH221377   6.431   0.129   1.307 -0.1649  0.8773 -0.0646
 7138TIP3    H121378   6.392   0.074   1.239 -0.4756  1.0830 -0.0559
 7138TIP3    H221379   6.519   0.148   1.276  0.5092 -0.8776  0.6238
 7139TIP3   OH221380   4.006   0.361   1.239  0.2759  0.3284  0.4856
 7139TIP3    H121381   4.096   0.331   1.238  0.2708  0.1855  1.7953
 7139TIP3    H221382   4.003   0.426   1.310 -0.4300  1.0515 -0.1889
 7140TIP3   OH221383   4.202   3.545   2.483 -0.2844  0.0458 -0.2056
 7140TIP3    H121384   4.277   3.600   2.465 -0.8766  0.6527 -0.9202
 7140TIP3    H221385   4.207   3.476   2.417 -0.2114 -0.0598 -0.0894
 7141TIP3   OH221386   0.709   3.744   1.628 -0.1282  0.4253 -0.0338
 7141TIP3    H121387   0.699   3.820   1.686 -2.0488 -0.1306  0.4075
 7141TIP3    H221388   0.682   3.669   1.680 -0.5512 -0.2747 -1.2143
 7142TIP3   OH221389   2.518   0.683   2.827 -0.0722 -0.3394 -0.4033
 7142TIP3    H121390   2.611   0.704   2.818  0.3980 -1.4513  1.4794
 7142TIP3    H221391   2.474   0.761   2.793  1.5721  1.7341  1.8895
 7143TIP3   OH221392   2.989   5.850   2.397  0.1522 -0.3577  0.5983
 7143TIP3    H121393   3.000   5.823   2.488 -1.0729  0.2065  0.9411
 7143TIP3    H221394   2.895   5.844   2.382  0.4859 -2.1750 -1.2072
 7144TIP3   OH221395   3.704   2.291   1.590 -0.0364 -0.2078  0.2607
 7144TIP3    H121396   3.727   2.261   1.678 -1.7102 -1.3063  0.3722
 7144TIP3    H221397   3.610   2.274   1.583 -1.0535  4.1809 -0.0458
 7145TIP3   OH221398   6.734   0.002   5.708  0.5197 -0.0900  0.7556
 7145TIP3    H121399   6.774   0.087   5.690  0.8112 -0.2767  0.5202
 7145TIP3    H221400   6.731  -0.042   5.623  0.9497 -0.5631  0.9803
 7146TIP3   OH221401   0.269   1.533   1.780  0.0948 -0.1646 -0.3335
 7146TIP3    H121402   0.306   1.620   1.768  0.3326 -0.2962 -0.5511
 7146TIP3    H221403   0.273   1.519   1.875  0.9925 -0.3482 -0.3942
 7147TIP3   OH221404   3.565   4.014   0.204 -0.6135  0.1268  0.1473
 7147TIP3    H121405   3.558   3.996   0.110 -0.6094  0.3958  0.0952
 7147TIP3    H221406   3.597   4.104   0.209 -0.8878  0.2123  0.4093
 7148TIP3   OH221407   4.802   5.838   1.703  0.0434 -0.6853  0.5524
 7148TIP3    H121408   4.837   5.881   1.781  0.3552 -0.6988  0.4206
 7148TIP3    H221409   4.810   5.903   1.634 -0.6691 -0.5063  0.6314
 7149TIP3   OH221410   3.848   0.397   2.368 -0.4362 -0.3486  0.4292
 7149TIP3    H121411   3.927   0.363   2.326  0.6737 -1.0084  2.9072
 7149TIP3    H221412   3.778   0.376   2.305  1.3145  0.5632 -1.9935
 7150TIP3   OH221413   4.778   1.029   1.312  0.3846 -0.1159 -0.0092
 7150TIP3    H121414   4.794   1.085   1.388  1.6068  0.4420 -0.6428
 7150TIP3    H221415   4.701   0.978   1.336  0.8176 -0.0501  1.6533
 7151TIP3   OH221416   2.246   1.636   0.950 -0.1495 -0.2426 -0.0594
 7151TIP3    H121417   2.324   1.682   0.979  0.1122 -0.3898 -0.5305
 7151TIP3    H221418   2.278   1.556   0.910 -0.5172 -0.1200 -0.6108
 7152TIP3   OH221419   6.538   6.687   3.968  0.9514  0.2369 -0.1633
 7152TIP3    H121420   6.541   6.663   4.061 -0.9009  0.8706  0.1124
 7152TIP3    H221421   6.573   6.610   3.922 -2.3601 -2.1295  0.8197
 7153TIP3   OH221422   3.871   2.634   3.677 -0.4358  0.8041 -0.3252
 7153TIP3    H121423   3.887   2.610   3.768  0.4128  0.1946 -0.6218
 7153TIP3    H221424   3.818   2.563   3.642 -0.8401  1.0832 -0.2918
 7154TIP3   OH221425   6.222   3.783   3.238 -0.4228 -0.6069 -0.3957
 7154TIP3    H121426   6.180   3.732   3.307  2.1640 -1.6482  0.5460
 7154TIP3    H221427   6.223   3.725   3.162  1.3989 -1.5892  0.3101
 7155TIP3   OH221428   4.705   1.527   2.267  0.5524 -0.5026 -0.5161
 7155TIP3    H121429   4.662   1.584   2.331  0.5288 -0.4240 -0.6010
 7155TIP3    H221430   4.783   1.495   2.312 -0.3004 -1.7617  0.1447
 7156TIP3   OH221431   3.087   1.194   1.997 -0.4392 -0.0144 -0.0907
 7156TIP3    H121432   3.066   1.273   1.948  3.3795  1.5403  0.4369
 7156TIP3    H221433   3.041   1.204   2.080 -0.0269  1.6523 -0.0407
 7157TIP3   OH221434   6.222   4.338   5.644  0.6291  0.3942 -0.2862
 7157TIP3    H121435   6.266   4.391   5.710  0.5225 -2.1950  2.0537
 7157TIP3    H221436   6.293   4.296   5.595  0.7380  0.3559 -0.0969
 7158TIP3   OH221437   2.258   2.349   2.744  0.1756  0.3583  0.3321
 7158TIP3    H121438   2.262   2.254   2.743 -1.5555  0.2579  0.0937
 7158TIP3    H221439   2.349   2.377   2.742  1.0303 -1.2928  4.6935
 7159TIP3   OH221440   5.893   2.561   5.818 -0.8290 -0.0177  0.4243
 7159TIP3    H121441   5.927   2.471   5.826 -1.4923 -0.4050 -0.7465
 7159TIP3    H221442   5.802   2.555   5.848 -1.2212 -0.0084 -0.7087
 7160TIP3   OH221443   3.381   0.889   0.293  0.2706 -0.0929  0.1849
 7160TIP3    H121444   3.339   0.949   0.355  0.6921  0.4479 -0.0437
 7160TIP3    H221445   3.309   0.849   0.244 -0.0935 -0.8040  1.2602
 7161TIP3   OH221446   2.038   6.758   0.168  0.1664 -0.4773 -0.3194
 7161TIP3    H121447   2.083   6.692   0.115  0.6377 -0.1931 -0.2794
 7161TIP3    H221448   2.019   6.828   0.105 -0.2296 -0.6024 -0.3379
 7162TIP3   OH221449   5.725   0.563   3.467 -0.0217  0.1200  0.6537
 7162TIP3    H121450   5.718   0.654   3.437  0.7655  0.2147  0.7527
 7162TIP3    H221451   5.636   0.541   3.494 -0.3308  0.6892  0.1428
 7163TIP3   OH221452   1.515   6.807   2.841  0.0832 -0.0616  0.2756
 7163TIP3    H121453   1.509   6.795   2.746 -0.6963  1.3859  0.1035
 7163TIP3    H221454   1.585   6.748   2.869  2.1398  1.3027 -1.5874
 7164TIP3   OH221455   5.248   1.187   0.458  0.2283 -0.7587  0.3983
 7164TIP3    H121456   5.222   1.227   0.541 -2.1250 -1.9877  0.3551
 7164TIP3    H221457   5.200   1.104   0.455 -0.8709 -0.1618 -2.7861
 7165TIP3   OH221458   2.419   0.540   0.334  0.1878 -0.5249 -0.5825
 7165TIP3    H121459   2.341   0.569   0.381  0.8452  0.7120 -0.1924
 7165TIP3    H221460   2.410   0.579   0.247  0.8164  0.4668 -0.2265
 7166TIP3   OH221461   5.149   5.695   5.677 -0.1084  0.3023 -0.3097
 7166TIP3    H121462   5.082   5.626   5.680  0.6895 -0.4907  1.7372
 7166TIP3    H221463   5.232   5.649   5.692  0.2907  1.7798  3.0407
 7167TIP3   OH221464   3.477   0.275   4.970  0.2430  0.1521 -0.0479
 7167TIP3    H121465   3.516   0.188   4.980 -0.2905 -0.1799 -0.8162
 7167TIP3    H221466   3.517   0.327   5.040  0.0490 -0.8913  0.8627
 7168TIP3   OH221467   5.943   3.999   2.525 -0.2092 -0.1895  0.3690
 7168TIP3    H121468   5.987   4.084   2.522  0.6306 -0.4336  3.1257
 7168TIP3    H221469   6.005   3.939   2.483  0.3931  0.1228  0.8004
 7169TIP3   OH221470   3.746   2.501   1.826  0.9575  0.1816 -0.3720
 7169TIP3    H121471   3.793   2.573   1.782 -0.2827  1.0536 -0.3088
 7169TIP3    H221472   3.732   2.533   1.915  2.2255 -1.0159  0.2966
 7170TIP3   OH221473   5.376   4.677   0.653  0.0727 -0.5380 -0.2462
 7170TIP3    H121474   5.363   4.582   0.660  0.1293 -0.7646 -2.4463
 7170TIP3    H221475   5.469   4.690   0.670  0.2288 -0.9954 -0.7271
 7171TIP3   OH221476   1.796   5.241   3.475  0.3052 -0.2008 -0.2277
 7171TIP3    H121477   1.746   5.191   3.411  0.0977 -0.0543 -0.1824
 7171TIP3    H221478   1.861   5.179   3.509 -2.5905 -1.8936  2.9559
 7172TIP3   OH221479   3.459   0.318   1.228  0.2008  0.0659  0.0479
 7172TIP3    H121480   3.516   0.246   1.255 -0.1031 -0.0574  0.3562
 7172TIP3    H221481   3.410   0.284   1.154  1.1021  0.4343 -0.7482
 7173TIP3   OH221482   6.230   6.235   5.253  0.5792  0.5330  0.0342
 7173TIP3    H121483   6.175   6.310   5.277  0.4064 -0.1752  2.1483
 7173TIP3    H221484   6.191   6.161   5.301  0.3713 -1.0871 -2.4430
 7174TIP3   OH221485   4.756   4.941   5.442  0.3506 -1.1817 -0.0955
 7174TIP3    H121486   4.797   4.873   5.389  2.5787 -0.6346  0.7974
 7174TIP3    H221487   4.785   4.921   5.532 -1.3134 -0.6933  0.5751
 7175TIP3   OH221488   5.887   5.019   3.918  0.4967  0.5629  0.1429
 7175TIP3    H121489   5.810   5.075   3.930 -0.2164  0.0306 -1.6709
 7175TIP3    H221490   5.860   4.933   3.948 -0.2324 -0.0224 -2.0354
 7176TIP3   OH221491   0.965   3.355   2.937  0.1014 -0.0634 -0.0131
 7176TIP3    H121492   0.935   3.439   2.902  1.5657  0.0962 -0.9568
 7176TIP3    H221493   1.038   3.379   2.995  1.1862 -0.7280 -1.0649
 7177TIP3   OH221494   3.222   5.690   4.606  0.4504  0.3430 -0.0475
 7177TIP3    H121495   3.229   5.686   4.511 -0.8595  0.5883 -0.1749
 7177TIP3    H221496   3.223   5.598   4.634  0.4068  0.2537 -0.3370
 7178TIP3   OH221497   2.086   2.704   3.983  0.0622 -0.2702 -0.4117
 7178TIP3    H121498   1.991   2.709   3.993  0.1145 -2.6915  2.6725
 7178TIP3    H221499   2.121   2.723   4.070  2.1925 -2.2929 -0.7287
 7179TIP3   OH221500   0.462   5.289   4.029 -0.0804  0.3664 -0.1137
 7179TIP3    H121501   0.425   5.316   4.113  0.5870  0.3563  0.1831
 7179TIP3    H221502   0.457   5.194   4.029 -1.7934  0.4113 -0.8721
 7180TIP3   OH221503   5.193   2.765   0.052 -0.0321  0.0117 -0.1904
 7180TIP3    H121504   5.157   2.709   0.121  0.7311 -0.7473 -0.3949
 7180TIP3    H221505   5.257   2.710   0.007  0.1398  0.7904 -0.9285
 7181TIP3   OH221506   0.211   2.873   0.240  0.4253  0.1734 -0.3449
 7181TIP3    H121507   0.247   2.784   0.234  1.1407  0.3351  1.0216
 7181TIP3    H221508   0.281   2.930   0.208  0.6116  0.3438  0.3401
 7182TIP3   OH221509   5.647   2.018   4.856  0.2453 -0.0812 -0.1548
 7182TIP3    H121510   5.597   1.939   4.874  1.9383 -1.1577  0.0406
 7182TIP3    H221511   5.581   2.083   4.830 -1.3387 -1.0784  1.1803
 7183TIP3   OH221512   1.130   1.489   0.070 -0.5062 -0.2092  0.5545
 7183TIP3    H121513   1.109   1.470   0.161 -1.7617 -0.3806  0.2515
 7183TIP3    H221514   1.131   1.585   0.065  0.4162 -0.1922  0.9195
 7184TIP3   OH221515   0.818   4.726   4.438 -0.0894  0.1511 -0.3903
 7184TIP3    H121516   0.846   4.681   4.518 -3.1369  0.5678  1.0778
 7184TIP3    H221517   0.855   4.814   4.446 -2.7597  1.2097  2.2801
 7185TIP3   OH221518   0.085   3.253   5.754 -0.4945 -0.3712 -0.0528
 7185TIP3    H121519   0.173   3.265   5.789 -0.9466  1.5295  0.5924
 7185TIP3    H221520   0.095   3.259   5.659  0.2326 -1.5954 -0.0706
 7186TIP3   OH221521   1.602   5.644   3.609 -0.2267 -0.0095  0.4081
 7186TIP3    H121522   1.658   5.590   3.666  1.5164  0.1887 -1.0118
 7186TIP3    H221523   1.591   5.591   3.530 -0.1216  0.9015 -0.2324
 7187TIP3   OH221524   2.226   4.849   0.591  0.2231 -0.2344  0.0320
 7187TIP3    H121525   2.197   4.857   0.681  0.0439 -1.7487  0.1365
 7187TIP3    H221526   2.147   4.823   0.543  0.9098 -2.4186 -0.0159
 7188TIP3   OH221527   6.969   1.073   3.086 -0.2581 -0.1549  0.2793
 7188TIP3    H121528   6.998   1.048   2.999  0.2071  1.5286 -0.0855
 7188TIP3    H221529   6.913   1.000   3.115 -0.0759 -0.9271 -1.2354
 7189TIP3   OH221530   4.877   3.688   5.849  0.0694  0.0433  0.0647
 7189TIP3    H121531   4.789   3.697   5.886 -0.9346  2.3039 -2.5408
 7189TIP3    H221532   4.880   3.599   5.815 -1.6760  0.2737 -0.7904
 7190TIP3   OH221533   0.400   4.942   4.370  0.1816  0.3852  0.7256
 7190TIP3    H121534   0.486   4.907   4.393  0.2344  0.9036  1.3385
 7190TIP3    H221535   0.369   4.885   4.300  1.5716  0.9220 -0.3866
 7191TIP3   OH221536   2.463   5.296   1.902 -0.8441  0.4295 -0.3610
 7191TIP3    H121537   2.444   5.263   1.815 -0.2646  1.4223 -0.8935
 7191TIP3    H221538   2.387   5.349   1.925 -1.8447 -1.3526  0.5614
 7192TIP3   OH221539   2.811   1.347   3.398 -0.9173  0.1601  0.0159
 7192TIP3    H121540   2.764   1.332   3.316 -0.3197 -0.3982 -0.2343
 7192TIP3    H221541   2.747   1.328   3.466 -1.7283  1.6335 -0.3031
 7193TIP3   OH221542   5.296   1.461   4.805 -0.0953 -0.3097 -0.4582
 7193TIP3    H121543   5.371   1.475   4.863 -0.2491  1.0040 -0.5474
 7193TIP3    H221544   5.227   1.428   4.863 -0.1313  0.6296  0.0475
 7194TIP3   OH221545   0.389   5.481   1.895 -0.4302  0.1776 -0.4062
 7194TIP3    H121546   0.485   5.490   1.889 -0.2999 -0.9852 -0.2374
 7194TIP3    H221547   0.375   5.391   1.923 -1.5654  0.5524  0.2970
 7195TIP3   OH221548   3.710   6.803   3.434 -0.3316 -0.1365  0.3425
 7195TIP3    H121549   3.632   6.834   3.388  1.3413  1.4769 -1.6285
 7195TIP3    H221550   3.727   6.717   3.397  0.2908  0.6305 -1.2394
 7196TIP3   OH221551   6.297   3.806   2.441  0.3530  0.3713 -0.0887
 7196TIP3    H121552   6.263   3.864   2.373  0.7385 -0.1572 -0.7502
 7196TIP3    H221553   6.292   3.857   2.521  0.8530  1.3872 -0.6851
 7197TIP3   OH221554   4.117   4.398   1.887 -0.0366  0.0526  0.1803
 7197TIP3    H121555   4.060   4.465   1.851 -1.4956 -0.8624  0.7021
 7197TIP3    H221556   4.086   4.316   1.848  1.2294 -0.4296  0.1216
 7198TIP3   OH221557   3.316   6.003   5.612 -0.5586 -0.3461  0.1611
 7198TIP3    H121558   3.401   5.960   5.613  0.2342  1.0619 -1.0172
 7198TIP3    H221559   3.332   6.089   5.652 -1.5213 -0.2193  0.3003
 7199TIP3   OH221560   3.960   5.594   3.565 -0.3254 -0.1836 -0.7656
 7199TIP3    H121561   4.011   5.567   3.642 -1.4476 -1.7959 -0.5474
 7199TIP3    H221562   3.971   5.689   3.562  3.4186 -0.4757 -1.2558
 7200TIP3   OH221563   1.116   3.227   3.567 -0.3010  0.4754  0.3531
 7200TIP3    H121564   1.039   3.174   3.588 -0.3441  0.7699  0.9478
 7200TIP3    H221565   1.164   3.174   3.504 -0.6478 -0.0123  0.4894
 7201TIP3   OH221566   4.947   1.065   5.440  0.3280 -1.2370 -0.2548
 7201TIP3    H121567   4.902   1.135   5.393 -0.6240 -2.4363 -1.1965
 7201TIP3    H221568   4.958   1.099   5.529 -1.4221 -0.4427 -0.3013
 7202TIP3   OH221569   4.381   3.335   1.572 -0.0918  0.1200  0.3211
 7202TIP3    H121570   4.403   3.242   1.573 -3.8717 -1.0589 -2.5754
 7202TIP3    H221571   4.419   3.369   1.653  3.3329 -3.3570  0.4736
 7203TIP3   OH221572   1.701   4.540   5.638 -0.1958  0.1784  0.6056
 7203TIP3    H121573   1.792   4.545   5.667  1.3035  0.7615 -3.5292
 7203TIP3    H221574   1.692   4.453   5.599 -0.9613  0.6266 -0.2609
 7204TIP3   OH221575   2.019   3.254   2.057  0.2888  0.1458 -0.0307
 7204TIP3    H121576   2.073   3.261   1.978  0.3931  0.7671  0.0968
 7204TIP3    H221577   1.965   3.333   2.057 -1.6164 -1.0508 -0.8716
 7205TIP3   OH221578   4.814   0.841   4.102  0.5981  0.4097  0.0817
 7205TIP3    H121579   4.750   0.870   4.036 -0.5781  1.0133  1.4438
 7205TIP3    H221580   4.796   0.748   4.114  2.2210 -0.2418 -1.9257
 7206TIP3   OH221581   4.903   4.510   0.499 -0.6449 -0.1065 -0.5696
 7206TIP3    H121582   4.891   4.446   0.428 -0.9201 -0.6724 -0.0243
 7206TIP3    H221583   4.815   4.518   0.538 -0.0632 -1.6326  1.2376
 7207TIP3   OH221584   1.153   1.782   5.543  0.1491 -0.4714  0.8010
 7207TIP3    H121585   1.182   1.765   5.453 -0.7431 -1.5850  0.7096
 7207TIP3    H221586   1.212   1.851   5.574  0.1270  0.3109 -0.8087
 7208TIP3   OH221587   6.915   0.048   3.538  0.1464  0.3978 -0.6832
 7208TIP3    H121588   7.003   0.081   3.557 -0.0154  0.2221  0.4473
 7208TIP3    H221589   6.859   0.125   3.548  0.0404  0.2697 -0.2619
 7209TIP3   OH221590   3.005   0.245   3.088  0.2738  0.3504 -0.0493
 7209TIP3    H121591   2.918   0.212   3.065 -0.2105  1.3782  0.2598
 7209TIP3    H221592   3.047   0.172   3.134 -0.0605 -0.4862 -1.0467
 7210TIP3   OH221593   3.305   2.262   2.999 -0.6588  0.4171 -0.3370
 7210TIP3    H121594   3.252   2.338   3.022  1.1262  1.0136  2.1970
 7210TIP3    H221595   3.383   2.299   2.958  1.1547  0.2464  2.7161
 7211TIP3   OH221596   1.394   6.145   3.232 -0.0766 -0.9615 -0.3125
 7211TIP3    H121597   1.410   6.067   3.179  0.3589  0.6049 -2.6458
 7211TIP3    H221598   1.329   6.195   3.183 -1.0544 -0.2501  1.5969
 7212TIP3   OH221599   2.602   4.549   5.055  0.1346  0.1957 -0.2914
 7212TIP3    H121600   2.524   4.538   5.001 -0.9140 -1.6281  1.4395
 7212TIP3    H221601   2.571   4.597   5.132  1.0702  0.7562 -0.2499
 7213TIP3   OH221602   4.232   0.644   4.885 -0.0081 -0.2822  0.0336
 7213TIP3    H121603   4.234   0.657   4.790 -1.4028  0.4478  0.0706
 7213TIP3    H221604   4.268   0.557   4.898  2.4605  0.5111 -0.9331
 7214TIP3   OH221605   5.414   3.644   2.324 -0.6018 -0.0702 -0.0429
 7214TIP3    H121606   5.445   3.553   2.323 -0.9067 -0.1722 -0.2825
 7214TIP3    H221607   5.386   3.660   2.234  1.0768  0.8197 -0.4497
 7215TIP3   OH221608   1.480   0.996   0.743 -0.3482  0.2771 -0.2974
 7215TIP3    H121609   1.570   1.018   0.718 -0.6840  1.2117 -0.7526
 7215TIP3    H221610   1.485   0.974   0.836  0.7252 -1.9777 -0.8164
 7216TIP3   OH221611   0.992   2.632   0.468  0.1603 -1.0698  0.2888
 7216TIP3    H121612   0.955   2.552   0.504  0.0713 -0.8421  0.7071
 7216TIP3    H221613   1.050   2.602   0.397  0.9558 -1.5843  1.1300
 7217TIP3   OH221614   4.255   4.955   3.788  0.3351  0.7175  0.4161
 7217TIP3    H121615   4.274   4.925   3.877  1.0432 -1.4757 -0.4016
 7217TIP3    H221616   4.329   4.922   3.736  0.5089  2.8978 -0.8411
 7218TIP3   OH221617   1.861   2.497   3.754 -0.3141  0.0032  0.4800
 7218TIP3    H121618   1.890   2.409   3.780  0.1301  0.4224  1.4695
 7218TIP3    H221619   1.909   2.515   3.673  1.1142  0.0904  1.3079
 7219TIP3   OH221620   1.086   5.629   4.155 -0.2178 -0.4018  0.2829
 7219TIP3    H121621   1.065   5.580   4.235 -1.7650  1.1833  0.8883
 7219TIP3    H221622   1.155   5.689   4.182 -1.7777  1.1880  0.8763
 7220TIP3   OH221623   2.968   0.717   1.221  0.1402 -0.1195 -0.4903
 7220TIP3    H121624   2.932   0.675   1.299  0.9233 -0.5999 -0.3779
 7220TIP3    H221625   2.933   0.665   1.148 -0.6503  0.3738 -0.4842
 7221TIP3   OH221626   1.260   1.567   4.965 -0.0406  0.3403 -0.0447
 7221TIP3    H121627   1.321   1.548   5.036 -0.9003  0.3686  0.7204
 7221TIP3    H221628   1.178   1.525   4.992 -0.4914  0.6878 -0.8364
 7222TIP3   OH221629   0.974   3.845   3.220 -0.1548 -0.9349  0.1860
 7222TIP3    H121630   0.972   3.904   3.294 -1.0559 -0.3060 -0.3206
 7222TIP3    H221631   0.924   3.768   3.249  3.0440 -2.6253  1.7349
 7223TIP3   OH221632   3.106   1.607   4.786  0.5182  0.5479 -0.0101
 7223TIP3    H121633   3.125   1.684   4.840 -2.3928  2.0173 -0.8822
 7223TIP3    H221634   3.031   1.566   4.828  0.5771 -0.4786 -0.8655
 7224TIP3   OH221635   1.539   5.719   5.410  0.1853 -0.4929  0.0497
 7224TIP3    H121636   1.536   5.734   5.504 -0.0857  0.4596 -0.1005
 7224TIP3    H221637   1.503   5.632   5.398 -0.1408 -0.4652  0.7987
 7225TIP3   OH221638   5.962   2.958   2.667  0.4347  0.0775 -0.0842
 7225TIP3    H121639   5.980   3.051   2.677  1.3536 -0.1210  0.1844
 7225TIP3    H221640   6.048   2.919   2.649  0.0622 -0.7177 -0.1546
 7226TIP3   OH221641   0.091   2.528   0.129  0.2355 -0.0191 -0.2052
 7226TIP3    H121642   0.178   2.490   0.132  0.8505  1.3653  0.9248
 7226TIP3    H221643   0.032   2.454   0.116  1.4309 -1.1980  0.8706
 7227TIP3   OH221644   4.898   1.364   4.286  1.1277 -0.0724 -0.2990
 7227TIP3    H121645   4.868   1.273   4.293 -1.6451  0.7063 -0.8566
 7227TIP3    H221646   4.845   1.401   4.215  2.6571  1.8286 -0.5193
 7228TIP3   OH221647   5.722   6.396   3.470 -0.2951 -0.7456 -0.3180
 7228TIP3    H121648   5.809   6.432   3.450 -0.2352  1.1493  2.6893
 7228TIP3    H221649   5.670   6.413   3.392  1.1667  1.2855 -0.9281
 7229TIP3   OH221650   5.909   3.297   1.482 -0.6130 -0.4307 -0.2526
 7229TIP3    H121651   5.935   3.244   1.557  0.3959  0.0630 -0.2276
 7229TIP3    H221652   5.987   3.298   1.426 -1.5114 -1.2066 -1.5673
 7230TIP3   OH221653   5.934   1.471   0.438 -0.8895 -0.2409 -0.3313
 7230TIP3    H121654   5.922   1.390   0.488  1.0985 -0.1033  0.4846
 7230TIP3    H221655   5.966   1.443   0.353 -2.8816 -0.3983 -1.0905
 7231TIP3   OH221656   3.015   3.445   2.226  0.0098 -0.4051  0.4005
 7231TIP3    H121657   3.093   3.421   2.176 -0.1088  0.8991 -0.4590
 7231TIP3    H221658   2.942   3.434   2.164 -0.4883 -1.3832  1.1235
 7232TIP3   OH221659   4.498   3.964   4.503 -0.5113 -0.3271  0.1400
 7232TIP3    H121660   4.438   3.894   4.478 -0.6931 -0.0097 -0.3319
 7232TIP3    H221661   4.555   3.974   4.427 -0.3601 -0.0977  0.2835
 7233TIP3   OH221662   1.300   0.559   2.929 -0.2225 -0.0461  0.4927
 7233TIP3    H121663   1.292   0.622   2.857 -0.9266 -0.2599  0.3703
 7233TIP3    H221664   1.271   0.608   3.006  1.7084  0.5656  0.8758
 7234TIP3   OH221665   3.664   1.344   3.678 -0.2239  0.4645 -0.2590
 7234TIP3    H121666   3.612   1.294   3.615 -1.4516  0.2686  0.8693
 7234TIP3    H221667   3.668   1.433   3.641  0.7845 -0.0885 -1.5738
 7235TIP3   OH221668   3.244   4.257   1.984  0.6227  0.1869  0.0479
 7235TIP3    H121669   3.319   4.198   1.976  2.1098  1.5797  2.4224
 7235TIP3    H221670   3.264   4.331   1.927  0.5258  0.0648 -0.1444
 7236TIP3   OH221671   3.410   4.963   1.871 -0.0370  0.4431  0.0554
 7236TIP3    H121672   3.318   4.942   1.853 -1.0413  0.7641  4.0139
 7236TIP3    H221673   3.456   4.938   1.790 -3.3202 -1.3669 -1.4657
 7237TIP3   OH221674   3.627   0.040   0.988 -0.1656  0.3959  0.7931
 7237TIP3    H121675   3.697  -0.025   0.981 -0.5790  0.1163 -1.5257
 7237TIP3    H221676   3.672   0.123   0.998  0.5325  0.2030 -0.5575
 7238TIP3   OH221677   4.062   3.753   2.229  0.5187 -0.1259 -0.1518
 7238TIP3    H121678   4.055   3.742   2.324  0.4633  1.1818  0.0082
 7238TIP3    H221679   4.130   3.690   2.203  0.5764 -0.4525  0.7584
 7239TIP3   OH221680   1.707   4.203   5.195  0.4973 -0.0664  0.4798
 7239TIP3    H121681   1.688   4.111   5.175  0.9821 -0.1259  0.2774
 7239TIP3    H221682   1.670   4.251   5.121 -2.0676  0.1424  1.8074
 7240TIP3   OH221683   2.516   6.213   1.558 -0.0561  0.0412  0.7675
 7240TIP3    H121684   2.524   6.163   1.477  1.3474 -0.2876  1.0955
 7240TIP3    H221685   2.602   6.253   1.571 -1.6019  4.3183 -0.5714
 7241TIP3   OH221686   6.329   0.925   2.585  0.0348 -0.2009 -0.0461
 7241TIP3    H121687   6.315   1.003   2.531  0.7671  1.6716  2.3049
 7241TIP3    H221688   6.354   0.959   2.671  1.9039 -3.0377  0.6888
 7242TIP3   OH221689   4.180   0.983   3.784  0.4506 -0.1494  0.3988
 7242TIP3    H121690   4.175   1.060   3.840 -1.8913  0.7315 -0.8598
 7242TIP3    H221691   4.120   1.002   3.711 -1.4333 -3.7062  0.7674
 7243TIP3   OH221692   4.938   6.818   2.410 -0.0083  0.0957 -0.1907
 7243TIP3    H121693   5.020   6.776   2.436 -1.0946 -1.8671  0.1745
 7243TIP3    H221694   4.869   6.762   2.444 -1.5566  1.8625 -0.2347
 7244TIP3   OH221695   2.755   0.772   4.229 -0.2492  0.1406  0.6293
 7244TIP3    H121696   2.754   0.814   4.143  0.0197  0.5144  0.8060
 7244TIP3    H221697   2.778   0.681   4.211 -0.2816  0.1966  0.2965
 7245TIP3   OH221698   1.051   3.394   1.350 -0.0386 -0.2421 -0.2461
 7245TIP3    H121699   0.993   3.454   1.397  0.1993  0.2672 -0.5871
 7245TIP3    H221700   0.997   3.359   1.279  0.0899  0.2869 -0.6063
 7246TIP3   OH221701   1.591   5.552   3.350 -0.7466  1.0094  0.2158
 7246TIP3    H121702   1.625   5.551   3.260  0.2560 -0.5380  0.5771
 7246TIP3    H221703   1.496   5.557   3.339 -0.6704  0.3733 -0.9566
 7247TIP3   OH221704   2.189   6.132   5.177 -0.4024 -0.5696 -0.1425
 7247TIP3    H121705   2.262   6.176   5.133 -2.1946  2.9680  0.0612
 7247TIP3    H221706   2.147   6.080   5.108  0.9474 -0.8803 -0.7751
 7248TIP3   OH221707   6.954   5.353   2.813 -0.5438 -0.3718 -0.4810
 7248TIP3    H121708   6.904   5.395   2.743  3.1138  1.0522 -2.4831
 7248TIP3    H221709   6.979   5.425   2.871  1.0468 -0.6120 -0.8177
 7249TIP3   OH221710   6.050   5.394   1.192  0.3836  0.1756  0.0599
 7249TIP3    H121711   6.056   5.490   1.189  0.4174  0.1584 -0.4779
 7249TIP3    H221712   5.988   5.377   1.262 -1.1372  0.6604 -1.1081
 7250TIP3   OH221713   4.945   0.489   3.823  0.1895  0.5139 -0.2224
 7250TIP3    H121714   4.974   0.406   3.783  0.1622  0.8745 -1.0159
 7250TIP3    H221715   5.007   0.505   3.894  1.5563  0.9263 -1.4639
 7251TIP3   OH221716   4.282   0.052   2.952  0.2439 -0.1016 -0.0954
 7251TIP3    H121717   4.251   0.139   2.928  1.2631  0.3943  0.3398
 7251TIP3    H221718   4.307   0.012   2.868  3.5797  1.5390 -0.0429
 7252TIP3   OH221719   2.203   4.289   3.075 -0.7182  0.3876 -0.1594
 7252TIP3    H121720   2.276   4.232   3.098 -1.4064 -1.2703 -1.8231
 7252TIP3    H221721   2.237   4.378   3.089  1.6496 -0.3168 -0.9304
 7253TIP3   OH221722   2.938   2.760   0.662 -0.5354 -0.3755  0.0309
 7253TIP3    H121723   3.027   2.789   0.684 -0.7391  1.3249 -1.1308
 7253TIP3    H221724   2.949   2.672   0.628  0.6777 -0.3225  0.2238
 7254TIP3   OH221725   4.992   5.566   1.187  0.3017  0.2645 -0.2035
 7254TIP3    H121726   4.970   5.519   1.106  1.9511 -0.2142 -0.4122
 7254TIP3    H221727   4.935   5.528   1.253  0.5800 -1.0373 -0.6775
 7255TIP3   OH221728   3.388   5.188   2.416 -1.0669  0.6233 -0.3805
 7255TIP3    H121729   3.357   5.223   2.332 -0.7801  1.5841 -0.0983
 7255TIP3    H221730   3.393   5.265   2.473  1.0543  0.4067 -0.1910
 7256TIP3   OH221731   4.514   5.466   2.919  0.9109 -0.7912 -0.5047
 7256TIP3    H121732   4.568   5.444   2.843 -0.3302 -1.9409 -1.1162
 7256TIP3    H221733   4.558   5.425   2.993  2.2154  0.4647 -0.5546
 7257TIP3   OH221734   2.510   1.920   1.639 -0.3624 -0.6217  0.3959
 7257TIP3    H121735   2.487   1.945   1.728  0.1204  0.4835  0.2379
 7257TIP3    H221736   2.445   1.963   1.584  0.5241  0.4145  0.1097
 7258TIP3   OH221737   6.739   1.924   2.503  0.1961 -0.6326  0.2374
 7258TIP3    H121738   6.665   1.873   2.469  0.4521 -0.6271 -0.3360
 7258TIP3    H221739   6.778   1.964   2.426  0.8441 -0.6959  0.5257
 7259TIP3   OH221740   6.281   2.969   4.940 -0.0014 -0.8633  0.0001
 7259TIP3    H121741   6.271   3.009   5.026  0.3607 -0.2017 -0.2626
 7259TIP3    H221742   6.343   2.897   4.955 -0.8830 -1.5284  0.5290
 7260TIP3   OH221743   4.328   1.975   4.822 -0.7158  0.2003 -0.1774
 7260TIP3    H121744   4.379   1.938   4.894  1.0337  1.4502 -0.6871
 7260TIP3    H221745   4.240   1.987   4.858 -0.6518 -1.8852  0.7953
 7261TIP3   OH221746   0.281   6.244   1.697  0.1973  0.3321 -0.5377
 7261TIP3    H121747   0.341   6.169   1.694 -1.8845 -1.4340 -0.6749
 7261TIP3    H221748   0.223   6.225   1.771 -2.6480 -0.1449 -2.7003
 7262TIP3   OH221749   3.278   3.133   1.252 -0.2879 -0.4682 -0.4057
 7262TIP3    H121750   3.329   3.141   1.172  0.5936 -0.4377  0.1377
 7262TIP3    H221751   3.295   3.044   1.283 -3.2210 -1.7104 -1.9231
 7263TIP3   OH221752   0.592   0.706   4.751  0.6038 -0.1141 -0.0615
 7263TIP3    H121753   0.566   0.710   4.659  0.2564 -0.2136  0.0324
 7263TIP3    H221754   0.648   0.628   4.756 -0.8636 -1.1897  0.1791
 7264TIP3   OH221755   3.887   0.224   1.860 -0.0948  0.3881  0.0765
 7264TIP3    H121756   3.794   0.246   1.865  0.0333  1.0635 -0.3074
 7264TIP3    H221757   3.907   0.230   1.767 -0.0230 -1.3374 -0.0525
 7265TIP3   OH221758   3.212   2.010   5.686 -0.2591  0.3722 -0.6908
 7265TIP3    H121759   3.167   2.084   5.645  0.8063  1.3044 -0.2261
 7265TIP3    H221760   3.301   2.041   5.700 -0.1299 -0.5391  0.6962
 7266TIP3   OH221761   6.942   2.910   4.187 -0.2572  0.9059  0.0988
 7266TIP3    H121762   6.901   2.974   4.129 -0.3291  0.7384 -0.0358
 7266TIP3    H221763   6.953   2.832   4.133 -0.0198  0.8583  0.2164
 7267TIP3   OH221764   2.247   5.164   5.520 -0.1631  0.3367 -0.3503
 7267TIP3    H121765   2.200   5.195   5.442 -0.8712 -0.3752 -0.2219
 7267TIP3    H221766   2.258   5.242   5.574  1.0429  0.9927 -1.5053
 7268TIP3   OH221767   0.266   4.325   3.773 -0.9763  0.4307  0.2914
 7268TIP3    H121768   0.339   4.358   3.720 -1.0696 -0.0837 -0.1634
 7268TIP3    H221769   0.303   4.316   3.861 -0.5556  0.3887  0.1137
 7269TIP3   OH221770   3.063   0.908   0.533 -0.1961  0.5486  0.3770
 7269TIP3    H121771   3.021   0.878   0.453  0.4067 -2.2002  0.9768
 7269TIP3    H221772   3.055   0.834   0.594  1.0017  1.8289  2.2202
 7270TIP3   OH221773   5.177   4.358   3.522 -0.0152 -0.6231  0.0629
 7270TIP3    H121774   5.227   4.277   3.530  0.5103 -0.1364  2.6397
 7270TIP3    H221775   5.088   4.331   3.503  0.2415 -1.7722  0.4516
 7271TIP3   OH221776   2.224   0.440   3.371 -0.5719  0.0114  0.3902
 7271TIP3    H121777   2.217   0.520   3.423 -2.2068  1.0164 -1.2486
 7271TIP3    H221778   2.315   0.413   3.382 -0.2973  1.3998  1.9761
 7272TIP3   OH221779   1.520   4.151   3.973  0.6469 -0.3890  0.3263
 7272TIP3    H121780   1.589   4.130   3.911  0.3193  0.3893 -0.3348
 7272TIP3    H221781   1.447   4.179   3.918  0.1376 -0.2661  1.0475
 7273TIP3   OH221782   0.893   2.666   1.668 -0.5503  0.2114  0.4285
 7273TIP3    H121783   0.929   2.608   1.734 -1.5520 -0.6732  0.2267
 7273TIP3    H221784   0.817   2.619   1.634  0.8613 -0.1519 -2.5474
 7274TIP3   OH221785   0.533   3.485   2.987  0.2594 -0.2723 -0.3791
 7274TIP3    H121786   0.576   3.400   2.985  0.8817 -0.0008  0.6334
 7274TIP3    H221787   0.451   3.472   2.939  0.4811 -1.3598 -0.4770
 7275TIP3   OH221788   3.322   0.974   2.570 -0.1300  0.0438 -0.0740
 7275TIP3    H121789   3.343   0.880   2.573  0.9464  0.2730  0.4253
 7275TIP3    H221790   3.296   0.995   2.659  3.6720  1.0102  1.0076
 7276TIP3   OH221791   0.854   1.643   5.202 -0.6432  0.7704  0.2626
 7276TIP3    H121792   0.895   1.727   5.222  0.1716  0.2112  1.0722
 7276TIP3    H221793   0.771   1.644   5.248 -1.1579  1.5761 -0.6672
 7277TIP3   OH221794   6.655   0.195   1.175  0.6340  0.5405  0.1295
 7277TIP3    H121795   6.673   0.170   1.084  0.0059 -1.7902  0.5846
 7277TIP3    H221796   6.711   0.138   1.227 -0.1149  0.7917  1.2451
 7278TIP3   OH221797   6.725   0.582   2.693 -0.1720 -0.1698 -0.2090
 7278TIP3    H121798   6.690   0.494   2.681 -0.4974  0.0988 -1.4667
 7278TIP3    H221799   6.691   0.610   2.778 -0.5801 -1.0209 -0.0819
 7279TIP3   OH221800   3.417   0.412   1.652  0.2919  0.1526  0.0686
 7279TIP3    H121801   3.358   0.476   1.612  1.1742  1.0544  0.1697
 7279TIP3    H221802   3.503   0.433   1.617  0.5913 -1.0744  0.0047
 7280TIP3   OH221803   5.766   2.697   3.574  0.5249  0.2059  0.0248
 7280TIP3    H121804   5.686   2.704   3.626 -0.1069  1.5364 -1.0913
 7280TIP3    H221805   5.741   2.647   3.497  0.3658  1.7907 -1.0046
 7281TIP3   OH221806   2.554   4.157   5.645 -0.1615 -0.0305 -0.0401
 7281TIP3    H121807   2.472   4.204   5.662 -0.6133 -0.1709 -1.6515
 7281TIP3    H221808   2.548   4.078   5.699 -1.2460 -0.2018 -0.3936
 7282TIP3   OH221809   3.617   2.086   3.350 -0.2797 -0.0178  0.4858
 7282TIP3    H121810   3.594   2.177   3.367 -1.3530 -0.3760  1.0655
 7282TIP3    H221811   3.562   2.060   3.276  0.5179 -0.0093 -0.1241
 7283TIP3   OH221812   6.086   1.699   1.085 -0.2792  0.2394  0.2262
 7283TIP3    H121813   6.084   1.642   1.163 -1.1531 -1.0023 -0.6592
 7283TIP3    H221814   6.137   1.649   1.021 -1.7409  0.0525 -0.8402
 7284TIP3   OH221815   6.909   0.742   5.189 -0.7324  0.2171 -0.1511
 7284TIP3    H121816   6.880   0.703   5.271  2.1334  0.0563  0.8892
 7284TIP3    H221817   6.934   0.831   5.211 -0.6479  0.4260 -1.0264
 7285TIP3   OH221818   6.367   3.136   1.863  0.2815  0.3842  0.6365
 7285TIP3    H121819   6.317   3.073   1.914 -0.2971 -0.4490 -0.9056
 7285TIP3    H221820   6.403   3.196   1.929 -1.5378  0.1749  1.9105
 7286TIP3   OH221821   7.168   1.252   3.861  0.1724 -0.0788 -0.2272
 7286TIP3    H121822   7.259   1.221   3.855 -0.4912 -1.9343 -2.2086
 7286TIP3    H221823   7.148   1.250   3.954  1.8993 -0.4583  0.1777
 7287TIP3   OH221824   3.609   3.618   5.196  0.0431  0.8741  0.0114
 7287TIP3    H121825   3.679   3.683   5.195  0.3947  0.4980 -0.1041
 7287TIP3    H221826   3.583   3.612   5.288  0.9721  0.1554  0.2356
 7288TIP3   OH221827   1.346   6.337   4.029  0.4647  0.0882  0.0340
 7288TIP3    H121828   1.311   6.332   4.118 -0.6861  0.6685 -0.3632
 7288TIP3    H221829   1.352   6.246   4.001 -1.2484 -0.0228 -0.0530
 7289TIP3   OH221830   1.813   2.618   2.469 -0.5064  0.2468 -0.8222
 7289TIP3    H121831   1.863   2.548   2.429 -1.0349 -1.4651  1.3311
 7289TIP3    H221832   1.837   2.615   2.562 -3.0155  0.7205 -0.0936
 7290TIP3   OH221833   2.867   6.422   4.601 -0.5169  0.3291 -0.0275
 7290TIP3    H121834   2.798   6.483   4.627 -2.5885 -2.1699  0.7502
 7290TIP3    H221835   2.851   6.406   4.508  1.0051  2.0303 -0.6510
 7291TIP3   OH221836   3.341   5.549   2.794 -0.1254  0.1491 -0.8215
 7291TIP3    H121837   3.423   5.571   2.837 -1.0632  1.4050  0.4304
 7291TIP3    H221838   3.346   5.455   2.778  0.7776 -0.1481  0.9834
 7292TIP3   OH221839   0.322   0.132   0.824  0.0527 -0.2001  0.2703
 7292TIP3    H121840   0.259   0.199   0.800 -1.6203 -1.5947  0.5825
 7292TIP3    H221841   0.321   0.071   0.751 -0.5365 -1.3059  1.1686
 7293TIP3   OH221842   0.537   5.005   0.510 -0.1071 -0.5644  0.3240
 7293TIP3    H121843   0.455   4.985   0.555  0.3192  1.1808  1.9975
 7293TIP3    H221844   0.522   5.091   0.471  1.0374 -0.0403  1.0043
 7294TIP3   OH221845   1.487   5.297   5.622 -0.6065 -0.2307  0.1875
 7294TIP3    H121846   1.503   5.367   5.559  1.4735 -0.4647  0.3975
 7294TIP3    H221847   1.428   5.336   5.686 -1.7216  0.4206 -1.1679
 7295TIP3   OH221848   6.097   2.273   0.067  0.7077 -0.2152 -0.5824
 7295TIP3    H121849   6.107   2.310   0.155  0.2903  1.5479 -1.2517
 7295TIP3    H221850   6.016   2.222   0.072  0.6994 -0.1524  0.0470
 7296TIP3   OH221851   4.890   4.136   5.564  0.0472 -0.3178 -0.2780
 7296TIP3    H121852   4.870   4.049   5.601 -1.6167  0.2899  0.3596
 7296TIP3    H221853   4.985   4.142   5.568  0.2291 -2.1772 -0.4932
 7297TIP3   OH221854   2.577   4.139   1.351  0.5086 -0.9041  0.7785
 7297TIP3    H121855   2.575   4.110   1.260  2.0603 -2.2646  1.1149
 7297TIP3    H221856   2.595   4.233   1.346 -1.1618 -0.6023 -0.3125
 7298TIP3   OH221857   5.327   5.786   5.184 -0.1599  0.0943  0.0408
 7298TIP3    H121858   5.322   5.730   5.107 -1.1542 -0.4081  0.4654
 7298TIP3    H221859   5.279   5.739   5.252  0.3452  0.7260  0.8569
 7299TIP3   OH221860   3.872   6.443   3.661  0.0999 -0.5425  0.4077
 7299TIP3    H121861   3.886   6.516   3.601  2.1679  0.6479  2.1657
 7299TIP3    H221862   3.940   6.380   3.638 -0.5691 -1.1291  0.0277
 7300TIP3   OH221863   2.783   5.100   0.679  1.1493  0.4336 -0.1765
 7300TIP3    H121864   2.805   5.148   0.599 -0.0997  2.1643  0.4659
 7300TIP3    H221865   2.703   5.052   0.657  0.5496  1.2693  0.1515
 7301TIP3   OH221866   4.866   5.514   5.405 -0.3181 -0.1780  0.6318
 7301TIP3    H121867   4.818   5.432   5.393 -0.8572  0.2444 -0.2292
 7301TIP3    H221868   4.811   5.580   5.361  0.4510  0.5255  0.7071
 7302TIP3   OH221869   5.521   3.647   4.314  0.4121 -0.3355  0.0222
 7302TIP3    H121870   5.437   3.689   4.294 -0.2839 -1.1132  1.2020
 7302TIP3    H221871   5.559   3.626   4.228  1.0228  3.0369 -0.6781
 7303TIP3   OH221872   0.264   1.264   0.711  1.1943  0.3792 -0.1959
 7303TIP3    H121873   0.300   1.187   0.756 -0.7481 -0.1778  0.4946
 7303TIP3    H221874   0.227   1.318   0.781  0.9134  1.0512 -0.8429
 7304TIP3   OH221875   0.725   5.971   5.050  0.9064  0.2395  0.2078
 7304TIP3    H121876   0.700   5.970   5.142  1.5698 -1.6607  0.4279
 7304TIP3    H221877   0.657   6.021   5.006 -0.8247 -0.9608  1.3968
 7305TIP3   OH221878   0.492   5.034   4.095 -0.4991  0.5092 -0.0193
 7305TIP3    H121879   0.403   5.002   4.085 -0.8751  1.6102 -0.3660
 7305TIP3    H221880   0.538   4.963   4.140 -1.3933 -0.3098 -0.3578
 7306TIP3   OH221881   0.334   3.346   3.348  0.5332 -0.4642 -0.3636
 7306TIP3    H121882   0.301   3.421   3.298  1.0009  0.4362  0.6292
 7306TIP3    H221883   0.260   3.287   3.355 -0.1699  0.4037 -0.2540
 7307TIP3   OH221884   6.537   4.097   4.794 -0.2648  0.3587 -0.0080
 7307TIP3    H121885   6.468   4.032   4.779 -0.8994  1.1457 -0.6228
 7307TIP3    H221886   6.583   4.104   4.710  1.2362 -0.8771  0.6676
 7308TIP3   OH221887   2.456   3.339   5.817  0.5680  0.0200  0.1351
 7308TIP3    H121888   2.379   3.396   5.818  1.0169  0.6561  1.3527
 7308TIP3    H221889   2.530   3.399   5.831  1.2709 -0.6028 -0.8099
 7309TIP3   OH221890   2.940   5.148   3.688 -0.0642 -0.3813 -0.2862
 7309TIP3    H121891   2.868   5.173   3.631  0.6541  0.6961 -0.7565
 7309TIP3    H221892   3.011   5.124   3.628 -0.3254 -2.4261  0.1644
 7310TIP3   OH221893   5.265   5.209   2.008  0.1399 -0.1642  0.5912
 7310TIP3    H121894   5.243   5.132   1.956 -1.3096  0.7747 -0.2790
 7310TIP3    H221895   5.321   5.176   2.079  0.5478 -1.7893 -0.4457
 7311TIP3   OH221896   2.402   2.248   1.129  0.2134 -0.6685 -0.7498
 7311TIP3    H121897   2.351   2.316   1.171  2.6439  0.4428  0.6447
 7311TIP3    H221898   2.367   2.166   1.164 -1.3517 -0.0528 -0.8037
 7312TIP3   OH221899   2.268   0.234   0.158 -0.2526 -0.3017  0.8672
 7312TIP3    H121900   2.308   0.270   0.237  1.0963  0.4107 -0.0857
 7312TIP3    H221901   2.301   0.144   0.153  2.6711  0.7083 -0.6940
 7313TIP3   OH221902   4.323   2.723   0.901  0.2799 -0.0203  0.0778
 7313TIP3    H121903   4.402   2.771   0.926 -0.4016  0.1148  2.1224
 7313TIP3    H221904   4.355   2.643   0.859  1.5136  0.0195  0.9129
 7314TIP3   OH221905   7.092   0.420   4.489 -0.3477 -0.6013  0.0126
 7314TIP3    H121906   7.145   0.345   4.462 -0.3906 -1.4461  2.0728
 7314TIP3    H221907   7.108   0.428   4.583 -2.8042 -0.0466  0.4599
 7315TIP3   OH221908   1.759   6.432   3.525  0.0324  0.2807  0.1793
 7315TIP3    H121909   1.696   6.493   3.563  0.0058  1.9018 -2.2428
 7315TIP3    H221910   1.720   6.345   3.539 -0.9679  0.9570  1.8463
 7316TIP3   OH221911   3.739   4.291   1.341  0.2535 -0.2557 -0.2096
 7316TIP3    H121912   3.678   4.221   1.317 -1.3282  1.1154 -0.4416
 7316TIP3    H221913   3.705   4.323   1.425 -0.3197  1.5370 -1.0803
 7317TIP3   OH221914   6.360   6.265   0.136  0.1254 -0.0244  0.5298
 7317TIP3    H121915   6.335   6.234   0.224  0.8547 -0.4000  0.6115
 7317TIP3    H221916   6.344   6.359   0.138 -0.2281 -0.0902  0.9413
 7318TIP3   OH221917   6.197   2.323   0.357  0.2137  0.3522  0.5880
 7318TIP3    H121918   6.283   2.325   0.315  0.4392 -1.7660  0.8363
 7318TIP3    H221919   6.216   2.311   0.450 -0.3280 -0.6607  0.5819
 7319TIP3   OH221920   4.066   1.116   1.279 -0.1306 -0.2297 -0.1051
 7319TIP3    H121921   4.075   1.040   1.221 -0.0041 -1.7216  1.7786
 7319TIP3    H221922   4.001   1.089   1.344 -0.0863  1.2906  0.6125
 7320TIP3   OH221923   6.394   6.375   5.903  0.6063 -0.4823  0.9927
 7320TIP3    H121924   6.411   6.394   5.811 -1.3632 -1.0568  0.4762
 7320TIP3    H221925   6.471   6.326   5.931  0.9138 -0.9429 -0.5464
 7321TIP3   OH221926   5.538   4.350   2.468  0.2167 -0.1391 -0.2389
 7321TIP3    H121927   5.579   4.268   2.495  1.7571  0.9633  0.9538
 7321TIP3    H221928   5.577   4.370   2.383 -0.1529 -0.6238 -0.5251
 7322TIP3   OH221929   3.949   6.610   2.983 -0.2165 -0.1040 -0.6186
 7322TIP3    H121930   4.017   6.545   2.966  0.2273  0.1257  0.1918
 7322TIP3    H221931   3.996   6.693   2.993 -0.5561 -0.0005  0.3081
 7323TIP3   OH221932   2.898   4.461   1.463 -0.0425 -0.4586  0.2773
 7323TIP3    H121933   2.846   4.542   1.459 -0.1252 -0.5692 -1.1584
 7323TIP3    H221934   2.841   4.394   1.425  0.1576 -1.1481  1.1532
 7324TIP3   OH221935   0.365   0.596   1.465  0.0037  0.3242 -0.2351
 7324TIP3    H121936   0.307   0.669   1.487 -1.4100 -1.0763  0.9554
 7324TIP3    H221937   0.318   0.519   1.494  2.3220 -0.9327  0.4542
 7325TIP3   OH221938   2.835   0.433   4.921 -0.0416 -0.4461  0.2603
 7325TIP3    H121939   2.914   0.381   4.938  1.2385 -0.0212 -3.5252
 7325TIP3    H221940   2.842   0.506   4.982  1.6911 -1.2089  1.0592
 7326TIP3   OH221941   4.225   0.312   2.516  0.6605  0.1325  0.3587
 7326TIP3    H121942   4.315   0.308   2.484  0.7634 -0.1779  0.6734
 7326TIP3    H221943   4.180   0.241   2.470 -0.0576  1.8001 -1.6647
 7327TIP3   OH221944   4.207   3.366   2.804 -0.4463 -0.2639 -0.2020
 7327TIP3    H121945   4.300   3.375   2.782 -0.3970  0.9100  0.4149
 7327TIP3    H221946   4.163   3.429   2.747 -0.7892 -0.3392 -0.0179
 7328TIP3   OH221947   6.112   5.525   2.305  0.3234 -0.1591 -0.1016
 7328TIP3    H121948   6.207   5.523   2.312  0.3630  0.1548 -0.5111
 7328TIP3    H221949   6.092   5.613   2.274 -0.1094 -0.1862  0.0883
 7329TIP3   OH221950   2.459   2.096   0.138  0.2477  0.2189  0.6984
 7329TIP3    H121951   2.529   2.142   0.090  0.4862 -0.2679  0.5779
 7329TIP3    H221952   2.466   2.129   0.228  0.0426  0.8528  0.4906
 7330TIP3   OH221953   0.590   3.348   5.343  0.3562 -0.0994  0.3780
 7330TIP3    H121954   0.515   3.407   5.348 -0.5451 -1.2618  1.0885
 7330TIP3    H221955   0.661   3.402   5.309 -0.8125  1.0160 -0.3803
 7331TIP3   OH221956   4.151   3.179   4.411 -0.5024  0.1790 -0.5609
 7331TIP3    H121957   4.157   3.242   4.340 -1.1190  1.8569  0.7953
 7331TIP3    H221958   4.062   3.191   4.446 -0.4174 -1.0274  0.1161
 7332TIP3   OH221959   6.286   4.356   1.459 -0.1909 -0.1796  0.0119
 7332TIP3    H121960   6.356   4.291   1.447  1.2273  1.3919 -0.6334
 7332TIP3    H221961   6.327   4.424   1.513 -0.8569  1.2952 -1.2946
 7333TIP3   OH221962   4.968   1.648   5.742 -0.5995 -0.5605 -0.8818
 7333TIP3    H121963   4.920   1.611   5.816 -0.4581 -0.0681 -0.5451
 7333TIP3    H221964   5.046   1.593   5.734  0.0741  0.2179  0.1995
 7334TIP3   OH221965   6.609   3.412   3.081 -0.1272  0.0027 -0.1230
 7334TIP3    H121966   6.517   3.402   3.054 -0.1797  0.3937 -0.0896
 7334TIP3    H221967   6.636   3.496   3.044  0.2439 -0.1517 -0.2007
 7335TIP3   OH221968   3.196   3.003   2.676 -0.9255  0.2120 -0.2020
 7335TIP3    H121969   3.266   3.066   2.662  0.6428 -1.0329  1.5867
 7335TIP3    H221970   3.138   3.015   2.601  3.0626 -1.1755 -3.9208
 7336TIP3   OH221971   5.387   2.555   1.370  0.0316 -0.5095  0.9343
 7336TIP3    H121972   5.330   2.525   1.299  1.4389 -2.3420  0.5069
 7336TIP3    H221973   5.443   2.621   1.329  0.1057 -0.7679  0.6151
 7337TIP3   OH221974   0.729   5.526   0.061 -0.0135 -0.0797  0.1179
 7337TIP3    H121975   0.821   5.527   0.034 -0.4995  1.3082 -1.7525
 7337TIP3    H221976   0.700   5.617   0.049 -1.3518 -0.2258  1.8007
 7338TIP3   OH221977   6.002   2.070   4.502 -0.1260  0.0267  0.2498
 7338TIP3    H121978   5.959   2.098   4.582  0.1624 -1.6033  1.0125
 7338TIP3    H221979   6.094   2.089   4.516  0.0514 -1.0921  0.7128
 7339TIP3   OH221980   1.008   5.504  -0.007  0.1830 -0.3687 -0.1877
 7339TIP3    H121981   1.076   5.453  -0.051  2.0396  3.0656 -1.7804
 7339TIP3    H221982   1.053   5.546   0.066 -0.3161  1.3716 -0.8162
 7340TIP3   OH221983   1.311   3.342   0.510  0.5511 -0.5904  0.2420
 7340TIP3    H121984   1.248   3.355   0.439  1.0651 -1.6373 -0.4387
 7340TIP3    H221985   1.343   3.429   0.531 -1.3207  0.0185  0.8054
 7341TIP3   OH221986   6.328   1.851   2.661 -0.6029 -0.0981 -0.5753
 7341TIP3    H121987   6.336   1.928   2.716 -0.6128 -0.5536  0.0707
 7341TIP3    H221988   6.326   1.777   2.722  1.0079 -0.7347 -1.2254
 7342TIP3   OH221989   5.098   1.768   0.875 -0.2015  0.4422  0.3924
 7342TIP3    H121990   5.007   1.778   0.901 -0.2188  0.4761  0.3193
 7342TIP3    H221991   5.140   1.723   0.949  0.1140  2.0265  1.2264
 7343TIP3   OH221992   3.462   2.622   3.271  0.3385 -0.6421  0.2199
 7343TIP3    H121993   3.531   2.654   3.328 -0.1524 -1.1090  1.0967
 7343TIP3    H221994   3.381   2.660   3.307  0.0263 -0.9145 -0.1764
 7344TIP3   OH221995   2.458   4.913   2.719 -0.1904  0.0348  0.4608
 7344TIP3    H121996   2.416   4.855   2.783 -0.5329  1.0845  1.2043
 7344TIP3    H221997   2.551   4.888   2.722 -0.4366 -0.9769  0.2106
 7345TIP3   OH221998   3.137   4.395   2.191  0.2738 -0.7268  0.0869
 7345TIP3    H121999   3.101   4.315   2.229 -1.1306 -0.2885 -0.2700
 7345TIP3    H222000   3.161   4.371   2.102 -0.3632 -0.7027 -0.0957
 7346TIP3   OH222001   3.656   4.408   4.607  0.1166 -0.4396 -0.2446
 7346TIP3    H122002   3.732   4.464   4.588 -0.2954 -0.3073 -1.6319
 7346TIP3    H222003   3.591   4.434   4.541 -0.4220 -1.9127 -0.3227
 7347TIP3   OH222004   6.378   0.132   0.342 -0.1206  0.0208 -0.4061
 7347TIP3    H122005   6.314   0.112   0.274  0.1893 -2.4135 -0.0649
 7347TIP3    H222006   6.330   0.120   0.424  0.4724 -0.7951 -0.1654
 7348TIP3   OH222007   2.289   2.937   4.382  0.2466 -0.6101 -0.0759
 7348TIP3    H122008   2.376   2.899   4.369  2.1758  2.4374  2.2629
 7348TIP3    H222009   2.286   3.010   4.320 -1.7931 -2.1673 -1.9130
 7349TIP3   OH222010   2.750   6.033   1.525 -0.4206 -0.6702  0.0735
 7349TIP3    H122011   2.732   6.042   1.431  0.9334 -1.2529 -0.2734
 7349TIP3    H222012   2.762   6.122   1.556 -0.4669 -0.4924 -0.4049
 7350TIP3   OH222013   2.589   1.141   1.314 -0.1001 -0.3098 -0.0517
 7350TIP3    H122014   2.650   1.215   1.319  0.5397 -0.7582 -0.9894
 7350TIP3    H222015   2.525   1.158   1.384  0.2959  0.8855  0.0441
 7351TIP3   OH222016   0.618   6.750   0.271 -0.1037  0.7878  0.0037
 7351TIP3    H122017   0.666   6.697   0.208 -1.0203 -0.7721  0.5565
 7351TIP3    H222018   0.623   6.701   0.353 -1.6316  1.1669  0.3562
 7352TIP3   OH222019   3.482   0.978   5.803 -0.0641  0.1872  0.6134
 7352TIP3    H122020   3.484   1.044   5.872 -1.5945 -1.0403  1.9251
 7352TIP3    H222021   3.471   1.027   5.722  1.7355  1.6704  1.2001
 7353TIP3   OH222022   2.017   4.130   3.807 -0.2977 -0.3657 -0.0673
 7353TIP3    H122023   1.955   4.202   3.792  0.2727 -0.3590 -2.8417
 7353TIP3    H222024   2.074   4.163   3.877 -0.7754  1.4210 -0.4564
 7354TIP3   OH222025   6.554   0.353   0.411 -0.0616  0.2358  0.0020
 7354TIP3    H122026   6.482   0.291   0.407 -1.0095  1.3503 -0.7617
 7354TIP3    H222027   6.615   0.326   0.342 -0.3912  0.0665 -0.2196
 7355TIP3   OH222028   4.496   5.989   3.066  0.2214 -0.5489 -0.3143
 7355TIP3    H122029   4.479   5.905   3.107 -2.1799 -1.1506 -2.2733
 7355TIP3    H222030   4.537   5.967   2.982 -0.0397  0.2535 -0.6653
 7356TIP3   OH222031   5.309   4.941   5.081  0.2625  0.5448  0.0878
 7356TIP3    H122032   5.266   5.011   5.032  0.8093  1.3205  0.6963
 7356TIP3    H222033   5.383   4.915   5.027 -1.4145 -1.4535 -1.4277
 7357TIP3   OH222034   6.654   5.512   0.374 -1.0579  0.1225  0.1049
 7357TIP3    H122035   6.647   5.568   0.297 -2.0704  1.1251  0.8906
 7357TIP3    H222036   6.684   5.571   0.443 -1.0515 -0.5605  0.6882
 7358TIP3   OH222037   3.150   3.776   2.783 -0.1104 -0.1853 -0.7617
 7358TIP3    H122038   3.138   3.847   2.720 -1.8269  0.5356  0.3043
 7358TIP3    H222039   3.233   3.796   2.826 -0.3626  0.9584 -0.7661
 7359TIP3   OH222040   6.009   4.495   2.788 -0.4594  0.0892 -0.5727
 7359TIP3    H122041   5.977   4.414   2.749  0.8838 -0.6034 -0.3176
 7359TIP3    H222042   6.088   4.469   2.837  0.4656  1.6570 -1.1302
 7360TIP3   OH222043   1.047   3.973   1.011 -1.1246  0.6614 -0.0219
 7360TIP3    H122044   1.064   4.030   0.936  0.6548  0.7200  0.3764
 7360TIP3    H222045   1.110   4.002   1.077 -1.4186 -0.5821  0.8311
 7361TIP3   OH222046   4.827   1.268   5.315 -0.1036 -0.4352  0.1189
 7361TIP3    H122047   4.880   1.249   5.237  0.6225 -0.1921  0.5455
 7361TIP3    H222048   4.791   1.355   5.299  1.9277  0.6454  1.0351
 7362TIP3   OH222049   2.281   2.468   4.199 -0.1461  0.1238  0.4658
 7362TIP3    H122050   2.260   2.560   4.181 -1.4996 -0.0311  1.1348
 7362TIP3    H222051   2.363   2.472   4.248 -0.8886  1.0903  1.7031
 7363TIP3   OH222052   4.674   5.660   0.989 -0.2402  0.2904  0.1790
 7363TIP3    H122053   4.585   5.686   0.963 -0.0971 -0.5185 -1.2557
 7363TIP3    H222054   4.714   5.742   1.019 -2.0110  0.3568  2.7259
 7364TIP3   OH222055   0.281   3.821   4.122 -0.7086 -0.3883 -0.5195
 7364TIP3    H122056   0.217   3.758   4.088 -1.2440  1.0887 -2.4131
 7364TIP3    H222057   0.365   3.778   4.110 -1.2018 -1.8687  0.8847
 7365TIP3   OH222058   1.584   1.448   1.022 -0.4641  0.0011  0.0601
 7365TIP3    H122059   1.515   1.426   1.084 -0.3449 -3.2704 -0.8171
 7365TIP3    H222060   1.665   1.423   1.066 -0.2127 -0.4005 -0.6240
 7366TIP3   OH222061   5.414   3.355   5.327  0.4214  0.2704  0.1141
 7366TIP3    H122062   5.412   3.417   5.254  0.6135 -0.7458 -0.7623
 7366TIP3    H222063   5.493   3.304   5.313 -0.4379 -1.0783  0.0675
 7367TIP3   OH222064   5.312   4.927   1.724  0.1718  0.3300  0.7171
 7367TIP3    H122065   5.325   4.922   1.819  2.4685 -2.3883  0.4175
 7367TIP3    H222066   5.238   4.869   1.707 -0.0477  0.5789  0.8203
 7368TIP3   OH222067   3.605   3.594   5.479 -0.1952  0.3830  1.2140
 7368TIP3    H122068   3.665   3.667   5.493 -0.5913  0.7065  1.2240
 7368TIP3    H222069   3.538   3.605   5.546 -0.3622  0.1199  1.0904
 7369TIP3   OH222070   7.032   4.206   3.577 -0.2597 -0.3657 -0.3075
 7369TIP3    H122071   7.008   4.222   3.668  0.7771 -0.6378  0.0322
 7369TIP3    H222072   6.959   4.156   3.541 -0.0077 -1.5924  0.8080
 7370TIP3   OH222073   1.031   0.129   4.626 -0.4228  0.6064 -0.1703
 7370TIP3    H122074   1.092   0.055   4.623 -0.0749  0.7572  1.7118
 7370TIP3    H222075   1.057   0.185   4.553  3.4566  1.9359  1.9454
 7371TIP3   OH222076   4.684   4.677   3.641  0.2912 -0.4013 -0.1232
 7371TIP3    H122077   4.758   4.626   3.675  2.3646  0.9952 -2.2269
 7371TIP3    H222078   4.678   4.652   3.549 -0.3111  1.2490 -0.5644
 7372TIP3   OH222079   4.019   2.228   4.574  0.6036 -0.4020  0.6758
 7372TIP3    H122080   4.023   2.189   4.661  0.4903 -0.7338  0.5323
 7372TIP3    H222081   4.036   2.155   4.514 -0.4514 -0.4024  0.3694
 7373TIP3   OH222082   4.660   6.650   3.100  0.0060 -0.4296 -0.6027
 7373TIP3    H122083   4.728   6.624   3.037  1.0789 -0.0366  0.3469
 7373TIP3    H222084   4.690   6.735   3.133 -0.1845 -0.9179  0.8899
 7374TIP3   OH222085   0.861   5.800   2.689  0.1979 -0.0886  0.4958
 7374TIP3    H122086   0.825   5.878   2.731  1.6872  0.7822  0.2146
 7374TIP3    H222087   0.889   5.744   2.761  2.1269  1.1049  0.7237
 7375TIP3   OH222088   1.462   0.375   3.056 -0.7173  0.4934 -0.5411
 7375TIP3    H122089   1.394   0.411   2.999  1.4779  1.0133 -3.0437
 7375TIP3    H222090   1.513   0.317   2.999  0.8994  0.0409  1.2493
 7376TIP3   OH222091   6.747   4.597   0.453 -0.0868 -0.2297 -0.0775
 7376TIP3    H122092   6.816   4.597   0.519 -0.0474  0.2838 -0.1174
 7376TIP3    H222093   6.665   4.595   0.503 -0.0989  1.6958  0.0475
 7377TIP3   OH222094   7.161   0.193   2.518 -0.1186 -0.5301 -0.0843
 7377TIP3    H122095   7.198   0.202   2.606  1.3083  1.1643 -0.7980
 7377TIP3    H222096   7.216   0.128   2.476 -0.3050 -0.7593  0.0256
 7378TIP3   OH222097   1.353   2.555   0.861 -0.5316 -0.2562  0.0797
 7378TIP3    H122098   1.382   2.645   0.872  3.2178 -0.9819 -2.1264
 7378TIP3    H222099   1.422   2.502   0.900 -1.9113 -2.2097  0.0301
 7379TIP3   OH222100   4.351   1.509   0.312 -0.1732  1.0619  0.8442
 7379TIP3    H122101   4.373   1.418   0.334  0.0845  0.9473  0.1107
 7379TIP3    H222102   4.320   1.505   0.222  1.4565  1.9494  0.2103
 7380TIP3   OH222103   2.123   3.017   4.583  0.1919 -0.8385 -0.0790
 7380TIP3    H122104   2.142   2.968   4.503 -1.0627 -1.0539 -0.2651
 7380TIP3    H222105   2.182   3.092   4.580 -0.0448 -0.6852 -1.3608
 7381TIP3   OH222106   6.999   1.514   1.068 -0.2451  0.3387 -0.4607
 7381TIP3    H122107   7.025   1.472   0.986  1.9739 -0.8945  0.7796
 7381TIP3    H222108   7.079   1.559   1.098 -0.4017 -0.8327  1.9312
 7382TIP3   OH222109   5.336   4.221   3.133 -0.2622  0.3593  0.5473
 7382TIP3    H122110   5.354   4.271   3.212  1.4352  1.1702 -0.2986
 7382TIP3    H222111   5.347   4.284   3.062 -0.9723 -0.5420 -0.3968
 7383TIP3   OH222112   0.625   0.723   0.405  0.6615 -0.5445 -0.0197
 7383TIP3    H122113   0.608   0.813   0.432  2.0343 -0.0925 -0.5668
 7383TIP3    H222114   0.665   0.683   0.482  1.5650 -0.1883 -0.2817
 7384TIP3   OH222115   3.283   1.358   4.390 -0.3920  0.2539  0.2111
 7384TIP3    H122116   3.357   1.403   4.350  0.0333  1.0362  1.7804
 7384TIP3    H222117   3.260   1.289   4.328  0.9311  0.7042 -0.8244
 7385TIP3   OH222118   4.711   2.761   3.517  0.0070  0.2400  0.1200
 7385TIP3    H122119   4.798   2.764   3.558 -0.1554  0.0809  0.4839
 7385TIP3    H222120   4.650   2.757   3.591 -0.2927 -0.0376 -0.1389
 7386TIP3   OH222121   5.350   5.108   0.756  0.1784  0.4933  0.3558
 7386TIP3    H122122   5.369   5.200   0.737  0.2711  0.5610  0.7601
 7386TIP3    H222123   5.350   5.065   0.670  0.3431  0.8319  0.1833
 7387TIP3   OH222124   5.126   2.706   2.234  0.1843 -0.1513  0.2445
 7387TIP3    H122125   5.070   2.640   2.192 -0.2837 -0.5999  1.5029
 7387TIP3    H222126   5.170   2.750   2.162 -1.7901  0.2064 -0.8028
 7388TIP3   OH222127   4.889   2.693   5.182  0.4652  1.1903  0.1934
 7388TIP3    H122128   4.915   2.723   5.269  1.4839 -0.5492  0.5349
 7388TIP3    H222129   4.889   2.597   5.189  1.4482  0.9848 -1.9347
 7389TIP3   OH222130   2.416   6.524   5.624  0.4317 -0.4653 -0.1624
 7389TIP3    H122131   2.369   6.441   5.625 -0.7826  0.1847 -0.8494
 7389TIP3    H222132   2.460   6.528   5.709  0.3824 -1.7203 -0.0535
 7390TIP3   OH222133   2.285   3.451   0.233  0.2715 -0.1812 -0.2817
 7390TIP3    H122134   2.361   3.445   0.175  0.0379  2.5464 -1.0197
 7390TIP3    H222135   2.212   3.417   0.180  0.3840  0.5515 -0.9263
 7391TIP3   OH222136   7.218   5.655   1.360  0.3184 -0.2644 -0.0609
 7391TIP3    H122137   7.271   5.718   1.409  0.9937 -1.0234  0.2085
 7391TIP3    H222138   7.131   5.695   1.355  0.4356  0.1660  1.0984
 7392TIP3   OH222139   1.704   2.940   4.417 -0.0296 -0.1227  0.0781
 7392TIP3    H122140   1.758   3.003   4.464 -0.4490  1.7614 -1.8321
 7392TIP3    H222141   1.679   2.985   4.336 -2.4853 -1.7872 -0.2016
 7393TIP3   OH222142   2.357   3.930   1.059  0.5368 -0.0244 -0.2361
 7393TIP3    H122143   2.317   4.016   1.046  0.3246 -0.1655 -0.5221
 7393TIP3    H222144   2.355   3.889   0.973 -0.0969 -0.6208  0.0468
 7394TIP3   OH222145   6.452   0.440   5.692  0.5394  0.2506  0.4509
 7394TIP3    H122146   6.477   0.356   5.654 -0.1538  0.7707 -1.2701
 7394TIP3    H222147   6.396   0.417   5.767 -0.8556 -0.8637 -0.8604
 7395TIP3   OH222148   5.006   4.478   0.782 -0.2338  0.2291 -0.3259
 7395TIP3    H122149   4.991   4.493   0.688 -1.2618  0.2521 -0.1706
 7395TIP3    H222150   4.925   4.438   0.813  0.5513 -0.9025  0.3168
 7396TIP3   OH222151   2.221   4.911   5.000  0.0017 -0.4063 -0.4889
 7396TIP3    H122152   2.313   4.888   4.990  0.0070 -0.5128 -0.2014
 7396TIP3    H222153   2.189   4.852   5.068  0.3244  1.3030  1.2367
 7397TIP3   OH222154   5.494   3.230   3.590 -0.1347 -0.2726  0.7625
 7397TIP3    H122155   5.475   3.249   3.682 -1.4800 -3.0233  1.1466
 7397TIP3    H222156   5.561   3.162   3.593  0.8236  0.5730 -0.3841
 7398TIP3   OH222157   5.842   3.580   5.255  0.3090  0.9287  0.1237
 7398TIP3    H122158   5.848   3.500   5.202  1.3872  0.4123  0.9692
 7398TIP3    H222159   5.920   3.630   5.231  0.0946  1.3145  0.2319
 7399TIP3   OH222160   2.807   2.797   4.211 -0.5344 -0.1540  0.2150
 7399TIP3    H122161   2.862   2.765   4.283 -0.2683 -2.9034 -1.1186
 7399TIP3    H222162   2.831   2.744   4.136 -2.8420  0.6873 -1.2302
 7400TIP3   OH222163   6.148   5.895   1.015  0.0337 -0.3607  0.1505
 7400TIP3    H122164   6.235   5.886   0.976  0.0281 -1.1170  0.3107
 7400TIP3    H222165   6.160   5.961   1.084  0.5766 -0.7668  0.4468
 7401TIP3   OH222166   5.097   3.757   5.392  0.8139 -0.0635 -0.3140
 7401TIP3    H122167   5.060   3.845   5.384  2.6189  0.8516  0.6614
 7401TIP3    H222168   5.129   3.737   5.305 -1.3871 -0.6676 -1.0542
 7402TIP3   OH222169   0.679   4.492   1.347 -0.1141 -0.0802  0.1144
 7402TIP3    H122170   0.586   4.472   1.339 -0.1048  0.2417 -0.9779
 7402TIP3    H222171   0.717   4.460   1.265  0.7203 -0.1201  0.5090
 7403TIP3   OH222172   6.631   6.253   5.562  0.3929 -0.3139 -0.6980
 7403TIP3    H122173   6.591   6.339   5.575  1.5889  0.2957 -0.8665
 7403TIP3    H222174   6.616   6.207   5.644  0.1153  0.2218 -0.4399
 7404TIP3   OH222175   4.180   4.564   1.031 -0.3620  0.3110 -0.1146
 7404TIP3    H122176   4.105   4.612   0.994 -0.5532  0.6676  0.7259
 7404TIP3    H222177   4.143   4.514   1.104  0.6094  2.4494  1.9734
 7405TIP3   OH222178   7.226   2.904   4.150  0.4801  0.3649 -0.0593
 7405TIP3    H122179   7.133   2.922   4.156  0.4521  0.4477 -0.6337
 7405TIP3    H222180   7.258   2.963   4.082  0.4345 -1.5009 -1.8038
 7406TIP3   OH222181   4.833   3.518   3.300  0.5325 -0.1325 -0.1734
 7406TIP3    H122182   4.881   3.441   3.329  1.0969 -0.0079 -0.7480
 7406TIP3    H222183   4.813   3.567   3.380  2.1801  0.2924  0.0018
 7407TIP3   OH222184   3.162   3.984   2.565  0.1856  0.8275  0.0992
 7407TIP3    H122185   3.177   3.960   2.473  0.2841 -0.8106  0.4963
 7407TIP3    H222186   3.073   4.018   2.567 -1.2291 -2.4706 -0.1032
 7408TIP3   OH222187   6.129   3.838   2.855 -0.0858 -0.5735  0.2452
 7408TIP3    H122188   6.191   3.880   2.915  3.2035 -2.9899 -1.1408
 7408TIP3    H222189   6.153   3.871   2.768 -0.2161 -2.0959 -0.4000
 7409TIP3   OH222190   6.296   6.333   4.488  0.2552 -0.0886  0.3147
 7409TIP3    H122191   6.342   6.311   4.569  0.6596  0.6421  0.2924
 7409TIP3    H222192   6.355   6.392   4.441 -1.2901  2.1497  0.9953
 7410TIP3   OH222193   7.091   6.681   4.217  0.5578  0.7383 -0.3888
 7410TIP3    H122194   7.043   6.628   4.154 -0.0101 -0.7874  1.2506
 7410TIP3    H222195   7.025   6.708   4.281  1.7294 -0.9417  1.6094
 7411TIP3   OH222196   5.477   0.645   0.022 -0.1219  0.5151  0.3263
 7411TIP3    H122197   5.544   0.587  -0.013  0.4295  1.3464 -0.0358
 7411TIP3    H222198   5.527   0.712   0.070 -0.6513  1.5002 -0.4803
 7412TIP3   OH222199   4.967   4.660   2.862  0.1761 -0.4085 -0.1597
 7412TIP3    H122200   4.980   4.714   2.784  0.4507 -0.3290 -0.0612
 7412TIP3    H222201   4.926   4.580   2.830 -0.0872 -0.2075 -0.3284
 7413TIP3   OH222202   3.778   3.832   5.291  0.3340 -0.5244 -0.9864
 7413TIP3    H122203   3.693   3.876   5.285 -0.0265 -1.0211  0.0842
 7413TIP3    H222204   3.795   3.827   5.386  1.5304 -0.4861 -1.1864
 7414TIP3   OH222205   4.863   6.463   5.805  0.3831 -0.0885  0.1499
 7414TIP3    H122206   4.935   6.521   5.781 -0.0182  0.4748  0.2807
 7414TIP3    H222207   4.868   6.457   5.900 -0.2783  0.6801  0.2454
 7415TIP3   OH222208   4.910   4.830   4.320 -0.1020  0.0289  0.1937
 7415TIP3    H122209   4.966   4.767   4.275 -0.3654  0.6604 -1.0527
 7415TIP3    H222210   4.897   4.792   4.407  3.0262  0.3110  0.9049
 7416TIP3   OH222211   5.757   2.553   2.191 -0.2582 -0.1610  0.2149
 7416TIP3    H122212   5.700   2.596   2.128 -0.0484  0.9421  0.7534
 7416TIP3    H222213   5.740   2.598   2.274  3.4547  2.2730 -0.1275
 7417TIP3   OH222214   6.895   1.547   2.106 -0.3910 -0.0394 -0.5452
 7417TIP3    H122215   6.945   1.606   2.049 -0.5921 -0.3863 -1.0842
 7417TIP3    H222216   6.805   1.554   2.076 -0.8884  1.3636  1.0770
 7418TIP3   OH222217   2.135   4.665   0.210 -0.4848  0.3772  0.3204
 7418TIP3    H122218   2.076   4.678   0.285 -0.0751 -1.5640  1.0325
 7418TIP3    H222219   2.207   4.613   0.245 -0.5566 -1.0632 -1.5269
 7419TIP3   OH222220   4.248   4.866   2.889 -0.2100  0.4277  0.1421
 7419TIP3    H122221   4.190   4.888   2.816  0.1377  2.1204  0.3375
 7419TIP3    H222222   4.261   4.949   2.935  5.4435  1.2798 -2.0613
 7420TIP3   OH222223   3.833   1.914   1.351 -0.0518 -0.0765 -0.3489
 7420TIP3    H122224   3.887   1.920   1.430 -0.8324 -2.4782  0.4610
 7420TIP3    H222225   3.743   1.914   1.383 -0.3919 -0.7542 -1.2650
 7421TIP3   OH222226   0.885   0.299   3.818  0.0019  0.1670 -0.0613
 7421TIP3    H122227   0.812   0.311   3.757  0.0409  1.2772  0.0958
 7421TIP3    H222228   0.854   0.334   3.901 -0.3244 -2.0355  0.8094
 7422TIP3   OH222229   2.879   4.891   3.109  0.0430 -0.0149  0.0215
 7422TIP3    H122230   2.867   4.934   3.193  1.5283  0.9538 -0.2095
 7422TIP3    H222231   2.959   4.931   3.074 -0.6020 -0.3102 -1.8928
 7423TIP3   OH222232   6.645   1.967   1.876 -0.5307  0.3268 -0.8445
 7423TIP3    H122233   6.662   1.914   1.797  0.7474  0.7048 -0.8473
 7423TIP3    H222234   6.701   1.928   1.943 -1.1043  0.4351 -0.2946
 7424TIP3   OH222235   2.110   5.161   0.221  0.0183 -0.2206 -0.1154
 7424TIP3    H122236   2.149   5.076   0.201  0.1792  0.0132 -0.8473
 7424TIP3    H222237   2.083   5.195   0.135  1.0567  0.9949  0.0095
 7425TIP3   OH222238   4.115   1.680   4.828 -0.2280  0.6137 -0.0142
 7425TIP3    H122239   4.211   1.681   4.831 -0.2067  2.3283 -0.5484
 7425TIP3    H222240   4.091   1.615   4.895  1.3016 -0.9858 -0.9013
 7426TIP3   OH222241   3.117   4.398   4.106 -0.2359  0.0366 -0.6414
 7426TIP3    H122242   3.069   4.460   4.160  1.3071  1.6224 -1.0019
 7426TIP3    H222243   3.108   4.314   4.152 -2.3811  0.4814 -0.1525
 7427TIP3   OH222244   1.411   0.706   3.886 -0.3592  0.6019 -0.1815
 7427TIP3    H122245   1.386   0.660   3.805  0.8024 -0.3772 -0.0039
 7427TIP3    H222246   1.383   0.648   3.956  0.3939  0.5369  0.0682
 7428TIP3   OH222247   2.850   4.886   0.417 -0.1179 -0.1703  0.2304
 7428TIP3    H122248   2.814   4.822   0.356 -1.9876  1.1945 -0.1872
 7428TIP3    H222249   2.877   4.835   0.493 -0.0073 -1.6197 -0.7482
 7429TIP3   OH222250   2.205   5.841   3.765 -0.0649  0.9421  0.3046
 7429TIP3    H122251   2.137   5.881   3.819 -1.3859  0.0340 -0.6270
 7429TIP3    H222252   2.164   5.763   3.729  1.5761  0.2148 -0.0880
 7430TIP3   OH222253   6.367   4.892   5.413 -0.0812 -0.1394 -0.3273
 7430TIP3    H122254   6.374   4.809   5.461 -1.6113 -1.1154 -1.6648
 7430TIP3    H222255   6.356   4.958   5.481 -1.7223 -1.4051  0.7242
 7431TIP3   OH222256   5.019   1.215   2.151 -0.3134 -0.0029  0.3707
 7431TIP3    H122257   4.958   1.143   2.135  1.0977 -1.0045 -0.8037
 7431TIP3    H222258   5.105   1.176   2.135  0.4933  1.9590 -0.2620
 7432TIP3   OH222259   2.695   5.963   1.822 -0.4060  0.4694 -0.2586
 7432TIP3    H122260   2.686   6.020   1.746  1.0348 -0.2028 -0.9810
 7432TIP3    H222261   2.624   5.899   1.812 -1.3075  1.4151 -0.0632
 7433TIP3   OH222262   0.436   5.347   5.128 -0.1480 -0.6266 -0.0016
 7433TIP3    H122263   0.512   5.304   5.167 -0.8563 -0.2989  1.8355
 7433TIP3    H222264   0.436   5.316   5.037 -0.8607 -4.9036  1.2257
 7434TIP3   OH222265   2.138   3.708   1.817  0.2381  0.2354 -0.1644
 7434TIP3    H122266   2.160   3.616   1.833  2.0046 -0.0099 -3.3374
 7434TIP3    H222267   2.136   3.747   1.905  1.2264 -2.4210  1.1622
 7435TIP3   OH222268   6.631   3.628   3.412 -0.0270  0.2967  0.0266
 7435TIP3    H122269   6.663   3.539   3.426  0.6614  0.6525  0.7669
 7435TIP3    H222270   6.535   3.619   3.417  0.0601 -0.2376  1.1701
 7436TIP3   OH222271   2.783   2.487   1.521  0.2711  0.6063 -0.8045
 7436TIP3    H122272   2.751   2.426   1.587  0.0381 -0.5384 -1.9161
 7436TIP3    H222273   2.878   2.481   1.528  0.2642  1.4453  0.2400
 7437TIP3   OH222274   2.534   1.484   1.324 -0.0149  0.6285 -0.0389
 7437TIP3    H122275   2.558   1.490   1.231  1.5510  2.2664  0.4255
 7437TIP3    H222276   2.613   1.452   1.367 -0.9524 -0.8122  0.6840
 7438TIP3   OH222277   2.057   2.433   2.578 -0.4046  0.6377  0.6093
 7438TIP3    H122278   2.116   2.404   2.647 -1.1194  0.0566  0.9949
 7438TIP3    H222279   2.044   2.356   2.523 -2.6094  0.0223  1.8532
 7439TIP3   OH222280   1.671   2.011   4.634 -0.4964  0.0323 -0.4868
 7439TIP3    H122281   1.738   1.968   4.581  0.8044 -0.3498  1.3710
 7439TIP3    H222282   1.593   1.956   4.623  0.5820 -1.7503  0.2803
 7440TIP3   OH222283   6.308   0.385   5.326 -0.5490 -0.0279 -0.3514
 7440TIP3    H122284   6.318   0.333   5.246  0.8864  0.0607 -0.2606
 7440TIP3    H222285   6.272   0.324   5.390  0.7781 -0.8576 -0.3473
 7441TIP3   OH222286   7.072   2.614   0.322  0.0647 -0.0903  0.1861
 7441TIP3    H122287   7.095   2.641   0.234 -0.5990  0.0724  0.0542
 7441TIP3    H222288   7.032   2.527   0.311  0.5339 -0.3374  0.3988
 7442TIP3   OH222289   6.641   4.460   1.097 -0.3291 -0.6163 -0.6920
 7442TIP3    H122290   6.553   4.464   1.059 -0.4029 -2.2653 -0.7660
 7442TIP3    H222291   6.696   4.424   1.028  0.4315  0.3811 -0.6369
 7443TIP3   OH222292   1.092   1.545   1.076 -0.1814  0.0731 -0.2233
 7443TIP3    H122293   1.104   1.489   0.999  0.5002  3.2153 -2.6153
 7443TIP3    H222294   1.005   1.582   1.065 -0.6125 -0.4665  1.2857
 7444TIP3   OH222295   0.823   0.810   2.719 -0.1448 -0.3573 -0.3351
 7444TIP3    H122296   0.746   0.846   2.677 -1.7480 -0.5766  2.1909
 7444TIP3    H222297   0.843   0.731   2.669 -2.1426 -0.7905 -0.5310
 7445TIP3   OH222298   2.706   2.961   2.384  0.2480 -0.1753  0.0754
 7445TIP3    H122299   2.659   2.956   2.467  2.2106 -1.7107  1.1993
 7445TIP3    H222300   2.745   3.049   2.383 -1.1892  0.4835 -0.0881
 7446TIP3   OH222301   6.890   5.277   1.283 -0.3081  0.0512  0.0167
 7446TIP3    H122302   6.813   5.294   1.229  0.9687 -0.1694 -1.9613
 7446TIP3    H222303   6.954   5.343   1.257  0.7261 -0.7304  0.4871
 7447TIP3   OH222304   0.405   1.929   1.010 -0.4907  0.0820 -0.5595
 7447TIP3    H122305   0.451   1.895   0.933 -0.1070  0.8046 -0.6571
 7447TIP3    H222306   0.313   1.907   0.994 -0.0901 -2.5231  0.2304
 7448TIP3   OH222307   4.694   4.208   4.828  0.5770  0.4086 -0.1417
 7448TIP3    H122308   4.617   4.230   4.775 -0.4387  1.9725  1.8399
 7448TIP3    H222309   4.674   4.121   4.864 -0.4424  0.9422  0.6230
 7449TIP3   OH222310   6.082   5.152   5.065  0.3274 -0.1199  0.0033
 7449TIP3    H122311   6.116   5.151   5.155  0.4212 -1.5774 -0.0262
 7449TIP3    H222312   6.085   5.244   5.040 -0.0723  0.3721  1.6310
 7450TIP3   OH222313   1.190   4.927   4.181 -0.3425  0.0712  0.2977
 7450TIP3    H122314   1.179   4.856   4.245  1.2298 -0.9174 -0.4748
 7450TIP3    H222315   1.100   4.955   4.161 -0.8946  1.2593  3.7674
 7451TIP3   OH222316   0.062   0.662   4.445 -0.0598 -0.6268  0.2304
 7451TIP3    H122317   0.109   0.677   4.528 -1.7482  2.6814  0.7755
 7451TIP3    H222318   0.037   0.570   4.448  0.9413 -0.9103  2.8452
 7452TIP3   OH222319   3.573   2.596   3.026  0.1484  0.1362  0.0120
 7452TIP3    H122320   3.668   2.610   3.025  0.1298  0.3958 -1.5784
 7452TIP3    H222321   3.549   2.597   3.118  1.6072  0.6656  0.4121
 7453TIP3   OH222322   3.464   4.682   5.552  0.3159 -0.1613  0.9276
 7453TIP3    H122323   3.432   4.725   5.631  0.2342 -0.2823  0.9601
 7453TIP3    H222324   3.409   4.717   5.482 -0.1226 -0.6324  1.0313
 7454TIP3   OH222325   3.171   3.444   0.248 -0.0619  0.4579 -0.0441
 7454TIP3    H122326   3.164   3.406   0.336 -0.8263  0.7779  0.0337
 7454TIP3    H222327   3.228   3.383   0.201 -1.6267 -1.0767 -0.0593
 7455TIP3   OH222328   0.014   0.598   5.615 -0.8034  0.1479  0.1877
 7455TIP3    H122329   0.017   0.537   5.541  0.1149  0.8953 -0.4223
 7455TIP3    H222330   0.006   0.542   5.692 -1.6657 -0.6572 -0.4637
 7456TIP3   OH222331   7.032   1.245   2.522 -0.8477  0.3805  0.0323
 7456TIP3    H122332   6.973   1.255   2.447 -0.7671 -0.4935 -0.1635
 7456TIP3    H222333   7.118   1.268   2.488 -0.2924 -2.6915 -1.0021
 7457TIP3   OH222334   4.385   1.576   4.872 -0.6043  0.2809  0.4149
 7457TIP3    H122335   4.415   1.518   4.802 -1.1161 -1.5386  1.6125
 7457TIP3    H222336   4.451   1.645   4.878  0.0551 -0.1972 -1.0460
 7458TIP3   OH222337   2.224   2.202   3.071 -0.0074 -0.0053  0.0800
 7458TIP3    H122338   2.245   2.276   3.127 -0.7372  0.5808 -0.3876
 7458TIP3    H222339   2.224   2.238   2.982 -0.3967 -0.5538 -0.1530
 7459TIP3   OH222340   1.537   3.473   5.050  0.3511  0.3546 -0.7371
 7459TIP3    H122341   1.451   3.495   5.015 -0.1471 -0.7086 -0.2503
 7459TIP3    H222342   1.587   3.443   4.974  0.9316  2.6591 -1.3466
 7460TIP3   OH222343   6.223   2.651   3.141 -0.3000  0.5257  0.5907
 7460TIP3    H122344   6.291   2.640   3.207  1.3264  0.0512 -1.0823
 7460TIP3    H222345   6.268   2.636   3.058 -2.2508  1.1812 -0.6399
 7461TIP3   OH222346   2.675   2.279   5.658 -0.3148 -0.2722  0.1336
 7461TIP3    H122347   2.682   2.368   5.693 -2.8295 -0.3156  0.9459
 7461TIP3    H222348   2.680   2.223   5.736  0.7273 -0.8284 -0.3190
 7462TIP3   OH222349   3.394   6.444   5.230  0.3982 -0.1345  0.1495
 7462TIP3    H122350   3.359   6.356   5.215 -0.7121  0.1217  1.1101
 7462TIP3    H222351   3.317   6.501   5.229  0.6239  0.3583  3.0354
 7463TIP3   OH222352   1.942   6.489   3.833 -0.2237 -0.1673  0.0175
 7463TIP3    H122353   1.950   6.512   3.741  0.3559 -2.0404 -0.4491
 7463TIP3    H222354   1.874   6.422   3.835  2.5595 -3.3024  0.2085
 7464TIP3   OH222355   0.214   4.729   0.753 -0.0344  0.5907 -0.3353
 7464TIP3    H122356   0.176   4.713   0.667  0.7528 -2.0044 -0.2707
 7464TIP3    H222357   0.159   4.678   0.813  0.2833  1.2315  0.5245
 7465TIP3   OH222358   5.393   1.266   5.512 -0.0300  0.6875  0.0263
 7465TIP3    H122359   5.433   1.180   5.497  0.2779  1.2565 -3.0586
 7465TIP3    H222360   5.461   1.318   5.553  0.3206 -0.0827  0.4369
 7466TIP3   OH222361   6.833   1.395   5.531 -0.5640 -0.0047  0.1999
 7466TIP3    H122362   6.903   1.343   5.571 -0.1959  0.3170 -0.0241
 7466TIP3    H222363   6.832   1.476   5.581 -0.4634  0.1829 -0.1067
 7467TIP3   OH222364   3.826   0.353   0.828  0.4538 -0.5176  0.0184
 7467TIP3    H122365   3.909   0.400   0.842  1.6508 -2.6788  0.6106
 7467TIP3    H222366   3.781   0.359   0.913 -0.1068  0.7650 -0.3392
 7468TIP3   OH222367   6.636   5.938   5.640  0.1244 -0.2262 -0.1425
 7468TIP3    H122368   6.701   5.961   5.707 -0.1162  0.2173 -0.0529
 7468TIP3    H222369   6.559   5.990   5.663 -0.4784 -1.2089  0.1076
 7469TIP3   OH222370   0.302   4.555   1.034  0.4921 -0.2004  0.6000
 7469TIP3    H122371   0.342   4.469   1.028  1.0224  0.1139 -0.7566
 7469TIP3    H222372   0.376   4.616   1.040  0.1415  0.1956  1.0028
 7470TIP3   OH222373   6.540   6.162   2.797  0.6979  0.8713  0.4278
 7470TIP3    H122374   6.487   6.159   2.877 -0.5816  2.4823 -0.2979
 7470TIP3    H222375   6.532   6.252   2.767  0.8100  0.2075 -1.7406
 7471TIP3   OH222376   5.251   3.037   4.197 -0.2751 -0.4957 -0.0051
 7471TIP3    H122377   5.192   3.046   4.272 -1.1796  1.3954 -0.8852
 7471TIP3    H222378   5.194   3.032   4.121  0.6725  0.6665 -0.8242
 7472TIP3   OH222379   7.189   3.992   3.033 -0.0727 -0.3822 -0.5532
 7472TIP3    H122380   7.267   3.999   3.088 -1.6577 -0.6514  1.8438
 7472TIP3    H222381   7.185   3.899   3.009  0.0121 -0.4747 -0.2059
 7473TIP3   OH222382   5.408   4.619   3.278 -0.1572  0.2002  0.0136
 7473TIP3    H122383   5.343   4.627   3.208  0.1182  0.1226 -0.2516
 7473TIP3    H222384   5.461   4.698   3.270  0.2785 -0.1189 -0.2769
 7474TIP3   OH222385   1.167   4.094   1.226 -0.5314 -0.6406 -0.1085
 7474TIP3    H122386   1.235   4.058   1.283  0.0955 -3.2408 -2.2693
 7474TIP3    H222387   1.091   4.105   1.283  0.6560 -1.0694  1.6350
 7475TIP3   OH222388   2.066   0.890   1.668  0.7718 -0.5858  0.4597
 7475TIP3    H122389   2.026   0.843   1.741  0.4791 -0.4836  0.3710
 7475TIP3    H222390   1.994   0.900   1.605  0.7324  0.2808  0.6289
 7476TIP3   OH222391   5.839   3.757   2.319 -0.4962  0.1160  0.1724
 7476TIP3    H122392   5.901   3.685   2.310 -1.0602 -0.3076 -0.4664
 7476TIP3    H222393   5.892   3.836   2.309 -0.4005 -0.2397 -3.5367
 7477TIP3   OH222394   5.145   3.942   1.170  0.3693 -0.6647 -0.0230
 7477TIP3    H122395   5.098   3.894   1.238 -1.5272 -0.0800 -0.8546
 7477TIP3    H222396   5.151   3.882   1.097 -0.5028 -0.2404 -0.4627
 7478TIP3   OH222397   0.309   3.832   2.843 -0.4206  0.1828  0.1022
 7478TIP3    H122398   0.397   3.852   2.875 -0.6108 -0.0243  0.7802
 7478TIP3    H222399   0.322   3.809   2.751  0.0344  1.6343 -0.2211
 7479TIP3   OH222400   1.081   3.007   5.472 -0.1238 -0.2615 -0.7775
 7479TIP3    H122401   1.135   2.998   5.393 -0.0275  1.9591 -1.0425
 7479TIP3    H222402   0.995   2.975   5.446 -0.0134  0.1514 -1.7146
 7480TIP3   OH222403   5.777   4.524   4.221 -0.7248 -0.4405 -0.4823
 7480TIP3    H122404   5.734   4.592   4.271 -1.9693 -1.4043 -0.1956
 7480TIP3    H222405   5.793   4.454   4.284  0.9197 -0.2842 -0.6707
 7481TIP3   OH222406   6.267   0.940   1.968  0.0621  0.1589  0.0404
 7481TIP3    H122407   6.222   0.896   2.040 -0.0934 -0.1949 -0.2741
 7481TIP3    H222408   6.353   0.899   1.965  0.7786  1.4581  1.2403
 7482TIP3   OH222409   6.806   3.573   1.109 -0.1584 -0.0036  0.3457
 7482TIP3    H122410   6.768   3.634   1.171 -0.2354  0.3895 -0.0842
 7482TIP3    H222411   6.772   3.601   1.024  1.2277  0.4772 -0.0724
 7483TIP3   OH222412   6.014   5.831   3.634  0.4088  0.9764 -0.1129
 7483TIP3    H122413   6.084   5.895   3.642 -0.7152  2.2233  0.1161
 7483TIP3    H222414   6.019   5.801   3.543  0.8529  1.5023 -0.2623
 7484TIP3   OH222415   0.701   5.698   4.371 -0.2962 -0.2888  0.3664
 7484TIP3    H122416   0.778   5.682   4.425 -0.5830  0.0914  0.8894
 7484TIP3    H222417   0.688   5.616   4.323 -0.5527 -0.9364  1.5134
 7485TIP3   OH222418   5.747   1.288   5.113  0.1078 -0.1068 -0.2195
 7485TIP3    H122419   5.746   1.196   5.140  3.0031 -0.5481 -1.2319
 7485TIP3    H222420   5.775   1.286   5.022 -0.6044  1.7790 -0.5259
 7486TIP3   OH222421   5.806   2.255   1.383 -0.1603  0.0129 -0.2985
 7486TIP3    H122422   5.865   2.224   1.314 -2.5267 -1.7312 -1.7372
 7486TIP3    H222423   5.774   2.175   1.425  0.2405  1.0022  2.0166
 7487TIP3   OH222424   1.362   6.291   5.391  0.4070  0.7253  0.1911
 7487TIP3    H122425   1.421   6.220   5.415  0.6817  0.7763 -0.3248
 7487TIP3    H222426   1.310   6.257   5.319 -0.2892  0.6392  0.7195
 7488TIP3   OH222427   5.082   2.043   5.211  0.1216  0.2562  0.4890
 7488TIP3    H122428   5.156   2.059   5.268  0.0567  2.0100  0.1308
 7488TIP3    H222429   5.015   2.106   5.239 -1.1433 -1.0691  0.6090
 7489TIP3   OH222430   0.468   4.206   1.199  0.6807 -0.0605  0.1714
 7489TIP3    H122431   0.384   4.230   1.239  0.5304  0.6284 -0.5422
 7489TIP3    H222432   0.499   4.287   1.160  0.6995 -0.7837 -1.3587
 7490TIP3   OH222433   5.504   3.223   0.716 -0.3343  0.4707  0.0688
 7490TIP3    H122434   5.494   3.128   0.716  0.2537  0.3986 -0.7745
 7490TIP3    H222435   5.517   3.246   0.808 -0.3509 -0.2771  0.2626
 7491TIP3   OH222436   3.890   2.394   3.060 -0.2370 -0.0160 -0.3081
 7491TIP3    H122437   3.971   2.343   3.072 -0.2000 -0.1592 -1.0648
 7491TIP3    H222438   3.848   2.352   2.985 -1.9055 -1.0594  1.1362
 7492TIP3   OH222439   3.332   5.735   4.860  0.4325  0.0522 -0.1372
 7492TIP3    H122440   3.306   5.825   4.881 -3.3601 -0.4271 -1.8805
 7492TIP3    H222441   3.329   5.732   4.764  1.0141 -1.8252 -0.1240
 7493TIP3   OH222442   7.198   4.792   2.848 -0.0017  0.2456 -0.4049
 7493TIP3    H122443   7.107   4.766   2.862 -0.0768  0.9447  0.4697
 7493TIP3    H222444   7.203   4.881   2.881  1.4043 -0.3657  1.1414
 7494TIP3   OH222445   0.598   6.077   2.924  0.0224 -0.1040  0.1288
 7494TIP3    H122446   0.638   6.138   2.985  1.5938  0.4851 -1.3936
 7494TIP3    H222447   0.594   6.125   2.841  1.3058 -1.9918 -1.1318
 7495TIP3   OH222448   4.081   1.811   5.570  0.1323 -0.0653  0.7448
 7495TIP3    H122449   4.053   1.720   5.580 -1.9688  0.5797  1.0384
 7495TIP3    H222450   4.117   1.815   5.482 -2.1930 -0.6234 -0.2939
 7496TIP3   OH222451   4.271   2.261   3.312 -0.2701 -0.2061  0.2546
 7496TIP3    H122452   4.259   2.287   3.221 -0.2670  0.4127  0.4278
 7496TIP3    H222453   4.262   2.166   3.311 -2.4899 -0.0594 -0.0609
 7497TIP3   OH222454   2.156   0.634   3.589  0.0780  0.1381  0.1046
 7497TIP3    H122455   2.071   0.629   3.632  0.4321  4.3341  1.8638
 7497TIP3    H222456   2.217   0.595   3.652 -0.3071 -1.6101 -0.5528
 7498TIP3   OH222457   3.251   1.756   5.789  0.0980 -0.0322 -0.0279
 7498TIP3    H122458   3.244   1.816   5.715 -1.6012 -0.4469 -0.2384
 7498TIP3    H222459   3.173   1.701   5.783  0.3277 -0.5891  1.6250
 7499TIP3   OH222460   3.916   5.582   2.907  0.2873  0.2632 -0.4518
 7499TIP3    H122461   3.965   5.656   2.943  1.5519 -1.9347  2.7303
 7499TIP3    H222462   3.981   5.513   2.896 -1.3418 -1.3472 -0.4520
 7500TIP3   OH222463   4.956   3.538   3.701  0.2184 -0.6933  0.0504
 7500TIP3    H122464   4.911   3.505   3.778  0.6162  0.1496  0.6561
 7500TIP3    H222465   4.942   3.470   3.634  0.2958 -1.6674  0.9984
 7501TIP3   OH222466   1.030   1.393   0.312 -0.4162  0.8116 -0.0053
 7501TIP3    H122467   0.970   1.437   0.372 -0.4752  0.7501 -0.0196
 7501TIP3    H222468   1.000   1.303   0.308  0.1428  0.5897  0.5840
 7502TIP3   OH222469   5.265   3.031   0.306  0.0695 -0.7557 -0.0013
 7502TIP3    H122470   5.276   3.084   0.227 -1.1563 -0.0723  0.2562
 7502TIP3    H222471   5.229   3.092   0.370  1.7611 -1.1072  1.3400
 7503TIP3   OH222472   3.946   1.011   2.046 -0.0073 -0.2602  0.4337
 7503TIP3    H122473   3.868   0.997   1.991 -0.0986  1.8892 -0.0495
 7503TIP3    H222474   4.004   0.938   2.024 -1.6035 -1.5655  0.3473
 7504TIP3   OH222475   1.050   5.645   5.465  0.0222  0.0642  0.2020
 7504TIP3    H122476   1.119   5.647   5.531  0.8511 -0.9515 -0.6053
 7504TIP3    H222477   1.067   5.721   5.410  0.4558 -0.1407  0.0498
 7505TIP3   OH222478   4.320   6.204   1.815 -0.4122  0.0157 -0.4167
 7505TIP3    H122479   4.376   6.138   1.774 -0.8976  0.2748 -1.5492
 7505TIP3    H222480   4.380   6.270   1.848  0.0798 -0.9591  0.7174
 7506TIP3   OH222481   2.367   2.593   1.504 -0.2983  0.1787 -0.1597
 7506TIP3    H122482   2.396   2.502   1.507 -0.0851  0.1980 -1.2064
 7506TIP3    H222483   2.329   2.609   1.590  0.4080 -0.6509  0.3203
 7507TIP3   OH222484   6.936   3.961   3.353 -0.1789 -0.1188 -0.1028
 7507TIP3    H122485   6.858   3.930   3.308 -2.1971 -0.0434  3.0815
 7507TIP3    H222486   6.987   3.882   3.369 -1.5181 -0.7677  1.1472
 7508TIP3   OH222487   2.627   4.008   1.668 -0.0367 -0.1498  0.1312
 7508TIP3    H122488   2.553   3.952   1.642  0.4665 -0.6543 -0.2309
 7508TIP3    H222489   2.588   4.073   1.727 -0.6303 -0.8913  0.5738
 7509TIP3   OH222490   4.514   1.915   1.930  0.3367 -0.8167  0.5109
 7509TIP3    H122491   4.465   1.860   1.991 -0.7133 -3.7837 -2.6935
 7509TIP3    H222492   4.447   1.963   1.882  1.0857  0.6593  0.8737
 7510TIP3   OH222493   0.011   2.490   3.117  0.6359  0.0580  0.2968
 7510TIP3    H122494  -0.046   2.415   3.132 -0.0392  0.7236  1.1359
 7510TIP3    H222495   0.062   2.499   3.198  0.9933  0.2622  0.0546
 7511TIP3   OH222496   6.248   2.101   2.756 -0.0386 -0.0768  0.1889
 7511TIP3    H122497   6.266   2.127   2.665 -0.8064  0.2882  0.1281
 7511TIP3    H222498   6.163   2.057   2.751  0.2077 -0.6080  0.6416
 7512TIP3   OH222499   7.099   5.888   1.133 -0.4093  0.3387  0.4780
 7512TIP3    H122500   7.174   5.856   1.183 -0.4526  0.1334  0.4144
 7512TIP3    H222501   7.092   5.980   1.156  0.1578  0.4777  0.1144
 7513TIP3   OH222502   5.295   2.039   5.389  0.1317 -0.6790 -0.5881
 7513TIP3    H122503   5.288   2.107   5.456 -2.2507  0.3624 -1.7667
 7513TIP3    H222504   5.384   2.048   5.354 -0.5863  3.0650 -1.8483
 7514TIP3   OH222505   5.487   0.379   3.284 -0.2091 -0.1918  0.0068
 7514TIP3    H122506   5.443   0.386   3.369 -1.3270  0.1877 -0.5839
 7514TIP3    H222507   5.507   0.286   3.275 -1.2957 -0.4496  0.1109
 7515TIP3   OH222508   1.338   2.168   0.705  0.2403  0.4069  1.0834
 7515TIP3    H122509   1.401   2.207   0.645  0.0986  1.2435  1.4533
 7515TIP3    H222510   1.390   2.141   0.780  1.0087 -3.8615 -0.7308
 7516TIP3   OH222511   5.028   1.371   3.176 -0.0148  0.5854  0.7611
 7516TIP3    H122512   5.041   1.421   3.095  0.0936  1.3109  1.2161
 7516TIP3    H222513   5.007   1.437   3.242  0.9718  0.1225  1.5618
 7517TIP3   OH222514   2.705   1.136   4.132  0.1815 -0.5753 -0.9322
 7517TIP3    H122515   2.800   1.130   4.140  0.0976 -0.0974  0.6851
 7517TIP3    H222516   2.690   1.185   4.050  1.3445  0.3399 -0.6167
 7518TIP3   OH222517   2.844   5.359   2.277  0.0268 -0.0469 -0.3993
 7518TIP3    H122518   2.855   5.299   2.351  1.6306  0.9280  0.2243
 7518TIP3    H222519   2.776   5.420   2.306  0.5172  0.2214  0.2390
 7519TIP3   OH222520   4.289   0.518   5.254 -0.2205 -0.4471 -0.6705
 7519TIP3    H122521   4.318   0.597   5.208 -0.9777 -0.8132 -1.8489
 7519TIP3    H222522   4.350   0.508   5.327 -0.0662  1.1747 -0.5500
 7520TIP3   OH222523   7.059   4.252   4.239  0.0315 -0.1059 -0.2098
 7520TIP3    H122524   7.040   4.327   4.296 -1.7923  0.2403 -1.2094
 7520TIP3    H222525   7.146   4.270   4.204  0.5980  0.3560  1.3692
 7521TIP3   OH222526   4.282   3.691   4.744  0.2395 -0.4197 -0.5306
 7521TIP3    H122527   4.230   3.698   4.824  0.1448 -0.0219 -0.6237
 7521TIP3    H222528   4.370   3.670   4.774  0.6762  1.6920 -0.1637
 7522TIP3   OH222529   2.041   1.839   5.140 -0.2363 -0.0179 -0.2645
 7522TIP3    H122530   1.950   1.866   5.125  0.3974  1.4607 -1.6530
 7522TIP3    H222531   2.050   1.840   5.236 -2.0972 -1.8135  0.0223
 7523TIP3   OH222532   4.162   5.967   2.810 -0.4990  0.1666  0.2032
 7523TIP3    H122533   4.068   5.977   2.790 -0.7982 -1.1645  0.8611
 7523TIP3    H222534   4.185   5.883   2.772  0.4872  0.5479 -0.0656
 7524TIP3   OH222535   6.713   5.246   0.697  0.4073  0.4325  0.5281
 7524TIP3    H122536   6.674   5.296   0.769  1.2381  1.9836 -0.0302
 7524TIP3    H222537   6.748   5.167   0.738 -0.8948  0.3081  1.4669
 7525TIP3   OH222538   3.177   2.477   5.849  0.5214 -0.2464 -0.2708
 7525TIP3    H122539   3.086   2.468   5.880  0.2301 -0.1620 -1.0724
 7525TIP3    H222540   3.230   2.438   5.919 -0.1472 -0.4778  0.1191
 7526TIP3   OH222541   5.025   4.810   2.650 -0.4165  0.6265  0.0896
 7526TIP3    H122542   4.960   4.869   2.612 -1.8221  0.0742  1.5674
 7526TIP3    H222543   5.040   4.744   2.582 -1.8004  0.4719 -0.0915
 7527TIP3   OH222544   1.708   0.066   4.263  0.0447  0.1362 -0.5487
 7527TIP3    H122545   1.664   0.123   4.326  1.1908 -0.2333  0.6513
 7527TIP3    H222546   1.638   0.034   4.207 -0.9598  0.8550  0.2357
 7528TIP3   OH222547   3.001   3.248   4.536  0.0545 -0.5801  0.3886
 7528TIP3    H122548   3.012   3.208   4.450  0.2140  1.0167 -0.3634
 7528TIP3    H222549   3.090   3.259   4.568  0.0196 -0.6623  0.5132
 7529TIP3   OH222550   4.599   3.332   0.894 -0.5961  0.2589 -0.5290
 7529TIP3    H122551   4.511   3.329   0.931  0.1113  3.0415  1.7165
 7529TIP3    H222552   4.655   3.295   0.963  0.1378 -0.6532 -1.5772
 7530TIP3   OH222553   6.084   3.860   4.558  0.5330  0.1410 -0.3762
 7530TIP3    H122554   6.050   3.771   4.573  0.1325  0.7264  2.9957
 7530TIP3    H222555   6.114   3.859   4.467 -2.5940 -2.3916 -1.6037
 7531TIP3   OH222556   1.287   0.808   5.025 -0.0131 -0.3430 -0.4253
 7531TIP3    H122557   1.289   0.863   5.104 -1.3538 -0.5476 -0.2356
 7531TIP3    H222558   1.330   0.861   4.958  0.0046  0.3520  0.1249
 7532TIP3   OH222559   0.469   0.561   2.478 -0.1476  0.4750  0.1845
 7532TIP3    H122560   0.383   0.603   2.468  0.0517  0.8013 -0.1274
 7532TIP3    H222561   0.474   0.541   2.572  0.5120  2.7724  0.6890
 7533TIP3   OH222562   5.679   6.462   5.824  0.2178 -0.3173  0.4467
 7533TIP3    H122563   5.673   6.524   5.896 -0.8394  1.0552 -0.7804
 7533TIP3    H222564   5.623   6.389   5.850  0.2064 -0.0428  1.2037
 7534TIP3   OH222565   2.687   3.378   1.016  0.0167  0.4349  0.3124
 7534TIP3    H122566   2.655   3.358   1.104  1.8605  1.6304  1.3291
 7534TIP3    H222567   2.727   3.297   0.985  0.3512  0.3100  1.0586
 7535TIP3   OH222568   6.927   4.582   2.379 -0.4599 -0.2002 -0.5812
 7535TIP3    H122569   7.023   4.586   2.388 -0.4745 -0.5098 -0.2045
 7535TIP3    H222570   6.907   4.639   2.306 -0.1506  1.2906  0.4555
 7536TIP3   OH222571   0.448   1.072   3.557 -0.0888  0.2555 -0.1062
 7536TIP3    H122572   0.354   1.069   3.576 -0.2493  0.3107 -0.8720
 7536TIP3    H222573   0.460   1.012   3.484  0.7111 -0.8412  0.9034
 7537TIP3   OH222574   6.623   3.196   5.097 -0.2157 -0.0315 -0.0864
 7537TIP3    H122575   6.619   3.218   5.004 -0.5707  1.4825  0.2495
 7537TIP3    H222576   6.687   3.257   5.134 -3.0095  2.3340  1.3277
 7538TIP3   OH222577   6.888   0.451   0.391 -0.1277  0.1732 -0.6115
 7538TIP3    H122578   6.857   0.483   0.476  0.9088 -0.9124  0.2153
 7538TIP3    H222579   6.901   0.357   0.404  0.6247  0.0959 -1.7925
 7539TIP3   OH222580   1.558   1.936   4.244 -0.2110  0.0068 -0.2270
 7539TIP3    H122581   1.548   1.904   4.154 -1.2759 -1.1585  0.2686
 7539TIP3    H222582   1.484   1.996   4.256  0.9128  1.5164 -0.6612
 7540TIP3   OH222583   2.198   6.413   0.369 -0.2541  0.5290  0.5257
 7540TIP3    H122584   2.281   6.401   0.323  0.2020  1.2261  1.1497
 7540TIP3    H222585   2.197   6.344   0.435 -0.7369 -0.2351 -0.2566
 7541TIP3   OH222586   6.718   2.452   0.205 -0.1193  0.0332  0.1427
 7541TIP3    H122587   6.665   2.522   0.243  1.8523  2.3342 -1.0545
 7541TIP3    H222588   6.781   2.430   0.274 -1.5680 -1.6440  1.0182
 7542TIP3   OH222589   1.898   2.868   3.504 -0.2712 -0.5098 -0.1472
 7542TIP3    H122590   1.909   2.844   3.412  2.7156  1.6269 -0.5111
 7542TIP3    H222591   1.969   2.822   3.549 -0.9280 -0.5278  0.9048
 7543TIP3   OH222592   2.440   1.808   2.707 -0.5885  0.7424  0.0793
 7543TIP3    H122593   2.351   1.788   2.678 -0.5388  2.7649 -1.7514
 7543TIP3    H222594   2.493   1.797   2.629  0.4676  1.3933  0.6881
 7544TIP3   OH222595   6.106   6.442   4.648 -0.0660  0.1502 -0.2121
 7544TIP3    H122596   6.053   6.365   4.668 -2.8125  1.5826 -1.4731
 7544TIP3    H222597   6.153   6.417   4.568  0.2322 -0.7127  0.2140
 7545TIP3   OH222598   4.866   2.555   0.040  0.0185 -0.5202 -0.5679
 7545TIP3    H122599   4.945   2.542   0.091  0.1789 -0.8882 -0.9056
 7545TIP3    H222600   4.808   2.605   0.097  0.3400 -0.5955 -0.1739
 7546TIP3   OH222601   4.854   6.383   0.367 -0.0739  0.1928 -0.2917
 7546TIP3    H122602   4.846   6.338   0.283  2.0698 -1.4160  0.2749
 7546TIP3    H222603   4.833   6.316   0.432 -2.1665  1.5349  0.4978
 7547TIP3   OH222604   1.797   1.089   1.146 -0.1282 -0.1593  0.4831
 7547TIP3    H122605   1.820   1.005   1.185  1.3871  0.3251  0.6726
 7547TIP3    H222606   1.841   1.154   1.200 -0.7751  0.7274 -0.0334
 7548TIP3   OH222607   4.018   5.553   0.917 -0.0007  0.3785 -0.0866
 7548TIP3    H122608   4.014   5.535   0.823 -1.1065  0.4687 -0.0651
 7548TIP3    H222609   3.966   5.633   0.928  1.8099  1.5753  0.3261
 7549TIP3   OH222610   0.937   1.487   4.998  0.2786  0.3577 -0.2293
 7549TIP3    H122611   0.865   1.426   5.016  0.0144  0.9126  0.6624
 7549TIP3    H222612   0.929   1.554   5.066  0.9985  1.0034 -0.7670
 7550TIP3   OH222613   4.965   1.383   3.735 -0.0520 -0.1256  0.3299
 7550TIP3    H122614   4.963   1.329   3.814  0.5185 -1.6845 -0.6669
 7550TIP3    H222615   4.908   1.457   3.755 -0.7211 -1.0001  1.8368
 7551TIP3   OH222616   4.514   3.622   4.938  0.1530  0.9997 -0.2023
 7551TIP3    H122617   4.573   3.651   5.008  0.1875  2.3547 -0.7559
 7551TIP3    H222618   4.426   3.630   4.976  0.2774 -1.1626  0.6749
 7552TIP3   OH222619   1.528   6.772   2.582  0.1681  0.1410  0.1814
 7552TIP3    H122620   1.447   6.757   2.534  0.3916  1.7416 -0.8034
 7552TIP3    H222621   1.592   6.713   2.541  1.0865  3.3201 -3.6762
 7553TIP3   OH222622   1.400   1.086   4.457  0.0199 -0.0029  0.2892
 7553TIP3    H122623   1.360   1.137   4.528 -0.0106 -1.4111  1.3327
 7553TIP3    H222624   1.494   1.088   4.475  0.1894  1.0655 -0.6324
 7554TIP3   OH222625   0.612   0.927   3.729  0.5433  0.0181 -0.2244
 7554TIP3    H122626   0.607   0.852   3.670  0.8485 -0.1428 -0.0482
 7554TIP3    H222627   0.569   0.998   3.682  3.2580  0.7041 -1.8920
 7555TIP3   OH222628   6.104   5.778   0.542  0.6919 -0.0016 -0.2542
 7555TIP3    H122629   6.189   5.746   0.573  0.9145 -0.1306 -0.9981
 7555TIP3    H222630   6.050   5.699   0.534  0.4456  0.0947  0.3589
 7556TIP3   OH222631   2.633   2.009   2.508 -0.4720 -0.2303 -0.4719
 7556TIP3    H122632   2.630   1.914   2.496 -1.2416 -0.0703 -1.7672
 7556TIP3    H222633   2.715   2.036   2.465  0.0748 -0.3590  0.4603
 7557TIP3   OH222634   1.196   4.642   2.403 -0.1570  0.1418 -0.0968
 7557TIP3    H122635   1.240   4.648   2.488 -0.1926 -1.3039  0.0345
 7557TIP3    H222636   1.264   4.611   2.343 -0.3571  0.3402 -0.4303
 7558TIP3   OH222637   5.617   5.006   0.380 -0.7754 -0.0592 -0.0509
 7558TIP3    H122638   5.652   5.021   0.468  0.7611 -1.0469 -0.4575
 7558TIP3    H222639   5.689   5.026   0.322 -1.9062  0.9948 -1.1537
 7559TIP3   OH222640   1.787   2.286   0.839  0.3055 -0.0998 -0.9407
 7559TIP3    H122641   1.756   2.289   0.748 -0.3339  0.9926 -0.6991
 7559TIP3    H222642   1.855   2.219   0.838  0.6053  0.1895 -2.3154
 7560TIP3   OH222643   4.368   4.450   1.437  0.1025  0.9581 -0.0480
 7560TIP3    H122644   4.356   4.497   1.519  1.0115  1.3986 -0.1610
 7560TIP3    H222645   4.316   4.499   1.374 -1.0206  0.3227  0.3524
 7561TIP3   OH222646   4.773   2.136   1.482 -0.0752 -0.3505 -0.5442
 7561TIP3    H122647   4.700   2.197   1.480 -0.2528 -0.4262  1.4620
 7561TIP3    H222648   4.735   2.054   1.514  0.8672 -0.3551  0.6552
 7562TIP3   OH222649   1.655   4.269   5.465 -0.2943  0.1754  0.2651
 7562TIP3    H122650   1.741   4.265   5.508 -0.8600  1.6593  1.6578
 7562TIP3    H222651   1.675   4.274   5.371  1.2311  1.6225  0.6109
 7563TIP3   OH222652   1.590   1.521   4.860 -0.3904  0.0993 -0.6911
 7563TIP3    H122653   1.523   1.579   4.824 -0.7362 -0.4225 -0.9100
 7563TIP3    H222654   1.609   1.557   4.947 -1.4610 -0.1418 -0.3477
 7564TIP3   OH222655   5.209   2.348   3.178 -0.7999 -0.2048 -0.3536
 7564TIP3    H122656   5.228   2.259   3.208 -4.0925 -1.3377 -1.1742
 7564TIP3    H222657   5.279   2.402   3.216  0.3316 -2.8552  1.6463
 7565TIP3   OH222658   5.628   3.456   2.329  0.3907  0.0611  0.0614
 7565TIP3    H122659   5.688   3.457   2.255  0.6082  1.9893  0.2166
 7565TIP3    H222660   5.672   3.403   2.395  0.2034 -1.6725 -1.1202
 7566TIP3   OH222661   2.488   5.880   4.301  0.4715 -0.2433  0.0792
 7566TIP3    H122662   2.573   5.856   4.265  0.1246 -0.0193 -0.9311
 7566TIP3    H222663   2.505   5.960   4.352  1.0894 -0.9356  0.9751
 7567TIP3   OH222664   5.015   6.397   1.614 -0.5928  0.1465  0.2648
 7567TIP3    H122665   5.062   6.366   1.537 -0.0010 -0.8913  1.0247
 7567TIP3    H222666   5.082   6.407   1.682 -1.0175  1.5706  0.5137
 7568TIP3   OH222667   4.529   4.488   2.799 -0.1942  0.3915 -0.0453
 7568TIP3    H122668   4.520   4.503   2.705  0.7243  1.2791 -0.0113
 7568TIP3    H222669   4.440   4.470   2.829 -0.9944  2.9228 -0.6381
 7569TIP3   OH222670   5.865   3.982   5.740 -0.0502 -0.7713 -0.6650
 7569TIP3    H122671   5.887   3.953   5.651 -0.2622 -1.6674 -0.4405
 7569TIP3    H222672   5.891   3.908   5.796  0.3977 -0.0771  0.0535
 7570TIP3   OH222673   3.650   2.910   3.531 -0.2912 -0.5137 -0.9157
 7570TIP3    H122674   3.578   2.870   3.580 -0.5238 -0.8923 -1.5526
 7570TIP3    H222675   3.721   2.846   3.535 -0.4565 -0.7385 -1.4218
 7571TIP3   OH222676   5.323   0.581   5.370  0.3502 -0.4779 -0.7185
 7571TIP3    H122677   5.321   0.612   5.461 -1.5685  1.0051 -1.2098
 7571TIP3    H222678   5.337   0.661   5.319 -1.0910 -0.9162 -1.8460
 7572TIP3   OH222679   0.447   5.890   3.141  0.2246 -0.5259 -0.2115
 7572TIP3    H122680   0.542   5.904   3.147  0.2097  0.1246 -1.1501
 7572TIP3    H222681   0.438   5.805   3.100  0.4788  0.5273 -2.6279
 7573TIP3   OH222682   2.974   1.945   3.103  0.1138 -0.1202 -0.1926
 7573TIP3    H122683   2.996   2.022   3.051 -0.7005 -0.7736 -1.5464
 7573TIP3    H222684   2.894   1.970   3.151 -0.6096 -0.3717 -1.2413
 7574TIP3   OH222685   2.606   5.466   2.368  0.4950  0.3102  0.1633
 7574TIP3    H122686   2.547   5.539   2.348 -0.0761 -0.3171 -0.4764
 7574TIP3    H222687   2.566   5.423   2.443  0.7781  0.5964  0.4776
 7575TIP3   OH222688   0.958   1.213   5.487  0.3471 -0.0737  0.1305
 7575TIP3    H122689   0.886   1.238   5.545  1.3066  1.2609  0.7868
 7575TIP3    H222690   0.938   1.258   5.405 -0.1340 -0.6051 -0.0498
 7576TIP3   OH222691   4.289   2.153   2.507 -0.2598 -0.2288  0.1266
 7576TIP3    H122692   4.308   2.247   2.506  0.1995 -0.3179  0.0804
 7576TIP3    H222693   4.247   2.137   2.423  0.1299 -0.1500 -0.0900
 7577TIP3   OH222694   0.071   2.762   5.027  0.0761 -0.6682  0.4479
 7577TIP3    H122695   0.132   2.707   5.076 -0.0558 -0.5195  0.7814
 7577TIP3    H222696   0.097   2.751   4.936  0.9264 -0.2147  0.6310
 7578TIP3   OH222697   1.543   4.421   0.267 -0.0748 -0.4330 -0.6365
 7578TIP3    H122698   1.557   4.464   0.183  0.1982 -0.8706 -0.8206
 7578TIP3    H222699   1.610   4.352   0.270  1.4778  1.0309  0.9502
 7579TIP3   OH222700   1.983   4.947   2.916 -0.3463  0.3006  0.1965
 7579TIP3    H122701   1.919   4.938   2.846 -1.2663  2.0453  0.7700
 7579TIP3    H222702   1.957   5.025   2.964  1.6579  0.5296  1.0417
 7580TIP3   OH222703   1.695   4.683   1.142  0.6359 -0.1757  0.0406
 7580TIP3    H122704   1.636   4.752   1.112  1.6925  0.0842 -1.6099
 7580TIP3    H222705   1.746   4.724   1.212  0.3353  0.2830 -0.0035
 7581TIP3   OH222706   5.891   5.010   1.060  0.1103  0.0890  0.4442
 7581TIP3    H122707   5.871   4.917   1.049 -3.4082  0.8004 -0.1032
 7581TIP3    H222708   5.837   5.038   1.134 -0.5468  2.1094 -0.7194
 7582TIP3   OH222709   0.567   5.280   1.429  0.3515 -0.5551 -0.4601
 7582TIP3    H122710   0.509   5.234   1.368  0.4937 -0.3273 -0.7701
 7582TIP3    H222711   0.577   5.367   1.390 -0.6528  0.0565  0.5710
 7583TIP3   OH222712   4.948   2.036   0.570 -0.1095  0.2927  0.1813
 7583TIP3    H122713   4.911   1.951   0.547 -1.2898  0.5173  1.1704
 7583TIP3    H222714   5.038   2.016   0.598 -0.1510 -0.5296 -0.2481
 7584TIP3   OH222715   1.108   5.130   3.829 -0.2239  0.0240  0.4961
 7584TIP3    H122716   1.153   5.046   3.843  0.4921  0.3621  0.2817
 7584TIP3    H222717   1.147   5.188   3.894 -1.3729 -0.0398  1.2620
 7585TIP3   OH222718   3.052   5.385   3.095 -0.1946 -0.9062 -0.0308
 7585TIP3    H122719   3.051   5.362   3.002  2.1325  1.4929 -0.7651
 7585TIP3    H222720   3.135   5.350   3.128  0.4757  0.8899  0.3136
 7586TIP3   OH222721   4.492   2.879   0.541 -0.3836  0.1047 -0.2052
 7586TIP3    H122722   4.443   2.885   0.459 -0.3144  2.8674 -0.1256
 7586TIP3    H222723   4.434   2.917   0.606  0.3994 -0.1090  0.6323
 7587TIP3   OH222724   2.849   2.772   5.367 -0.3070  0.7502  0.0520
 7587TIP3    H122725   2.811   2.833   5.305 -0.7334 -0.2081 -0.6532
 7587TIP3    H222726   2.791   2.776   5.444 -0.1754  1.4178  0.1195
 7588TIP3   OH222727   0.629   4.860   0.005 -0.2038 -0.3896  0.1834
 7588TIP3    H122728   0.626   4.929   0.071 -0.7125 -0.7509  0.5475
 7588TIP3    H222729   0.588   4.784   0.047  1.8356 -1.4340  0.3779
 7589TIP3   OH222730   1.759   2.401   0.585 -0.0874 -0.1185  0.2090
 7589TIP3    H122731   1.768   2.413   0.490 -0.0324 -0.5984  0.1500
 7589TIP3    H222732   1.758   2.306   0.597 -0.9825 -0.0704  0.6026
 7590TIP3   OH222733   5.608   1.754   5.184  0.2096  0.1132  0.7461
 7590TIP3    H122734   5.545   1.771   5.113  0.5573  0.0577  0.4200
 7590TIP3    H222735   5.691   1.742   5.139  0.3926 -0.1536  1.1531
 7591TIP3   OH222736   4.965   4.041   1.760  0.0788 -0.1844  0.4586
 7591TIP3    H122737   4.956   4.052   1.665  0.8232 -0.3030  0.3642
 7591TIP3    H222738   4.941   3.950   1.777 -1.4896  0.2277  0.5958
 7592TIP3   OH222739   5.823   0.301   5.620  0.0140  0.1710  0.1445
 7592TIP3    H122740   5.838   0.291   5.526 -2.2523  1.4402 -0.4170
 7592TIP3    H222741   5.729   0.320   5.628  0.3444  1.1527  2.5810
 7593TIP3   OH222742   0.457   5.209   4.388  0.2056  0.7403  0.0216
 7593TIP3    H122743   0.454   5.140   4.321  2.0331 -0.4674  1.0919
 7593TIP3    H222744   0.412   5.171   4.463 -1.1787  1.8052 -0.2390
 7594TIP3   OH222745   5.042   6.565   3.130  0.4028 -0.6007 -0.5023
 7594TIP3    H122746   5.132   6.574   3.100  0.6327  0.9901  0.5581
 7594TIP3    H222747   5.046   6.500   3.200  0.8164 -0.2134 -0.1592
 7595TIP3   OH222748   3.115   4.875   5.760 -0.2399 -0.2068 -0.1239
 7595TIP3    H122749   3.101   4.943   5.694 -1.2980  1.4747  1.7241
 7595TIP3    H222750   3.087   4.916   5.843 -0.1648 -2.6379  1.1838
 7596TIP3   OH222751   2.483   0.478   2.335  0.2966  0.0566 -0.2923
 7596TIP3    H122752   2.408   0.503   2.281 -1.0771 -1.0018  1.0275
 7596TIP3    H222753   2.446   0.464   2.422  2.1983  0.3694  0.6232
 7597TIP3   OH222754   2.793   4.660   2.008  0.0509  0.0807  0.2982
 7597TIP3    H122755   2.813   4.683   2.099  0.5697  0.8540  0.0043
 7597TIP3    H222756   2.879   4.647   1.968 -0.0854  1.5807 -0.5352
 7598TIP3   OH222757   4.713   2.059   2.128 -0.5446  0.6580 -0.1946
 7598TIP3    H122758   4.781   2.067   2.061  0.6361  0.1208  0.8780
 7598TIP3    H222759   4.645   2.006   2.087 -0.1388  0.8660 -1.1704
 7599TIP3   OH222760   4.146   6.726   5.046  0.6470  0.2841 -0.8407
 7599TIP3    H122761   4.174   6.817   5.051  1.6294  0.0573 -1.6655
 7599TIP3    H222762   4.228   6.676   5.041  0.2456 -0.8642  2.0533
 7600TIP3   OH222763   6.460   0.569   3.292 -0.3269 -0.2033  0.0395
 7600TIP3    H122764   6.378   0.526   3.318  0.4580 -0.6114  1.9893
 7600TIP3    H222765   6.458   0.567   3.196 -1.5721 -2.1743  0.0412
 7601TIP3   OH222766   1.778   4.754   5.482  0.2658  0.2256  0.4808
 7601TIP3    H122767   1.791   4.707   5.399 -0.1574  0.5657  0.2170
 7601TIP3    H222768   1.716   4.701   5.531 -0.1824  0.4786  0.1981
 7602TIP3   OH222769   2.347   2.699   0.485 -0.2788  0.2746  0.4334
 7602TIP3    H122770   2.261   2.656   0.484 -0.9518  1.4893 -1.7187
 7602TIP3    H222771   2.404   2.639   0.532 -1.3510 -2.5194 -1.5584
 7603TIP3   OH222772   6.941   6.572   3.689  0.0087 -0.1045  0.4161
 7603TIP3    H122773   6.856   6.614   3.675 -0.0788  0.3041  1.9055
 7603TIP3    H222774   6.999   6.614   3.626 -0.9213 -0.5067 -0.7347
 7604TIP3   OH222775   3.316   6.141   2.872  0.2859 -0.0413  0.5216
 7604TIP3    H122776   3.316   6.055   2.914  1.5333  0.7893  2.3978
 7604TIP3    H222777   3.280   6.200   2.939  0.9879  1.1351 -0.1040
 7605TIP3   OH222778   7.167   1.906   5.366 -0.0607 -0.4017  0.0646
 7605TIP3    H122779   7.134   1.819   5.388  1.7853 -0.9974  0.6274
 7605TIP3    H222780   7.254   1.910   5.406  0.7457  0.9161 -1.6662
 7606TIP3   OH222781   1.346   4.076   0.728  0.3137  0.0841  0.4442
 7606TIP3    H122782   1.378   3.991   0.761  0.7280  0.0985  0.0861
 7606TIP3    H222783   1.419   4.111   0.678 -0.0500  0.4142  0.1425
 7607TIP3   OH222784   3.378   5.920   3.559 -0.3812 -0.4909 -0.9049
 7607TIP3    H122785   3.342   5.893   3.644  1.1295 -1.3035 -0.4859
 7607TIP3    H222786   3.303   5.919   3.500 -1.4620  0.1104  0.4132
 7608TIP3   OH222787   6.047   0.867   1.266  0.1730 -0.0025  0.2853
 7608TIP3    H122788   6.020   0.876   1.357  0.9575  0.1539  0.5103
 7608TIP3    H222789   6.095   0.784   1.263  0.7318  0.3220  0.1635
 7609TIP3   OH222790   3.895   4.835   2.011  1.0788  0.4255  0.1000
 7609TIP3    H122791   3.815   4.840   2.063 -0.8255  0.3569 -2.6570
 7609TIP3    H222792   3.962   4.805   2.073 -0.7661  1.4023  2.7092
 7610TIP3   OH222793   6.007   1.247   3.205  0.2991 -0.1430 -0.1379
 7610TIP3    H122794   6.087   1.273   3.160  1.8039 -0.2876  2.2322
 7610TIP3    H222795   5.970   1.177   3.152  2.6574 -1.1852 -0.5114
 7611TIP3   OH222796   2.226   2.266   0.081  0.1896  0.1576 -0.0661
 7611TIP3    H122797   2.299   2.317   0.045  0.5278  1.5436  2.3305
 7611TIP3    H222798   2.268   2.193   0.126  0.3489  1.7604  2.5942
 7612TIP3   OH222799   5.130   5.028   0.943 -0.3916 -0.3108 -0.0904
 7612TIP3    H122800   5.200   5.058   0.885  0.4167 -0.4815  0.7713
 7612TIP3    H222801   5.151   4.936   0.962  0.1800  0.1324  1.6037
 7613TIP3   OH222802   4.640   3.505   3.580  0.2157  0.6784 -0.0466
 7613TIP3    H122803   4.572   3.524   3.515 -0.5777  0.5411  0.7335
 7613TIP3    H222804   4.610   3.547   3.660  0.8581  0.2794  0.4121
 7614TIP3   OH222805   0.898   3.819   5.810  0.1100  0.4914 -0.0220
 7614TIP3    H122806   0.960   3.776   5.750  1.2949  0.9381  0.8333
 7614TIP3    H222807   0.895   3.910   5.780  1.3620  0.9244  1.0431
 7615TIP3   OH222808   5.671   2.348   5.411  0.2143 -0.4654 -0.3783
 7615TIP3    H122809   5.761   2.376   5.427  0.2731 -0.6333 -0.4155
 7615TIP3    H222810   5.655   2.280   5.476 -0.8089  1.4541  1.5125
 7616TIP3   OH222811   0.483   6.097   5.620  0.0455  0.6030 -0.2206
 7616TIP3    H122812   0.476   6.187   5.653 -0.6329  0.7709 -0.8006
 7616TIP3    H222813   0.571   6.069   5.645  0.2662  1.4343 -0.0386
 7617TIP3   OH222814   2.594   5.080   5.252 -0.8925  0.5620  0.2458
 7617TIP3    H122815   2.550   5.047   5.331 -1.6057  0.9468  0.0262
 7617TIP3    H222816   2.545   5.160   5.230 -0.2594  0.8378 -0.1866
 7618TIP3   OH222817   2.828   3.178   5.119 -0.0932 -0.2229  0.0983
 7618TIP3    H122818   2.814   3.084   5.107 -2.0883  0.1228 -0.6736
 7618TIP3    H222819   2.832   3.190   5.213  1.0194 -1.1747  0.1911
 7619TIP3   OH222820   6.321   2.296   3.734  0.0745  0.4822  0.0796
 7619TIP3    H122821   6.247   2.239   3.714 -0.8393  1.5430  0.3422
 7619TIP3    H222822   6.388   2.238   3.769 -0.4160 -0.5807 -0.7096
 7620TIP3   OH222823   4.633   2.546   1.656  0.2216 -0.2345 -0.2601
 7620TIP3    H122824   4.623   2.558   1.751 -0.3896 -2.3889  0.0147
 7620TIP3    H222825   4.648   2.634   1.622  0.9990  0.5451  1.8925
 7621TIP3   OH222826   4.786   2.972   4.714  0.2575 -0.5243 -0.6750
 7621TIP3    H122827   4.865   2.954   4.766 -0.9551 -0.4144  1.3267
 7621TIP3    H222828   4.763   3.063   4.737 -0.2003 -0.3969 -1.5963
 7622TIP3   OH222829   4.967   5.805   4.028 -0.5957  0.4773 -0.3241
 7622TIP3    H122830   4.948   5.899   4.018 -1.7520  0.0540 -2.8430
 7622TIP3    H222831   5.027   5.785   3.957  0.1120 -0.6170  0.5474
 7623TIP3   OH222832   2.061   2.695   0.093 -0.2234  0.1737  0.1043
 7623TIP3    H122833   2.113   2.762   0.048  1.0893 -0.1917  1.0212
 7623TIP3    H222834   1.992   2.744   0.136 -0.5606  0.6969 -0.9968
 7624TIP3   OH222835   4.098   4.215   0.959  0.1737 -0.7492  0.0998
 7624TIP3    H122836   4.072   4.226   1.051  0.0674 -1.8521  0.2089
 7624TIP3    H222837   4.066   4.294   0.916  0.0016 -0.3373  0.9634
 7625TIP3   OH222838   0.490   5.681   3.630  0.0265 -0.1046  0.5614
 7625TIP3    H122839   0.401   5.659   3.659  0.3699 -0.5382  1.3197
 7625TIP3    H222840   0.509   5.765   3.671 -0.3405  0.4191 -0.2993
 7626TIP3   OH222841   5.099   6.623   4.017  0.4564 -0.3692 -0.0534
 7626TIP3    H122842   5.165   6.556   4.030 -0.5468 -1.2023  0.9723
 7626TIP3    H222843   5.101   6.676   4.097  2.0042  1.5849 -1.2910
 7627TIP3   OH222844   2.890   2.239   4.015 -0.0596 -0.4694 -0.0277
 7627TIP3    H122845   2.827   2.284   3.959  1.3798  1.1024 -0.4856
 7627TIP3    H222846   2.848   2.156   4.037 -1.1680 -0.6329 -2.4539
 7628TIP3   OH222847   6.614   6.132   3.195 -0.1665 -0.8356 -0.1862
 7628TIP3    H122848   6.533   6.125   3.143 -0.0708 -2.2854 -0.1683
 7628TIP3    H222849   6.651   6.217   3.169 -0.9517 -0.8008 -1.2730
 7629TIP3   OH222850   6.752   2.930   1.778 -0.3923 -0.0578  0.3887
 7629TIP3    H122851   6.691   2.889   1.717 -0.5568  0.3930  0.2481
 7629TIP3    H222852   6.723   3.021   1.784 -1.6846 -0.5695  2.8100
 7630TIP3   OH222853   1.151   0.262   4.414  0.5730  0.1668  0.0337
 7630TIP3    H122854   1.226   0.319   4.395  1.4764 -0.5280  1.2978
 7630TIP3    H222855   1.175   0.178   4.375  0.4475 -0.0519  0.4253
 7631TIP3   OH222856   1.094   1.802   3.668 -0.2472 -0.3170 -0.3487
 7631TIP3    H122857   1.124   1.772   3.754 -1.0583 -0.3553 -0.0737
 7631TIP3    H222858   1.000   1.817   3.679 -0.0685  1.3168 -0.7533
 7632TIP3   OH222859   1.983   6.386   5.180  0.0844 -0.3534 -0.3195
 7632TIP3    H122860   1.968   6.377   5.274 -1.0402  0.7072 -0.3676
 7632TIP3    H222861   2.012   6.300   5.152  1.0047 -0.5403  1.0862
 7633TIP3   OH222862   1.756   1.248   5.534 -0.0452 -0.6809 -0.3270
 7633TIP3    H122863   1.775   1.238   5.440 -2.1446  0.6069 -0.9486
 7633TIP3    H222864   1.828   1.303   5.566 -1.0354  1.7893 -1.9960
 7634TIP3   OH222865   0.482   3.056   2.314  0.5710 -0.6456 -0.2296
 7634TIP3    H122866   0.487   2.966   2.345 -2.3974 -1.4693 -1.7384
 7634TIP3    H222867   0.447   3.105   2.388 -2.2573 -1.7387 -0.7163
 7635TIP3   OH222868   4.298   5.600   3.633 -0.2055  0.0138  0.2209
 7635TIP3    H122869   4.312   5.612   3.539  0.9202  0.8341  0.4729
 7635TIP3    H222870   4.312   5.687   3.671  1.1595 -0.6485  1.3373
 7636TIP3   OH222871   1.996   1.448   3.277 -0.6155  0.1567  0.2085
 7636TIP3    H122872   2.089   1.443   3.298 -0.0960 -0.0996 -1.9499
 7636TIP3    H222873   1.974   1.541   3.286  0.3617  0.5455 -1.1760
 7637TIP3   OH222874   2.964   4.144   1.418  0.1210  0.0174 -0.0742
 7637TIP3    H122875   2.982   4.119   1.508  0.5238 -1.2216 -0.4875
 7637TIP3    H222876   2.868   4.146   1.412  0.0823  0.9027  0.5743
 7638TIP3   OH222877   4.824   4.175   4.461  0.0593  1.1152 -0.1159
 7638TIP3    H122878   4.783   4.230   4.528 -0.2462  0.4648  0.2469
 7638TIP3    H222879   4.751   4.133   4.416  0.2398  1.9504 -1.2323
 7639TIP3   OH222880   1.445   3.311   2.532 -0.1673 -0.4652 -0.2036
 7639TIP3    H122881   1.373   3.373   2.519 -0.9367 -0.7852  2.0762
 7639TIP3    H222882   1.402   3.228   2.550  0.7579 -0.6629  1.1952
 7640TIP3   OH222883   1.576   2.248   5.244 -0.4846  0.0366 -0.2277
 7640TIP3    H122884   1.554   2.285   5.329 -0.1274  1.7303 -0.8177
 7640TIP3    H222885   1.561   2.154   5.253 -2.0297  0.3755  1.1938
 7641TIP3   OH222886   0.073   4.843   3.142  0.1055  0.0347  0.5203
 7641TIP3    H122887   0.110   4.775   3.199 -1.9119 -1.7782 -0.2168
 7641TIP3    H222888  -0.016   4.855   3.175 -0.0915  1.1526 -0.3803
 7642TIP3   OH222889   5.769   4.718   0.414 -0.7954  0.2287  0.3499
 7642TIP3    H122890   5.855   4.682   0.436 -1.8570 -1.5423  1.8924
 7642TIP3    H222891   5.753   4.785   0.481 -1.4897 -0.9957  1.4747
 7643TIP3   OH222892   2.316   5.470   3.245 -0.4094  0.2542  0.0590
 7643TIP3    H122893   2.225   5.468   3.215 -0.2761  1.9469 -0.5093
 7643TIP3    H222894   2.368   5.481   3.166  0.4321 -2.0028  0.2242
 7644TIP3   OH222895   0.334   2.074   1.785  0.9686 -0.4989 -0.2271
 7644TIP3    H122896   0.420   2.058   1.745  0.8361 -1.3176 -0.1835
 7644TIP3    H222897   0.338   2.028   1.869  0.9595  0.5604  0.3739
 7645TIP3   OH222898   4.735   5.021   5.106  0.2607 -0.4436  0.1928
 7645TIP3    H122899   4.673   5.092   5.093  0.0909 -0.8736 -1.6170
 7645TIP3    H222900   4.680   4.943   5.114  0.4123 -0.3391  2.8410
 7646TIP3   OH222901   2.981   0.904   3.751  0.6047  0.1989 -0.1969
 7646TIP3    H122902   2.985   0.955   3.671 -1.1784  0.3206 -0.2456
 7646TIP3    H222903   2.952   0.817   3.724 -0.6626  0.4195  0.3416
 7647TIP3   OH222904   3.852   4.957   5.670  0.1147  0.6408 -0.1237
 7647TIP3    H122905   3.868   5.032   5.727  2.6835 -0.8299  1.2610
 7647TIP3    H222906   3.847   4.882   5.729  0.5441 -0.6562 -1.6457
 7648TIP3   OH222907   5.268   4.419   0.711 -0.1587 -0.3050  0.7642
 7648TIP3    H122908   5.277   4.351   0.779  0.6941  0.5320  1.5209
 7648TIP3    H222909   5.189   4.467   0.735  0.0292 -0.1379  1.0482
 7649TIP3   OH222910   3.872   2.690   2.995 -0.2464 -0.2314 -0.3084
 7649TIP3    H122911   3.907   2.649   2.916  3.5496  0.5540  0.7694
 7649TIP3    H222912   3.883   2.625   3.063  4.6886  1.7344  1.1631
 7650TIP3   OH222913   3.474   4.079   0.817 -0.4927 -0.0165 -0.2744
 7650TIP3    H122914   3.525   4.000   0.834 -1.0226 -0.3598 -0.2497
 7650TIP3    H222915   3.386   4.059   0.850 -0.6084  0.6209 -0.1684
 7651TIP3   OH222916   6.783   4.769   1.924 -0.1230  0.2350 -0.1915
 7651TIP3    H122917   6.847   4.784   1.854 -0.5126 -2.7615 -1.3226
 7651TIP3    H222918   6.722   4.843   1.916  0.1104  0.2517 -2.7504
 7652TIP3   OH222919   2.561   2.909   0.548  0.0833  0.2099 -0.0711
 7652TIP3    H122920   2.539   2.840   0.485  0.6621 -1.6534  1.6851
 7652TIP3    H222921   2.481   2.962   0.554  0.0142  0.4731 -2.3338
 7653TIP3   OH222922   7.177   2.378   5.092 -0.8502 -0.1203 -1.1099
 7653TIP3    H122923   7.092   2.420   5.103 -1.5798 -1.1345 -2.4929
 7653TIP3    H222924   7.238   2.450   5.078 -1.0047  0.7833  2.1438
 7654TIP3   OH222925   6.773   4.312   4.659 -0.1364 -0.0983 -0.3856
 7654TIP3    H122926   6.695   4.366   4.671 -0.9985 -1.4267  0.2327
 7654TIP3    H222927   6.742   4.238   4.607  0.8533 -0.3611 -0.6146
 7655TIP3   OH222928   0.079   4.165   3.845 -0.0575 -0.0146  0.4332
 7655TIP3    H122929   0.088   4.161   3.940  1.0367  0.4953  0.3582
 7655TIP3    H222930   0.162   4.199   3.814  0.8080 -2.9909 -0.9391
 7656TIP3   OH222931   0.174   3.497   0.183  0.0567 -0.5562  0.6257
 7656TIP3    H122932   0.137   3.417   0.146 -0.9626  0.2927 -0.2750
 7656TIP3    H222933   0.142   3.500   0.273  1.6707 -2.0956  1.3086
 7657TIP3   OH222934   3.803   4.008   0.412  0.5235  0.1924  0.3085
 7657TIP3    H122935   3.767   4.006   0.323 -1.1781  1.3930  0.8964
 7657TIP3    H222936   3.813   3.917   0.437 -0.1568 -0.1684 -0.6870
 7658TIP3   OH222937   5.453   5.455   4.158  0.5246 -0.7233 -0.9979
 7658TIP3    H122938   5.411   5.523   4.104 -0.3987 -0.1860  0.3452
 7658TIP3    H222939   5.414   5.373   4.127  2.3567 -0.8290 -3.3005
 7659TIP3   OH222940   5.798   4.318   1.532 -0.4298  0.2465 -0.6338
 7659TIP3    H122941   5.884   4.278   1.524 -1.4569 -1.9017 -1.7032
 7659TIP3    H222942   5.753   4.294   1.451 -2.6648 -0.3281  0.7013
 7660TIP3   OH222943   5.181   2.100   2.435 -0.1897 -0.1291  0.0528
 7660TIP3    H122944   5.160   2.187   2.468  1.8934  0.7148 -0.6691
 7660TIP3    H222945   5.270   2.108   2.399  0.8736 -2.9773  1.6553
 7661TIP3   OH222946   3.422   6.404   3.280 -0.1729  0.4105 -0.8442
 7661TIP3    H122947   3.470   6.379   3.359  0.0523  2.5402 -0.2390
 7661TIP3    H222948   3.483   6.385   3.209  0.5443  0.6185 -0.3019
 7662TIP3   OH222949   2.030   1.255   1.983 -0.1293 -0.6389 -0.1159
 7662TIP3    H122950   1.938   1.279   1.973  0.3181  1.1795 -0.3033
 7662TIP3    H222951   2.071   1.287   1.902  0.6359 -1.6495 -0.1450
 7663TIP3   OH222952   6.056   0.758   4.607  0.4358 -0.5500 -0.3950
 7663TIP3    H122953   6.090   0.699   4.540 -0.2986  0.1493 -1.4232
 7663TIP3    H222954   5.961   0.757   4.594  0.4185  1.0135 -0.5951
 7664TIP3   OH222955   2.022   6.179   3.694  0.2685 -0.5160  0.4235
 7664TIP3    H122956   1.996   6.180   3.602 -0.2229  1.6794  0.5215
 7664TIP3    H222957   1.941   6.197   3.742  1.1336  2.6221  0.9644
 7665TIP3   OH222958   7.129   4.402   3.868 -0.0468  0.0530 -0.0796
 7665TIP3    H122959   7.194   4.346   3.910  0.1520  0.9884  0.9084
 7665TIP3    H222960   7.046   4.359   3.886  0.2089 -0.7012 -0.6219
 7666TIP3   OH222961   4.688   3.020   1.317  0.8421 -0.4181  0.3077
 7666TIP3    H122962   4.704   3.041   1.409  0.8235  1.7327 -0.1313
 7666TIP3    H222963   4.610   3.071   1.294  1.2114 -0.4297 -1.0592
 7667TIP3   OH222964   5.295   4.164   0.269 -0.2272 -0.0248  0.4447
 7667TIP3    H122965   5.349   4.191   0.343 -1.9492 -0.1395  1.8153
 7667TIP3    H222966   5.308   4.070   0.262  2.2189  0.3527 -1.3783
 7668TIP3   OH222967   4.130   2.970   5.639  0.1527 -0.3951  0.8692
 7668TIP3    H122968   4.064   3.020   5.590  1.2730 -0.3554 -0.6883
 7668TIP3    H222969   4.167   3.034   5.700  0.4490  0.2633  0.0227
 7669TIP3   OH222970   0.819   6.530   1.503 -0.2174 -0.0094  0.0330
 7669TIP3    H122971   0.742   6.502   1.454 -0.7956  0.0221  0.9057
 7669TIP3    H222972   0.851   6.450   1.545  0.7574 -0.1998 -1.0147
 7670TIP3   OH222973   2.105   4.946   0.853 -0.0540 -0.4143 -0.3419
 7670TIP3    H122974   2.029   4.967   0.799 -1.6864 -1.6282  1.3504
 7670TIP3    H222975   2.074   4.958   0.943  1.3030 -2.3455  0.4372
 7671TIP3   OH222976   3.524   1.791   1.309 -0.3428 -0.8429 -0.1868
 7671TIP3    H122977   3.433   1.760   1.301 -0.2117 -1.6540  1.1706
 7671TIP3    H222978   3.548   1.771   1.399  0.6210  0.9873 -0.0046
 7672TIP3   OH222979   1.533   1.955   0.752 -0.3366 -0.0893  0.0827
 7672TIP3    H122980   1.446   1.915   0.743 -0.9355  0.9338  1.1110
 7672TIP3    H222981   1.551   1.952   0.845  0.2803  0.6347 -0.0072
 7673TIP3   OH222982   1.482   4.434   3.937 -0.5783 -0.0855  0.4003
 7673TIP3    H122983   1.504   4.347   3.971 -0.3946  0.0615  0.6605
 7673TIP3    H222984   1.399   4.456   3.978 -0.5744 -0.0946  0.4132
 7674TIP3   OH222985   4.313   6.602   1.540  0.3919 -0.2678 -0.2938
 7674TIP3    H122986   4.233   6.569   1.582 -0.0383  1.7047  0.5857
 7674TIP3    H222987   4.340   6.676   1.595  2.2096 -0.1943 -1.2029
 7675TIP3   OH222988   1.186   3.388   5.214 -0.4833 -0.4157  0.5933
 7675TIP3    H122989   1.174   3.434   5.131 -1.2879 -0.8511  0.4547
 7675TIP3    H222990   1.118   3.320   5.214 -0.5565 -0.3629  1.6403
 7676TIP3   OH222991   1.687   5.720   0.193  0.1218 -0.0757  0.0200
 7676TIP3    H122992   1.643   5.703   0.277 -1.1919  0.4343 -0.5391
 7676TIP3    H222993   1.627   5.685   0.127  1.6281 -1.4660 -0.7021
 7677TIP3   OH222994   5.504   6.783   2.390 -0.5512  0.4790 -0.3879
 7677TIP3    H122995   5.552   6.763   2.310  1.0098 -0.3822  0.7003
 7677TIP3    H222996   5.444   6.709   2.401 -0.9653  0.7308 -0.8697
 7678TIP3   OH222997   1.388   5.524   4.875 -0.1536 -0.2583  0.1164
 7678TIP3    H122998   1.417   5.471   4.801 -3.6350 -0.7691 -1.0346
 7678TIP3    H222999   1.312   5.571   4.843 -0.0702  1.7736  2.5769
 7679TIP3   OH223000   5.509   6.152   3.033  0.0004  0.2064  0.0092
 7679TIP3    H123001   5.509   6.141   2.938 -1.4101  0.3183 -0.0293
 7679TIP3    H223002   5.480   6.067   3.067  2.7057 -0.6059  0.5068
 7680TIP3   OH223003   5.786   4.305   4.399 -0.3578  0.1491  0.2695
 7680TIP3    H123004   5.712   4.319   4.458 -1.2322  0.4284 -0.8620
 7680TIP3    H223005   5.799   4.210   4.400 -3.5301 -0.5402 -2.6789
 7681TIP3   OH223006   6.360   1.635   3.695  0.5415  0.4387  0.1252
 7681TIP3    H123007   6.318   1.715   3.663  1.7449  1.2004  0.3832
 7681TIP3    H223008   6.448   1.663   3.721  0.5197 -0.6877  1.5373
 7682TIP3   OH223009   3.540   6.425   0.070 -0.3226 -0.4900 -0.3293
 7682TIP3    H123010   3.455   6.464   0.089 -0.0898 -0.5760  1.0404
 7682TIP3    H223011   3.529   6.384  -0.015 -1.6242 -0.4125 -0.2254
 7683TIP3   OH223012   3.131   3.996   3.386  0.2737  1.0138 -0.2535
 7683TIP3    H123013   3.126   3.910   3.345 -0.2327  1.5252 -1.2961
 7683TIP3    H223014   3.223   4.022   3.379 -0.0053  1.6328 -2.2551
 7684TIP3   OH223015   1.290   5.392   3.401  0.1708  0.3196 -0.5812
 7684TIP3    H123016   1.261   5.411   3.312 -1.4151 -0.5455 -0.2814
 7684TIP3    H223017   1.221   5.427   3.457  0.1476 -0.9325  0.2145
 7685TIP3   OH223018   7.106   3.763   3.351 -0.1479  0.1421 -0.5529
 7685TIP3    H123019   7.145   3.687   3.393 -1.7759 -0.2031  0.4084
 7685TIP3    H223020   7.171   3.833   3.361  1.1111 -0.9474 -0.9218
 7686TIP3   OH223021   3.626   1.988   1.523 -0.1410 -0.0484  0.7467
 7686TIP3    H123022   3.667   1.994   1.609  0.7671 -1.3827  0.4494
 7686TIP3    H223023   3.532   1.977   1.542  0.1503 -1.3020  1.6279
 7687TIP3   OH223024   1.988   6.336   1.647 -0.0337  0.3543  0.2184
 7687TIP3    H123025   1.954   6.301   1.565 -0.2365 -0.7571  0.7715
 7687TIP3    H223026   2.083   6.319   1.642  0.0997  1.1505 -0.1909
 7688TIP3   OH223027   2.809   3.753   5.265  0.2993 -0.2178 -0.0170
 7688TIP3    H123028   2.878   3.728   5.204 -0.6785 -0.7567 -0.9501
 7688TIP3    H223029   2.729   3.752   5.212 -0.1181  2.8439  0.4064
 7689TIP3   OH223030   2.427   2.386   0.602 -0.1160  0.2303 -0.6808
 7689TIP3    H123031   2.467   2.470   0.621  0.0717  0.1029 -0.5052
 7689TIP3    H223032   2.459   2.328   0.671 -0.6917  0.1540 -0.4801
 7690TIP3   OH223033   5.073   0.425   1.827  0.2692 -0.2720 -0.1842
 7690TIP3    H123034   5.131   0.480   1.774  1.6252 -0.4918  1.0269
 7690TIP3    H223035   4.985   0.453   1.801  0.9006  1.0330 -1.0797
 7691TIP3   OH223036   1.767   3.384   1.750 -0.2373  0.2524 -0.3235
 7691TIP3    H123037   1.673   3.369   1.745  0.1457 -2.6331 -5.1048
 7691TIP3    H223038   1.780   3.468   1.705 -0.4829  1.6746  2.0728
 7692TIP3   OH223039   5.104   2.516   4.169 -0.2510  0.4690 -0.2353
 7692TIP3    H123040   5.149   2.432   4.183 -0.7843  0.0938 -0.7121
 7692TIP3    H223041   5.125   2.568   4.247 -1.0049 -0.6035  0.7295
 7693TIP3   OH223042   2.217   4.656   4.773  0.7504  0.3027 -0.2170
 7693TIP3    H123043   2.189   4.748   4.780 -0.8023 -0.1245 -0.4366
 7693TIP3    H223044   2.264   4.652   4.690  2.9829  1.3847  0.8948
 7694TIP3   OH223045   3.712   1.603   4.465  0.6118  0.3852  0.0553
 7694TIP3    H123046   3.713   1.639   4.554 -0.5672  0.3843  0.0895
 7694TIP3    H223047   3.786   1.544   4.462  1.3577  1.2576  0.6651
 7695TIP3   OH223048   2.355   2.286   5.794 -0.1494  0.7117 -0.0656
 7695TIP3    H123049   2.395   2.199   5.800 -1.7605  0.0116  1.5247
 7695TIP3    H223050   2.312   2.287   5.708 -1.4361 -0.7021  0.5266
 7696TIP3   OH223051   4.564   1.083   2.814 -0.3375 -0.2114  0.2100
 7696TIP3    H123052   4.516   1.156   2.775 -0.1847 -0.8500 -1.2315
 7696TIP3    H223053   4.656   1.099   2.790 -0.3229 -0.9536 -0.2612
 7697TIP3   OH223054   2.553   5.358   5.553  0.6562  0.2417 -0.0025
 7697TIP3    H123055   2.481   5.366   5.491 -0.2609 -2.4737  0.5828
 7697TIP3    H223056   2.626   5.324   5.502  1.4892  2.5390 -0.4911
 7698TIP3   OH223057   1.776   6.022   5.275  0.2379  0.4036 -0.6767
 7698TIP3    H123058   1.855   6.033   5.222 -0.1391  0.3897 -1.2381
 7698TIP3    H223059   1.741   5.937   5.249 -1.4495  1.5531 -2.4217
 7699TIP3   OH223060   3.898   3.667   1.464 -0.6728 -0.0121  0.3349
 7699TIP3    H123061   3.883   3.617   1.384 -2.5583  0.6640  0.2076
 7699TIP3    H223062   3.818   3.655   1.515  0.2944 -0.0259  1.9161
 7700TIP3   OH223063   5.466   2.828   3.489  0.3713 -0.0412  0.0306
 7700TIP3    H123064   5.464   2.753   3.548 -1.2525 -0.1976 -0.1627
 7700TIP3    H223065   5.537   2.809   3.428  1.0315 -0.6394  0.9561
 7701TIP3   OH223066   0.986   1.108   1.697  0.4065 -0.8038 -0.4569
 7701TIP3    H123067   1.021   1.127   1.784 -0.9466  0.8272 -0.2216
 7701TIP3    H223068   1.017   1.180   1.642 -2.1126  0.4649 -0.3378
 7702TIP3   OH223069   1.939   1.307   3.512  0.4170  0.3611 -0.3673
 7702TIP3    H123070   1.972   1.328   3.425  2.0445 -0.4854 -0.0023
 7702TIP3    H223071   1.909   1.391   3.548 -0.0860  0.7505 -1.6405
 7703TIP3   OH223072   2.316   4.226   1.115 -0.3985 -0.1008 -0.2817
 7703TIP3    H123073   2.265   4.245   1.036  0.3290 -1.8692 -1.2484
 7703TIP3    H223074   2.390   4.286   1.111  0.5836 -1.3069 -1.9722
 7704TIP3   OH223075   6.682   0.181   0.235 -0.1326  0.1785  0.1074
 7704TIP3    H123076   6.667   0.103   0.182  0.6195  0.9830 -1.3522
 7704TIP3    H223077   6.747   0.154   0.300 -0.7808 -0.7177  0.4068
 7705TIP3   OH223078   1.347   0.414   3.699  1.0438 -0.3607 -0.3866
 7705TIP3    H123079   1.292   0.388   3.773 -0.4603  0.7212 -1.0635
 7705TIP3    H223080   1.388   0.333   3.670 -1.3936 -1.5504 -0.7872
 7706TIP3   OH223081   4.076   6.178   4.458  0.3133  0.6220 -0.3004
 7706TIP3    H123082   4.041   6.122   4.388  0.4354  0.6368 -0.3738
 7706TIP3    H223083   4.108   6.117   4.524  1.3587  0.5833 -0.8238
 7707TIP3   OH223084   1.596   2.628   4.229 -0.2177 -0.1954  0.3682
 7707TIP3    H123085   1.597   2.616   4.324  0.6610  0.5522  0.4667
 7707TIP3    H223086   1.524   2.689   4.213  0.8273  1.2120  0.7815
 7708TIP3   OH223087   2.925   4.911   4.170  0.1342 -0.2743  0.5288
 7708TIP3    H123088   2.894   4.968   4.241 -0.3240 -0.4218  0.4500
 7708TIP3    H223089   2.952   4.971   4.101 -0.9000 -0.1442  0.2106
 7709TIP3   OH223090   3.914   1.594   1.833 -0.1011 -0.2301  1.0443
 7709TIP3    H123091   3.885   1.629   1.917 -1.1066 -0.8836  0.9899
 7709TIP3    H223092   3.894   1.501   1.838 -0.1902 -0.2675  0.0710
 7710TIP3   OH223093   2.999   4.157   1.159  0.3962  0.0428  0.2521
 7710TIP3    H123094   3.016   4.066   1.133  1.8776  0.4776 -0.4612
 7710TIP3    H223095   3.009   4.157   1.254  1.9422 -0.2895  0.1247
 7711TIP3   OH223096   6.707   1.976   3.262 -0.0667 -0.2696  0.2527
 7711TIP3    H123097   6.693   1.944   3.173  2.3876 -0.6876 -0.0596
 7711TIP3    H223098   6.798   2.007   3.262  0.2072 -0.8597  2.7733
 7712TIP3   OH223099   1.055   6.481   0.447  0.0238  0.4399  0.0934
 7712TIP3    H123100   0.965   6.507   0.470  0.3872  1.0809  0.8748
 7712TIP3    H223101   1.081   6.543   0.379  0.3760  1.2393  0.9236
 7713TIP3   OH223102   5.687   1.848   5.549  0.0329 -0.8344 -0.3197
 7713TIP3    H123103   5.601   1.877   5.579 -0.3034  0.9537 -2.7059
 7713TIP3    H223104   5.671   1.762   5.509 -0.9761  0.0871 -1.9889
 7714TIP3   OH223105   7.160   2.746   0.963 -0.3487 -1.1757  0.0981
 7714TIP3    H123106   7.190   2.656   0.950 -0.9573 -1.2477 -0.9004
 7714TIP3    H223107   7.119   2.745   1.049 -0.5066 -1.8929  0.0245
 7715TIP3   OH223108   6.589   2.547   1.691 -0.2563 -0.7270 -0.0486
 7715TIP3    H123109   6.575   2.639   1.670  0.0384 -0.7495 -0.3533
 7715TIP3    H223110   6.578   2.502   1.607  1.4034 -0.7707 -0.2765
 7716TIP3   OH223111   4.725   0.547   5.379 -0.0348 -0.2059  0.5459
 7716TIP3    H123112   4.691   0.571   5.465 -1.3434  1.5388 -0.4022
 7716TIP3    H223113   4.711   0.452   5.373 -1.1496 -0.1420  1.7334
 7717TIP3   OH223114   5.749   4.606   2.824  0.4409 -0.3394  0.1561
 7717TIP3    H123115   5.832   4.558   2.813  0.3157 -0.5771  0.2367
 7717TIP3    H223116   5.716   4.576   2.909  0.2663 -0.2517  0.1179
 7718TIP3   OH223117   6.536   3.270   2.036  0.5833  0.1852  0.0630
 7718TIP3    H123118   6.487   3.327   2.096  1.1542  0.6133  0.1342
 7718TIP3    H223119   6.580   3.330   1.977 -3.8607 -0.1248 -4.2135
 7719TIP3   OH223120   3.166   1.104   3.591  0.1632 -0.2309  0.0473
 7719TIP3    H123121   3.112   1.036   3.551  0.7579 -0.6814 -0.0021
 7719TIP3    H223122   3.103   1.162   3.633 -0.3995 -0.4010 -0.5356
 7720TIP3   OH223123   4.137   2.281   5.715 -0.3422  0.3169  0.2472
 7720TIP3    H123124   4.079   2.248   5.647 -1.8997  0.3939  1.4760
 7720TIP3    H223125   4.115   2.374   5.723 -0.9653  0.0873  1.5575
 7721TIP3   OH223126   6.545   4.472   0.113  0.8224 -0.2245 -0.0802
 7721TIP3    H123127   6.471   4.418   0.088  1.1793 -0.6016 -0.3316
 7721TIP3    H223128   6.611   4.410   0.145  0.3002  0.2322  2.0540
 7722TIP3   OH223129   6.836   0.103   5.208  0.0705 -0.0427 -0.0948
 7722TIP3    H123130   6.852   0.015   5.242  1.7857  0.1956 -0.1988
 7722TIP3    H223131   6.914   0.153   5.232 -1.0269  1.5763  0.3058
 7723TIP3   OH223132   6.868   3.707   0.611  0.1119  0.7649 -0.1797
 7723TIP3    H123133   6.884   3.801   0.621  2.8572  0.4534 -0.8261
 7723TIP3    H223134   6.870   3.693   0.516 -1.0914  0.1384 -0.1302
 7724TIP3   OH223135   5.500   5.742   1.585 -0.0601  0.4271 -0.3011
 7724TIP3    H123136   5.470   5.661   1.542  0.5078  0.4310 -0.7071
 7724TIP3    H223137   5.423   5.799   1.584 -0.7995 -0.5014  0.9729
 7725TIP3   OH223138   4.716   6.218   0.830  0.7893  0.2135  0.9377
 7725TIP3    H123139   4.661   6.278   0.880 -0.3733 -0.4938  0.5338
 7725TIP3    H223140   4.692   6.131   0.862  0.8604 -0.1762 -0.0312
 7726TIP3   OH223141   1.431   6.663   5.569 -0.1398  0.4988  0.3251
 7726TIP3    H123142   1.509   6.614   5.543 -0.5246  0.2621 -0.4268
 7726TIP3    H223143   1.437   6.670   5.664  1.1004  1.0147  0.2254
 7727TIP3   OH223144   0.047   5.597   0.108 -0.2977  0.4257  0.0334
 7727TIP3    H123145  -0.011   5.522   0.094 -2.2036  1.5595  1.4778
 7727TIP3    H223146   0.108   5.567   0.176  0.9856 -0.7909 -1.5454
 7728TIP3   OH223147   6.524   1.697   1.600  0.3223  0.1658 -0.2667
 7728TIP3    H123148   6.523   1.611   1.559 -3.5605  0.1100 -0.4584
 7728TIP3    H223149   6.509   1.680   1.693  1.8690  0.6004  0.0946
 7729TIP3   OH223150   2.441   2.479   0.181 -0.0453 -0.5509 -0.0190
 7729TIP3    H123151   2.475   2.564   0.210 -2.7528  0.8282 -0.5549
 7729TIP3    H223152   2.470   2.471   0.090 -2.4061  1.4496 -1.0558
 7730TIP3   OH223153   5.268   0.550   3.734  0.6636 -0.6923 -0.1555
 7730TIP3    H123154   5.292   0.568   3.825  0.2672 -1.2654  0.0683
 7730TIP3    H223155   5.237   0.634   3.700 -0.1256 -0.6791  0.5446
 7731TIP3   OH223156   4.277   5.562   0.467  0.7745 -0.3105 -0.3966
 7731TIP3    H123157   4.296   5.651   0.494  0.9135 -0.5729  0.4107
 7731TIP3    H223158   4.359   5.528   0.432  0.7615 -0.1734 -0.5595
 7732TIP3   OH223159   0.707   6.402   2.591  0.0473 -0.0804 -0.1230
 7732TIP3    H123160   0.681   6.493   2.586 -3.3197 -0.9715 -1.0791
 7732TIP3    H223161   0.783   6.395   2.534  3.5275  2.9001  3.5522
 7733TIP3   OH223162   5.939   2.356   4.907  0.0103 -0.0031 -0.0570
 7733TIP3    H123163   5.951   2.301   4.985 -1.0530  0.4467  0.4422
 7733TIP3    H223164   5.925   2.444   4.942 -0.1854  0.2587 -0.7761
 7734TIP3   OH223165   6.168   2.378   0.872  0.0181 -0.1363 -0.3514
 7734TIP3    H123166   6.116   2.319   0.818  0.4419 -0.1710 -0.7241
 7734TIP3    H223167   6.203   2.443   0.811 -3.2214  2.6449  0.4367
 7735TIP3   OH223168   4.232   4.457   3.528  0.0629  0.1471 -0.1606
 7735TIP3    H123169   4.282   4.524   3.481  1.2126  0.2064  1.0734
 7735TIP3    H223170   4.251   4.375   3.481  2.1111  0.0173  0.8008
 7736TIP3   OH223171   3.167   6.600   1.857 -0.2552  0.1230 -0.1278
 7736TIP3    H123172   3.183   6.679   1.909  0.2337 -1.2108  1.8746
 7736TIP3    H223173   3.074   6.580   1.872 -0.5036  0.5652 -1.0258
 7737TIP3   OH223174   5.580   6.325   3.790 -0.2151  0.3435  0.6322
 7737TIP3    H123175   5.587   6.229   3.797 -0.8283  0.2358 -0.1084
 7737TIP3    H223176   5.578   6.342   3.696 -1.2904  0.9945  0.7568
 7738TIP3   OH223177   7.047   3.284   3.520  0.4164 -0.7163  0.3945
 7738TIP3    H123178   7.098   3.258   3.443 -2.3011 -3.0528 -0.7873
 7738TIP3    H223179   6.970   3.329   3.483  0.1188  0.0872  1.9238
 7739TIP3   OH223180   4.989   1.111   3.087 -0.5638 -0.2627  0.1396
 7739TIP3    H123181   5.018   1.059   3.162  0.6197  0.8604  0.5039
 7739TIP3    H223182   5.007   1.202   3.112  0.7408  0.1033 -1.8285
 7740TIP3   OH223183   4.702   1.925   3.196  0.1391 -0.2160  0.1917
 7740TIP3    H123184   4.710   1.830   3.209 -1.2281 -0.0449  3.0481
 7740TIP3    H223185   4.609   1.938   3.175  0.6580  0.4020 -1.9676
 7741TIP3   OH223186   0.366   6.544   1.207 -0.2405 -0.1167  0.5377
 7741TIP3    H123187   0.321   6.473   1.161 -1.2059 -0.3481  1.8080
 7741TIP3    H223188   0.299   6.611   1.219  0.5819  0.9002 -0.3625
 7742TIP3   OH223189   0.147   0.229   3.769 -0.6372 -0.2621  0.3221
 7742TIP3    H123190   0.060   0.205   3.802 -1.0559  1.2612  0.3849
 7742TIP3    H223191   0.146   0.202   3.677 -1.9012  1.4172 -0.2073
 7743TIP3   OH223192   5.739   6.085   4.936 -0.3604 -0.3981  0.1522
 7743TIP3    H123193   5.648   6.105   4.912  0.0466  0.2288 -0.9543
 7743TIP3    H223194   5.768   6.162   4.986 -0.3559 -0.4890  0.2905
 7744TIP3   OH223195   0.725   6.044   1.855 -0.1437  0.1990  0.0365
 7744TIP3    H123196   0.750   5.960   1.817 -0.9251  0.0645 -0.1881
 7744TIP3    H223197   0.632   6.052   1.837 -0.1459  0.9625  0.3530
 7745TIP3   OH223198   3.969   5.553   3.284  0.6141 -0.1313 -0.7226
 7745TIP3    H123199   3.924   5.634   3.259  1.1058 -0.2403 -2.0296
 7745TIP3    H223200   3.952   5.544   3.378 -0.9753  0.5191 -0.9241
 7746TIP3   OH223201   6.562   3.498   1.590  0.7957 -0.3061 -0.0533
 7746TIP3    H123202   6.555   3.545   1.507 -1.4246  0.9562  0.7526
 7746TIP3    H223203   6.646   3.525   1.626 -0.2277  2.9522  0.2265
 7747TIP3   OH223204   2.854   5.222   4.817  0.0174  0.2823  0.4489
 7747TIP3    H123205   2.904   5.187   4.891  1.1773  2.6126  0.8738
 7747TIP3    H223206   2.763   5.215   4.844 -0.0267 -3.6653 -0.1456
 7748TIP3   OH223207   2.877   1.950   5.455  0.0283 -0.7568  0.3298
 7748TIP3    H123208   2.966   1.972   5.428  0.3923 -1.6549  0.7764
 7748TIP3    H223209   2.834   2.035   5.467  1.0208 -0.3068  0.7773
 7749TIP3   OH223210   3.936   4.948   1.087  0.0760 -0.2590 -0.5689
 7749TIP3    H123211   4.017   4.981   1.125 -1.0386 -0.1022  1.8749
 7749TIP3    H223212   3.878   5.024   1.082 -0.7053 -0.7902  0.0221
 7750TIP3   OH223213   5.934   5.581   1.922 -0.0174 -0.3657 -0.3764
 7750TIP3    H123214   5.983   5.511   1.878 -0.6474  0.9481 -3.4153
 7750TIP3    H223215   6.000   5.628   1.972  0.5775 -2.5106  0.9955
 7751TIP3   OH223216   0.235   1.257   3.684 -0.1663  0.0086  0.4137
 7751TIP3    H123217   0.310   1.316   3.685 -0.6047  0.6471  3.2869
 7751TIP3    H223218   0.176   1.296   3.619  1.0081  0.7732 -0.2254
 7752TIP3   OH223219   1.409   1.961   1.403 -0.1826 -0.4070  0.0863
 7752TIP3    H123220   1.406   2.038   1.460 -0.5183  1.0582 -1.8099
 7752TIP3    H223221   1.502   1.951   1.382 -0.1105 -0.6897  0.5176
 7753TIP3   OH223222   0.643   4.783   3.231 -0.4852 -0.0670 -0.0461
 7753TIP3    H123223   0.715   4.822   3.180  0.0779  0.1021  0.8615
 7753TIP3    H223224   0.685   4.715   3.284 -1.0870 -0.3348  0.0889
 7754TIP3   OH223225   2.804   6.641   3.021  0.4200  0.8989 -0.6506
 7754TIP3    H123226   2.817   6.558   2.975 -0.9523  0.9487 -1.1780
 7754TIP3    H223227   2.769   6.700   2.955  0.1708  1.5254  0.0253
 7755TIP3   OH223228   2.819   2.301   0.917  0.2893 -0.1634 -0.2457
 7755TIP3    H123229   2.746   2.335   0.968 -0.4320 -2.2823  0.2313
 7755TIP3    H223230   2.886   2.278   0.982  0.5750 -0.0837 -0.5095
 7756TIP3   OH223231   1.052   6.149   1.537  0.1726 -0.7434 -0.3007
 7756TIP3    H123232   1.145   6.139   1.521  0.4195 -1.2877  1.3542
 7756TIP3    H223233   1.045   6.230   1.588 -0.3394 -0.3895 -0.9067
 7757TIP3   OH223234   1.148   2.830   0.913  1.1222 -0.2910  0.1064
 7757TIP3    H123235   1.136   2.854   1.005  1.3601 -0.9004  0.2971
 7757TIP3    H223236   1.119   2.739   0.907 -2.3828  0.7454 -1.1691
 7758TIP3   OH223237   3.367   5.226   5.276 -0.3473  0.0467 -0.2116
 7758TIP3    H123238   3.352   5.282   5.200  0.3314  1.0073  0.3424
 7758TIP3    H223239   3.426   5.277   5.332 -1.6194 -0.1927  1.4371
 7759TIP3   OH223240   1.809   4.184   1.254  0.1291  0.4058  0.2868
 7759TIP3    H123241   1.766   4.148   1.177  1.4246  0.1060 -0.3172
 7759TIP3    H223242   1.828   4.274   1.231  0.2147  0.4133  0.3871
 7760TIP3   OH223243   6.423   6.082   5.656  0.4854 -0.0229 -0.4254
 7760TIP3    H123244   6.355   6.096   5.589 -0.6875 -1.3819  0.4247
 7760TIP3    H223245   6.379   6.103   5.739  1.2953 -0.3216  0.0879
 7761TIP3   OH223246   1.926   5.296   3.889  0.0613 -0.3560  0.6924
 7761TIP3    H123247   1.860   5.319   3.955  1.1818  0.4671  1.5660
 7761TIP3    H223248   1.913   5.203   3.873 -0.7238 -0.4008  1.5126
 7762TIP3   OH223249   0.779   5.432   3.471  0.3236 -0.4632 -0.2862
 7762TIP3    H123250   0.769   5.523   3.500  2.7717  0.3252 -1.6309
 7762TIP3    H223251   0.855   5.399   3.518  1.2810 -0.7824 -1.9446
 7763TIP3   OH223252   6.419   5.137   0.275 -0.1049 -0.8205 -0.6330
 7763TIP3    H123253   6.425   5.136   0.370  1.1774 -1.5272 -0.6984
 7763TIP3    H223254   6.464   5.217   0.249  0.7915 -1.3292 -0.6917
 7764TIP3   OH223255   6.986   2.228   3.695  0.0796 -0.1167 -0.2663
 7764TIP3    H123256   6.927   2.292   3.655 -0.1031 -0.7109 -0.9710
 7764TIP3    H223257   7.052   2.210   3.627 -0.2334 -1.1368 -0.3197
 7765TIP3   OH223258   4.880   3.921   0.961  0.1620 -0.5490 -0.5807
 7765TIP3    H123259   4.911   3.844   0.914  0.4287  0.0062 -1.3502
 7765TIP3    H223260   4.866   3.892   1.051 -0.4407 -1.6716 -1.0193
 7766TIP3   OH223261   1.057   5.603   0.624  0.5405 -0.3658  0.7823
 7766TIP3    H123262   1.023   5.526   0.670  1.3301 -0.3724  1.3859
 7766TIP3    H223263   1.129   5.569   0.571 -2.0263 -0.8621 -2.7062
 7767TIP3   OH223264   4.830   4.932   5.695  0.7096 -0.0069 -0.4674
 7767TIP3    H123265   4.770   4.986   5.747  0.3501  2.0838 -2.8608
 7767TIP3    H223266   4.834   4.849   5.742 -0.7834  1.2025  2.0069
 7768TIP3   OH223267   6.582   5.287   2.493 -0.4051 -0.0466  0.0213
 7768TIP3    H123268   6.533   5.332   2.424  0.8879  0.6921 -0.4677
 7768TIP3    H223269   6.639   5.227   2.445 -0.4942 -0.5455  0.5395
 7769TIP3   OH223270   3.744   6.124   0.504  0.3733 -0.0990 -0.1588
 7769TIP3    H123271   3.779   6.066   0.436  2.0555  1.1318 -0.4186
 7769TIP3    H223272   3.814   6.188   0.519 -0.8523  1.0081  1.1326
 7770TIP3   OH223273   6.170   4.787   1.094  0.1573 -0.2965 -0.1791
 7770TIP3    H123274   6.102   4.768   1.159 -0.0356  0.4160 -0.1603
 7770TIP3    H223275   6.198   4.876   1.114  2.4923 -1.2249  1.0434
 7771TIP3   OH223276   7.212   0.583   0.300  0.5383 -0.2417  0.3220
 7771TIP3    H123277   7.181   0.530   0.373 -1.7841  0.1357 -0.3072
 7771TIP3    H223278   7.141   0.645   0.283  1.9456  1.1597 -0.8387
 7772TIP3   OH223279   4.058   0.893   4.840 -0.2496  0.3240  0.2003
 7772TIP3    H123280   4.089   0.885   4.750 -0.2344  0.0906  0.2248
 7772TIP3    H223281   4.129   0.857   4.893  0.5680  2.2165  0.4541
 7773TIP3   OH223282   6.741   3.934   1.008 -0.0582  0.6232 -0.0562
 7773TIP3    H123283   6.685   3.936   0.930  0.2853 -2.3767 -0.4802
 7773TIP3    H223284   6.830   3.925   0.974  0.4361  2.1921  0.6961
 7774TIP3   OH223285   3.028   5.453   1.385  0.1332 -0.2615  0.2732
 7774TIP3    H123286   2.982   5.442   1.468  1.8539  0.2112  1.3371
 7774TIP3    H223287   2.963   5.433   1.318 -1.1227 -1.2617  1.7487
 7775TIP3   OH223288   3.231   3.919   5.281  0.0085  0.3784  0.4894
 7775TIP3    H123289   3.168   3.879   5.340 -0.8100  0.1133 -0.5364
 7775TIP3    H223290   3.240   4.009   5.313 -0.4956  0.2661  0.9609
 7776TIP3   OH223291   3.843   0.584   3.840 -0.3820  0.1130  0.1386
 7776TIP3    H123292   3.773   0.616   3.897 -0.3091  2.0124 -0.7454
 7776TIP3    H223293   3.797   0.542   3.767 -0.5901  0.8617 -0.1648
 7777TIP3   OH223294   1.781   6.744   5.406  0.3004  0.4037 -0.4696
 7777TIP3    H123295   1.804   6.833   5.379  0.7232  0.4600  0.0540
 7777TIP3    H223296   1.857   6.714   5.457 -1.1364  0.9364  2.1559
 7778TIP3   OH223297   5.337   5.670   3.999 -0.1787 -0.4330  0.0076
 7778TIP3    H123298   5.317   5.742   4.059 -0.8279 -0.5748 -0.0249
 7778TIP3    H223299   5.424   5.690   3.965  0.2222 -0.3788  1.0368
 7779TIP3   OH223300   1.781   5.881   3.581  0.4620 -0.1656  0.1737
 7779TIP3    H123301   1.706   5.820   3.585 -0.4857  0.9581  0.1539
 7779TIP3    H223302   1.804   5.897   3.672 -1.8304  2.3989  0.4384
 7780TIP3   OH223303   3.560   0.072   1.329  0.3630  0.7496  1.0119
 7780TIP3    H123304   3.472   0.035   1.331 -0.5405  2.7503  1.3522
 7780TIP3    H223305   3.618  -0.002   1.311 -1.2044 -0.9429  2.5727
 7781TIP3   OH223306   1.051   6.270   0.012  0.3865 -0.6981  0.2458
 7781TIP3    H123307   1.089   6.199   0.064  1.2663 -0.9054 -0.6577
 7781TIP3    H223308   0.966   6.287   0.053 -0.0439 -2.5742  0.2081
 7782TIP3   OH223309   0.121   4.341   2.736 -0.6095 -0.5273  0.2278
 7782TIP3    H123310   0.187   4.399   2.775 -0.7125 -0.6990  0.6691
 7782TIP3    H223311   0.152   4.252   2.757  0.1088 -0.6818 -1.3495
 7783TIP3   OH223312   0.413   1.275   4.431 -0.0425  0.3870 -0.5806
 7783TIP3    H123313   0.450   1.335   4.495 -0.9018  1.5354 -1.1162
 7783TIP3    H223314   0.483   1.260   4.367  0.1042  1.0081 -0.5669
 7784TIP3   OH223315   2.569   1.853   4.770 -0.1129 -0.3306  0.1942
 7784TIP3    H123316   2.611   1.866   4.685 -0.1111 -1.5740 -0.0102
 7784TIP3    H223317   2.597   1.766   4.798 -0.1340  0.0465  1.4691
 7785TIP3   OH223318   1.793   4.760   3.811 -0.1608  0.5395 -0.1096
 7785TIP3    H123319   1.704   4.793   3.810 -0.1676  0.5169 -0.4981
 7785TIP3    H223320   1.802   4.712   3.729  0.0410  0.0902  0.1690
 7786TIP3   OH223321   0.360   3.085   4.036  0.7627 -0.4870  0.6663
 7786TIP3    H123322   0.381   3.152   3.971  0.9682  0.8868  2.0930
 7786TIP3    H223323   0.278   3.046   4.005  1.6114 -0.9427 -1.1894
 7787TIP3   OH223324   7.012   1.717   4.271 -0.0147 -0.0474  0.1710
 7787TIP3    H123325   7.096   1.691   4.233 -0.0744  0.3579 -0.2391
 7787TIP3    H223326   7.030   1.725   4.365  0.4429  0.1762  0.0678
 7788TIP3   OH223327   0.507   3.771   1.033  0.7566  0.0566 -0.2209
 7788TIP3    H123328   0.600   3.796   1.035  1.0425 -0.7127 -1.7955
 7788TIP3    H223329   0.504   3.700   0.969 -0.8117 -0.4577  0.3927
 7789TIP3   OH223330   6.980   4.627   0.061  0.4773 -0.2445  0.2362
 7789TIP3    H123331   6.924   4.561   0.022 -0.2425 -0.1014  1.0083
 7789TIP3    H223332   6.958   4.708   0.015  0.4075 -0.2852  0.1990
 7790TIP3   OH223333   2.966   4.161   2.218  0.2414  0.1393 -0.6020
 7790TIP3    H123334   2.897   4.205   2.269  0.3593  0.8579 -1.0508
 7790TIP3    H223335   2.973   4.074   2.258 -0.4629  0.2896 -0.1261
 7791TIP3   OH223336   6.465   1.442   1.517  0.8846 -0.0740  0.3795
 7791TIP3    H123337   6.417   1.492   1.452 -0.8600  0.7520  2.1913
 7791TIP3    H223338   6.521   1.383   1.466 -2.2856 -1.3908 -1.9087
 7792TIP3   OH223339   0.519   0.234   1.518  0.5554 -0.0557 -0.0723
 7792TIP3    H123340   0.510   0.293   1.444 -1.7732 -1.8214 -1.3382
 7792TIP3    H223341   0.601   0.187   1.503  0.2800 -0.1517 -1.4076
 7793TIP3   OH223342   5.106   1.115   4.732 -0.6882  0.4210  0.7234
 7793TIP3    H123343   5.075   1.160   4.654  0.0271  0.3132  0.3654
 7793TIP3    H223344   5.178   1.060   4.701 -1.4601 -0.8933  1.1644
 7794TIP3   OH223345   3.864   1.514   0.039  0.7230 -0.5084  0.1843
 7794TIP3    H123346   3.906   1.450   0.095 -0.6318  0.1744  2.1010
 7794TIP3    H223347   3.898   1.599   0.069 -0.6517 -0.0720  0.6038
 7795TIP3   OH223348   3.861   3.738   4.962  0.2764 -0.4093 -0.4203
 7795TIP3    H123349   3.790   3.800   4.980 -0.8391 -1.6005 -0.5425
 7795TIP3    H223350   3.873   3.742   4.867 -0.0819 -0.6680 -0.4794
 7796TIP3   OH223351   0.358   3.312   0.412 -0.5558 -0.0577  0.4012
 7796TIP3    H123352   0.288   3.280   0.355  0.4644 -1.3132 -0.1965
 7796TIP3    H223353   0.399   3.232   0.446  1.4227  0.6147 -0.2913
 7797TIP3   OH223354   2.566   4.676   5.800 -0.0727  0.2119 -0.4712
 7797TIP3    H123355   2.635   4.737   5.774 -1.1825  2.2335  1.0645
 7797TIP3    H223356   2.613   4.599   5.833  1.3655 -0.4710 -3.6928
 7798TIP3   OH223357   6.741   6.052   0.643  0.0281  0.4895 -0.0109
 7798TIP3    H123358   6.755   6.125   0.704  0.8411  0.5530 -0.2638
 7798TIP3    H223359   6.731   6.094   0.558 -2.9559  0.5426  0.2742
 7799TIP3   OH223360   3.426   2.996   4.662  0.0287  0.5318  0.0758
 7799TIP3    H123361   3.343   3.003   4.615  0.1133  0.2074 -0.1243
 7799TIP3    H223362   3.455   2.906   4.645  1.1502  1.0883 -1.0569
 7800TIP3   OH223363   4.156   1.496   5.068 -0.9879 -0.0925 -0.1540
 7800TIP3    H123364   4.242   1.491   5.025  0.0608  0.7256  1.7143
 7800TIP3    H223365   4.148   1.412   5.114 -0.6703  0.2537  0.5500
 7801TIP3   OH223366   1.576   5.057   0.153  0.1308  0.1736 -0.3412
 7801TIP3    H123367   1.605   4.967   0.135  0.0202 -0.3732  1.9320
 7801TIP3    H223368   1.509   5.073   0.086  1.6718 -0.5761 -2.1784
 7802TIP3   OH223369   4.616   3.709   1.941  0.2009 -0.1518  0.4057
 7802TIP3    H123370   4.701   3.681   1.977  0.1407 -0.4907  0.2854
 7802TIP3    H223371   4.618   3.805   1.948  1.2715 -0.0287 -1.1114
 7803TIP3   OH223372   4.355   0.682   3.420  0.3320 -0.4701 -0.1293
 7803TIP3    H123373   4.440   0.639   3.424  0.4162 -0.4033 -0.9210
 7803TIP3    H223374   4.328   0.693   3.511  1.6914  0.5638  0.1593
 7804TIP3   OH223375   4.862   6.513   2.950 -0.0951  0.0358  0.1454
 7804TIP3    H123376   4.826   6.425   2.960 -2.1915  1.0324  2.4828
 7804TIP3    H223377   4.919   6.524   3.027 -1.3876  1.3208  0.9737
 7805TIP3   OH223378   0.609   6.769   4.792 -0.0846  0.0384  0.3956
 7805TIP3    H123379   0.525   6.814   4.796 -0.1659 -0.1709  1.3487
 7805TIP3    H223380   0.603   6.713   4.715 -0.8398 -0.0035  0.4767
 7806TIP3   OH223381   5.241   3.089   2.978  0.2823  0.2092  0.0044
 7806TIP3    H123382   5.228   3.004   2.937 -1.1634 -0.0777  0.9847
 7806TIP3    H223383   5.237   3.152   2.906  0.6065 -0.4871 -0.6298
 7807TIP3   OH223384   2.135   0.275   5.434 -0.8480 -0.0108  0.4388
 7807TIP3    H123385   2.142   0.210   5.363 -1.1973 -0.0266  0.4138
 7807TIP3    H223386   2.097   0.352   5.392 -0.9717  0.0111  0.5880
 7808TIP3   OH223387   2.359   4.709   1.874  0.0737  0.0032 -0.0695
 7808TIP3    H123388   2.275   4.732   1.835  0.8761  0.0613 -1.8517
 7808TIP3    H223389   2.364   4.614   1.863 -0.6746 -0.3397  2.0287
 7809TIP3   OH223390   5.538   3.780   1.608  0.2052 -0.1286 -0.0083
 7809TIP3    H123391   5.477   3.747   1.674  1.3387 -1.0794  0.5985
 7809TIP3    H223392   5.498   3.756   1.524 -1.3506  1.2815  0.2885
 7810TIP3   OH223393   2.126   1.523   5.402 -0.5326 -0.1145 -0.1166
 7810TIP3    H123394   2.136   1.539   5.308 -1.0803  2.0648  0.1329
 7810TIP3    H223395   2.214   1.504   5.432 -0.4379 -1.4643 -1.1493
 7811TIP3   OH223396   5.621   5.804   4.341 -0.6358  0.1806 -0.7040
 7811TIP3    H123397   5.550   5.840   4.288 -1.1792 -1.4179 -1.1190
 7811TIP3    H223398   5.685   5.875   4.346 -2.4291  1.8607  0.1056
 7812TIP3   OH223399   5.533   1.406   2.260  0.2186  0.1531 -0.2428
 7812TIP3    H123400   5.588   1.355   2.320  1.3777  2.7185  1.0519
 7812TIP3    H223401   5.539   1.495   2.293 -3.1548  0.8964 -1.3270
 7813TIP3   OH223402   0.180   4.092   3.217  0.3593 -0.6715 -0.0448
 7813TIP3    H123403   0.157   4.170   3.167 -0.8068 -0.0646  1.3522
 7813TIP3    H223404   0.274   4.083   3.207  1.0125  2.5708  1.9526
 7814TIP3   OH223405   1.902   1.756   1.244  0.1688 -0.3166 -0.1828
 7814TIP3    H123406   1.935   1.845   1.256  0.2163 -0.3555 -0.0307
 7814TIP3    H223407   1.815   1.756   1.284 -0.3984  0.0334 -1.3621
 7815TIP3   OH223408   1.037   3.474   4.081 -0.1408 -0.6292  0.6263
 7815TIP3    H123409   1.120   3.491   4.035 -0.2951 -1.9072 -0.1607
 7815TIP3    H223410   1.043   3.527   4.160  1.3974 -0.6245  0.5419
 7816TIP3   OH223411   4.531   1.696   1.006 -0.2465 -0.2317 -0.5086
 7816TIP3    H123412   4.484   1.746   1.073 -1.4438 -1.2487 -0.5586
 7816TIP3    H223413   4.579   1.629   1.055  1.7622  1.2125 -0.3980
 7817TIP3   OH223414   2.417   2.131   0.862 -0.5650  0.0550  0.4973
 7817TIP3    H123415   2.405   2.172   0.948 -0.1121 -0.8997  1.0364
 7817TIP3    H223416   2.329   2.130   0.824 -0.4314  2.4885 -0.0299
 7818TIP3   OH223417   4.456   5.171   0.456  0.3653  0.0919 -0.3401
 7818TIP3    H123418   4.456   5.195   0.549 -1.6683 -0.7629 -0.0542
 7818TIP3    H223419   4.376   5.119   0.445  0.7826 -0.1891 -2.4884
 7819TIP3   OH223420   2.933   1.294   4.167  0.2321  0.0060 -0.2232
 7819TIP3    H123421   2.994   1.243   4.220  0.0922 -0.6898 -0.7089
 7819TIP3    H223422   2.895   1.357   4.228  0.6163 -0.2826  0.3299
 7820TIP3   OH223423   2.317   1.123   0.802 -0.3451 -0.1722  0.0619
 7820TIP3    H123424   2.313   1.217   0.815  0.1553  0.0068 -1.0088
 7820TIP3    H223425   2.268   1.108   0.721 -0.3910 -0.8322  0.2062
 7821TIP3   OH223426   2.063   2.744   3.701  0.8624 -0.4663 -0.1213
 7821TIP3    H123427   2.029   2.680   3.763  0.9300 -0.6876 -0.3121
 7821TIP3    H223428   2.157   2.747   3.718  1.1585 -1.7859 -1.3477
 7822TIP3   OH223429   0.052   1.567   4.593 -0.1822 -0.0860  0.5132
 7822TIP3    H123430   0.015   1.527   4.671  1.2825  0.3177  1.4467
 7822TIP3    H223431   0.111   1.501   4.557  2.5923  1.2234  2.3091
 7823TIP3   OH223432   4.508   2.353   0.051  0.3625 -0.0592  0.4350
 7823TIP3    H123433   4.583   2.317   0.004  0.6724  1.0766  0.0495
 7823TIP3    H223434   4.452   2.277   0.068 -0.2777 -0.4045 -2.6949
 7824TIP3   OH223435   4.953   2.124   1.943 -0.6062  0.1905  0.5756
 7824TIP3    H123436   4.909   2.195   1.897  0.5023  0.3698 -0.2636
 7824TIP3    H223437   4.971   2.159   2.030 -0.1268  0.9325  0.1894
 7825TIP3   OH223438   4.867   2.659   3.753 -0.0222 -0.1076  0.0758
 7825TIP3    H123439   4.840   2.749   3.770  0.4097  0.1306 -0.4554
 7825TIP3    H223440   4.920   2.634   3.828 -0.3728 -0.0182  0.3550
 7826TIP3   OH223441   4.708   2.664   2.872 -0.4562  0.2164  0.1273
 7826TIP3    H123442   4.782   2.661   2.811 -1.1319  2.1089 -0.8405
 7826TIP3    H223443   4.664   2.747   2.853 -2.6483 -0.6947  0.9067
 7827TIP3   OH223444   4.626   2.778   1.209 -0.0791  0.0974 -1.1572
 7827TIP3    H123445   4.673   2.851   1.249  0.5336 -1.0669  0.3777
 7827TIP3    H223446   4.571   2.743   1.279 -0.3926 -0.8917 -1.8631
 7828TIP3   OH223447   0.644   5.622   1.698 -0.3651 -0.3014  0.2540
 7828TIP3    H123448   0.676   5.536   1.669 -0.9684  0.2053 -2.1070
 7828TIP3    H223449   0.723   5.677   1.698 -0.1601 -0.5897  0.7122
 7829TIP3   OH223450   2.522   3.621   4.812  0.2447 -0.0182 -0.0095
 7829TIP3    H123451   2.524   3.684   4.740 -0.8319  0.9126  0.7237
 7829TIP3    H223452   2.435   3.581   4.805  0.7638 -1.1449 -0.2134
 7830TIP3   OH223453   3.967   1.574   5.253  0.4194  0.3395 -0.0502
 7830TIP3    H123454   3.997   1.530   5.174 -0.3875  0.1091 -0.2395
 7830TIP3    H223455   4.041   1.629   5.280  1.8228 -1.8189  0.7330
 7831TIP3   OH223456   2.934   5.742   1.489 -0.2581  0.3948 -0.0384
 7831TIP3    H123457   2.974   5.811   1.436  1.2754 -0.2391  0.2260
 7831TIP3    H223458   2.965   5.661   1.450 -1.1784 -0.1311  0.2998
 7832TIP3   OH223459   1.166   3.516   0.098 -0.4138 -1.0340  0.2092
 7832TIP3    H123460   1.151   3.543   0.008  0.7675 -0.4887  0.1626
 7832TIP3    H223461   1.097   3.560   0.148  0.5651  0.9514 -0.0708
 7833TIP3   OH223462   1.908   6.461   1.037  0.0947 -0.7870  0.6703
 7833TIP3    H123463   1.965   6.525   1.079 -1.0582  2.5286 -2.2805
 7833TIP3    H223464   1.931   6.466   0.944 -0.6317 -4.1963  0.1922
 7834TIP3   OH223465   1.431   6.118   1.263  0.0894  0.3891  0.0605
 7834TIP3    H123466   1.388   6.175   1.200  0.3006  0.6457  0.1496
 7834TIP3    H223467   1.424   6.030   1.224 -0.5670  0.4197  0.1079
 7835TIP3   OH223468   1.049   0.391   0.337 -0.3705 -0.3508 -0.3224
 7835TIP3    H123469   1.040   0.296   0.328 -0.0318 -0.3041 -1.3741
 7835TIP3    H223470   1.017   0.410   0.425 -0.8812 -1.3819 -0.2613
 7836TIP3   OH223471   2.823   0.154   0.544 -0.0059 -0.6191 -0.0309
 7836TIP3    H123472   2.754   0.189   0.488 -1.1166 -0.4385  1.4092
 7836TIP3    H223473   2.822   0.060   0.526 -2.5653 -1.0911  1.8883
 7837TIP3   OH223474   1.000   3.448   0.712 -0.4703 -0.5234  0.4044
 7837TIP3    H123475   1.007   3.509   0.638 -1.3930 -1.7559 -0.7705
 7837TIP3    H223476   1.069   3.474   0.772 -0.9657  1.7987  0.0556
 7838TIP3   OH223477   1.442   0.863   3.511  0.1494 -0.2713  0.0816
 7838TIP3    H123478   1.497   0.873   3.433 -0.6564  1.8840 -0.2739
 7838TIP3    H223479   1.496   0.813   3.572  2.5014  1.6490 -0.2813
 7839TIP3   OH223480   2.857   3.405   3.393 -0.0863 -0.4546 -0.7209
 7839TIP3    H123481   2.868   3.492   3.354  0.7794 -0.5134 -0.6406
 7839TIP3    H223482   2.865   3.345   3.319  0.6520 -0.5216 -0.5959
 7840TIP3   OH223483   4.626   3.725   4.238  0.0856  0.0761  0.5606
 7840TIP3    H123484   4.539   3.688   4.224  1.2366 -1.4527 -5.1673
 7840TIP3    H223485   4.673   3.659   4.289 -1.3734 -0.3529  1.3714
 7841TIP3   OH223486   3.857   6.045   0.052 -0.3412 -0.2699 -0.1400
 7841TIP3    H123487   3.814   6.048   0.138  0.8491 -1.3875  0.5161
 7841TIP3    H223488   3.876   5.952   0.038  0.2231 -0.0004 -1.2413
 7842TIP3   OH223489   2.789   4.099   5.527 -0.2774  0.8119  0.3695
 7842TIP3    H123490   2.865   4.072   5.578 -0.0249  2.1653  0.7696
 7842TIP3    H223491   2.717   4.101   5.590 -0.2203  1.3503  0.4244
 7843TIP3   OH223492   3.737   2.563   4.789  0.2494  0.0907  0.5694
 7843TIP3    H123493   3.751   2.496   4.722  0.4448 -0.7103  1.3828
 7843TIP3    H223494   3.643   2.579   4.787  0.1882 -0.2621  0.4047
 7844TIP3   OH223495   5.129   4.577   2.192  0.2986 -0.5995 -0.5098
 7844TIP3    H123496   5.151   4.501   2.137  0.4951 -0.7348 -0.2438
 7844TIP3    H223497   5.211   4.625   2.201 -0.0117  0.1131 -1.3927
 7845TIP3   OH223498   4.321   6.286   2.311  0.1141  0.3298 -0.0748
 7845TIP3    H123499   4.286   6.207   2.270 -0.0776  0.3866 -0.0193
 7845TIP3    H223500   4.383   6.322   2.247  1.2799 -0.6368  0.4562
 7846TIP3   OH223501   5.206   1.104   2.771 -0.0618  0.0650  0.4659
 7846TIP3    H123502   5.291   1.080   2.736 -0.0189  0.2852  0.4163
 7846TIP3    H223503   5.196   1.052   2.850  0.2842  0.3196  0.6775
 7847TIP3   OH223504   6.882   2.576   1.965 -0.2327  0.5091  0.1248
 7847TIP3    H123505   6.919   2.576   1.877 -0.2108  3.0751  0.0429
 7847TIP3    H223506   6.806   2.519   1.960  1.1591 -1.3682 -0.8538
 7848TIP3   OH223507   4.540   5.483   4.398  0.2065  0.1023 -0.0968
 7848TIP3    H123508   4.482   5.449   4.466 -0.4806  2.3526  0.5037
 7848TIP3    H223509   4.483   5.498   4.322  0.1314  1.5165  0.2179
 7849TIP3   OH223510   3.878   3.732   0.885  0.0337 -0.5718 -0.2851
 7849TIP3    H123511   3.950   3.746   0.824 -1.3837 -1.1264 -2.2132
 7849TIP3    H223512   3.812   3.796   0.859 -0.7201 -1.0235  0.4742
 7850TIP3   OH223513   2.525   3.282   4.105  0.0978 -0.1734 -0.5654
 7850TIP3    H123514   2.566   3.218   4.047  0.6381 -0.9113  0.5863
 7850TIP3    H223515   2.446   3.238   4.138  0.5307 -0.3229  0.3213
 7851TIP3   OH223516   4.854   3.256   1.369 -0.1456  0.3305  0.1771
 7851TIP3    H123517   4.892   3.172   1.393  2.0401  1.2252  0.0628
 7851TIP3    H223518   4.825   3.295   1.452 -0.2722 -0.1140  0.3419
 7852TIP3   OH223519   2.831   0.825   0.386  0.3566  0.4003  0.2818
 7852TIP3    H123520   2.816   0.838   0.480  0.6828  1.4935  0.1893
 7852TIP3    H223521   2.781   0.893   0.343 -0.5733 -0.6875 -0.4124
 7853TIP3   OH223522   0.099   6.154   2.782  0.1671  0.2035  0.1701
 7853TIP3    H123523   0.109   6.247   2.764 -0.4696  0.9834  3.2551
 7853TIP3    H223524   0.158   6.136   2.856  0.8503 -2.0526 -0.8212
 7854TIP3   OH223525   3.742   6.280   1.546  0.6356  0.0974 -0.1311
 7854TIP3    H123526   3.719   6.283   1.639  0.8377  1.2683 -0.0985
 7854TIP3    H223527   3.745   6.372   1.519  1.8635 -0.1584 -0.9762
 7855TIP3   OH223528   0.403   3.230   2.817  0.4165  0.3295 -0.2716
 7855TIP3    H123529   0.401   3.145   2.859 -0.7366  1.2748  1.7316
 7855TIP3    H223530   0.492   3.262   2.830  0.7418 -0.4064 -0.6940
 7856TIP3   OH223531   4.645   2.028   4.022 -0.2645 -0.1148  0.9253
 7856TIP3    H123532   4.721   2.066   3.978  0.3768 -0.6579  1.5270
 7856TIP3    H223533   4.574   2.088   4.004 -0.3679 -0.9628 -1.9278
 7857TIP3   OH223534   1.941   4.211   2.042  0.4784 -0.6130 -0.7630
 7857TIP3    H123535   2.002   4.285   2.050  0.5800 -0.7581 -0.1417
 7857TIP3    H223536   1.985   4.139   2.087  0.3930 -1.0666 -1.3851
 7858TIP3   OH223537   1.154   5.485   3.630 -0.1507  0.1817 -0.2588
 7858TIP3    H123538   1.082   5.422   3.624 -0.4953  0.4936  0.4472
 7858TIP3    H223539   1.197   5.465   3.713  1.0316 -0.4565 -0.9942
 7859TIP3   OH223540   5.836   1.440   1.636 -0.2703  0.1044 -0.5435
 7859TIP3    H123541   5.778   1.425   1.710 -1.0059  0.6681 -0.9883
 7859TIP3    H223542   5.886   1.519   1.660  0.9414 -0.8425  0.1960
 7860TIP3   OH223543   2.337   0.207   4.373 -0.3879  0.0377 -0.2288
 7860TIP3    H123544   2.354   0.206   4.278 -0.2773 -1.4642 -0.2148
 7860TIP3    H223545   2.292   0.125   4.390  1.4658 -0.7248  1.3460
 7861TIP3   OH223546   5.096   5.813   5.427 -0.6874 -0.1049 -0.3772
 7861TIP3    H123547   5.114   5.785   5.517  0.2990  0.2506 -0.4523
 7861TIP3    H223548   5.104   5.733   5.375  1.9580  0.1857 -0.5685
 7862TIP3   OH223549   3.031   5.804   3.584 -0.3741  0.1301 -0.2704
 7862TIP3    H123550   2.964   5.762   3.530  2.5187 -1.4223 -2.9419
 7862TIP3    H223551   3.074   5.866   3.525  0.9623  0.6128  1.1463
 7863TIP3   OH223552   1.351   4.563   2.629  1.2877  0.4068  0.3991
 7863TIP3    H123553   1.345   4.634   2.693 -0.0868  0.4686  0.2451
 7863TIP3    H223554   1.368   4.484   2.681  1.8694  0.7058  0.6667
 7864TIP3   OH223555   4.080   0.933   1.043 -0.3667 -0.3113  0.5954
 7864TIP3    H123556   4.158   0.934   0.988 -0.6555  0.2171  0.1905
 7864TIP3    H223557   4.022   0.868   1.002 -0.5454  0.0175  0.3312
 7865TIP3   OH223558   0.922   4.995   0.169 -0.4580 -0.0570 -0.0790
 7865TIP3    H123559   0.944   5.005   0.076  1.1760  0.5619  0.3397
 7865TIP3    H223560   1.005   5.009   0.215 -1.1328 -0.8523  1.4584
 7866TIP3   OH223561   3.093   0.120   1.744 -0.2551 -0.2319  0.4831
 7866TIP3    H123562   3.026   0.166   1.693  1.3096  1.1348 -0.4515
 7866TIP3    H223563   3.046   0.049   1.787 -1.7942 -1.1264 -2.4319
 7867TIP3   OH223564   0.812   4.844   1.152  0.1853 -0.2210 -0.2930
 7867TIP3    H123565   0.789   4.930   1.119 -0.1766 -0.4708 -0.6880
 7867TIP3    H223566   0.864   4.804   1.082 -0.2572 -0.6008 -0.4092
 7868TIP3   OH223567   7.147   6.375   2.437 -0.1783 -0.3110  0.2562
 7868TIP3    H123568   7.218   6.323   2.399 -0.0603 -2.2724  2.8504
 7868TIP3    H223569   7.190   6.454   2.470  0.0156  0.5097 -1.8010
 7869TIP3   OH223570   7.018   6.189   2.020  0.2802 -0.4195 -0.1521
 7869TIP3    H123571   7.029   6.215   2.111 -0.7367 -0.8375  0.1059
 7869TIP3    H223572   7.020   6.093   2.022 -0.2804 -0.4401 -0.4925
 7870TIP3   OH223573   0.104   3.058   3.943 -0.1605  0.3068  0.0541
 7870TIP3    H123574   0.118   3.077   3.850  0.3348 -0.3348 -0.0082
 7870TIP3    H223575   0.060   3.136   3.977 -1.4269  0.0752 -0.9652
 7871TIP3   OH223576   2.083   2.749   4.884 -0.4116  0.0797 -0.1380
 7871TIP3    H123577   2.052   2.659   4.895 -0.6731  0.1760 -0.0571
 7871TIP3    H223578   2.135   2.747   4.803 -0.7724 -0.0537 -0.3708
 7872TIP3   OH223579   6.389   2.039   4.860 -0.3851 -0.1333 -0.6420
 7872TIP3    H123580   6.468   1.997   4.827  0.6267  0.1838  1.2047
 7872TIP3    H223581   6.320   1.973   4.851  0.7620 -1.5393  0.4708
 7873TIP3   OH223582   6.072   6.791   4.379 -0.0360  0.1938  0.2903
 7873TIP3    H123583   6.005   6.725   4.362 -0.1847  0.7007 -1.2217
 7873TIP3    H223584   6.118   6.758   4.456 -0.5912 -1.2918  0.0294
 7874TIP3   OH223585   4.600   3.115   2.555  0.1009  0.1902  0.1674
 7874TIP3    H123586   4.539   3.183   2.524 -1.0988 -0.9080  0.0540
 7874TIP3    H223587   4.684   3.142   2.519 -0.6942  0.6196 -1.4854
 7875TIP3   OH223588   7.116   1.486   1.528  0.0897  0.0015  0.7154
 7875TIP3    H123589   7.180   1.456   1.593 -0.4702  1.6745  2.1002
 7875TIP3    H223590   7.169   1.516   1.454  0.7516 -1.5477  0.5187
 7876TIP3   OH223591   0.906   6.399   5.412  0.3081 -0.3590 -0.1999
 7876TIP3    H123592   0.880   6.480   5.369  0.3924 -1.4497 -2.4514
 7876TIP3    H223593   0.899   6.418   5.506  0.5469  2.2931 -0.6400
 7877TIP3   OH223594   0.605   5.468   4.246  0.0205 -0.0322 -0.2261
 7877TIP3    H123595   0.648   5.410   4.309  1.5693  0.9137 -0.3733
 7877TIP3    H223596   0.516   5.478   4.280  0.1107 -1.4407  0.5052
 7878TIP3   OH223597   4.072   0.792   0.034 -0.3670 -0.0051 -0.0582
 7878TIP3    H123598   4.131   0.838  -0.026 -2.6589  1.9890 -0.9659
 7878TIP3    H223599   4.102   0.817   0.121  0.8936 -0.0730 -0.4652
 7879TIP3   OH223600   4.698   4.748   3.912 -0.0899 -0.2202 -0.1011
 7879TIP3    H123601   4.727   4.837   3.933  0.5566 -0.0165 -1.6606
 7879TIP3    H223602   4.680   4.751   3.818  2.4052 -2.3407 -0.7724
 7880TIP3   OH223603   5.085   5.345   1.414  0.5988  0.3953  0.3083
 7880TIP3    H123604   5.133   5.276   1.460  0.4604 -0.4402 -0.7637
 7880TIP3    H223605   5.029   5.298   1.352  2.3824  1.4660 -2.3187
 7881TIP3   OH223606   1.456   1.358   4.057 -0.4378 -0.2769  0.4875
 7881TIP3    H123607   1.366   1.390   4.057 -0.2962  0.2065  2.3406
 7881TIP3    H223608   1.509   1.432   4.086  0.6490 -0.4015 -1.0565
 7882TIP3   OH223609   5.813   3.397   5.038 -0.3670 -0.0117 -0.1605
 7882TIP3    H123610   5.808   3.347   4.957  0.2392 -0.2108 -0.0744
 7882TIP3    H223611   5.883   3.356   5.088  0.2915  1.0459 -0.1731
 7883TIP3   OH223612   6.197   1.179   4.402 -0.8061  0.0611  0.0322
 7883TIP3    H123613   6.160   1.110   4.347  0.5297 -0.1295 -0.6743
 7883TIP3    H223614   6.156   1.259   4.370  0.9769  0.1526 -2.3262
 7884TIP3   OH223615   6.191   5.911   3.980 -0.9584  0.2580  0.3345
 7884TIP3    H123616   6.206   5.857   3.902 -1.5981 -2.5934  2.0243
 7884TIP3    H223617   6.175   5.999   3.946 -0.1593 -0.6382 -2.6473
 7885TIP3   OH223618   3.362   0.445   3.536 -0.2076 -0.7273 -0.5871
 7885TIP3    H123619   3.268   0.435   3.521 -0.5733  2.1500 -0.6157
 7885TIP3    H223620   3.401   0.436   3.449 -0.5870 -0.6120 -0.7730
 7886TIP3   OH223621   3.863   4.453   4.858 -0.1125 -0.0961  0.3886
 7886TIP3    H123622   3.932   4.399   4.896  0.6677  1.0233  0.6066
 7886TIP3    H223623   3.784   4.398   4.862  0.1226 -0.3358  2.8044
 7887TIP3   OH223624   5.446   3.817   4.545 -0.1602  0.0716  0.1598
 7887TIP3    H123625   5.512   3.765   4.498 -0.0972  0.9650 -0.7696
 7887TIP3    H223626   5.492   3.897   4.570 -0.4387 -0.0278  1.0145
 7888TIP3   OH223627   3.182   5.230   1.915 -0.2658  0.3922  0.0529
 7888TIP3    H123628   3.208   5.180   1.837 -1.3204  0.8450 -0.6102
 7888TIP3    H223629   3.089   5.211   1.926  0.0698 -0.4575  1.8327
 7889TIP3   OH223630   7.174   1.371   4.730  0.1433  0.2587  0.1413
 7889TIP3    H123631   7.106   1.310   4.758 -0.7760 -0.1018 -2.6167
 7889TIP3    H223632   7.250   1.316   4.709 -0.2739  0.1481 -1.1536
 7890TIP3   OH223633   3.807   2.550   5.079 -0.0338 -0.5482  0.1844
 7890TIP3    H123634   3.763   2.540   4.995  0.8291  1.1041 -0.4849
 7890TIP3    H223635   3.888   2.500   5.070  0.1254 -0.2533 -0.0127
 7891TIP3   OH223636   5.355   4.747   2.667 -0.5909 -0.0976 -0.5589
 7891TIP3    H123637   5.424   4.726   2.603 -1.1952 -0.8595 -0.9771
 7891TIP3    H223638   5.275   4.713   2.628 -1.1086  0.1801  0.2356
 7892TIP3   OH223639   6.100   1.226   1.937  0.5825  0.1165  0.5150
 7892TIP3    H123640   6.065   1.159   1.879 -2.8061  0.2540  2.1792
 7892TIP3    H223641   6.107   1.304   1.881  1.0141 -0.6697 -0.5598
 7893TIP3   OH223642   1.560   1.916   0.438  0.0743  0.5363  0.0421
 7893TIP3    H123643   1.489   1.861   0.471 -0.2072  2.1793  2.4168
 7893TIP3    H223644   1.566   1.895   0.344 -3.2099 -0.0048 -0.1444
 7894TIP3   OH223645   0.221   2.195   4.789  0.0791  0.3088  0.3464
 7894TIP3    H123646   0.167   2.127   4.829 -1.4305  0.9685 -0.5043
 7894TIP3    H223647   0.297   2.148   4.755 -0.3781 -0.7724  0.7644
 7895TIP3   OH223648   2.224   0.775   1.934  0.0675 -0.0525 -0.2207
 7895TIP3    H123649   2.304   0.739   1.972 -1.2508 -1.0764  1.8038
 7895TIP3    H223650   2.194   0.840   1.997 -0.6582  0.3628 -0.9699
 7896TIP3   OH223651   4.264   1.552   4.106  0.3470  0.0948  0.2284
 7896TIP3    H123652   4.310   1.600   4.176 -1.9734  1.5527  0.8789
 7896TIP3    H223653   4.259   1.614   4.034 -0.5018 -0.0506  0.1514
 7897TIP3   OH223654   6.216   5.035   1.225 -0.2359 -0.0277  0.3042
 7897TIP3    H123655   6.303   5.053   1.189 -0.2157  0.6747  0.6873
 7897TIP3    H223656   6.194   5.115   1.274 -2.1129  0.8023 -1.7336
 7898TIP3   OH223657   5.138   0.454   4.024  0.0458  0.6453  0.4261
 7898TIP3    H123658   5.199   0.519   4.059  0.9427 -0.2880  0.6264
 7898TIP3    H223659   5.194   0.385   3.988 -0.8876  0.3040 -0.4128
 7899TIP3   OH223660   4.904   4.020   0.310 -0.6794  0.2051  0.7272
 7899TIP3    H123661   4.817   4.002   0.345 -0.4369 -0.6418  0.9119
 7899TIP3    H223662   4.914   3.960   0.236  0.3899 -0.9249  1.7445
 7900TIP3   OH223663   6.195   1.936   1.684  0.2414  0.4836 -0.0084
 7900TIP3    H123664   6.139   1.990   1.629  1.7921  1.2684 -0.8525
 7900TIP3    H223665   6.134   1.880   1.732 -1.1613 -0.4720 -2.7299
 7901TIP3   OH223666   6.509   1.004   3.579 -0.1436 -0.1749  0.9212
 7901TIP3    H123667   6.559   0.950   3.639 -0.4363 -0.8635  0.5512
 7901TIP3    H223668   6.421   1.005   3.615 -0.2073 -0.1901  0.7672
 7902TIP3   OH223669   4.700   6.640   4.659 -0.0700 -0.6811  0.0218
 7902TIP3    H123670   4.726   6.616   4.748  0.7468  1.3085  0.3880
 7902TIP3    H223671   4.611   6.673   4.668  0.2580  0.1760  0.2595
 7903TIP3   OH223672   4.658   4.963   3.369 -0.4643 -0.3399  0.0510
 7903TIP3    H123673   4.728   5.027   3.381 -1.3468  0.5256  0.7472
 7903TIP3    H223674   4.703   4.879   3.359  0.6442  0.0560  1.4516
 7904TIP3   OH223675   7.118   3.620   4.777  0.1427  0.1175  0.3127
 7904TIP3    H123676   7.048   3.685   4.777  0.8871  0.9906 -1.6378
 7904TIP3    H223677   7.079   3.543   4.734 -0.4537 -0.4601  1.8069
 7905TIP3   OH223678   0.898   5.608   4.550  0.4457  0.4383  0.0608
 7905TIP3    H123679   0.992   5.612   4.532  0.5290  0.2763  0.4513
 7905TIP3    H223680   0.881   5.517   4.572  0.3686  0.6332  0.8645
 7906TIP3   OH223681   5.760   2.981   5.123  0.3297 -0.1828 -0.1713
 7906TIP3    H123682   5.685   2.956   5.069  0.7323  0.3924 -1.0143
 7906TIP3    H223683   5.835   2.937   5.082  0.1824 -2.7823  2.0792
 7907TIP3   OH223684   5.336   2.130   1.286  0.3283 -0.2965  0.0897
 7907TIP3    H123685   5.397   2.202   1.299 -1.0473  0.5796  2.3889
 7907TIP3    H223686   5.357   2.095   1.200  3.2652  0.6815  0.3092
 7908TIP3   OH223687   2.818   4.369   4.041  0.5876  0.2023  0.2203
 7908TIP3    H123688   2.752   4.383   3.974  1.0759  0.2569 -0.2574
 7908TIP3    H223689   2.777   4.399   4.122  0.1666  0.6035 -0.1361
 7909TIP3   OH223690   4.105   3.537   3.009  0.1901  0.2537  0.4699
 7909TIP3    H123691   4.183   3.537   2.955  1.1625  0.5202  1.8204
 7909TIP3    H223692   4.044   3.478   2.964  1.2733 -0.1793 -0.4588
 7910TIP3   OH223693   3.063   0.027   0.893  0.4364 -0.2965 -1.0933
 7910TIP3    H123694   2.972  -0.002   0.894 -0.1263  1.3593  0.7368
 7910TIP3    H223695   3.104  -0.021   0.965 -0.5078  3.1016  1.9826
 7911TIP3   OH223696   2.200   3.985   3.285  0.6180 -0.3869 -0.1829
 7911TIP3    H123697   2.228   3.995   3.194  1.9274 -1.5428  0.0631
 7911TIP3    H223698   2.110   4.017   3.286  0.4054 -0.8274 -1.9889
 7912TIP3   OH223699   3.638   6.519   2.067 -0.5782  0.1024  0.1288
 7912TIP3    H123700   3.563   6.544   2.014 -0.2879  1.3271  0.2809
 7912TIP3    H223701   3.606   6.447   2.122 -2.1231  1.6324  1.3174
 7913TIP3   OH223702   1.736   2.912   5.338 -0.4229  0.2525  0.4354
 7913TIP3    H123703   1.720   3.005   5.348  0.4691  0.4845 -0.1446
 7913TIP3    H223704   1.729   2.876   5.426  3.3801  1.5654  1.4522
 7914TIP3   OH223705   4.075   3.837   1.903  0.5246 -0.4571 -0.1979
 7914TIP3    H123706   4.042   3.799   1.984  1.5772 -3.5563 -1.0803
 7914TIP3    H223707   4.002   3.833   1.842  0.5572 -0.8233 -0.2116
 7915TIP3   OH223708   6.079   4.216   1.563  0.1776  0.1801 -0.2574
 7915TIP3    H123709   6.076   4.146   1.498 -1.7493 -0.1467  0.1069
 7915TIP3    H223710   6.117   4.290   1.517  0.2838 -0.4880 -1.2824
 7916TIP3   OH223711   0.140   4.870   5.082  0.0326 -1.0453 -0.0085
 7916TIP3    H123712   0.202   4.941   5.102 -0.4916 -0.4560 -0.4565
 7916TIP3    H223713   0.057   4.900   5.118 -0.3390 -1.1513 -0.7737
 7917TIP3   OH223714   6.960   5.999   5.579 -0.6330  0.0657  0.1091
 7917TIP3    H123715   7.042   6.029   5.619 -0.7609  0.0010  0.4178
 7917TIP3    H223716   6.969   5.904   5.572 -1.3360 -0.1488  1.6467
 7918TIP3   OH223717   2.004   4.752   0.439  0.1847  0.4854  0.1480
 7918TIP3    H123718   1.959   4.834   0.462 -0.7748  0.2918 -0.9698
 7918TIP3    H223719   1.961   4.685   0.492 -0.4609  0.3954 -0.4738
 7919TIP3   OH223720   3.722   2.135   5.503  0.1339 -0.0613 -0.2206
 7919TIP3    H123721   3.786   2.181   5.557  2.5802 -1.2294 -1.9338
 7919TIP3    H223722   3.725   2.044   5.534 -1.6122  0.0749  0.4412
 7920TIP3   OH223723   3.730   3.886   2.823 -0.2142  0.2052 -0.2838
 7920TIP3    H123724   3.783   3.907   2.900 -1.4318  0.9580  0.3754
 7920TIP3    H223725   3.733   3.791   2.817  1.1830  0.2296 -0.2534
 7921TIP3   OH223726   5.276   1.429   0.864  0.5024  0.4117 -0.1466
 7921TIP3    H123727   5.291   1.494   0.932  2.9904  0.4937 -0.6649
 7921TIP3    H223728   5.327   1.460   0.789 -1.6244 -0.0176 -1.8804
 7922TIP3   OH223729   2.952   1.785   1.810 -0.0459  0.1803 -0.2288
 7922TIP3    H123730   2.970   1.809   1.901 -0.1197  1.1847 -0.4692
 7922TIP3    H223731   2.871   1.734   1.815 -0.1129  0.3246  0.2583
 7923TIP3   OH223732   2.208   6.525   4.752 -0.6123  0.0349 -0.2121
 7923TIP3    H123733   2.214   6.523   4.657 -0.1441  0.3747 -0.1936
 7923TIP3    H223734   2.135   6.583   4.771  0.8707  2.0499 -0.3392
 7924TIP3   OH223735   2.532   5.226   0.257 -0.3167  0.2688  0.1766
 7924TIP3    H123736   2.562   5.283   0.187 -2.7658  1.7203  0.2078
 7924TIP3    H223737   2.514   5.284   0.331  0.9591 -1.0727  1.6365
 7925TIP3   OH223738   0.767   1.658   5.475  0.7958  0.5586 -0.0208
 7925TIP3    H123739   0.671   1.661   5.470  0.8101  2.1245 -0.0140
 7925TIP3    H223740   0.788   1.565   5.481 -0.7880  0.2265  1.2507
 7926TIP3   OH223741   6.158   3.437   2.117 -0.2609 -0.1394  0.5030
 7926TIP3    H123742   6.105   3.471   2.190 -0.3246  1.3754 -0.2089
 7926TIP3    H223743   6.249   3.448   2.147 -0.2975  0.0312  0.5559
 7927TIP3   OH223744   6.225   6.678   5.077  0.3389  0.1301 -0.1014
 7927TIP3    H123745   6.142   6.700   5.036  0.7989 -0.2734 -1.2938
 7927TIP3    H223746   6.258   6.761   5.111 -0.4867  0.3095  0.2727
 7928TIP3   OH223747   0.555   4.343   5.414  0.2367  0.5153  0.0565
 7928TIP3    H123748   0.468   4.337   5.453 -0.1111 -1.4047 -0.8617
 7928TIP3    H223749   0.563   4.434   5.385 -2.6004  0.1993 -2.2496
 7929TIP3   OH223750   6.140   4.515   5.408 -0.2371  0.7613 -0.3773
 7929TIP3    H123751   6.198   4.588   5.427 -0.4912  0.8135  0.2146
 7929TIP3    H223752   6.154   4.453   5.479  0.5861 -0.1578 -1.3065
 7930TIP3   OH223753   1.454   4.696   0.590  0.5627 -0.0021 -0.4841
 7930TIP3    H123754   1.438   4.780   0.634  2.2966  1.1357 -1.8798
 7930TIP3    H223755   1.383   4.639   0.620 -1.5889  2.4127 -0.6768
 7931TIP3   OH223756   6.769   3.640   0.853 -0.0068 -0.0877 -0.4362
 7931TIP3    H123757   6.675   3.618   0.857  0.7020 -3.5737  0.2191
 7931TIP3    H223758   6.786   3.658   0.761 -1.2081  0.0215 -0.6534
 7932TIP3   OH223759   6.687   6.494   4.131 -0.6418 -0.2540 -0.3393
 7932TIP3    H123760   6.757   6.452   4.080 -0.2796  0.5622 -0.5398
 7932TIP3    H223761   6.733   6.560   4.184 -1.4954  2.3820 -2.6195
 7933TIP3   OH223762   2.235   5.652   0.091  0.1160  0.1194 -0.5565
 7933TIP3    H123763   2.274   5.667   0.177 -0.7307 -0.8773  0.0221
 7933TIP3    H223764   2.142   5.672   0.103  0.0907  0.5953 -1.4195
 7934TIP3   OH223765   5.133   1.357   5.399 -0.2494 -0.1538 -0.1051
 7934TIP3    H123766   5.051   1.322   5.434  0.7145 -2.7098 -0.1465
 7934TIP3    H223767   5.201   1.314   5.451  1.0862  0.7786 -1.0312
 7935TIP3   OH223768   3.340   3.270   0.102  0.5404 -0.2233 -0.3711
 7935TIP3    H123769   3.361   3.214   0.177  1.1076  0.1725 -0.2253
 7935TIP3    H223770   3.425   3.292   0.064  0.2235 -1.0931 -1.6463
 7936TIP3   OH223771   7.037   6.357   0.373  0.5756  0.4256  0.4198
 7936TIP3    H123772   7.060   6.270   0.339 -1.1524 -0.8515  2.2962
 7936TIP3    H223773   6.943   6.366   0.353  0.8764  2.2039 -0.3746
 7937TIP3   OH223774   6.211   4.567   3.384 -0.0733  0.1065  0.1714
 7937TIP3    H123775   6.234   4.641   3.441  0.2363 -0.0804  0.2906
 7937TIP3    H223776   6.295   4.540   3.346 -0.3702  0.6934 -0.9355
 7938TIP3   OH223777   2.740   5.682   4.015 -0.1746  0.1404  0.2874
 7938TIP3    H123778   2.762   5.596   3.979 -1.1654 -0.8966  2.0172
 7938TIP3    H223779   2.644   5.684   4.015 -0.2160  2.0011 -1.3267
 7939TIP3   OH223780   5.131   5.293   5.815 -0.2275 -0.4240  0.6717
 7939TIP3    H123781   5.212   5.275   5.862 -0.0544 -0.8151  0.2346
 7939TIP3    H223782   5.104   5.208   5.781 -0.5632 -0.2147  0.4078
 7940TIP3   OH223783   5.817   4.982   5.249  0.0413  0.3847 -0.6151
 7940TIP3    H123784   5.910   4.992   5.227  0.4147  0.2130  0.8401
 7940TIP3    H223785   5.793   4.897   5.212  1.2217 -0.8869  1.3681
 7941TIP3   OH223786   6.459   4.512   4.930 -0.8720 -0.1497  0.0382
 7941TIP3    H123787   6.409   4.593   4.942 -1.1502 -0.4721  1.2647
 7941TIP3    H223788   6.533   4.520   4.991 -0.1254 -0.2218 -0.8462
 7942TIP3   OH223789   2.935   4.939   1.391  0.0424 -0.5544  0.3873
 7942TIP3    H123790   2.920   5.034   1.388  0.4284 -0.4618  1.3283
 7942TIP3    H223791   2.951   4.915   1.299  2.5012  0.7071  0.4128
 7943TIP3   OH223792   0.817   0.441   5.097 -0.0599  0.2043 -0.1594
 7943TIP3    H123793   0.819   0.363   5.042  0.4159  0.0469  0.0786
 7943TIP3    H223794   0.725   0.450   5.122 -0.3698  0.5502 -1.3577
 7944TIP3   OH223795   1.504   0.549   4.661  0.1231  0.4921  0.0726
 7944TIP3    H123796   1.464   0.581   4.742 -1.2688  0.4155 -0.5527
 7944TIP3    H223797   1.466   0.462   4.648  0.2598  0.5361 -0.6983
 7945TIP3   OH223798   5.893   0.147   2.631  0.2774  0.1960  0.0650
 7945TIP3    H123799   5.889   0.219   2.694  1.6584 -0.5543  1.0760
 7945TIP3    H223800   5.803   0.137   2.600  0.0432  2.2835 -0.0578
 7946TIP3   OH223801   0.092   2.704   5.399 -0.4405  0.9993 -0.1382
 7946TIP3    H123802   0.148   2.704   5.322  2.2440  2.0761  1.6648
 7946TIP3    H223803   0.105   2.790   5.439 -2.7094  0.9438  0.9060
 7947TIP3   OH223804   2.948   4.654   2.237  0.4871  0.1028  0.5748
 7947TIP3    H123805   3.009   4.580   2.234  1.1571  0.6536  0.4695
 7947TIP3    H223806   2.898   4.640   2.317 -0.2785 -1.1544 -0.0803
 7948TIP3   OH223807   6.658   0.914   3.995  0.1538 -0.0975  0.3768
 7948TIP3    H123808   6.697   0.827   4.002  1.0617  0.2761  0.1300
 7948TIP3    H223809   6.731   0.971   3.970 -1.0257  0.1621 -3.0557
 7949TIP3   OH223810   3.685   4.816   5.242  0.2452 -0.3600 -0.1468
 7949TIP3    H123811   3.611   4.877   5.233  1.0126  0.5101 -0.7619
 7949TIP3    H223812   3.647   4.730   5.227 -0.6668  0.0568 -0.3272
 7950TIP3   OH223813   4.044   1.326   0.211 -0.1858 -0.2632  1.0348
 7950TIP3    H123814   4.003   1.239   0.217 -1.4667  0.1139 -1.1137
 7950TIP3    H223815   4.126   1.310   0.164 -1.9730 -0.0018 -2.4624
 7951TIP3   OH223816   3.369   3.324   2.288 -0.7206  0.4796 -0.4355
 7951TIP3    H123817   3.290   3.342   2.338 -1.0501 -1.0896 -0.3467
 7951TIP3    H223818   3.433   3.296   2.353 -0.0309  1.8075 -0.4945
 7952TIP3   OH223819   4.120   2.967   5.165 -0.2318  0.3771  0.4513
 7952TIP3    H123820   4.101   2.941   5.075  0.7840  1.1040  0.0017
 7952TIP3    H223821   4.039   2.952   5.212 -0.9176  0.4010 -0.6788
 7953TIP3   OH223822   4.528   0.288   4.543  0.9056 -0.1973 -0.0175
 7953TIP3    H123823   4.577   0.213   4.575  1.0039 -0.1427 -0.0405
 7953TIP3    H223824   4.517   0.271   4.449 -0.3281 -0.8954  0.2357
 7954TIP3   OH223825   0.493   2.002   3.081 -0.3883  0.1162  0.1882
 7954TIP3    H123826   0.581   1.964   3.074 -1.1092 -1.4753 -0.7394
 7954TIP3    H223827   0.455   1.961   3.159 -1.5549 -2.0336 -1.4076
 7955TIP3   OH223828   6.496   3.544   0.254 -0.4606  0.2378  0.2860
 7955TIP3    H123829   6.538   3.630   0.256 -0.8174  0.4040  1.0298
 7955TIP3    H223830   6.564   3.485   0.222 -0.6653  1.0182 -1.7140
 7956TIP3   OH223831   3.295   6.126   1.285  0.0626  0.0675 -0.1488
 7956TIP3    H123832   3.385   6.153   1.303  0.6913 -1.3039 -1.0581
 7956TIP3    H223833   3.257   6.201   1.239 -0.1487  1.7283  2.5121
 7957TIP3   OH223834   6.098   3.848   0.401 -0.2514 -0.0923  0.5040
 7957TIP3    H123835   6.018   3.858   0.454  0.0079  1.7011  0.6425
 7957TIP3    H223836   6.169   3.864   0.463  0.1913 -1.0293  0.2392
 7958TIP3   OH223837   6.741   5.723   3.856 -0.4353  0.3256  0.1133
 7958TIP3    H123838   6.669   5.665   3.832 -0.0266  0.1736 -0.7884
 7958TIP3    H223839   6.752   5.780   3.780  0.7620 -0.0305  0.0044
 7959TIP3   OH223840   2.669   3.397   4.307  0.2469 -0.6151  0.2252
 7959TIP3    H123841   2.754   3.420   4.270 -0.4189  1.8124 -0.0120
 7959TIP3    H223842   2.613   3.383   4.230  0.0610 -0.6544  0.3685
 7960TIP3   OH223843   5.704   0.989   3.159 -0.2384  0.2700  0.0880
 7960TIP3    H123844   5.686   1.080   3.136  1.3068  0.7519  0.5711
 7960TIP3    H223845   5.797   0.989   3.184 -0.6786 -1.0301  2.0165
 7961TIP3   OH223846   2.994   1.146   4.938 -0.2276 -0.8146 -0.1644
 7961TIP3    H123847   2.942   1.102   4.871  0.4767 -0.6257 -0.8426
 7961TIP3    H223848   3.034   1.075   4.988 -0.7933 -0.9552  0.0968
 7962TIP3   OH223849   3.100   0.972   1.477  0.1265  0.1735 -0.1910
 7962TIP3    H123850   3.112   0.882   1.446  1.6340  0.0686  0.6450
 7962TIP3    H223851   3.188   1.009   1.481 -0.1845  0.8364  1.9847
 7963TIP3   OH223852   4.702   2.731   2.370  0.4034  0.2550  0.4830
 7963TIP3    H123853   4.768   2.761   2.431 -0.1073 -0.7771  1.5769
 7963TIP3    H223854   4.620   2.732   2.419  0.4166 -3.4737  0.9042
 7964TIP3   OH223855   2.897   1.452   0.204  0.1255  0.4960  0.4880
 7964TIP3    H123856   2.915   1.385   0.138 -0.0897  0.6876  0.2306
 7964TIP3    H223857   2.979   1.461   0.252  0.9278  1.7568 -1.0299
 7965TIP3   OH223858   3.741   5.676   0.533 -0.3198 -0.0137  0.3703
 7965TIP3    H123859   3.705   5.762   0.510  0.6668  0.3171  0.0175
 7965TIP3    H223860   3.815   5.664   0.474 -0.4041 -1.0866  0.4592
 7966TIP3   OH223861   1.527   1.478   3.036  0.1983  0.0324  0.2468
 7966TIP3    H123862   1.598   1.428   3.075 -0.0853 -0.0109  0.7274
 7966TIP3    H223863   1.570   1.552   2.993  0.7264 -1.2730 -1.5605
 7967TIP3   OH223864   1.166   6.141   0.740 -0.3290  0.8783  0.1750
 7967TIP3    H123865   1.071   6.145   0.733 -0.4608 -2.5422 -3.5751
 7967TIP3    H223866   1.198   6.168   0.654  1.5419 -3.4735 -0.7513
 7968TIP3   OH223867   5.670   2.340   4.336 -0.2880 -0.4907  0.1612
 7968TIP3    H123868   5.609   2.374   4.270 -1.6591 -1.5109  0.8545
 7968TIP3    H223869   5.756   2.371   4.307 -1.0875  0.7814 -0.9891
 7969TIP3   OH223870   5.899   6.763   0.548  0.1179 -0.1244  0.6218
 7969TIP3    H123871   5.837   6.706   0.502  1.7753 -0.2462 -1.5966
 7969TIP3    H223872   5.859   6.776   0.634 -1.5718 -2.5154  0.3122
 7970TIP3   OH223873   0.138   5.763   2.778 -0.0755  0.4125  0.6682
 7970TIP3    H123874   0.123   5.826   2.708 -1.9862  1.5327  1.9837
 7970TIP3    H223875   0.232   5.762   2.792  0.0901  2.0452 -0.2263
 7971TIP3   OH223876   5.507   3.243   2.979  0.1624  0.2398 -0.2789
 7971TIP3    H123877   5.458   3.182   3.035 -1.0124 -0.7044 -2.2341
 7971TIP3    H223878   5.450   3.319   2.970  0.7994  0.8495  0.5806
 7972TIP3   OH223879   2.585   5.124   4.831 -0.0438 -0.1709 -0.1914
 7972TIP3    H123880   2.595   5.063   4.904 -2.1997 -0.1733  0.1480
 7972TIP3    H223881   2.604   5.071   4.753  3.1574  0.0431  0.2911
 7973TIP3   OH223882   2.529   0.794   1.738 -0.8616 -0.0245 -0.1216
 7973TIP3    H123883   2.440   0.768   1.712 -0.0297 -0.8700 -2.4154
 7973TIP3    H223884   2.566   0.833   1.659  0.8377  0.2677  0.7788
 7974TIP3   OH223885   6.168   2.018   5.494 -0.0363 -0.4502  0.0443
 7974TIP3    H123886   6.072   2.020   5.492 -0.0268  0.7676  0.1600
 7974TIP3    H223887   6.189   1.933   5.533 -1.0927 -0.1074  1.4369
 7975TIP3   OH223888   1.977   6.761   2.502  0.3406 -0.0626 -0.1137
 7975TIP3    H123889   2.026   6.785   2.581 -0.7666 -0.4791  0.7290
 7975TIP3    H223890   2.026   6.801   2.430  2.6660 -1.5425  0.5317
 7976TIP3   OH223891   2.885   4.253   0.293  0.1599 -0.0654  0.0502
 7976TIP3    H123892   2.935   4.184   0.335  0.4695 -0.1907 -0.5176
 7976TIP3    H223893   2.942   4.330   0.296 -0.6880  0.5547  1.8741
 7977TIP3   OH223894   1.409   3.915   4.891 -0.2216 -0.3425  0.0743
 7977TIP3    H123895   1.450   3.913   4.978 -0.3025 -1.0181  0.0973
 7977TIP3    H223896   1.322   3.878   4.904 -0.2725 -0.3493 -0.2771
 7978TIP3   OH223897   2.836   6.469   2.332 -0.2634  0.3904  0.0975
 7978TIP3    H123898   2.815   6.375   2.338  0.0468  0.3876  1.5592
 7978TIP3    H223899   2.770   6.511   2.387  0.2195  0.9180  0.2778
 7979TIP3   OH223900   1.084   5.522   3.250 -0.1047  0.1343 -0.5176
 7979TIP3    H123901   1.031   5.597   3.278 -0.1787  0.3662 -1.2388
 7979TIP3    H223902   1.022   5.466   3.203 -0.1412 -0.5967  0.3909
 7980TIP3   OH223903   0.639   2.548   0.400 -0.0850  0.5388 -0.4698
 7980TIP3    H123904   0.681   2.527   0.484 -2.0258  0.2300  0.4741
 7980TIP3    H223905   0.662   2.474   0.343  0.4240  0.2490  0.0913
 7981TIP3   OH223906   6.544   5.359   2.760 -0.0672 -0.0474 -0.3785
 7981TIP3    H123907   6.591   5.440   2.781  1.5831 -1.2796  0.9516
 7981TIP3    H223908   6.548   5.353   2.665  0.3425  1.0985 -0.4551
 7982TIP3   OH223909   0.646   3.888   3.834  0.4392 -0.7167 -0.2648
 7982TIP3    H123910   0.738   3.914   3.838  0.3103 -0.2553 -0.2347
 7982TIP3    H223911   0.603   3.944   3.899  0.2692 -1.4968  0.3041
 7983TIP3   OH223912   2.897   6.355   4.294 -0.1596  0.4018 -0.3994
 7983TIP3    H123913   2.977   6.304   4.291 -1.0412 -1.0688  0.0499
 7983TIP3    H223914   2.911   6.427   4.232  0.2739 -1.6415 -2.8128
 7984TIP3   OH223915   2.142   3.217   4.024 -0.0983  0.2000 -0.2197
 7984TIP3    H123916   2.087   3.275   4.075 -0.3813  0.0181 -0.3187
 7984TIP3    H223917   2.184   3.274   3.959 -0.6504  0.2367 -0.5516
 7985TIP3   OH223918   2.887   1.449   4.608  0.1191 -0.2937  0.3372
 7985TIP3    H123919   2.978   1.423   4.621 -0.0950 -1.1649  0.1381
 7985TIP3    H223920   2.885   1.489   4.521  0.1201 -1.1773 -0.0714
 7986TIP3   OH223921   4.657   2.486   3.445  0.5588  0.1828  0.0580
 7986TIP3    H123922   4.725   2.442   3.395 -0.5748 -0.1127 -1.2856
 7986TIP3    H223923   4.663   2.578   3.418 -0.7116 -0.1379 -1.4963
 7987TIP3   OH223924   0.086   4.954   1.204  0.2197 -0.8970 -0.0732
 7987TIP3    H123925   0.033   4.876   1.220  0.3361 -1.2247 -1.1807
 7987TIP3    H223926   0.025   5.027   1.214 -0.0455 -1.1729  0.3306
 7988TIP3   OH223927   6.841   0.862   4.419  0.2191 -0.3436  0.0359
 7988TIP3    H123928   6.932   0.886   4.437  0.4792 -0.8608 -0.5537
 7988TIP3    H223929   6.839   0.767   4.429 -0.5122 -0.2280  1.1048
 7989TIP3   OH223930   4.070   6.368   5.896  0.0128 -0.3287 -0.0371
 7989TIP3    H123931   3.980   6.336   5.897  0.9561 -3.4308 -1.5346
 7989TIP3    H223932   4.080   6.410   5.810  0.1957 -0.7629 -0.2332
 7990TIP3   OH223933   7.031   3.952   2.495  0.5676  0.1012 -0.2146
 7990TIP3    H123934   7.032   4.000   2.578  0.5278 -1.1711  0.5548
 7990TIP3    H223935   6.938   3.938   2.477  0.3629  3.1055 -2.1807
 7991TIP3   OH223936   3.067   5.418   5.852  0.1705 -0.0626 -0.1755
 7991TIP3    H123937   2.987   5.388   5.895 -0.7900  1.1419 -1.0475
 7991TIP3    H223938   3.138   5.374   5.900 -0.9303 -0.1360  1.4733
 7992TIP3   OH223939   6.104   3.144   3.666  0.1513  0.4530  0.1691
 7992TIP3    H123940   6.015   3.144   3.632  0.0200  2.0607  0.4316
 7992TIP3    H223941   6.095   3.170   3.758  0.6767 -2.0762  1.0311
 7993TIP3   OH223942   5.684   0.757   0.631  0.0778 -0.1190 -0.2658
 7993TIP3    H123943   5.596   0.794   0.638 -0.5099 -1.2331 -1.3378
 7993TIP3    H223944   5.726   0.808   0.562  0.5051  0.7944  0.6389
 7994TIP3   OH223945   3.563   3.114   4.044  0.3646  0.3125 -0.6224
 7994TIP3    H123946   3.570   3.028   4.086  0.3424  0.3480 -0.5460
 7994TIP3    H223947   3.475   3.116   4.009  0.5031  0.1384 -0.9869
 7995TIP3   OH223948   6.996   5.037   4.176  0.0651  0.5033 -0.3908
 7995TIP3    H123949   6.975   5.120   4.134 -2.6164 -1.1067 -2.5786
 7995TIP3    H223950   7.015   4.977   4.103 -1.8313 -1.6902  0.7666
 7996TIP3   OH223951   4.380   0.456   5.518  1.1010  0.0006  0.5171
 7996TIP3    H123952   4.333   0.383   5.558  1.4081 -1.0071 -0.8731
 7996TIP3    H223953   4.470   0.426   5.511  0.8050 -0.5017 -2.2191
 7997TIP3   OH223954   2.604   2.534   4.006 -0.3132 -0.1776  0.1457
 7997TIP3    H123955   2.592   2.515   4.099  0.4217 -1.7932 -0.0438
 7997TIP3    H223956   2.696   2.562   3.999 -0.1750 -0.6929 -0.1701
 7998TIP3   OH223957   2.538   5.839   4.665  0.0514 -0.3612 -0.0325
 7998TIP3    H123958   2.610   5.881   4.618 -0.9405  0.6270 -0.7188
 7998TIP3    H223959   2.524   5.896   4.741 -1.4298  0.7381 -1.0720
 7999TIP3   OH223960   2.106   1.709   3.110  0.5747 -0.1337  0.0525
 7999TIP3    H123961   2.065   1.736   3.027 -0.0126 -0.9104  0.0831
 7999TIP3    H223962   2.194   1.682   3.085  0.5080 -0.0615 -0.2713
 8000TIP3   OH223963   2.267   1.420   3.338 -0.0350 -0.1458  0.1441
 8000TIP3    H123964   2.278   1.349   3.276 -1.4566 -0.0863 -0.1963
 8000TIP3    H223965   2.329   1.401   3.408 -0.5459 -1.8337  0.1633
 8001TIP3   OH223966   3.864   2.697   0.000 -0.1606 -0.6128 -0.0190
 8001TIP3    H123967   3.899   2.633   0.062  2.1482 -0.0372 -0.6489
 8001TIP3    H223968   3.800   2.748   0.052  0.7957 -0.9320  1.5503
 8002TIP3   OH223969   1.074   2.878   3.763 -0.0261 -0.0084 -0.9651
 8002TIP3    H123970   1.074   2.831   3.846  1.4496  1.4777 -0.0583
 8002TIP3    H223971   1.058   2.811   3.697 -0.4222 -1.3563  0.4462
 8003TIP3   OH223972   3.960   2.938   1.939 -0.3412 -0.2770  0.0105
 8003TIP3    H123973   3.939   2.931   1.846 -0.1844  0.0001 -0.0480
 8003TIP3    H223974   3.878   2.965   1.980 -0.2550  0.2173 -0.1347
 8004TIP3   OH223975   0.190   5.981   3.145 -0.1262  0.6142  0.0605
 8004TIP3    H123976   0.265   5.925   3.165 -0.7365 -0.3909 -0.3814
 8004TIP3    H223977   0.227   6.054   3.096  0.5720  0.1613 -0.0960
 8005TIP3   OH223978   6.295   6.086   2.679 -0.0325  0.4072  0.3555
 8005TIP3    H123979   6.365   6.094   2.744 -0.1604  1.0437  0.4143
 8005TIP3    H223980   6.339   6.052   2.601  0.1841 -0.0313  0.6643
 8006TIP3   OH223981   6.581   5.009   5.284 -0.1750 -0.0222  0.1373
 8006TIP3    H123982   6.663   5.017   5.332 -0.9281 -0.6829  1.5827
 8006TIP3    H223983   6.515   4.993   5.351 -1.4585  0.2558 -1.0216
 8007TIP3   OH223984   1.288   4.060   3.069 -0.6888 -0.6774 -0.4898
 8007TIP3    H123985   1.192   4.064   3.066 -0.7257  0.4410  1.1188
 8007TIP3    H223986   1.309   4.062   3.163  0.9420 -0.0453 -0.8375
 8008TIP3   OH223987   3.283   4.070   0.364 -0.1048  0.3905 -0.3959
 8008TIP3    H123988   3.372   4.074   0.397 -1.0312  1.2726  2.2836
 8008TIP3    H223989   3.290   4.024   0.280  2.7593  0.0267 -0.0561
 8009TIP3   OH223990   0.639   3.348   1.246  0.2942 -0.1836  0.2815
 8009TIP3    H123991   0.627   3.329   1.153  0.4596  0.0321  0.2129
 8009TIP3    H223992   0.586   3.283   1.292  0.3770 -0.4207  0.0402
 8010TIP3   OH223993   5.673   4.737   5.590  0.1760 -0.4900 -0.5118
 8010TIP3    H123994   5.590   4.738   5.543  0.1956  0.2863 -0.5463
 8010TIP3    H223995   5.717   4.658   5.560  0.7484  0.5995 -2.7929
 8011TIP3   OH223996   2.298   6.067   1.676 -0.3359 -0.0323 -0.6471
 8011TIP3    H123997   2.352   6.146   1.669  1.3162 -1.1232 -0.7144
 8011TIP3    H223998   2.361   5.995   1.680 -1.7695 -1.2843  0.5482
 8012TIP3   OH223999   4.879   4.191   0.697  0.2845 -0.3887 -0.0539
 8012TIP3    H124000   4.834   4.252   0.638  1.1008 -0.0812 -0.3616
 8012TIP3    H224001   4.825   4.192   0.776 -0.0623  0.2479 -0.2839
 8013TIP3   OH224002   5.515   6.271   4.339  0.3601 -0.3788 -0.1380
 8013TIP3    H124003   5.488   6.310   4.256  0.7693  1.0291  0.3602
 8013TIP3    H224004   5.533   6.180   4.318 -1.5021 -0.5620 -1.1753
 8014TIP3   OH224005   2.922  -0.014   4.529 -0.6118 -0.1807 -0.1686
 8014TIP3    H124006   2.957   0.017   4.445  1.7448  0.0334  0.8113
 8014TIP3    H224007   2.873   0.060   4.563 -0.5193  0.1764 -0.7891
 8015TIP3   OH224008   5.725   0.145   1.359 -0.0790 -0.3930 -0.3183
 8015TIP3    H124009   5.712   0.055   1.326  0.1498 -0.9372  1.0114
 8015TIP3    H224010   5.678   0.200   1.296 -0.7392 -1.5000 -0.8369
 8016TIP3   OH224011   7.031   2.214   5.352 -0.2758  0.0800  0.1146
 8016TIP3    H124012   6.983   2.285   5.309 -0.8748  0.1767  0.9166
 8016TIP3    H224013   7.051   2.248   5.439 -0.3189 -0.6350  0.4068
 8017TIP3   OH224014   6.402   3.968   1.088 -0.6192  0.1082  0.1155
 8017TIP3    H124015   6.448   3.984   1.005 -1.3390 -0.2409 -0.3604
 8017TIP3    H224016   6.370   3.878   1.080  1.3043 -0.8075  1.7491
 8018TIP3   OH224017   1.909   1.551   2.142 -0.4627 -0.1166  0.1334
 8018TIP3    H124018   1.868   1.501   2.213  0.4103 -1.5205 -0.3085
 8018TIP3    H224019   1.934   1.486   2.077  0.4707  0.9275 -0.6088
 8019TIP3   OH224020   4.130   2.407   0.611 -0.1801 -0.0813 -0.0415
 8019TIP3    H124021   4.122   2.479   0.549  0.7526  0.9795  1.0068
 8019TIP3    H224022   4.040   2.381   0.629 -0.5536  1.0242 -0.2324
 8020TIP3   OH224023   4.599   1.715   2.453  0.3075 -0.0902  1.1506
 8020TIP3    H124024   4.516   1.743   2.413  1.3259  0.6049 -0.5479
 8020TIP3    H224025   4.584   1.727   2.547 -0.9592  1.6309  0.7979
 8021TIP3   OH224026   2.746   0.543   2.518 -0.3201  0.4568  0.3751
 8021TIP3    H124027   2.739   0.518   2.426  3.5644  0.9641 -0.2500
 8021TIP3    H224028   2.733   0.638   2.519  2.7088  0.9752 -0.3073
 8022TIP3   OH224029   5.695   6.756   5.329 -0.0935 -0.0145  0.4371
 8022TIP3    H124030   5.783   6.791   5.319 -0.7150  1.3355 -0.5767
 8022TIP3    H224031   5.693   6.720   5.418  1.1376  0.9169  0.8522
 8023TIP3   OH224032   4.836   5.556   1.867  0.2638  1.0502 -0.4708
 8023TIP3    H124033   4.907   5.497   1.845 -1.5867 -1.5991  0.1399
 8023TIP3    H224034   4.759   5.518   1.824 -1.9321  0.2394  3.6093
 8024TIP3   OH224035   0.461   2.340   3.489 -0.0966  0.6176 -0.3968
 8024TIP3    H124036   0.463   2.350   3.584 -0.2713 -0.9567 -0.2110
 8024TIP3    H224037   0.462   2.430   3.456  2.1716  1.2130  1.0327
 8025TIP3   OH224038   6.403   0.038   1.578  0.6178  0.0738 -0.2366
 8025TIP3    H124039   6.392   0.051   1.484  0.1913 -0.9489 -0.3337
 8025TIP3    H224040   6.342  -0.032   1.600 -0.0176  0.9738  0.9897
 8026TIP3   OH224041   6.186   3.606   5.429 -0.5655  0.1448 -0.2048
 8026TIP3    H124042   6.102   3.642   5.457  0.0158  1.0215  0.4757
 8026TIP3    H224043   6.198   3.528   5.484 -0.8954  0.0687 -0.2413
 8027TIP3   OH224044   3.691   2.814   3.285  0.0357 -0.2807 -0.1721
 8027TIP3    H124045   3.751   2.858   3.224  0.9228 -1.4972 -0.2146
 8027TIP3    H224046   3.668   2.881   3.349  0.1139  0.6620 -1.1094
 8028TIP3   OH224047   7.010   0.107   2.865  0.0913 -0.0591 -0.5737
 8028TIP3    H124048   6.933   0.050   2.866 -0.2599  0.3980 -1.1448
 8028TIP3    H224049   7.072   0.061   2.808 -0.0998  0.0066 -0.8387
 8029TIP3   OH224050   2.229   1.012   2.055  0.1052 -0.2994 -0.0354
 8029TIP3    H124051   2.191   1.086   2.103  0.0109 -0.5548  0.2861
 8029TIP3    H224052   2.321   1.037   2.041 -0.3819  0.7108 -1.5934
 8030TIP3   OH224053   2.408   2.165   2.517 -1.0485  0.1366 -0.4732
 8030TIP3    H124054   2.420   2.249   2.560 -0.8778 -0.1639  0.0640
 8030TIP3    H224055   2.494   2.124   2.519 -1.1594 -0.1053 -0.6257
 8031TIP3   OH224056   3.907   2.019   3.021 -0.4016 -0.3347 -0.0654
 8031TIP3    H124057   3.889   2.051   3.110  0.2720 -2.2228  0.8070
 8031TIP3    H224058   3.821   1.997   2.985 -0.6532  0.1467  0.2270
 8032TIP3   OH224059   3.168   6.326   1.108 -0.3726 -0.0624  0.3034
 8032TIP3    H124060   3.091   6.272   1.086  0.0188 -0.1514 -0.9593
 8032TIP3    H224061   3.179   6.382   1.031  0.4586  0.3808  0.7440
 8033TIP3   OH224062   2.779   4.349   4.835 -0.0399  0.8337 -0.0986
 8033TIP3    H124063   2.793   4.365   4.928  2.8491 -0.3773 -0.2149
 8033TIP3    H224064   2.776   4.254   4.827 -1.6550  0.9296 -1.1354
 8034TIP3   OH224065   2.371   5.009   4.163 -0.3221 -0.1244  0.5868
 8034TIP3    H124066   2.358   5.098   4.130  0.1925 -0.5848 -0.9085
 8034TIP3    H224067   2.420   4.964   4.094  0.7395 -1.1588  1.9655
 8035TIP3   OH224068   1.822   0.818   4.002 -0.3487 -0.4908  0.3307
 8035TIP3    H124069   1.779   0.846   3.922 -0.3555 -1.3947 -0.0022
 8035TIP3    H224070   1.841   0.898   4.050 -0.2424  0.0691 -0.6344
 8036TIP3   OH224071   5.787   3.324   0.997 -0.0977 -0.4857  0.4714
 8036TIP3    H124072   5.699   3.334   0.962 -0.1262 -2.1282 -0.0564
 8036TIP3    H224073   5.778   3.258   1.066  0.8721 -1.6494 -0.4544
 8037TIP3   OH224074   1.403   2.567   0.240  0.1380  0.1908  0.0843
 8037TIP3    H124075   1.466   2.636   0.262  0.4842  0.4490 -1.6319
 8037TIP3    H224076   1.363   2.596   0.158 -2.7081  0.3433  1.3984
 8038TIP3   OH224077   6.196   6.446   2.507  0.1323 -0.2754  0.5797
 8038TIP3    H124078   6.238   6.474   2.426  0.5601 -0.0123  0.8817
 8038TIP3    H224079   6.242   6.494   2.575  0.2418 -1.0030  1.0371
 8039TIP3   OH224080   4.196   2.356   3.037 -0.6828  0.3982  0.4732
 8039TIP3    H124081   4.171   2.278   2.987  0.5906 -0.7212  1.5115
 8039TIP3    H224082   4.272   2.391   2.990 -0.0519 -0.1263  1.0888
 8040TIP3   OH224083   5.123   3.151   5.004 -0.1500 -0.1868  0.0109
 8040TIP3    H124084   5.118   3.056   5.001  0.0973 -0.1915 -0.4418
 8040TIP3    H224085   5.046   3.181   4.957  0.2602 -0.1796 -0.6733
 8041TIP3   OH224086   6.245   0.132   3.216 -0.0494  0.1896 -0.1894
 8041TIP3    H124087   6.156   0.125   3.250 -0.9817  0.1463 -2.4663
 8041TIP3    H224088   6.283   0.207   3.262 -1.1243  0.0020  1.0553
 8042TIP3   OH224089   4.206   5.177   0.713  0.4386  0.3699  0.1200
 8042TIP3    H124090   4.179   5.090   0.684  2.5877 -0.6533  0.9593
 8042TIP3    H224091   4.192   5.176   0.808  1.1462  0.6559  0.2327
 8043TIP3   OH224092   4.291   3.154   3.868 -0.2615 -0.3318 -0.6287
 8043TIP3    H124093   4.330   3.228   3.821 -0.1441  0.7825  1.1473
 8043TIP3    H224094   4.212   3.133   3.818 -0.0073  0.6291 -1.4640
 8044TIP3   OH224095   2.238   4.495   0.406  0.0585 -0.5468  0.7413
 8044TIP3    H124096   2.290   4.428   0.362 -1.6165 -1.2531 -0.2535
 8044TIP3    H224097   2.299   4.567   0.421  0.8726 -0.5425 -2.1345
 8045TIP3   OH224098   0.299   3.803   2.556 -0.1340  0.2141 -0.1365
 8045TIP3    H124099   0.348   3.738   2.505  0.8193  0.7276  0.1026
 8045TIP3    H224100   0.241   3.844   2.492 -0.3805 -0.5065 -0.3946
 8046TIP3   OH224101   6.370   5.481   1.593 -0.8577  0.3808  0.1753
 8046TIP3    H124102   6.382   5.454   1.684 -0.8383 -1.0636 -0.2339
 8046TIP3    H224103   6.276   5.481   1.579 -0.8911  1.1457  0.3333
 8047TIP3   OH224104   0.939   1.863   4.391  0.3749  0.1111 -0.4070
 8047TIP3    H124105   0.908   1.821   4.471  0.0285 -2.2474 -1.7095
 8047TIP3    H224106   0.864   1.863   4.332  0.2003  3.1077 -0.3449
 8048TIP3   OH224107   0.082   4.660   4.040 -0.1588 -0.2909  0.1245
 8048TIP3    H124108   0.013   4.702   3.988  0.9529  3.0715  1.1354
 8048TIP3    H224109   0.156   4.654   3.980 -0.0500 -0.0289  0.2354
 8049TIP3   OH224110   1.637   3.817   5.540 -0.1277  0.1794 -0.4436
 8049TIP3    H124111   1.573   3.769   5.487  0.7158 -2.8786  1.0925
 8049TIP3    H224112   1.675   3.881   5.479 -1.0689 -1.3332 -2.7685
 8050TIP3   OH224113   4.702   5.960   5.173 -0.1920  0.1974  0.3761
 8050TIP3    H124114   4.663   5.980   5.258 -0.2230  0.6537  0.2564
 8050TIP3    H224115   4.630   5.927   5.120 -0.0366 -0.7623  0.7402
 8051TIP3   OH224116   3.478   0.413   2.625 -0.3977 -0.2943  0.2921
 8051TIP3    H124117   3.510   0.418   2.715 -1.0949  0.2461  0.5237
 8051TIP3    H224118   3.529   0.478   2.577 -0.8570  0.2776  0.5687
 8052TIP3   OH224119   0.115   5.730   5.113  0.1199 -0.2673  0.6419
 8052TIP3    H124120   0.043   5.752   5.172 -0.8263 -1.8550  0.1307
 8052TIP3    H224121   0.176   5.679   5.167  0.1158 -0.2256  0.6856
 8053TIP3   OH224122   4.270   0.872   5.319 -0.2450 -0.4338  0.6326
 8053TIP3    H124123   4.297   0.927   5.245  1.4913 -0.8481  0.9343
 8053TIP3    H224124   4.276   0.783   5.285 -0.9060 -0.5672  0.8396
 8054TIP3   OH224125   4.547   5.225   3.194 -0.0471 -0.3849 -0.3085
 8054TIP3    H124126   4.624   5.265   3.152 -1.1610  0.6843 -1.3962
 8054TIP3    H224127   4.553   5.252   3.285 -0.1847  1.4033 -0.7969
 8055TIP3   OH224128   6.985   2.703   2.196 -0.0012 -0.3509  0.4652
 8055TIP3    H124129   6.921   2.645   2.155 -1.9185  0.5624  1.9985
 8055TIP3    H224130   7.011   2.658   2.276  0.6153 -0.3299  0.2796
 8056TIP3   OH224131   6.108   6.129   4.969 -0.4265 -0.0568  0.0258
 8056TIP3    H124132   6.061   6.129   5.053 -0.8538  0.1505 -0.2065
 8056TIP3    H224133   6.198   6.105   4.991 -0.3900  0.6117  0.6289
 8057TIP3   OH224134   4.008   2.006   5.754 -0.0255  0.1599  0.4649
 8057TIP3    H124135   4.086   2.062   5.750  0.0915  0.1331  1.8932
 8057TIP3    H224136   4.028   1.933   5.695  1.5002 -0.3816  1.5766
 8058TIP3   OH224137   3.121   5.013   2.994 -0.1946  0.1462  0.9130
 8058TIP3    H124138   3.142   5.053   3.079  1.3922 -0.3080  0.7620
 8058TIP3    H224139   3.183   5.053   2.933  1.1889 -2.1707  0.6821
 8059TIP3   OH224140   5.175   5.577   3.713 -0.6067 -0.0214  0.6884
 8059TIP3    H124141   5.134   5.663   3.719 -1.1096 -0.2544  0.5801
 8059TIP3    H224142   5.239   5.576   3.785  0.6222  1.0904 -0.3453
 8060TIP3   OH224143   3.416   3.212   3.469 -0.5438  0.0904 -0.0979
 8060TIP3    H124144   3.333   3.260   3.460 -0.9168 -0.7474 -1.5161
 8060TIP3    H224145   3.400   3.148   3.538 -0.9568  0.1809 -0.1068
 8061TIP3   OH224146   0.282   0.153   0.131 -0.3489 -0.2341 -0.1051
 8061TIP3    H124147   0.218   0.202   0.080  0.1684  1.1357  0.4938
 8061TIP3    H224148   0.239   0.136   0.215  0.0561  0.7198  0.3114
 8062TIP3   OH224149   2.372   1.616   4.811  0.4954 -0.1468  0.2266
 8062TIP3    H124150   2.461   1.582   4.804  0.2276 -0.7519 -0.2917
 8062TIP3    H224151   2.353   1.652   4.724  0.0682 -0.4405  0.1948
 8063TIP3   OH224152   4.690   4.014   1.983 -0.6377 -0.2383  0.3301
 8063TIP3    H124153   4.640   3.997   2.063 -1.5471  0.0246 -0.1673
 8063TIP3    H224154   4.674   4.107   1.963  1.1272  0.2292  0.8762
 8064TIP3   OH224155   0.071   2.455   1.442 -0.1409  0.6492 -0.0955
 8064TIP3    H124156   0.009   2.512   1.485 -1.1435  0.1953 -0.8907
 8064TIP3    H224157   0.147   2.510   1.423 -0.1375  1.1123  1.2208
 8065TIP3   OH224158   2.152   4.746   4.254 -0.1111 -0.2310 -0.4906
 8065TIP3    H124159   2.209   4.695   4.311 -0.4954 -1.0589 -0.8172
 8065TIP3    H224160   2.134   4.826   4.302  0.2659 -0.5428  0.1755
 8066TIP3   OH224161   1.640   0.427   5.416 -0.2936  0.3674  0.1438
 8066TIP3    H124162   1.613   0.504   5.366  1.3556  0.3463 -0.8760
 8066TIP3    H224163   1.560   0.375   5.427 -0.8260  0.6351 -2.0608
 8067TIP3   OH224164   0.998   1.672   1.833  0.0066  0.2162 -0.6815
 8067TIP3    H124165   0.991   1.649   1.925  0.9009 -0.3193 -0.7375
 8067TIP3    H224166   0.925   1.626   1.791 -0.7869  0.9694 -0.1627
 8068TIP3   OH224167   4.710   0.030   4.296 -0.4842  0.4935 -0.5258
 8068TIP3    H124168   4.633   0.085   4.310 -1.5995 -0.9052 -0.9644
 8068TIP3    H224169   4.730   0.040   4.203  0.9535  2.1731 -0.0927
 8069TIP3   OH224170   2.283   1.703   2.327  0.3787  0.2127 -0.0235
 8069TIP3    H124171   2.303   1.691   2.419  2.0749 -0.8182 -0.4812
 8069TIP3    H224172   2.229   1.627   2.304  1.2611 -0.3804 -0.2058
 8070TIP3   OH224173   5.425   0.393   5.172 -0.1179  0.6117 -0.1608
 8070TIP3    H124174   5.365   0.329   5.134  0.8633 -0.1893 -0.3768
 8070TIP3    H224175   5.372   0.440   5.236 -1.0073 -0.0090 -0.4280
 8071TIP3   OH224176   5.353   4.695   2.298  0.2243 -0.8973 -0.1105
 8071TIP3    H124177   5.362   4.772   2.243 -3.7421  0.7297  1.1664
 8071TIP3    H224178   5.429   4.698   2.357  0.7726  1.3941 -0.8423
 8072TIP3   OH224179   2.681   1.046   2.820  0.3430 -0.2574  0.1832
 8072TIP3    H124180   2.610   1.030   2.758  1.4186  0.3800 -1.2624
 8072TIP3    H224181   2.738   0.969   2.812  0.3546 -0.2954  0.5935
 8073TIP3   OH224182   5.929   6.215   4.018 -0.2556  0.1094 -0.5587
 8073TIP3    H124183   5.999   6.238   3.957 -0.2580 -0.6942 -0.8847
 8073TIP3    H224184   5.934   6.120   4.025 -0.7996  0.1194  0.0437
 8074TIP3   OH224185   1.250   0.845   0.972 -0.4441  0.4892  0.1250
 8074TIP3    H124186   1.247   0.879   1.062  0.2454  2.2585 -0.4911
 8074TIP3    H224187   1.293   0.759   0.981 -0.2446  0.7040  1.4629
 8075TIP3   OH224188   3.288   2.351   0.347  0.1438  0.4092 -0.2247
 8075TIP3    H124189   3.261   2.435   0.310 -0.7671  0.7546  1.1647
 8075TIP3    H224190   3.359   2.372   0.407 -0.0179  0.1790  0.0512
 8076TIP3   OH224191   4.679   3.633   2.680 -0.3941  0.6207 -0.4964
 8076TIP3    H124192   4.677   3.686   2.600 -2.2934  0.8791 -0.3172
 8076TIP3    H224193   4.720   3.689   2.745  0.1504  0.8150 -0.9950
 8077TIP3   OH224194   1.697   3.966   1.959 -0.0115 -0.1539 -0.1544
 8077TIP3    H124195   1.631   3.984   1.892  0.6065  2.4594 -0.1509
 8077TIP3    H224196   1.770   4.024   1.937  1.0919 -0.8175  1.5503
 8078TIP3   OH224197   4.662   0.014   2.994  0.2006 -0.1628  0.6106
 8078TIP3    H124198   4.744   0.053   2.964  0.3757  0.4974  1.8509
 8078TIP3    H224199   4.689  -0.060   3.048 -0.0186  0.0797  1.0514
 8079TIP3   OH224200   0.632   0.776   1.709 -0.1455  0.5948 -0.2836
 8079TIP3    H124201   0.724   0.774   1.683 -0.2857  1.6201 -0.9041
 8079TIP3    H224202   0.597   0.692   1.679  0.5057  0.3311 -0.3261
 8080TIP3   OH224203   5.091   5.329   5.207  0.1094  0.5033 -0.5069
 8080TIP3    H124204   5.134   5.281   5.137 -0.2135  0.5440 -0.7315
 8080TIP3    H224205   5.061   5.410   5.166 -1.0956  0.0278 -0.6041
 8081TIP3   OH224206   1.322   4.334   0.465 -0.0837 -0.1444  0.0923
 8081TIP3    H124207   1.259   4.397   0.500 -0.9465  0.1023 -1.7654
 8081TIP3    H224208   1.373   4.384   0.401  0.0771 -1.0042 -0.4715
 8082TIP3   OH224209   5.504   0.324   1.774 -0.0067 -0.3673  0.1481
 8082TIP3    H124210   5.561   0.327   1.697 -1.8887  1.2390 -1.3029
 8082TIP3    H224211   5.535   0.396   1.829 -0.2585  0.1503 -0.3731
 8083TIP3   OH224212   0.364   1.898   1.989 -0.5348 -0.2380  0.1649
 8083TIP3    H124213   0.433   1.833   2.005  1.2998  1.2415 -1.3011
 8083TIP3    H224214   0.361   1.949   2.070  0.8214  0.2813 -0.0841
 8084TIP3   OH224215   5.311   5.621   0.244  0.0033  0.8023  0.1158
 8084TIP3    H124216   5.269   5.625   0.329 -0.9468  1.9594 -0.3855
 8084TIP3    H224217   5.339   5.710   0.226  1.0241  0.3992 -0.3925
 8085TIP3   OH224218   3.479   4.440   3.134  0.1463  0.1726 -0.4292
 8085TIP3    H124219   3.509   4.355   3.166 -1.5876  0.8248  3.5033
 8085TIP3    H224220   3.549   4.501   3.158 -0.2573  0.3793  0.2341
 8086TIP3   OH224221   1.293   1.355   0.636  0.5816  0.3317  0.2616
 8086TIP3    H124222   1.268   1.266   0.612 -0.8269  1.2047 -1.8472
 8086TIP3    H224223   1.386   1.360   0.612  0.4210 -0.2927 -0.5674
 8087TIP3   OH224224   0.301   6.074   1.329  0.2090  0.1293 -0.7487
 8087TIP3    H124225   0.382   6.058   1.281  0.3151  1.9867 -1.2832
 8087TIP3    H224226   0.305   6.167   1.352 -0.4829 -0.3566  1.6927
 8088TIP3   OH224227   1.011   1.918   1.728 -0.0659  0.5283 -0.0455
 8088TIP3    H124228   1.026   1.830   1.762  0.2592  0.7897  0.4959
 8088TIP3    H224229   1.027   1.910   1.634 -0.3436 -0.0586 -0.0459
 8089TIP3   OH224230   6.591   2.983   0.679 -0.5969  0.7719  0.1037
 8089TIP3    H124231   6.509   2.958   0.723  0.0186 -1.2601  0.2330
 8089TIP3    H224232   6.564   3.013   0.593 -1.4791 -0.5433 -0.1160
 8090TIP3   OH224233   1.608   1.301   5.143  0.0137 -0.3676  0.0590
 8090TIP3    H124234   1.656   1.219   5.154  0.8402  0.0055 -0.6814
 8090TIP3    H224235   1.676   1.369   5.140 -0.6703  0.3795  0.9040
 8091TIP3   OH224236   0.235   5.543   0.292  0.8748 -0.4208 -0.5966
 8091TIP3    H124237   0.307   5.486   0.265  0.3180 -1.9444  0.9884
 8091TIP3    H224238   0.191   5.496   0.362 -1.7532  0.4045 -1.5558
 8092TIP3   OH224239   3.014   4.750   3.465  0.2418 -0.0090 -0.2502
 8092TIP3    H124240   3.091   4.807   3.472  0.3966 -0.1930 -0.4291
 8092TIP3    H224241   2.944   4.808   3.433 -0.1139  0.5158  1.3779
 8093TIP3   OH224242   4.819   1.631   4.853 -0.3660 -0.3579  0.7414
 8093TIP3    H124243   4.730   1.635   4.889  0.1410  0.4347  1.9863
 8093TIP3    H224244   4.874   1.672   4.921  1.2905 -2.8236  1.0191
 8094TIP3   OH224245   3.040   0.893   2.298  0.3880  0.0226 -0.7921
 8094TIP3    H124246   3.081   0.819   2.342  1.1414  0.2744 -1.0579
 8094TIP3    H224247   3.002   0.856   2.218  0.6563 -0.1023 -0.8625
 8095TIP3   OH224248   0.528   3.734   4.112  0.0113 -0.8433  0.8001
 8095TIP3    H124249   0.565   3.698   4.032 -1.0347 -0.8978  0.3302
 8095TIP3    H224250   0.520   3.659   4.171 -2.5080 -1.5463 -0.3005
 8096TIP3   OH224251   1.227   2.194   0.392 -0.7082  0.8865  0.4230
 8096TIP3    H124252   1.244   2.137   0.467 -0.9725 -0.5007 -0.5361
 8096TIP3    H224253   1.313   2.229   0.369 -0.4430  0.4170  0.6726
 8097TIP3   OH224254   5.903   1.549   3.645  0.3853 -0.1722 -0.2649
 8097TIP3    H124255   5.818   1.593   3.650  0.3833  0.0099 -1.6535
 8097TIP3    H224256   5.887   1.461   3.680 -0.0761  0.2639  0.6368
 8098TIP3   OH224257   0.152   4.189   0.147  0.5660 -0.6158  0.3593
 8098TIP3    H124258   0.103   4.267   0.172 -1.1241 -1.5664  0.1504
 8098TIP3    H224259   0.174   4.147   0.230 -1.9279 -1.8935  0.4789
 8099TIP3   OH224260   5.195   4.334   5.880  0.1435  0.9957  0.6458
 8099TIP3    H124261   5.182   4.384   5.960  0.1479  3.6878 -0.8897
 8099TIP3    H224262   5.134   4.373   5.817  1.7313  0.5800 -1.2863
 8100TIP3   OH224263   5.813   2.259   3.451 -0.1414 -0.1096  0.1561
 8100TIP3    H124264   5.734   2.206   3.441 -0.0802 -0.5396  1.6475
 8100TIP3    H224265   5.855   2.256   3.365 -2.6045  1.6040 -1.2038
 8101TIP3   OH224266   5.232   2.279   0.296  0.2647  0.0382  0.3785
 8101TIP3    H124267   5.201   2.216   0.360 -1.0134 -0.7278 -0.9627
 8101TIP3    H224268   5.313   2.240   0.261 -0.8748 -1.2401 -0.9372
 8102TIP3   OH224269   6.530   6.379   3.499 -0.1901 -0.0385 -0.2456
 8102TIP3    H124270   6.540   6.463   3.454  1.3658  0.7705  1.5101
 8102TIP3    H224271   6.585   6.386   3.577 -1.8344 -1.8391  1.1760
 8103TIP3   OH224272   6.935   3.230   4.896 -0.2087  0.8683 -0.4131
 8103TIP3    H124273   6.870   3.161   4.881  1.5739 -1.0693  0.3077
 8103TIP3    H224274   6.925   3.254   4.989  1.8741 -1.5198  0.5470
 8104TIP3   OH224275   1.920   0.592   5.407  0.1832 -0.4764  0.1854
 8104TIP3    H124276   1.924   0.515   5.351  1.7767 -1.3175  1.3889
 8104TIP3    H224277   1.853   0.648   5.366 -2.3147 -3.1985  0.2192
 8105TIP3   OH224278   6.122   3.015   3.926 -0.1757 -0.2676 -0.3086
 8105TIP3    H124279   6.057   2.947   3.905 -1.5082  0.9288 -0.2255
 8105TIP3    H224280   6.099   3.044   4.014  0.1259  0.5654 -0.4995
 8106TIP3   OH224281   6.356   2.954   5.390 -0.6786  0.2108 -0.4542
 8106TIP3    H124282   6.348   2.877   5.333  0.1802 -0.0344 -0.2576
 8106TIP3    H224283   6.350   3.028   5.331 -2.3340  0.0336 -0.5564
 8107TIP3   OH224284   5.185   4.662   0.257 -0.6532  0.1424  0.0493
 8107TIP3    H124285   5.217   4.587   0.308 -2.3666 -0.4840  0.2874
 8107TIP3    H224286   5.247   4.671   0.185  0.6578 -0.2795  1.0842
 8108TIP3   OH224287   3.303   3.006   3.209  0.3213  0.1145 -0.0293
 8108TIP3    H124288   3.339   2.956   3.136 -0.1410  0.6310 -0.6243
 8108TIP3    H224289   3.379   3.046   3.251  0.6022 -0.3064 -0.1349
 8109TIP3   OH224290   5.239   3.154   2.532 -0.3096  0.3233  0.0219
 8109TIP3    H124291   5.223   3.097   2.457  0.5868 -2.4671  1.8381
 8109TIP3    H224292   5.333   3.170   2.531  0.2659 -2.3318  2.1838
 8110TIP3   OH224293   4.417   5.433   4.674 -0.0784 -0.1077  0.1439
 8110TIP3    H124294   4.336   5.382   4.683 -1.0180  1.5745  2.1335
 8110TIP3    H224295   4.388   5.518   4.643  1.0855  0.1522 -0.2705
 8111TIP3   OH224296   0.801   1.403   3.021  0.1041 -0.3306 -0.0025
 8111TIP3    H124297   0.738   1.461   2.978 -0.4352 -1.1000 -0.2881
 8111TIP3    H224298   0.797   1.322   2.970  0.1895 -0.9225  0.9030
 8112TIP3   OH224299   1.692   1.763   0.646  0.2848  0.0023  0.1124
 8112TIP3    H124300   1.632   1.705   0.598 -0.4570 -2.2084  3.3852
 8112TIP3    H224301   1.637   1.837   0.672 -0.2383 -0.4998  0.4663
 8113TIP3   OH224302   0.486   1.165   5.765  0.1144  0.0077  0.4646
 8113TIP3    H124303   0.413   1.225   5.780 -0.8963 -1.2447  0.7414
 8113TIP3    H224304   0.513   1.139   5.853  1.6658  1.3270  0.4087
 8114TIP3   OH224305   6.920   5.425   1.550  0.0774  0.7395  0.1803
 8114TIP3    H124306   6.904   5.390   1.462 -2.8179  1.4165  0.3249
 8114TIP3    H224307   6.833   5.428   1.591  1.0938  2.0842  2.4459
 8115TIP3   OH224308   4.251   4.303   5.443  0.3822  0.4122  0.1800
 8115TIP3    H124309   4.182   4.321   5.379 -0.8810 -0.0605  1.3532
 8115TIP3    H224310   4.213   4.330   5.527  1.7114  0.3238  0.8345
 8116TIP3   OH224311   0.443   3.034   0.960  0.2426  0.4568  0.2516
 8116TIP3    H124312   0.357   3.045   1.002 -0.3842 -0.0428 -0.8572
 8116TIP3    H224313   0.426   2.975   0.887  1.3377  1.1873 -0.6129
 8117TIP3   OH224314   6.378   2.522   5.384 -0.2012 -0.0929 -0.2945
 8117TIP3    H124315   6.364   2.575   5.463  0.6723  1.2764 -1.0035
 8117TIP3    H224316   6.470   2.539   5.361  0.1590 -2.0974 -0.4602
 8118TIP3   OH224317   6.316   5.359   2.094  0.6892 -0.4429  0.2738
 8118TIP3    H124318   6.343   5.429   2.153 -2.4880 -0.5426  2.0172
 8118TIP3    H224319   6.299   5.285   2.151 -3.5951 -0.2178 -0.4074
 8119TIP3   OH224320   0.838   4.052   1.657 -0.2793 -0.2168  0.1055
 8119TIP3    H124321   0.747   4.064   1.631 -0.7394 -2.4150  0.5170
 8119TIP3    H224322   0.847   4.101   1.739 -0.5945  1.3957 -0.7945
 8120TIP3   OH224323   2.499   3.937   4.149  0.0204  0.7508 -0.3856
 8120TIP3    H124324   2.511   3.861   4.092 -0.2550 -0.5121  1.1746
 8120TIP3    H224325   2.466   4.006   4.090  1.2219 -0.0001 -2.0163
 8121TIP3   OH224326   2.755   1.004   1.956  0.4468  0.0306 -0.0098
 8121TIP3    H124327   2.803   0.952   2.020 -1.9423 -1.5098  0.6917
 8121TIP3    H224328   2.811   1.005   1.879  1.2438 -2.4731  0.4263
 8122TIP3   OH224329   0.660   2.889   0.211 -0.2873  0.2612 -0.2717
 8122TIP3    H124330   0.609   2.837   0.274 -2.3143  2.5031  0.0912
 8122TIP3    H224331   0.747   2.849   0.212 -1.2564 -2.0277  1.2219
 8123TIP3   OH224332   0.475   2.629   5.292 -0.1139  0.0190  0.2027
 8123TIP3    H124333   0.458   2.566   5.222  1.3554  1.4571 -1.5665
 8123TIP3    H224334   0.570   2.642   5.290 -0.4770  3.5130 -0.7427
 8124TIP3   OH224335   3.509   3.981   4.164  0.1813  0.0747  0.2186
 8124TIP3    H124336   3.598   3.981   4.198  0.0414  1.3503  0.6461
 8124TIP3    H224337   3.474   3.895   4.187  0.5716  0.3651  2.0565
 8125TIP3   OH224338   0.344   4.257   2.221  0.0311  0.0290  0.6070
 8125TIP3    H124339   0.274   4.223   2.164 -1.5464  0.5272  2.1573
 8125TIP3    H224340   0.338   4.352   2.210  0.6886  0.0603  0.5139
 8126TIP3   OH224341   2.656   0.915   1.207 -0.1975 -0.0006 -0.2329
 8126TIP3    H124342   2.705   0.940   1.129  0.9834  1.3980  0.8915
 8126TIP3    H224343   2.636   0.998   1.250  0.9113 -0.8017  1.9533
 8127TIP3   OH224344   4.900   6.645   3.804 -0.4149 -0.2740 -0.1824
 8127TIP3    H124345   4.861   6.726   3.771  1.2590  0.5342 -0.2553
 8127TIP3    H224346   4.957   6.673   3.875 -0.4476 -1.5024  0.3477
 8128TIP3   OH224347   3.753   4.717   1.770  0.1207  0.2891 -0.2010
 8128TIP3    H124348   3.752   4.767   1.851 -2.1843  0.5554 -0.3202
 8128TIP3    H224349   3.744   4.626   1.798 -1.1151  0.4153 -0.1395
 8129TIP3   OH224350   0.260   1.925   5.446  0.0012 -0.4163  0.2300
 8129TIP3    H124351   0.254   1.903   5.539  1.0106 -0.4510  0.3006
 8129TIP3    H224352   0.311   2.006   5.444 -2.1810  1.0384 -0.1392
 8130TIP3   OH224353   4.180   5.156   3.605 -0.5056 -0.5406 -1.3067
 8130TIP3    H124354   4.212   5.089   3.665 -0.1968 -0.7737 -1.7218
 8130TIP3    H224355   4.176   5.236   3.657 -1.2517 -0.9562 -0.6969
 8131TIP3   OH224356   4.796   2.331   1.819 -0.5818 -0.5351 -0.3467
 8131TIP3    H124357   4.714   2.380   1.827 -0.9878 -1.1279 -0.7297
 8131TIP3    H224358   4.844   2.376   1.749 -1.1183 -0.8902 -0.9621
 8132TIP3   OH224359   0.391   6.084   3.588  0.2942  0.1467 -0.7259
 8132TIP3    H124360   0.428   6.042   3.666 -0.4340 -0.7422 -0.8380
 8132TIP3    H224361   0.428   6.172   3.589  1.5013 -0.3364 -0.2181
 8133TIP3   OH224362   4.910   5.979   4.854  0.1713 -0.0781 -0.3196
 8133TIP3    H124363   4.920   6.011   4.764 -0.6052  2.4126  0.3937
 8133TIP3    H224364   4.817   5.956   4.862 -0.2705  1.7925  0.4042
 8134TIP3   OH224365   5.621   1.480   1.095 -0.3056 -0.0621 -0.0223
 8134TIP3    H124366   5.679   1.485   1.171 -1.1771  1.1565  0.6165
 8134TIP3    H224367   5.613   1.570   1.065 -1.1636 -0.3257 -0.6334
 8135TIP3   OH224368   5.986   6.070   5.227 -0.0769  0.0306 -0.4754
 8135TIP3    H124369   5.922   6.003   5.201 -1.5978  0.8747  0.9192
 8135TIP3    H224370   6.008   6.047   5.317 -0.7526  1.4748  0.0775
 8136TIP3   OH224371   3.860   5.149   0.389 -0.0835 -0.7432  0.0135
 8136TIP3    H124372   3.933   5.206   0.414  0.6784 -1.1548 -1.1966
 8136TIP3    H224373   3.886   5.062   0.416  0.2199 -1.0077 -1.0973
 8137TIP3   OH224374   2.086   5.727   0.815  0.2401  0.2763 -0.3563
 8137TIP3    H124375   2.081   5.760   0.904 -0.2683  1.2754 -0.7371
 8137TIP3    H224376   2.164   5.769   0.779  0.6891 -0.4598 -0.2582
 8138TIP3   OH224377   2.330   2.439   2.212  0.0971  0.2937  0.1828
 8138TIP3    H124378   2.382   2.514   2.183  0.2085  0.0494 -0.2516
 8138TIP3    H224379   2.244   2.454   2.173 -0.2924  0.9069  1.2287
 8139TIP3   OH224380   7.143   3.168   4.445 -0.2851  0.2066 -0.1871
 8139TIP3    H124381   7.139   3.111   4.522 -0.5540  1.9378  1.1615
 8139TIP3    H224382   7.232   3.160   4.413  0.1337  0.2190  0.9422
 8140TIP3   OH224383   0.481   4.553   0.024 -0.4159 -0.4320 -0.1295
 8140TIP3    H124384   0.490   4.515   0.111  1.2098 -0.4568 -0.2847
 8140TIP3    H224385   0.416   4.623   0.035 -1.4121 -1.4656  0.7393
 8141TIP3   OH224386   1.873   2.168   4.222  0.0031  0.2883  0.2372
 8141TIP3    H124387   1.892   2.255   4.256 -2.6065  0.1897  2.2340
 8141TIP3    H224388   1.831   2.122   4.295 -1.2469 -1.6946 -1.6033
 8142TIP3   OH224389   3.338   2.085   4.751  0.3820  0.1922 -0.5531
 8142TIP3    H124390   3.303   2.158   4.700  1.0356  0.9593  0.0549
 8142TIP3    H224391   3.377   2.127   4.828 -0.2431 -0.9064  0.3804
 8143TIP3   OH224392   2.671   5.703   5.302  0.3248 -0.4091 -0.6499
 8143TIP3    H124393   2.650   5.794   5.323  0.1365 -0.5126 -0.3813
 8143TIP3    H224394   2.640   5.654   5.378  1.6744 -0.5608 -0.1831
 8144TIP3   OH224395   2.985   1.819   4.552 -0.4842  0.6081 -0.6925
 8144TIP3    H124396   3.043   1.837   4.478 -0.6150 -0.5075 -1.0844
 8144TIP3    H224397   3.034   1.846   4.629  0.0144  0.9386 -1.1221
 8145TIP3   OH224398   2.631   5.428   0.913  0.2378 -0.0667  0.1072
 8145TIP3    H124399   2.606   5.347   0.869 -0.6665  1.2839 -1.9835
 8145TIP3    H224400   2.597   5.417   1.002 -0.4267 -1.7225 -0.3015
 8146TIP3   OH224401   5.672   2.147   1.004  0.1744 -0.0567  0.4296
 8146TIP3    H124402   5.605   2.106   1.060 -0.9435 -0.2200 -0.9680
 8146TIP3    H224403   5.635   2.144   0.916  1.5052  1.0002 -0.2075
 8147TIP3   OH224404   2.573   2.416   2.455 -0.7232  0.1508 -0.3890
 8147TIP3    H124405   2.612   2.499   2.427 -0.5041  0.0304 -0.4397
 8147TIP3    H224406   2.488   2.413   2.410 -1.2332  0.8755  0.4966
 8148TIP3   OH224407   1.903   0.986   5.056  0.7010 -0.3874 -0.5814
 8148TIP3    H124408   1.882   0.964   4.966 -0.8067  0.6603 -0.5155
 8148TIP3    H224409   1.978   1.045   5.050 -1.0782  1.9620 -1.4139
 8149TIP3   OH224410   1.450   6.775   3.427 -0.0155 -0.2103 -0.4227
 8149TIP3    H124411   1.420   6.747   3.340 -1.9492  0.7581 -0.1164
 8149TIP3    H224412   1.394   6.850   3.449  0.7874 -0.1053  1.4441
 8150TIP3   OH224413   1.847   6.227   1.425  0.6415 -0.1692 -0.1098
 8150TIP3    H124414   1.845   6.140   1.464  0.2974 -0.3480 -0.5205
 8150TIP3    H224415   1.757   6.244   1.398  0.6488  0.4362  0.2262
 8151TIP3   OH224416   4.387   2.131   1.139  0.1383  0.0126  0.5927
 8151TIP3    H124417   4.375   2.157   1.230  0.9515  0.8254  0.4804
 8151TIP3    H224418   4.466   2.077   1.140  0.6131  0.6835  0.2645
 8152TIP3   OH224419   1.608   4.348   4.763 -0.6760  0.0592 -0.2589
 8152TIP3    H124420   1.580   4.257   4.763 -1.3439  0.2453 -1.6664
 8152TIP3    H224421   1.555   4.390   4.696 -0.4747  1.5287  0.4552
 8153TIP3   OH224422   2.602   5.243   3.215 -0.1086  0.1078 -0.4415
 8153TIP3    H124423   2.606   5.303   3.140 -1.0080  0.1261 -0.4912
 8153TIP3    H224424   2.530   5.183   3.194 -0.0626 -0.1770  0.1935
 8154TIP3   OH224425   0.519   2.012   1.468 -0.4391  0.3342  0.1069
 8154TIP3    H124426   0.521   1.919   1.489 -1.6603  0.0135 -1.0738
 8154TIP3    H224427   0.483   2.016   1.379  0.3383  1.8873 -0.1743
 8155TIP3   OH224428   2.803   3.469   2.047  0.7707 -0.2782  0.4790
 8155TIP3    H124429   2.760   3.507   1.970 -1.7239 -0.3398  1.7531
 8155TIP3    H224430   2.734   3.462   2.112  2.4560 -1.6851  2.2305
 8156TIP3   OH224431   0.232   2.588   3.311  0.3637  0.4632  0.2239
 8156TIP3    H124432   0.243   2.632   3.395 -0.6914  1.2304 -0.0264
 8156TIP3    H224433   0.308   2.529   3.305 -1.0057 -1.7900  3.0201
 8157TIP3   OH224434   4.572   1.648   4.613 -0.0062  0.5119 -0.2771
 8157TIP3    H124435   4.663   1.650   4.641 -0.8470 -0.1663  2.8191
 8157TIP3    H224436   4.544   1.558   4.629 -1.4691  0.9462 -0.2570
 8158TIP3   OH224437   3.731   2.512   3.280 -0.6159 -0.2124  0.0836
 8158TIP3    H124438   3.814   2.534   3.322 -0.6232  0.1297 -0.0768
 8158TIP3    H224439   3.751   2.435   3.227 -0.2828  0.1465 -0.3189
 8159TIP3   OH224440   2.422   4.286   0.396  0.3785  0.0760  0.2815
 8159TIP3    H124441   2.371   4.205   0.399  0.3576  0.0841  0.1495
 8159TIP3    H224442   2.475   4.284   0.476 -1.0886  0.8946  1.3255
 8160TIP3   OH224443   5.521   2.378   3.632  0.2454  0.4267 -0.3655
 8160TIP3    H124444   5.516   2.359   3.538  0.9719 -2.0736  0.0282
 8160TIP3    H224445   5.575   2.308   3.668 -0.1299  1.2358  1.9658
 8161TIP3   OH224446   2.633   3.206   1.906  0.1845 -0.3496  0.5003
 8161TIP3    H124447   2.549   3.247   1.926  0.2330  0.1506 -0.2880
 8161TIP3    H224448   2.692   3.279   1.890  0.1692 -0.7061 -1.3398
 8162TIP3   OH224449   1.307   4.154   5.022  0.4700  0.6731 -0.1878
 8162TIP3    H124450   1.339   4.208   5.095  0.9398  1.1957 -0.7630
 8162TIP3    H224451   1.360   4.075   5.026 -0.1148  0.3149  0.5706
 8163TIP3   OH224452   4.451   3.461   1.332  0.3737  0.1845 -0.1014
 8163TIP3    H124453   4.439   3.401   1.406 -0.5485  1.0620  0.4936
 8163TIP3    H224454   4.362   3.480   1.303  0.7141  0.1576 -1.2062
 8164TIP3   OH224455   3.696   0.519   4.283 -0.0962  0.2920 -0.1428
 8164TIP3    H124456   3.664   0.596   4.236  0.4624  1.0693  0.7352
 8164TIP3    H224457   3.784   0.505   4.248 -0.8961 -1.1919 -1.7596
 8165TIP3   OH224458   1.204   6.567   1.680  0.8565  0.7049 -0.0681
 8165TIP3    H124459   1.293   6.576   1.715  0.0675  0.7578  2.0882
 8165TIP3    H224460   1.160   6.648   1.705 -0.0332  0.3172 -0.3392
 8166TIP3   OH224461   0.072   6.588   1.480  0.5334 -0.1374  0.1914
 8166TIP3    H124462   0.049   6.634   1.561 -0.1515  2.2139 -1.2507
 8166TIP3    H224463   0.022   6.506   1.484  0.7447 -0.2124  2.2443
 8167TIP3   OH224464   0.321   3.986   1.016 -0.6579 -0.4943 -0.0196
 8167TIP3    H124465   0.398   3.932   1.035  1.4427  2.2736  0.0142
 8167TIP3    H224466   0.286   4.010   1.102 -0.3962 -0.2241  0.0123
 8168TIP3   OH224467   3.761   6.066   3.130  0.1864 -0.2883  0.4350
 8168TIP3    H124468   3.739   6.155   3.103 -1.1614 -0.8273 -0.3432
 8168TIP3    H224469   3.682   6.033   3.172 -1.2388 -2.7436 -3.6075
 8169TIP3   OH224470   0.875   6.543   3.571 -0.1306  0.3804 -0.1007
 8169TIP3    H124471   0.869   6.609   3.640 -0.7037  2.2755 -1.8382
 8169TIP3    H224472   0.956   6.563   3.524 -0.4058 -0.0154 -0.7731
 8170TIP3   OH224473   6.605   3.753   2.161 -0.4809  0.1321 -0.1671
 8170TIP3    H124474   6.673   3.775   2.097  0.3972  1.3627  1.1363
 8170TIP3    H224475   6.537   3.818   2.146  0.3936  1.3988  1.0946
 8171TIP3   OH224476   2.526   0.086   2.371 -0.3742 -0.0166 -0.1800
 8171TIP3    H124477   2.544  -0.007   2.356  0.0484 -0.0987  0.7381
 8171TIP3    H224478   2.552   0.129   2.290  0.4070 -0.5925 -0.2477
 8172TIP3   OH224479   2.509   2.131   2.930  0.0925 -0.0896  0.0591
 8172TIP3    H124480   2.490   2.152   2.838 -1.7186 -0.4032  0.3251
 8172TIP3    H224481   2.485   2.039   2.939 -0.9347  0.2747  1.1399
 8173TIP3   OH224482   6.773   5.195   0.045 -0.0406  0.7994 -0.2824
 8173TIP3    H124483   6.706   5.126   0.047  0.9979 -0.2407  1.7795
 8173TIP3    H224484   6.850   5.154   0.083  0.7409  3.0089  0.6788
 8174TIP3   OH224485   6.820   4.980   0.678  0.1159 -0.0877 -0.1414
 8174TIP3    H124486   6.824   4.933   0.761  1.0756  1.0439  0.4800
 8174TIP3    H224487   6.736   4.954   0.640 -0.2364 -0.8060  1.0622
 8175TIP3   OH224488   5.801   1.768   1.885  0.0432  0.2500 -0.4529
 8175TIP3    H124489   5.836   1.765   1.974 -0.0681 -1.0727 -0.4333
 8175TIP3    H224490   5.719   1.719   1.890  0.2694 -0.2455 -1.3768
 8176TIP3   OH224491   2.656   2.555   2.148  0.4274 -0.1820 -0.0285
 8176TIP3    H124492   2.746   2.568   2.179  0.0874 -1.3616  1.5647
 8176TIP3    H224493   2.604   2.617   2.199 -0.1451 -2.1849  1.9873
 8177TIP3   OH224494   5.473   1.781   2.615  0.4159 -0.0032  0.0378
 8177TIP3    H124495   5.564   1.761   2.598  0.6583  0.5455  0.6274
 8177TIP3    H224496   5.471   1.876   2.627 -0.0487 -0.1156  1.0102
 8178TIP3   OH224497   3.368   4.794   0.478  0.2034  0.5718  0.1702
 8178TIP3    H124498   3.411   4.825   0.558 -1.0795  1.2131  0.6277
 8178TIP3    H224499   3.289   4.749   0.508  0.7736 -1.0500 -0.6344
 8179TIP3   OH224500   2.559   0.572   1.437  0.4178  0.4544 -0.1134
 8179TIP3    H124501   2.558   0.668   1.431 -0.5614  0.4191 -0.6692
 8179TIP3    H224502   2.595   0.554   1.524 -1.6909  1.3945  1.0167
 8180TIP3   OH224503   0.636   6.592   5.588 -0.0078  0.0066 -0.0182
 8180TIP3    H124504   0.696   6.533   5.633 -0.0181  1.1983  1.6702
 8180TIP3    H224505   0.692   6.665   5.559 -0.5369  1.1250  1.5707
 8181TIP3   OH224506   7.045   4.539   4.299 -0.4539 -0.4385  0.2201
 8181TIP3    H124507   7.113   4.606   4.292  0.5844 -1.4984 -0.0132
 8181TIP3    H224508   6.969   4.579   4.257 -0.6896  1.6228  2.3924
 8182TIP3   OH224509   5.798   4.466   5.840 -0.0999 -0.2112  0.2861
 8182TIP3    H124510   5.770   4.484   5.930  0.0635 -1.0528  0.5124
 8182TIP3    H224511   5.717   4.462   5.790 -0.2815 -0.9960  0.6331
 8183TIP3   OH224512   4.873   5.146   0.987  0.0650 -0.4958 -0.1849
 8183TIP3    H124513   4.826   5.080   0.938 -1.5982 -0.0301  0.7207
 8183TIP3    H224514   4.963   5.142   0.953 -0.3431 -2.1756 -1.1590
 8184TIP3   OH224515   6.695   3.280   2.319 -0.2260  0.1749  0.3515
 8184TIP3    H124516   6.732   3.212   2.264 -0.6563  0.5794 -0.4496
 8184TIP3    H224517   6.695   3.359   2.265  0.1055  0.7792  1.2071
 8185TIP3   OH224518   0.633   1.891   2.834  0.3425  0.1863  0.5041
 8185TIP3    H124519   0.592   1.808   2.807 -0.0965  0.7436 -0.6089
 8185TIP3    H224520   0.563   1.938   2.880  0.3252  0.2937  0.3699
 8186TIP3   OH224521   0.445   5.047   4.779 -0.0712 -0.3260 -0.3196
 8186TIP3    H124522   0.371   5.106   4.765 -0.8715 -1.3529 -0.5322
 8186TIP3    H224523   0.440   5.024   4.872  1.6856  1.7879  0.3879
 8187TIP3   OH224524   0.079   6.026   0.635  0.7027  0.4829 -0.1805
 8187TIP3    H124525   0.028   6.102   0.663 -0.5803 -1.0077  1.8303
 8187TIP3    H224526   0.154   6.023   0.694  0.4023 -0.1482  0.1816
 8188TIP3   OH224527   1.818   0.964   5.536  0.1076  0.7699 -0.5451
 8188TIP3    H124528   1.901   0.960   5.489  1.6662  0.7446  2.0055
 8188TIP3    H224529   1.799   1.058   5.543 -0.9481  0.7310 -2.4713
 8189TIP3   OH224530   5.206   1.792   2.181  0.2912 -0.6535 -0.1877
 8189TIP3    H124531   5.185   1.842   2.102  2.0624 -1.5967 -1.3331
 8189TIP3    H224532   5.301   1.779   2.177  0.5290 -0.2500  2.4297
 8190TIP3   OH224533   1.439   5.876   0.810 -0.0426  0.5191  0.5788
 8190TIP3    H124534   1.443   5.963   0.770 -0.6586 -0.5304 -1.9695
 8190TIP3    H224535   1.348   5.849   0.800  0.6379 -1.3901 -1.0240
 8191TIP3   OH224536   2.357   2.839   2.346  0.4148  0.0896  0.0521
 8191TIP3    H124537   2.384   2.791   2.268 -0.4504  0.0393 -0.2236
 8191TIP3    H224538   2.264   2.856   2.333  0.4022  0.6332  0.7855
 8192TIP3   OH224539   5.411   5.625   3.450  0.5248  0.0511 -0.1029
 8192TIP3    H124540   5.322   5.650   3.428  0.3068 -2.1483 -2.1510
 8192TIP3    H224541   5.410   5.529   3.447  2.6309 -0.0680  1.2702
 8193TIP3   OH224542   1.668   0.948   3.280  0.1356  0.1235 -0.2477
 8193TIP3    H124543   1.746   0.970   3.332  1.1073  0.5045 -1.8157
 8193TIP3    H224544   1.667   0.853   3.276  0.0721  0.0911  0.4165
 8194TIP3   OH224545   0.134   2.942   5.525  0.2881 -0.5569 -0.1185
 8194TIP3    H124546   0.152   3.031   5.495 -0.0485  0.3286  2.1430
 8194TIP3    H224547   0.217   2.895   5.511  0.0321 -0.3754 -2.7393
 8195TIP3   OH224548   4.268   2.026   0.338 -0.0924 -0.2222  0.5732
 8195TIP3    H124549   4.280   1.942   0.384  1.6114  0.4294  1.4074
 8195TIP3    H224550   4.282   2.092   0.405  1.0152  0.7465 -0.5584
 8196TIP3   OH224551   2.135   3.922   2.825  0.0940  0.2501  0.2624
 8196TIP3    H124552   2.093   4.000   2.862  0.2153 -0.7450  2.7006
 8196TIP3    H224553   2.158   3.947   2.736 -3.3228  1.7004 -0.3518
 8197TIP3   OH224554   5.859   3.865   0.545  0.0157 -0.5364 -0.3444
 8197TIP3    H124555   5.792   3.933   0.550  2.4216  2.0412 -0.2304
 8197TIP3    H224556   5.817   3.793   0.499 -2.3917  1.4374 -1.4951
 8198TIP3   OH224557   1.437   4.808   4.457  0.1048  0.3012 -0.3466
 8198TIP3    H124558   1.518   4.850   4.486 -1.0183  0.8306  2.2849
 8198TIP3    H224559   1.447   4.799   4.362  2.9043  1.0167 -0.1988
 8199TIP3   OH224560   3.130   1.912   5.350 -1.3516  0.2177 -0.1088
 8199TIP3    H124561   3.222   1.937   5.360 -1.5188  1.1369 -0.8032
 8199TIP3    H224562   3.126   1.824   5.388 -0.3912  0.5437  0.8321
 8200TIP3   OH224563   1.442   4.365   5.841  0.0313 -0.0896 -0.0936
 8200TIP3    H124564   1.449   4.313   5.760  0.0631  0.0703 -0.1946
 8200TIP3    H224565   1.350   4.359   5.865  0.3114 -1.5339  0.7870
 8201TIP3   OH224566   5.097   2.885   5.367 -0.1318  0.1365  0.5564
 8201TIP3    H124567   5.032   2.830   5.411 -0.5059  0.7537  0.7848
 8201TIP3    H224568   5.177   2.872   5.417  0.1157 -1.1656 -0.1341
 8202TIP3   OH224569   5.053   6.273   4.843 -0.1875  0.6729  0.7163
 8202TIP3    H124570   5.067   6.204   4.778 -1.6972  0.7532  0.2756
 8202TIP3    H224571   5.026   6.226   4.922  0.4805  0.6625  0.9507
 8203TIP3   OH224572   5.654   6.738   4.496  0.4843  0.6732  0.2657
 8203TIP3    H124573   5.577   6.703   4.450  0.2352 -0.1883  1.2938
 8203TIP3    H224574   5.619   6.770   4.579  1.6764 -3.4597  2.6295
 8204TIP3   OH224575   5.671   1.144   0.109 -0.1042  0.1414 -0.1615
 8204TIP3    H124576   5.643   1.156   0.200 -1.4439  0.4570 -0.5848
 8204TIP3    H224577   5.648   1.227   0.066  0.0521 -0.1824 -0.8847
 8205TIP3   OH224578   5.639   4.569   1.102  0.1654  0.6523  0.2685
 8205TIP3    H124579   5.546   4.583   1.122  0.0361  0.6447 -0.3104
 8205TIP3    H224580   5.683   4.579   1.186 -0.5508 -1.1715  0.9222
 8206TIP3   OH224581   3.055   1.792   3.516 -0.0368  0.6889  0.3736
 8206TIP3    H124582   3.067   1.880   3.480  1.0032  0.5756  0.4116
 8206TIP3    H224583   3.137   1.774   3.563  0.2083 -0.7033 -0.5111
 8207TIP3   OH224584   5.498   6.695   0.636 -0.0869  0.1502 -0.7944
 8207TIP3    H124585   5.418   6.737   0.605 -0.4500  0.5759  0.6336
 8207TIP3    H224586   5.470   6.611   0.672  0.4753 -0.8339 -2.5227
 8208TIP3   OH224587   1.455   4.842   1.986  0.2562  0.1608  0.0055
 8208TIP3    H124588   1.429   4.913   2.045 -0.4632 -0.5514  0.5809
 8208TIP3    H224589   1.417   4.866   1.902  0.1996  0.5667  0.1424
 8209TIP3   OH224590   4.157   4.351   5.739  0.3776 -0.0219  0.4256
 8209TIP3    H124591   4.205   4.414   5.793  2.1712 -0.2358 -0.8322
 8209TIP3    H224592   4.098   4.404   5.686 -1.6149  0.1781  2.6610
 8210TIP3   OH224593  -0.007   6.535   0.982  0.7909 -0.4910 -0.1134
 8210TIP3    H124594   0.066   6.595   0.973  0.2729  0.5653  1.9634
 8210TIP3    H224595  -0.030   6.511   0.893  2.6680  0.3560 -0.8745
 8211TIP3   OH224596   4.697   0.369   3.930  0.4710 -0.1367  0.6854
 8211TIP3    H124597   4.680   0.310   3.856 -1.5323  0.0141  0.9619
 8211TIP3    H224598   4.758   0.434   3.895  1.5076 -1.4717 -0.0772
 8212TIP3   OH224599   2.530   0.701   3.981 -0.0318  0.0973 -0.3408
 8212TIP3    H124600   2.475   0.625   4.001 -2.5446  1.3926 -1.8483
 8212TIP3    H224601   2.501   0.769   4.042 -0.0680  0.7832 -1.1020
 8213TIP3   OH224602   3.035   4.236   3.869  0.0534 -0.2832  0.1607
 8213TIP3    H124603   3.035   4.305   3.935 -1.7011  0.6105 -0.7144
 8213TIP3    H224604   2.967   4.175   3.897  0.5872 -0.8981  0.1484
 8214TIP3   OH224605   6.445   0.564   3.014 -0.1876  0.5955  0.2481
 8214TIP3    H124606   6.361   0.562   2.968 -0.5368  0.4555  0.8762
 8214TIP3    H224607   6.499   0.501   2.967 -0.3673  0.8315 -0.2839
 8215TIP3   OH224608   3.802   2.541   0.716 -0.3528  0.0257 -0.3870
 8215TIP3    H124609   3.782   2.469   0.775  2.1260 -0.8578 -0.4987
 8215TIP3    H224610   3.849   2.605   0.771 -1.1970  0.8859 -0.6330
 8216TIP3   OH224611   6.751   6.705   1.662  0.1444  0.5908 -0.1758
 8216TIP3    H124612   6.826   6.646   1.659  0.4667  0.8312  1.6679
 8216TIP3    H224613   6.787   6.791   1.641  0.0283  0.4275 -1.0590
 8217TIP3   OH224614   5.175   0.083   5.613  0.4098  0.4694 -0.1509
 8217TIP3    H124615   5.216   0.087   5.699  0.4337  0.8932 -0.1792
 8217TIP3    H224616   5.111   0.154   5.613 -0.3985 -0.2584 -0.0761
 8218TIP3   OH224617   6.284   5.903   5.481  0.0944  0.8376 -0.1799
 8218TIP3    H124618   6.322   5.911   5.569 -0.3858  0.1496  0.1019
 8218TIP3    H224619   6.191   5.890   5.497  0.0245  0.5988 -0.7923
 8219TIP3   OH224620   0.395   6.429   3.273  0.2922  0.1144  0.3453
 8219TIP3    H124621   0.402   6.338   3.304  2.1983 -0.4535 -1.5593
 8219TIP3    H224622   0.483   6.463   3.281  0.7809  0.1684 -3.5315
 8220TIP3   OH224623   3.770   4.209   1.777  0.2756 -0.1826  0.3534
 8220TIP3    H124624   3.849   4.212   1.722 -0.0997 -1.0634 -0.2552
 8220TIP3    H224625   3.728   4.294   1.762  0.7060 -0.0085  0.0852
 8221TIP3   OH224626   3.369   1.085   5.588  0.7231  0.2312  0.3648
 8221TIP3    H124627   3.421   1.017   5.545  1.5918  1.1264 -0.0480
 8221TIP3    H224628   3.368   1.157   5.526 -0.6692  0.3991  0.5614
 8222TIP3   OH224629   5.638   4.798   5.864  0.2658 -0.4023 -0.4423
 8222TIP3    H124630   5.593   4.722   5.899  0.4740 -0.5793 -0.5577
 8222TIP3    H224631   5.688   4.764   5.789  2.2180 -0.6161  0.8855
 8223TIP3   OH224632   4.334   4.566   4.206 -0.4505  0.1634  0.8382
 8223TIP3    H124633   4.374   4.620   4.273 -1.0262 -0.1329  1.4253
 8223TIP3    H224634   4.383   4.586   4.126  3.2530 -2.6739  2.1135
 8224TIP3   OH224635   2.121   1.459   2.387  0.0547  0.1872  0.0721
 8224TIP3    H124636   2.110   1.368   2.415  0.3817 -0.2336 -1.1026
 8224TIP3    H224637   2.044   1.504   2.422 -0.2627 -0.6029  0.4161
 8225TIP3   OH224638   0.565   2.078   3.392  0.6567  0.2316 -0.3058
 8225TIP3    H124639   0.550   2.128   3.472  1.8757 -0.4842  0.3844
 8225TIP3    H224640   0.477   2.063   3.357 -0.1297 -1.4718  2.1309
 8226TIP3   OH224641   0.133   6.567   5.853  0.1628 -0.2610  0.3919
 8226TIP3    H124642   0.200   6.599   5.793 -0.7015 -1.1653 -1.0973
 8226TIP3    H224643   0.110   6.643   5.906  1.7091  0.2842  0.3441
 8227TIP3   OH224644   0.792   0.352   1.762 -0.4450  0.3955 -0.2605
 8227TIP3    H124645   0.724   0.371   1.697  0.2608  1.0068 -0.8384
 8227TIP3    H224646   0.772   0.411   1.835 -1.1632 -0.1984  0.0379
 8228TIP3   OH224647   1.934   4.386   0.277  0.3124 -0.0320  0.5071
 8228TIP3    H124648   1.861   4.327   0.294 -0.4056  0.7582  0.2639
 8228TIP3    H224649   1.995   4.370   0.348 -0.0503 -0.7888  0.6529
 8229TIP3   OH224650   2.110   1.875   1.548  0.3535  0.0147  0.3619
 8229TIP3    H124651   2.124   1.886   1.642  0.4249  0.9733  0.2552
 8229TIP3    H224652   2.197   1.886   1.510  0.1540  0.8167  0.1052
 8230TIP3   OH224653   6.510   2.464   3.200 -0.3170  0.1817 -0.0975
 8230TIP3    H124654   6.501   2.395   3.266  0.3623  1.1058  0.9967
 8230TIP3    H224655   6.540   2.418   3.122  1.6439 -0.6023  1.0406
 8231TIP3   OH224656   3.764   5.675   1.322 -0.0405  0.4795  0.1363
 8231TIP3    H124657   3.854   5.695   1.346 -0.0121 -1.0308  1.4448
 8231TIP3    H224658   3.739   5.603   1.380 -0.5992 -2.2034 -3.1691
 8232TIP3   OH224659   3.143   1.912   0.729  0.0341  0.4329  0.4804
 8232TIP3    H124660   3.174   1.997   0.698 -0.6006  0.9351  1.1935
 8232TIP3    H224661   3.221   1.869   0.762  0.1059  1.4305  1.6732
 8233TIP3   OH224662   4.239   5.766   2.671  0.1825  0.1030  0.5118
 8233TIP3    H124663   4.250   5.756   2.576  0.1746  0.8625  0.4232
 8233TIP3    H224664   4.253   5.678   2.706 -0.1856 -0.2599 -0.2270
 8234TIP3   OH224665   5.225   2.564   5.299 -0.2961  0.1468  0.7268
 8234TIP3    H124666   5.235   2.564   5.204 -1.4776 -0.8261  0.5773
 8234TIP3    H224667   5.289   2.501   5.330  1.3139  1.7260  0.7661
 8235TIP3   OH224668   0.198   0.789   5.313  0.0634 -0.3941 -0.4589
 8235TIP3    H124669   0.293   0.785   5.306  0.5967  1.4890  3.1318
 8235TIP3    H224670   0.180   0.778   5.406 -3.2909 -0.6314 -0.9875
 8236TIP3   OH224671   5.726   3.267   2.084  0.6260  0.0756 -0.1963
 8236TIP3    H124672   5.755   3.191   2.134 -2.7583 -0.5630  1.0413
 8236TIP3    H224673   5.692   3.230   2.002 -2.3187 -0.0499  0.9784
 8237TIP3   OH224674   2.173   3.403   1.009 -0.1510 -0.0917  0.0491
 8237TIP3    H124675   2.142   3.440   0.927  0.8896 -1.3565 -0.9772
 8237TIP3    H224676   2.231   3.470   1.046  1.6152 -0.5236 -1.7040
 8238TIP3   OH224677   7.197   6.446   0.170  0.3823 -0.2027 -0.0017
 8238TIP3    H124678   7.109   6.460   0.207  0.4749  1.4527 -0.3378
 8238TIP3    H224679   7.256   6.469   0.241  0.5487 -0.8685  0.0759
 8239TIP3   OH224680   6.315   4.531   5.826 -0.1062 -0.2239  0.4747
 8239TIP3    H124681   6.223   4.554   5.810 -0.9214 -3.2986 -0.1196
 8239TIP3    H224682   6.325   4.538   5.921  0.5446  4.5477  0.2830
 8240TIP3   OH224683   6.824   0.912   1.135  0.1822 -0.5968  0.3063
 8240TIP3    H124684   6.739   0.930   1.175  0.1324  1.9591 -0.7179
 8240TIP3    H224685   6.803   0.868   1.053 -0.2507  0.6110 -0.2542
 8241TIP3   OH224686   1.278   4.740   1.168  0.1506 -0.3545  0.7111
 8241TIP3    H124687   1.333   4.698   1.235  0.8156  1.0403  1.0971
 8241TIP3    H224688   1.195   4.758   1.212  0.3459 -0.0587  0.9646
 8242TIP3   OH224689   6.125   1.374   5.716  0.3165  0.2090  0.4776
 8242TIP3    H124690   6.171   1.372   5.800  0.8181 -1.8998  0.2089
 8242TIP3    H224691   6.047   1.320   5.730  0.9777 -1.1131 -0.6719
 8243TIP3   OH224692   0.618   4.521   0.318  0.3467 -0.2981 -0.0980
 8243TIP3    H124693   0.524   4.506   0.310  0.3708 -0.5216  0.0450
 8243TIP3    H224694   0.624   4.604   0.365  0.2112  0.6126 -1.6201
 8244TIP3   OH224695   7.041   1.381   3.327 -0.3265 -0.3374  0.2544
 8244TIP3    H124696   7.039   1.454   3.390  0.6424 -0.6981  0.7308
 8244TIP3    H224697   6.950   1.367   3.303 -0.6537  0.2025  1.1405
 8245TIP3   OH224698   6.815   3.337   0.512 -0.2753  0.1845 -0.2097
 8245TIP3    H124699   6.885   3.383   0.467  0.7356 -1.2103 -0.1369
 8245TIP3    H224700   6.848   3.324   0.601 -1.7403  1.8124  0.6337
 8246TIP3   OH224701   3.683   4.694   0.902  0.3235 -0.3133 -0.2295
 8246TIP3    H124702   3.657   4.785   0.893  0.7668 -0.1861 -0.2862
 8246TIP3    H224703   3.609   4.643   0.870 -0.0911  0.0152  0.2003
 8247TIP3   OH224704   6.811   3.097   2.118 -0.5816 -0.4034  0.1167
 8247TIP3    H124705   6.843   3.148   2.044 -1.2292  0.4287  0.3815
 8247TIP3    H224706   6.725   3.065   2.091 -0.4899 -0.7449  0.2234
 8248TIP3   OH224707   6.976   3.486   1.987  0.0532 -0.6861  0.6264
 8248TIP3    H124708   6.966   3.405   1.937  2.9668 -1.1263  0.5735
 8248TIP3    H224709   6.899   3.490   2.044 -1.6452 -1.9091 -1.4723
 8249TIP3   OH224710   3.688   2.133   0.768  0.1968 -0.0332  0.2486
 8249TIP3    H124711   3.710   2.089   0.850  2.4855  0.9930  0.2770
 8249TIP3    H224712   3.709   2.069   0.700 -1.9894 -0.9940  0.4203
 8250TIP3   OH224713   5.692   2.598   4.970 -0.5641 -0.4507 -0.3028
 8250TIP3    H124714   5.787   2.602   4.984 -0.3307  0.7338 -1.9676
 8250TIP3    H224715   5.657   2.569   5.054  1.2332 -0.4853  0.4857
 8251TIP3   OH224716   5.253   3.932   1.534  0.0476 -0.0473 -0.2308
 8251TIP3    H124717   5.315   3.954   1.604  0.7745  1.4719 -1.2820
 8251TIP3    H224718   5.194   4.007   1.529 -0.0610 -0.1761 -1.1538
 8252TIP3   OH224719   7.093   3.131   3.756  0.0241  0.2361 -0.1860
 8252TIP3    H124720   7.053   3.189   3.692 -0.7338  1.6617  1.5041
 8252TIP3    H224721   7.024   3.116   3.821  1.1122 -0.2141  0.8983
 8253TIP3   OH224722   4.016   2.416   4.978  0.0549  0.1483  0.2662
 8253TIP3    H124723   4.056   2.453   4.899 -1.7105  2.5775  0.3873
 8253TIP3    H224724   3.947   2.358   4.945 -0.3919  0.8269 -0.0378
 8254TIP3   OH224725   0.588   3.883   4.992 -0.1843 -0.3008 -0.4326
 8254TIP3    H124726   0.610   3.865   5.083  1.3487  0.6008 -0.6033
 8254TIP3    H224727   0.618   3.973   4.977 -2.2768  0.3298 -1.2659
 8255TIP3   OH224728   2.077   0.301   3.998 -0.3216 -0.3991  0.2043
 8255TIP3    H124729   2.047   0.247   4.070 -0.2761  0.4035  0.8454
 8255TIP3    H224730   1.998   0.344   3.965 -0.2079  0.0289  0.4683
 8256TIP3   OH224731   6.043   0.532   5.527  0.0705  0.5315  0.4134
 8256TIP3    H124732   6.095   0.452   5.532  2.1404  1.5089 -2.7301
 8256TIP3    H224733   6.104   0.603   5.548 -0.5712  1.5492 -1.0011
 8257TIP3   OH224734   1.555   4.997   4.701 -0.1166 -0.1520  0.8670
 8257TIP3    H124735   1.542   5.040   4.785  1.3901  0.7498  0.6768
 8257TIP3    H224736   1.532   4.905   4.717 -0.1997  0.0749  2.1692
 8258TIP3   OH224737   6.707   3.884   5.129 -0.6736  0.1341 -0.4936
 8258TIP3    H124738   6.673   3.795   5.125 -1.7020  0.4201  1.2491
 8258TIP3    H224739   6.641   3.937   5.084  1.0044 -0.1726 -3.6404
 8259TIP3   OH224740   4.275   6.008   2.285 -0.0182  0.0774 -0.4912
 8259TIP3    H124741   4.228   6.012   2.369 -0.0448  0.4804 -0.5254
 8259TIP3    H224742   4.236   5.934   2.239 -0.6197  0.4052 -0.5176
 8260TIP3   OH224743   3.903   5.973   1.879  0.3375 -0.2109  0.2124
 8260TIP3    H124744   3.920   5.921   1.800  0.1118 -1.0945  0.7330
 8260TIP3    H224745   3.815   6.009   1.865  0.5608  0.1664 -0.2253
 8261TIP3   OH224746   4.466   3.950   2.200 -0.8187 -0.1439 -0.0539
 8261TIP3    H124747   4.408   3.986   2.266  0.3565  1.9507 -0.0607
 8261TIP3    H224748   4.418   3.959   2.118 -0.1201  2.8622 -0.2673
 8262TIP3   OH224749   5.188   4.328   1.285 -0.2240  0.1294 -0.0514
 8262TIP3    H124750   5.165   4.363   1.199  1.1243 -1.0632 -0.9454
 8262TIP3    H224751   5.223   4.402   1.333 -3.5702  1.5088  0.5763
 8263TIP3   OH224752   0.737   1.854   3.941 -0.0646 -0.3201 -0.3575
 8263TIP3    H124753   0.762   1.773   3.987  0.0733 -1.0714 -1.6724
 8263TIP3    H224754   0.821   1.891   3.912 -0.2201 -0.6644 -1.2768
 8264TIP3   OH224755   0.797   4.104   3.010 -0.5692  0.4876 -0.1153
 8264TIP3    H124756   0.758   4.129   2.926  0.2917 -0.6518 -0.8836
 8264TIP3    H224757   0.725   4.068   3.061 -0.7160 -0.7369 -1.1661
 8265TIP3   OH224758   2.123   1.023   0.610  0.0374  0.4942  0.0355
 8265TIP3    H124759   2.049   1.081   0.629 -0.9346 -0.9986  1.0604
 8265TIP3    H224760   2.084   0.936   0.605  1.4219 -0.0794 -1.6672
 8266TIP3   OH224761   4.552   0.096   4.044  0.0520  0.3815 -0.0187
 8266TIP3    H124762   4.503   0.063   3.968 -0.1477  0.5631  0.0315
 8266TIP3    H224763   4.560   0.190   4.028 -0.1741  0.4556  0.2859
 8267TIP3   OH224764   3.674   1.958   2.914  0.3530  0.5373 -0.2796
 8267TIP3    H124765   3.704   1.872   2.886 -0.1605  1.1210 -2.8883
 8267TIP3    H224766   3.635   1.997   2.836 -0.1858  2.8263  1.0217
 8268TIP3   OH224767   2.955   5.934   3.811 -0.3902 -0.8179 -0.3507
 8268TIP3    H124768   2.912   5.855   3.842  2.1660 -2.2875 -0.2418
 8268TIP3    H224769   2.971   5.918   3.718  0.0316 -0.3810 -0.3608
 8269TIP3   OH224770   3.492   4.142   2.393 -0.5571  0.3903 -0.1731
 8269TIP3    H124771   3.525   4.123   2.480  1.4083  2.4737 -0.3954
 8269TIP3    H224772   3.427   4.211   2.405 -0.2224  0.7406 -0.3576
 8270TIP3   OH224773   0.491   5.583   4.479 -0.5659  0.1847  0.2517
 8270TIP3    H124774   0.490   5.549   4.569 -0.2604  1.3428  0.7065
 8270TIP3    H224775   0.578   5.621   4.469 -1.6544  2.9931  0.6149
 8271TIP3   OH224776   4.752   5.155   0.712  0.3603 -0.0764 -0.2803
 8271TIP3    H124777   4.660   5.172   0.692  1.0457  3.7676 -1.0683
 8271TIP3    H224778   4.775   5.080   0.658 -1.8828 -0.0519 -1.4070
 8272TIP3   OH224779   2.906   1.500   1.211  0.3240 -0.2071  0.3461
 8272TIP3    H124780   2.811   1.489   1.213  0.3091 -0.0819  2.1014
 8272TIP3    H224781   2.933   1.469   1.125 -0.9503 -3.4298  0.9974
 8273TIP3   OH224782   3.539   2.768   0.415  0.2236 -0.3072 -0.5174
 8273TIP3    H124783   3.595   2.691   0.424  0.4365  0.0096  1.2620
 8273TIP3    H224784   3.536   2.805   0.503  0.3273  1.8619 -1.3695
 8274TIP3   OH224785   2.696   6.675   0.025  0.1798 -0.2074  0.0511
 8274TIP3    H124786   2.780   6.630   0.036  0.7550  1.2122  2.0375
 8274TIP3    H224787   2.633   6.620   0.069  0.1592 -0.9348 -0.8514
 8275TIP3   OH224788   2.861   3.243   4.795 -0.4816  0.3796  0.5760
 8275TIP3    H124789   2.769   3.230   4.769 -0.5593 -0.4669  1.2413
 8275TIP3    H224790   2.907   3.255   4.712 -1.2142  0.9904  0.2397
 8276TIP3   OH224791   3.067   2.533   5.514 -0.2305 -0.3492 -0.1632
 8276TIP3    H124792   3.023   2.618   5.508  2.2885  1.0740 -0.1310
 8276TIP3    H224793   3.048   2.490   5.431 -1.4467  0.2777 -0.2329
 8277TIP3   OH224794   6.821   1.831   5.394  0.3398 -0.0295  0.5216
 8277TIP3    H124795   6.730   1.831   5.424  0.3659 -1.7450  0.6914
 8277TIP3    H224796   6.862   1.903   5.441 -0.1886 -1.1625  2.8523
 8278TIP3   OH224797   1.347   5.867   1.163 -0.1066 -0.1951  0.6125
 8278TIP3    H124798   1.415   5.803   1.141 -1.3431 -1.8349  1.2818
 8278TIP3    H224799   1.266   5.815   1.166 -0.9469  1.0949  2.8026
 8279TIP3   OH224800   0.031   2.495   1.020 -0.1999  0.1817  0.1265
 8279TIP3    H124801   0.026   2.459   1.108 -2.4333 -0.5337 -0.2364
 8279TIP3    H224802   0.048   2.419   0.963  2.2875  0.7616 -0.0596
 8280TIP3   OH224803   4.030   2.422   0.977  0.3138 -0.2239  0.0518
 8280TIP3    H124804   3.937   2.443   0.973  0.6347  1.7860  1.4565
 8280TIP3    H224805   4.067   2.460   0.898 -0.1263 -1.6929 -0.8981
 8281TIP3   OH224806   4.371   0.928   5.563 -0.0486  0.7164  0.2633
 8281TIP3    H124807   4.403   0.839   5.576 -1.2191  0.1477 -0.5733
 8281TIP3    H224808   4.298   0.919   5.502  0.9621  2.4469 -1.3238
 8282TIP3   OH224809   3.022   4.119   1.687  0.1471 -0.1660  0.0579
 8282TIP3    H124810   3.118   4.119   1.679  0.4970 -0.8687  3.1028
 8282TIP3    H224811   3.005   4.165   1.769 -2.1776  0.1232 -0.5295
 8283TIP3   OH224812   4.895   4.256   2.321 -0.1080  0.1510 -0.1595
 8283TIP3    H124813   4.968   4.278   2.379  0.1919 -0.2724 -0.3637
 8283TIP3    H224814   4.830   4.216   2.378 -0.9823  2.1879  0.3487
 8284TIP3   OH224815   5.638   0.119   2.579 -0.1117  0.4450  0.3799
 8284TIP3    H124816   5.597   0.081   2.657 -1.5478 -0.3400 -0.7126
 8284TIP3    H224817   5.576   0.184   2.548  0.4322  0.7290 -0.1431
 8285TIP3   OH224818   4.025   3.863   3.590 -0.2054 -0.7295 -0.1487
 8285TIP3    H124819   4.088   3.878   3.660  1.2136 -0.8799 -1.3465
 8285TIP3    H224820   3.977   3.945   3.582 -1.8599 -1.3452  2.3459
 8286TIP3   OH224821   1.489   3.213   4.066 -0.3960 -0.4634 -0.1956
 8286TIP3    H124822   1.531   3.143   4.116 -1.0942 -0.9111 -0.2223
 8286TIP3    H224823   1.560   3.253   4.017  0.0301 -1.0953 -0.1074
 8287TIP3   OH224824   1.561   3.151   1.798 -0.6194  0.4039 -0.2230
 8287TIP3    H124825   1.485   3.129   1.744 -0.6003  0.1776 -0.1573
 8287TIP3    H224826   1.637   3.133   1.741 -0.5792 -0.3795  0.0718
 8288TIP3   OH224827   6.884   4.610   5.727  0.3274  0.0897 -0.0951
 8288TIP3    H124828   6.883   4.610   5.632  0.7455 -0.2673 -0.1025
 8288TIP3    H224829   6.970   4.645   5.750  0.0622  0.5910  0.1583
 8289TIP3   OH224830   1.920   2.295   1.995  0.6951 -0.4625  0.2257
 8289TIP3    H124831   1.913   2.267   1.903  2.2851  0.3298 -0.1881
 8289TIP3    H224832   1.979   2.231   2.034  0.8829 -0.1837  0.4024
 8290TIP3   OH224833   0.910   3.279   1.156 -0.5855  0.2161 -0.1791
 8290TIP3    H124834   0.821   3.260   1.186 -0.9181  0.7106 -0.8451
 8290TIP3    H224835   0.905   3.274   1.061 -0.3402  2.0964 -0.3163
 8291TIP3   OH224836   0.056   3.725   2.986  0.1025  0.3134  0.2814
 8291TIP3    H124837   0.114   3.769   2.923 -2.0309  2.0079 -0.6174
 8291TIP3    H224838   0.114   3.666   3.034  2.5135  1.7338 -0.7001
 8292TIP3   OH224839   2.028   3.366   0.179  0.1041 -0.2348  0.6487
 8292TIP3    H124840   1.984   3.412   0.251  0.2823  0.6956  0.1688
 8292TIP3    H224841   1.959   3.314   0.138 -0.8951  2.0758 -0.8099
 8293TIP3   OH224842   0.646   2.172   1.632  0.5531 -0.2561 -0.0752
 8293TIP3    H124843   0.621   2.104   1.570  0.2575 -0.2338  0.0204
 8293TIP3    H224844   0.577   2.238   1.626  0.4962 -0.2765  0.3099
 8294TIP3   OH224845   0.576   2.345   3.130 -0.2940 -0.0237 -0.0689
 8294TIP3    H124846   0.528   2.265   3.150 -0.0561 -0.1877 -0.1545
 8294TIP3    H224847   0.667   2.325   3.151 -0.3533  0.5132  0.7423
 8295TIP3   OH224848   2.183   3.069   2.201 -0.4444 -0.3974 -0.0100
 8295TIP3    H124849   2.129   3.144   2.176 -2.0560 -0.7516  2.1199
 8295TIP3    H224850   2.258   3.108   2.247 -0.6362 -0.0361  0.0009
 8296TIP3   OH224851   0.370   4.741   2.653 -0.1411 -0.0711  0.4045
 8296TIP3    H124852   0.356   4.742   2.748  1.5169  2.6252  0.7141
 8296TIP3    H224853   0.464   4.727   2.643 -0.4768 -1.7883 -0.9698
 8297TIP3   OH224854   5.345   1.233   4.264 -0.1216 -0.6313 -0.4399
 8297TIP3    H124855   5.388   1.169   4.207  0.4979 -0.7242  0.1245
 8297TIP3    H224856   5.361   1.317   4.221  1.2949 -0.5793  0.1463
 8298TIP3   OH224857   5.581   3.118   4.306 -0.1826  0.6152 -0.5342
 8298TIP3    H124858   5.495   3.151   4.329  0.5066  0.8697  1.9928
 8298TIP3    H224859   5.576   3.024   4.321 -0.2354  0.5294 -1.0962
 8299TIP3   OH224860   3.780   3.487   0.953  0.7646  0.3838 -0.6334
 8299TIP3    H124861   3.687   3.472   0.937  0.5062 -0.5253  1.3372
 8299TIP3    H224862   3.795   3.578   0.926 -0.9850  0.9220  0.0445
 8300TIP3   OH224863   1.215   2.328   1.137  0.0266 -0.0682  0.3583
 8300TIP3    H124864   1.256   2.413   1.152 -1.8177  1.1720 -1.2449
 8300TIP3    H224865   1.202   2.292   1.225 -0.1187  1.7896  1.1458
 8301TIP3   OH224866   6.913   6.012   4.454  0.4778 -0.2032 -0.1142
 8301TIP3    H124867   6.872   6.097   4.440  0.6072 -0.2408 -0.7388
 8301TIP3    H224868   6.975   6.027   4.526 -0.6733 -0.1715  0.9068
 8302TIP3   OH224869   4.675   6.725   1.647  0.3858  0.2650  1.0382
 8302TIP3    H124870   4.684   6.703   1.739  2.4133  2.9123  1.5873
 8302TIP3    H224871   4.760   6.700   1.608 -0.5233 -1.0651 -0.2434
 8303TIP3   OH224872   3.513   3.554   0.978 -0.0969 -0.3997  0.2509
 8303TIP3    H124873   3.455   3.535   0.905  0.7212 -1.7224 -0.0815
 8303TIP3    H224874   3.458   3.601   1.041 -0.9820  0.1566 -0.9013
 8304TIP3   OH224875   6.043   1.098   0.921  0.2984  0.4560 -0.2991
 8304TIP3    H124876   6.029   1.005   0.909  1.5293  0.2585 -0.3294
 8304TIP3    H224877   6.048   1.110   1.015 -0.6920  0.6315 -0.2624
 8305TIP3   OH224878   4.865   4.512   2.259  0.5382  0.7237  0.3607
 8305TIP3    H124879   4.956   4.528   2.232  0.4794  0.0975 -0.2469
 8305TIP3    H224880   4.862   4.418   2.278 -0.5642  0.1766 -2.0975
 8306TIP3   OH224881   2.206   3.366   1.516 -0.0410  0.0278 -0.2538
 8306TIP3    H124882   2.222   3.330   1.429  1.1154 -0.2357  0.0574
 8306TIP3    H224883   2.168   3.453   1.500  0.3665  0.0654 -1.0164
 8307TIP3   OH224884   4.798   4.642   1.834  0.2563 -0.0494  0.7162
 8307TIP3    H124885   4.854   4.570   1.862 -0.7948 -1.2453 -0.1434
 8307TIP3    H224886   4.710   4.605   1.832 -0.2772  1.1863  0.0083
 8308TIP3   OH224887   3.022   2.454   1.586  0.0726  0.3156 -0.7739
 8308TIP3    H124888   3.024   2.414   1.673  0.7247 -0.9151 -1.3329
 8308TIP3    H224889   3.075   2.533   1.595  0.3979  0.0356 -0.1245
 8309TIP3   OH224890   2.128   2.132   0.735  0.0274 -0.8450  0.3035
 8309TIP3    H124891   2.138   2.090   0.650 -0.1808  0.2822 -0.3074
 8309TIP3    H224892   2.072   2.208   0.718 -2.3296 -2.0633  1.9509
 8310TIP3   OH224893   3.663   6.719   4.563  0.0478  0.0638 -0.1409
 8310TIP3    H124894   3.717   6.641   4.579 -1.8365 -1.1746  0.6361
 8310TIP3    H224895   3.597   6.690   4.499  0.2328  1.5057 -1.0350
 8311TIP3   OH224896   0.876   4.379   1.127  0.3536 -0.0999  0.2917
 8311TIP3    H124897   0.831   4.294   1.125 -4.4189  2.0807 -0.2100
 8311TIP3    H224898   0.908   4.391   1.038 -0.1129 -0.8709  0.0086
 8312TIP3   OH224899   4.411   6.048   1.418 -0.1114 -0.0089 -0.1891
 8312TIP3    H124900   4.448   5.994   1.348 -1.2723 -0.3327 -0.5886
 8312TIP3    H224901   4.464   6.029   1.495 -0.0044 -1.1303 -0.5179
 8313TIP3   OH224902   4.194   1.485   3.276 -0.0437  0.2993  0.1611
 8313TIP3    H124903   4.252   1.550   3.315  2.5378 -0.3035 -2.2820
 8313TIP3    H224904   4.198   1.410   3.335 -0.4854  1.1850  1.3558
 8314TIP3   OH224905   0.632   5.716   0.536 -0.0190  0.2901 -0.2337
 8314TIP3    H124906   0.585   5.777   0.478 -0.2469  0.4118  0.0771
 8314TIP3    H224907   0.648   5.639   0.481  1.3145  1.0715 -0.9991
 8315TIP3   OH224908   0.840   0.232   1.152  0.4483 -0.3920 -0.4171
 8315TIP3    H124909   0.795   0.265   1.074  0.8047  0.2905 -0.3410
 8315TIP3    H224910   0.844   0.137   1.139 -0.3522 -0.3893 -0.7677
 8316TIP3   OH224911   0.840   2.137   5.642 -0.3334 -0.0989 -0.4126
 8316TIP3    H124912   0.913   2.122   5.701 -0.5288 -0.2256 -0.2001
 8316TIP3    H224913   0.850   2.070   5.574  1.5610  1.8321 -2.1840
 8317TIP3   OH224914   4.624   4.389   2.413 -0.1573  1.1791 -0.7389
 8317TIP3    H124915   4.593   4.440   2.338  0.4497  1.5989 -0.7209
 8317TIP3    H224916   4.678   4.451   2.463  2.1624  0.0659 -1.6938
 8318TIP3   OH224917   3.909   3.804   0.216  0.2571 -0.0433 -0.5417
 8318TIP3    H124918   3.957   3.841   0.142  0.7260 -0.3746 -0.4083
 8318TIP3    H224919   3.827   3.772   0.178  0.3212  0.1559 -0.8473
 8319TIP3   OH224920   7.072   3.131   0.676  0.3545 -0.5232 -0.3475
 8319TIP3    H124921   6.998   3.073   0.659  1.2398 -0.8604 -3.7181
 8319TIP3    H224922   7.141   3.072   0.708  0.3246 -0.8630 -0.8876
 8320TIP3   OH224923   6.077   2.435   4.609  0.2069 -0.2828  0.3519
 8320TIP3    H124924   6.061   2.386   4.690 -0.4605 -0.8864 -0.1413
 8320TIP3    H224925   6.061   2.526   4.634  1.3858 -0.2874  1.2534
 8321TIP3   OH224926   2.129   5.594   2.214  0.2708 -0.3748 -0.1935
 8321TIP3    H124927   2.207   5.650   2.215 -0.1247  0.2260  1.6093
 8321TIP3    H224928   2.119   5.566   2.305 -0.9906 -1.3443 -0.6074
 8322TIP3   OH224929   2.124   3.760   4.093  0.4067  0.2044  0.6975
 8322TIP3    H124930   2.197   3.729   4.039 -1.9557 -2.9810 -1.0063
 8322TIP3    H224931   2.071   3.813   4.033 -0.1813  0.0207  1.0438
 8323TIP3   OH224932   3.877   6.571   0.459  0.3976 -0.7439 -0.8519
 8323TIP3    H124933   3.803   6.622   0.428 -0.3547 -0.7900  0.7893
 8323TIP3    H224934   3.902   6.516   0.384 -1.1100 -0.6030 -1.4747
 8324TIP3   OH224935   1.982   0.442   1.507  0.0179  0.2070 -0.2492
 8324TIP3    H124936   1.983   0.515   1.569  1.5263  0.6282 -0.7454
 8324TIP3    H224937   2.014   0.479   1.425 -1.0265 -0.5789 -1.0413
 8325TIP3   OH224938   0.682   4.182   2.759 -0.2900 -0.3432 -0.7411
 8325TIP3    H124939   0.591   4.176   2.728 -0.2195  0.4854 -1.1335
 8325TIP3    H224940   0.707   4.272   2.741  1.0155 -0.8836 -1.7717
 8326TIP3   OH224941   2.750   5.673   2.511  0.0815  0.0750 -0.4019
 8326TIP3    H124942   2.716   5.585   2.499  1.2380 -0.3460 -0.6869
 8326TIP3    H224943   2.781   5.674   2.602 -3.7106  1.5491  1.0951
 8327TIP3   OH224944   6.247   5.396   2.639 -0.0458  0.6061  0.0329
 8327TIP3    H124945   6.329   5.395   2.687  0.4786  0.7277 -0.8457
 8327TIP3    H224946   6.258   5.331   2.570 -0.8215  0.3761  0.1121
 8328TIP3   OH224947   6.450   3.452   2.463 -0.2991  0.0317 -0.4120
 8328TIP3    H124948   6.373   3.493   2.504  0.8601  0.9808  0.9106
 8328TIP3    H224949   6.425   3.361   2.452 -0.6794 -0.3315  2.5857
 8329TIP3   OH224950   5.627   3.847   2.108  0.0192 -0.1594 -0.2936
 8329TIP3    H124951   5.533   3.863   2.105  0.2899  1.4265 -1.8675
 8329TIP3    H224952   5.640   3.794   2.187 -1.8861  1.5130  1.2257
 8330TIP3   OH224953   2.726   1.803   1.430 -0.1551 -0.1724 -0.2112
 8330TIP3    H124954   2.787   1.730   1.443 -0.9046 -0.5256  1.5717
 8330TIP3    H224955   2.725   1.848   1.514 -2.3859 -0.1962 -0.1821
 8331TIP3   OH224956   1.210   4.861   2.693 -0.0811 -0.1427  0.1242
 8331TIP3    H124957   1.184   4.878   2.783  0.3852 -1.1652  0.4608
 8331TIP3    H224958   1.155   4.919   2.641 -1.5706 -0.7629  0.9543
 8332TIP3   OH224959   5.575   5.811   2.899 -0.1174 -0.4900  0.1020
 8332TIP3    H124960   5.663   5.778   2.916  0.0533  0.0100  0.2214
 8332TIP3    H224961   5.519   5.767   2.964  0.2515  0.1221  0.8572
 8333TIP3   OH224962   3.290   1.387   2.422  0.0828 -0.2274 -1.1525
 8333TIP3    H124963   3.273   1.301   2.385 -0.3053 -0.7099  0.0897
 8333TIP3    H224964   3.299   1.372   2.516  0.7551  0.9873 -0.9925
 8334TIP3   OH224965   0.344   1.369   5.590 -0.2671  0.3589  0.0710
 8334TIP3    H124966   0.275   1.429   5.561 -0.8499 -0.3343  0.0012
 8334TIP3    H224967   0.346   1.301   5.524 -0.6016 -0.4616  0.8833
 8335TIP3   OH224968   4.904   1.900   4.150  0.1649  0.9385  0.2524
 8335TIP3    H124969   4.837   1.848   4.195 -2.0842  0.6083 -3.1297
 8335TIP3    H224970   4.885   1.990   4.176 -1.8024  0.8606 -0.7490
 8336TIP3   OH224971   0.272   2.092   4.177 -0.0854 -0.0994  0.0305
 8336TIP3    H124972   0.193   2.038   4.178  0.1300 -0.4756 -1.2947
 8336TIP3    H224973   0.344   2.030   4.176  0.2724  0.2408  1.7720
 8337TIP3   OH224974   5.278   5.177   1.564  0.2082 -0.3808  0.1253
 8337TIP3    H124975   5.299   5.099   1.615 -1.5523 -0.0931  1.3767
 8337TIP3    H224976   5.291   5.250   1.625 -1.2237  0.0315 -0.0279
 8338TIP3   OH224977   6.841   1.191   0.757 -0.0762  0.3676 -0.0024
 8338TIP3    H124978   6.749   1.213   0.771 -0.5651 -1.0305 -0.7530
 8338TIP3    H224979   6.874   1.170   0.844 -0.1806  1.7883  0.4094
 8339TIP3   OH224980   6.690   6.665   2.573 -0.2981  0.0950 -0.2860
 8339TIP3    H124981   6.751   6.592   2.566  0.7553  0.9828 -0.5771
 8339TIP3    H224982   6.731   6.726   2.634 -0.3624  1.1949 -1.2966
 8340TIP3   OH224983   0.957   0.148   0.061 -0.8026 -0.0525 -0.3943
 8340TIP3    H124984   0.933   0.241   0.064  0.3161  0.2293  0.6717
 8340TIP3    H224985   0.925   0.113   0.144 -1.3023 -0.6446 -0.8367
 8341TIP3   OH224986   5.877   5.904   4.393  0.2627 -0.1167  0.3958
 8341TIP3    H124987   5.943   5.843   4.427  1.3189  1.0855  0.5524
 8341TIP3    H224988   5.927   5.967   4.342 -0.6341  1.4033  1.3425
 8342TIP3   OH224989   0.270   1.777   0.322  0.5339 -0.0659  0.4237
 8342TIP3    H124990   0.245   1.697   0.276 -0.3620  0.6749 -0.4295
 8342TIP3    H224991   0.296   1.748   0.409 -2.1929 -1.0409  0.9897
 8343TIP3   OH224992   0.600   0.278   0.681  0.2824  0.3954  0.0929
 8343TIP3    H124993   0.516   0.264   0.638  0.7332  1.0943 -1.0526
 8343TIP3    H224994   0.609   0.205   0.742  0.2443 -1.4406 -1.9913
 8344TIP3   OH224995   4.150   1.186   0.483  0.2383  0.2640  0.1148
 8344TIP3    H124996   4.104   1.223   0.558 -0.7951  0.9822 -0.8400
 8344TIP3    H224997   4.093   1.203   0.408  1.2189 -0.4613 -0.8451
 8345TIP3   OH224998   2.059   5.345   3.216 -0.1289  0.2432  0.5657
 8345TIP3    H124999   2.055   5.313   3.125 -0.2450  0.3751  0.5247
 8345TIP3    H225000   2.107   5.277   3.263  0.9172  0.6882  0.1767
 8346TIP3   OH225001   0.102   1.912   1.579  0.8207 -0.1565 -0.0044
 8346TIP3    H125002   0.084   1.984   1.640  0.8132 -0.6124  0.5322
 8346TIP3    H225003   0.041   1.843   1.604  0.9508 -0.4224 -0.4057
 8347TIP3   OH225004   2.136   3.169   5.735  0.2542  0.1293 -0.3872
 8347TIP3    H125005   2.173   3.250   5.769  1.3000 -0.6759  0.4333
 8347TIP3    H225006   2.041   3.180   5.747  0.4345  0.8786  0.5001
 8348TIP3   OH225007   5.108   2.057   3.912 -0.1933  0.7346  0.2163
 8348TIP3    H125008   5.161   2.034   3.836  3.2942  1.4502  2.2426
 8348TIP3    H225009   5.027   2.093   3.874  0.3336 -1.0632 -3.0540
 8349TIP3   OH225010   2.571   1.888   3.726  0.3650 -0.3802  0.2619
 8349TIP3    H125011   2.560   1.915   3.818  0.8873  0.1505  0.1783
 8349TIP3    H225012   2.666   1.876   3.717  0.2518 -1.0570 -0.0388
 8350TIP3   OH225013   1.974   5.611   0.358  0.3562  0.1430  0.2140
 8350TIP3    H125014   1.904   5.553   0.387  0.4680  0.6335  1.5034
 8350TIP3    H225015   1.966   5.611   0.262  0.6667 -2.3633  0.1145
 8351TIP3   OH225016   1.847   1.452   4.856  0.0692 -0.2993  0.6112
 8351TIP3    H125017   1.755   1.471   4.871  0.5289 -0.1113  3.9334
 8351TIP3    H225018   1.869   1.502   4.777 -1.8835  2.4592  1.6707
 8352TIP3   OH225019   3.612   0.500   0.995 -0.1224  0.6633 -0.5506
 8352TIP3    H125020   3.574   0.528   1.078  2.5682 -1.1934  1.4859
 8352TIP3    H225021   3.542   0.449   0.953 -1.1217  0.4715  1.2254
 8353TIP3   OH225022   0.550   4.439   5.818  0.3400 -0.0831 -0.2338
 8353TIP3    H125023   0.467   4.419   5.774 -1.0748  3.8852  0.1773
 8353TIP3    H225024   0.528   4.442   5.911  1.5141 -1.1433  0.0976
 8354TIP3   OH225025   3.957   0.563   0.541  0.3230 -0.2811 -0.0243
 8354TIP3    H125026   4.000   0.479   0.525 -1.8677 -1.1792 -1.7122
 8354TIP3    H225027   3.868   0.541   0.568 -0.4579  1.4395 -0.9648
 8355TIP3   OH225028   4.994   0.629   2.595  0.5474  0.7634 -0.3570
 8355TIP3    H125029   4.905   0.652   2.568  0.2206 -0.2475 -0.2108
 8355TIP3    H225030   4.985   0.603   2.687 -0.0429 -4.1256 -1.5103
 8356TIP3   OH225031   6.971   5.606   4.656 -0.1701 -0.0261  0.5040
 8356TIP3    H125032   6.923   5.677   4.697 -0.7741 -1.0466  1.6069
 8356TIP3    H225033   6.936   5.526   4.696  0.0630 -0.9955 -1.1303
 8357TIP3   OH225034   4.989   3.704   3.164  0.0437 -0.4424  0.6290
 8357TIP3    H125035   4.909   3.749   3.191  0.4622  0.8255 -0.1445
 8357TIP3    H225036   4.969   3.611   3.173 -1.1602 -0.1308  1.4321
 8358TIP3   OH225037   0.585   4.663   4.619  0.4542  0.6412 -0.2925
 8358TIP3    H125038   0.572   4.569   4.611 -1.8087  0.9780 -1.3168
 8358TIP3    H225039   0.630   4.688   4.538  0.5599  0.5274 -0.2692
 8359TIP3   OH225040   2.622   3.925   2.096  0.0855 -0.3279  0.0296
 8359TIP3    H125041   2.670   3.976   2.031  1.5736 -1.4945  0.1533
 8359TIP3    H225042   2.686   3.906   2.164 -1.1462 -0.0959  1.2930
 8360TIP3   OH225043   4.771   1.986   4.836  0.3297 -0.2222  0.1610
 8360TIP3    H125044   4.858   1.956   4.861  0.5623  0.5017  0.2498
 8360TIP3    H225045   4.711   1.942   4.897  0.7353  0.1373  0.8255
 8361TIP3   OH225046   6.446   5.473   1.866 -0.3714  0.4674  0.0994
 8361TIP3    H125047   6.397   5.432   1.937  1.3893 -0.1518  1.0273
 8361TIP3    H225048   6.502   5.537   1.910  1.9093 -1.0117 -0.4325
 8362TIP3   OH225049   2.339   3.534   5.338  0.1809  0.1152  0.3634
 8362TIP3    H125050   2.398   3.544   5.413  1.3231  0.9157 -0.6166
 8362TIP3    H225051   2.317   3.623   5.313 -0.1023 -0.1465 -0.3251
 8363TIP3   OH225052   4.634   6.661   5.761 -0.3977 -0.5481  0.1610
 8363TIP3    H125053   4.553   6.631   5.801 -0.7568 -2.6260 -1.9491
 8363TIP3    H225054   4.699   6.595   5.784 -0.1882 -0.8128 -1.1239
 8364TIP3   OH225055   1.149   4.034   2.093  0.4330  0.2794  0.1007
 8364TIP3    H125056   1.190   4.080   2.020 -1.1792 -1.8882 -2.3004
 8364TIP3    H225057   1.072   4.087   2.114  1.8828  1.9470  1.6709
 8365TIP3   OH225058   7.049   5.409   0.347 -0.1454  0.1083  0.1534
 8365TIP3    H125059   6.963   5.382   0.378  0.2729 -1.7856 -0.2039
 8365TIP3    H225060   7.036   5.430   0.254 -0.0853 -1.1007 -0.1529
 8366TIP3   OH225061   0.827   0.522   3.207  0.0240 -0.6114 -0.1876
 8366TIP3    H125062   0.734   0.502   3.213 -0.2141  0.7825  1.7569
 8366TIP3    H225063   0.870   0.452   3.257 -0.3296  0.5569  1.8614
 8367TIP3   OH225064   2.422   0.782   3.451  0.0470 -0.0292  0.5937
 8367TIP3    H125065   2.437   0.791   3.357 -1.5869 -2.5529 -0.0235
 8367TIP3    H225066   2.497   0.731   3.482  0.1477  0.0448  0.4721
 8368TIP3   OH225067   2.684   3.736   1.261 -0.1292  0.4455 -0.2230
 8368TIP3    H125068   2.768   3.738   1.307 -0.6165 -0.2546  0.7177
 8368TIP3    H225069   2.672   3.826   1.230  1.8515  0.1619 -2.0414
 8369TIP3   OH225070   3.784   5.966   0.738  0.5349 -0.3884 -0.3801
 8369TIP3    H125071   3.692   5.939   0.744  0.3676  0.1154 -0.6437
 8369TIP3    H225072   3.791   6.008   0.652  0.5710  1.2403  0.3856
 8370TIP3   OH225073   1.123   3.896   2.657  0.2361  0.1986 -0.0786
 8370TIP3    H125074   1.128   3.984   2.695 -2.4224  1.3505 -2.0974
 8370TIP3    H225075   1.047   3.899   2.600 -0.2742 -3.6307  0.1741
 8371TIP3   OH225076   0.249   6.663   0.662 -0.1676  0.1534 -0.2173
 8371TIP3    H125077   0.253   6.597   0.594 -0.6504  0.3753 -0.4646
 8371TIP3    H225078   0.159   6.657   0.696  0.0256  0.1416  0.2966
 8372TIP3   OH225079   6.359   6.455   4.963 -0.1824 -0.0139  0.1611
 8372TIP3    H125080   6.375   6.394   5.035 -0.4941  0.7974  0.9358
 8372TIP3    H225081   6.337   6.538   5.006  1.1034  0.8964 -0.8523
 8373TIP3   OH225082   2.738   3.877   0.870 -0.1668 -0.0384 -0.4049
 8373TIP3    H125083   2.728   3.786   0.898  1.2134 -0.6038 -1.6285
 8373TIP3    H225084   2.679   3.886   0.795 -0.1239 -0.0042 -0.4349
 8374TIP3   OH225085   3.403   1.102   1.743 -0.0062 -0.7154 -0.1575
 8374TIP3    H125086   3.374   1.115   1.653 -0.3311 -0.9052 -0.0825
 8374TIP3    H225087   3.324   1.075   1.790  0.1143 -0.4091  0.2279
 8375TIP3   OH225088   2.739   5.660   5.847  0.2618  0.0204 -0.1251
 8375TIP3    H125089   2.831   5.659   5.821  1.0962  2.7049  2.2700
 8375TIP3    H225090   2.738   5.704   5.931 -3.3602  1.0554 -0.5492
 8376TIP3   OH225091   5.656   4.453   5.488  0.4378 -0.4795  0.4867
 8376TIP3    H125092   5.696   4.369   5.510 -0.4450 -0.7508  1.1212
 8376TIP3    H225093   5.562   4.434   5.485  0.0263  0.8893  2.5979
 8377TIP3   OH225094   1.562   0.692   2.985 -0.5718  0.0797  1.2828
 8377TIP3    H125095   1.505   0.657   2.917 -0.6805  0.9253  0.9175
 8377TIP3    H225096   1.647   0.702   2.942 -0.0646 -1.3662  1.8817
 8378TIP3   OH225097   0.228   6.602   3.433 -0.4501 -0.2095  0.0851
 8378TIP3    H125098   0.277   6.537   3.382  0.6937  0.9987 -0.4082
 8378TIP3    H225099   0.270   6.602   3.518  0.7187  1.1062 -0.4582
 8379TIP3   OH225100   1.450   4.866   4.927  0.3782 -0.2443 -0.1158
 8379TIP3    H125101   1.420   4.776   4.944  0.3294 -0.1791  0.1471
 8379TIP3    H225102   1.528   4.876   4.981  0.0773  0.0479  0.2680
 8380TIP3   OH225103   2.557   3.517   3.409  0.0683 -0.3510  0.0201
 8380TIP3    H125104   2.522   3.557   3.329  0.4724  0.1578  0.0878
 8380TIP3    H225105   2.650   3.502   3.389 -0.1016 -1.3557 -0.0368
 8381TIP3   OH225106   6.968   5.408   0.867  0.2386  0.1883  0.3559
 8381TIP3    H125107   7.054   5.442   0.890  0.4229  1.1946 -1.5888
 8381TIP3    H225108   6.909   5.445   0.933  1.2210 -0.3203  1.5659
 8382TIP3   OH225109   6.241   4.477   2.931 -0.1948  0.0838  0.4232
 8382TIP3    H125110   6.239   4.419   3.006 -1.0184 -0.3902  0.0390
 8382TIP3    H225111   6.281   4.558   2.964  0.5643 -0.5332  1.0618
 8383TIP3   OH225112   1.700   2.262   3.472  0.3115 -0.3624  0.1458
 8383TIP3    H125113   1.683   2.178   3.515 -0.0766 -1.0884 -1.3280
 8383TIP3    H225114   1.612   2.295   3.450  0.4256  0.8217  1.3927
 8384TIP3   OH225115   0.725   2.316   0.287 -0.2510  0.2878 -0.4035
 8384TIP3    H125116   0.801   2.289   0.339  0.1267 -0.2470 -1.2220
 8384TIP3    H225117   0.762   2.351   0.206 -0.8610  0.4315 -0.6284
 8385TIP3   OH225118   6.725   4.420   0.686 -0.0022 -0.4728 -0.4710
 8385TIP3    H125119   6.735   4.326   0.697 -0.8179 -0.5241 -0.0486
 8385TIP3    H225120   6.787   4.458   0.749  1.9357 -0.6719 -2.1593
 8386TIP3   OH225121   0.762   1.599   2.506  0.6098  0.6196  0.0261
 8386TIP3    H125122   0.702   1.579   2.435  0.3863  0.9681  0.1157
 8386TIP3    H225123   0.838   1.638   2.462  0.4108  0.9697 -0.0088
 8387TIP3   OH225124   1.705   5.760   5.192  0.5826  0.0991 -0.3231
 8387TIP3    H125125   1.628   5.736   5.244  1.3680  0.2661  0.9575
 8387TIP3    H225126   1.702   5.700   5.117 -0.0488 -0.8386  0.4120
 8388TIP3   OH225127   6.486   3.596   5.523  0.4740 -0.2377 -0.0832
 8388TIP3    H125128   6.397   3.632   5.525  0.8172  0.5803  1.7308
 8388TIP3    H225129   6.543   3.673   5.517  1.1054 -0.6651  0.3734
 8389TIP3   OH225130   0.546   1.841   5.555 -0.3132 -0.0974  0.3984
 8389TIP3    H125131   0.572   1.931   5.537  0.9869 -0.3386  0.9582
 8389TIP3    H225132   0.474   1.824   5.494 -1.3976  1.6983  1.1020
 8390TIP3   OH225133   2.864   4.915   2.343  0.0208 -0.5910  0.2424
 8390TIP3    H125134   2.914   4.834   2.334  2.4863  0.7806  0.8332
 8390TIP3    H225135   2.930   4.983   2.354 -1.9675  1.5188 -0.1323
 8391TIP3   OH225136   0.703   5.942   5.337  0.1497 -0.1135 -0.8005
 8391TIP3    H125137   0.647   5.890   5.395  0.5308 -1.3179 -1.4636
 8391TIP3    H225138   0.703   6.030   5.375 -2.0390 -0.1058 -0.6762
 8392TIP3   OH225139   5.096   2.554   0.197 -0.2474  0.0881  0.6720
 8392TIP3    H125140   5.164   2.488   0.188 -0.6519 -0.0911 -1.6307
 8392TIP3    H225141   5.096   2.576   0.290  0.3446 -2.6741  1.4057
 8393TIP3   OH225142   6.348   4.632   5.552  0.0481 -0.0479 -0.0240
 8393TIP3    H125143   6.435   4.596   5.534  0.4591  0.5583  0.6515
 8393TIP3    H225144   6.352   4.658   5.644 -0.6517  0.5223 -0.1457
 8394TIP3   OH225145   0.785   2.123   5.121 -0.0069 -0.0324 -0.1250
 8394TIP3    H125146   0.701   2.081   5.099 -0.8600  0.3896  2.0514
 8394TIP3    H225147   0.845   2.050   5.136  0.0783 -0.3391 -1.7824
 8395TIP3   OH225148   7.084   0.912   2.161 -0.3422  0.1939 -0.4930
 8395TIP3    H125149   7.087   0.895   2.255  0.0802  0.7846 -0.3915
 8395TIP3    H225150   7.133   0.994   2.150 -0.5105  0.2057 -1.2086
 8396TIP3   OH225151   3.774   3.735   3.675  0.1995  0.5122 -0.4428
 8396TIP3    H125152   3.799   3.750   3.584 -0.8824 -0.0437 -0.8455
 8396TIP3    H225153   3.699   3.676   3.670 -0.1094  0.7710  0.7972
 8397TIP3   OH225154   6.158   6.546   1.159  0.2858 -0.3472  0.4370
 8397TIP3    H125155   6.073   6.543   1.116  0.6801  0.9234 -0.5036
 8397TIP3    H225156   6.141   6.584   1.245 -0.1953 -0.7986  0.5413
 8398TIP3   OH225157   1.657   2.202   4.437  0.4484 -0.4853  0.3969
 8398TIP3    H125158   1.613   2.181   4.355  1.0184  2.2514 -0.7483
 8398TIP3    H225159   1.597   2.173   4.505 -0.7139 -1.5041 -0.9988
 8399TIP3   OH225160   6.384   2.573   0.026 -0.2910 -0.3349  0.3207
 8399TIP3    H125161   6.408   2.483   0.051 -1.6170 -0.9738 -0.5462
 8399TIP3    H225162   6.450   2.599  -0.038 -0.2481 -0.9439  0.1113
 8400TIP3   OH225163   6.300   1.793   4.602  0.1071  0.1743 -0.0083
 8400TIP3    H125164   6.337   1.745   4.677  0.1439  0.0674 -0.0950
 8400TIP3    H225165   6.247   1.863   4.642  1.4933  1.1910  0.1362
 8401TIP3   OH225166   1.631   3.111   4.773 -0.2856  0.1499 -0.3802
 8401TIP3    H125167   1.601   3.040   4.830 -0.9074  1.2743  0.7277
 8401TIP3    H225168   1.558   3.123   4.711 -0.3822  0.1414 -0.2693
 8402TIP3   OH225169   2.979   6.752   2.566 -0.1767 -0.6679 -0.0531
 8402TIP3    H125170   3.009   6.702   2.490 -0.4355  0.1658 -0.7154
 8402TIP3    H225171   2.980   6.843   2.537  1.6232 -0.1068  1.5601
 8403TIP3   OH225172   1.276   4.157   1.490  0.2811  0.3677  0.1305
 8403TIP3    H125173   1.330   4.232   1.467 -1.2423  0.8342 -2.2771
 8403TIP3    H225174   1.221   4.188   1.562 -2.0338  2.5719 -2.3227
 8404TIP3   OH225175   1.668   6.471   5.052  0.0630 -0.3476 -0.6227
 8404TIP3    H125176   1.752   6.443   5.017 -0.4755 -0.9399 -1.4833
 8404TIP3    H225177   1.675   6.566   5.058  1.1494 -0.4611  0.2989
 8405TIP3   OH225178   0.253   1.716   4.386 -0.1164  0.1911  0.4844
 8405TIP3    H125179   0.215   1.710   4.299  2.7075 -0.8683 -0.7894
 8405TIP3    H225180   0.187   1.676   4.444 -0.7990 -1.9602 -1.6272
 8406TIP3   OH225181   0.915   2.674   2.099 -0.7434  0.1078 -0.3762
 8406TIP3    H125182   0.832   2.627   2.086 -0.0224 -1.8776  1.6366
 8406TIP3    H225183   0.974   2.637   2.034 -1.3280  1.4543 -1.7459
 8407TIP3   OH225184   7.105   4.097   2.719 -0.1113 -0.3381 -0.1637
 8407TIP3    H125185   7.195   4.112   2.689  0.2691 -0.6726  0.7824
 8407TIP3    H225186   7.115   4.053   2.803 -1.1779 -1.1928 -0.4712
 8408TIP3   OH225187   5.892   6.110   3.322 -0.0714  0.2504 -0.2010
 8408TIP3    H125188   5.869   6.189   3.272  1.0838  1.9556  1.7848
 8408TIP3    H225189   5.829   6.108   3.394  1.7731  1.2308  1.5349
 8409TIP3   OH225190   3.016   5.319   2.846  0.0765 -0.0138  0.1553
 8409TIP3    H125191   3.021   5.387   2.779  1.9793 -0.9396 -0.7243
 8409TIP3    H225192   2.987   5.240   2.800 -3.0182  0.2955  1.3324
 8410TIP3   OH225193   5.273   0.219   3.906 -0.3703  0.6465  0.0530
 8410TIP3    H125194   5.311   0.209   3.818 -0.0978  0.7178  0.1606
 8410TIP3    H225195   5.191   0.169   3.902 -0.0669  0.1422 -0.0623
 8411TIP3   OH225196   4.125   3.828   0.400 -0.0105 -0.3636  0.3014
 8411TIP3    H125197   4.172   3.911   0.415  1.2145 -1.0827  0.6316
 8411TIP3    H225198   4.050   3.853   0.347  0.6752  0.8782 -0.1514
 8412TIP3   OH225199  -0.021   4.643   2.375  0.0802 -0.1970  0.6764
 8412TIP3    H125200   0.016   4.555   2.384  1.4211  0.3106  0.2345
 8412TIP3    H225201   0.011   4.692   2.450  1.2863  0.5702 -0.3090
 8413TIP3   OH225202   1.231   5.372   0.563 -0.1696 -0.7592 -0.4427
 8413TIP3    H125203   1.194   5.322   0.636  1.5450  0.3938  1.3387
 8413TIP3    H225204   1.310   5.324   0.538  0.4685  0.0143  0.0236
 8414TIP3   OH225205   0.108   5.054   1.777 -0.3757  0.2422 -0.2070
 8414TIP3    H125206   0.162   5.026   1.851 -0.5069 -0.3948 -0.3457
 8414TIP3    H225207   0.088   5.145   1.795  1.3633  0.7193 -0.5133
 8415TIP3   OH225208   4.758   4.101   2.764 -0.2189 -0.5494 -0.4660
 8415TIP3    H125209   4.713   4.136   2.841  0.4573 -0.3801 -0.1467
 8415TIP3    H225210   4.690   4.097   2.697 -0.7850 -0.5669  0.0940
 8416TIP3   OH225211   5.747   5.831   0.168  0.0167 -0.4549  0.0407
 8416TIP3    H125212   5.763   5.917   0.207  0.3184  0.0676 -1.1941
 8416TIP3    H225213   5.714   5.777   0.241 -1.9086  1.1775  0.4608
 8417TIP3   OH225214   2.287   5.162   1.200  0.0207 -0.1756 -0.1643
 8417TIP3    H125215   2.332   5.190   1.120  2.0716 -0.3577  0.8551
 8417TIP3    H225216   2.247   5.243   1.234  0.1875  0.1448 -0.7156
 8418TIP3   OH225217   3.521   0.756   5.075  0.6628 -0.3557 -0.7741
 8418TIP3    H125218   3.609   0.783   5.051  0.6593  0.3266 -0.0497
 8418TIP3    H225219   3.469   0.836   5.072  0.2981 -0.5603 -0.1936
 8419TIP3   OH225220   4.767   1.412   2.975 -0.1590  0.3909 -0.7762
 8419TIP3    H125221   4.838   1.475   2.988  0.4658 -0.7022  1.5042
 8419TIP3    H225222   4.689   1.467   2.965  0.2934  1.5868  1.5716
 8420TIP3   OH225223   2.040   2.030  -0.007  0.6713  0.5911 -0.4370
 8420TIP3    H125224   2.057   2.008   0.085  1.0214 -0.0863 -0.6583
 8420TIP3    H225225   2.088   1.964  -0.057  0.6191  1.0518 -1.1140
 8421TIP3   OH225226   6.801   2.494   0.846  0.4898 -0.2339 -0.4757
 8421TIP3    H125227   6.781   2.428   0.913 -0.3584  0.4137 -0.0704
 8421TIP3    H225228   6.791   2.577   0.892 -2.4015  0.3332 -1.9467
 8422TIP3   OH225229   1.492   0.257   5.831 -0.5379 -0.0854  0.1789
 8422TIP3    H125230   1.536   0.177   5.800 -0.0915 -0.3394  1.4164
 8422TIP3    H225231   1.544   0.328   5.794  0.4743 -0.3877  0.9549
 8423TIP3   OH225232   6.282   0.234   1.717 -0.2023 -0.3193 -0.3492
 8423TIP3    H125233   6.198   0.191   1.701  0.5722 -2.5657  1.1745
 8423TIP3    H225234   6.347   0.179   1.672  0.7565 -0.4307  1.0895
 8424TIP3   OH225235   5.348   2.889   1.049 -0.0714  0.2069  0.6076
 8424TIP3    H125236   5.310   2.829   0.984 -0.2981 -0.4793  1.3597
 8424TIP3    H225237   5.272   2.935   1.086  0.2293  2.6260 -1.4992
 8425TIP3   OH225238   3.601   2.911   2.174 -0.2616 -0.8077 -0.8618
 8425TIP3    H125239   3.607   2.847   2.244 -1.7959  0.5809  0.6538
 8425TIP3    H225240   3.507   2.921   2.159 -0.1533  1.6520 -0.4208
 8426TIP3   OH225241   0.362   2.680   2.819 -0.4289 -0.0156  0.3500
 8426TIP3    H125242   0.424   2.653   2.887 -0.4794  0.6414  0.6709
 8426TIP3    H225243   0.276   2.661   2.857 -0.4524  0.2100  0.4140
 8427TIP3   OH225244   1.120   4.006   4.547 -0.6447 -0.1252 -0.1991
 8427TIP3    H125245   1.075   3.928   4.513  0.0765 -0.9059  0.5713
 8427TIP3    H225246   1.167   4.041   4.471 -2.7592  0.9125 -1.1117
 8428TIP3   OH225247   1.285   6.737   4.696 -0.2507  0.2822  0.1276
 8428TIP3    H125248   1.325   6.722   4.781 -0.7554 -0.3665  0.2613
 8428TIP3    H225249   1.355   6.773   4.642  0.5482 -0.9369  0.3104
 8429TIP3   OH225250   3.960   4.128   1.259 -0.1991 -0.1143  0.6852
 8429TIP3    H125251   3.899   4.189   1.301 -0.7773 -1.1175  1.3532
 8429TIP3    H225252   3.907   4.084   1.192  0.5518  1.0181 -0.7056
 8430TIP3   OH225253   0.213   2.987   3.662 -0.3526  0.0152  0.2117
 8430TIP3    H125254   0.239   2.931   3.735  0.4097  0.6619  0.4585
 8430TIP3    H225255   0.278   2.969   3.594 -1.2460 -0.8176 -0.4414
 8431TIP3   OH225256   5.728   2.545   2.762  0.7819 -0.0915  0.2893
 8431TIP3    H125257   5.800   2.607   2.779 -0.1942  0.8626  1.0876
 8431TIP3    H225258   5.724   2.492   2.841 -0.9759  1.5142  1.3564
 8432TIP3   OH225259   5.946   0.666   0.490  0.7754 -0.2840 -0.2976
 8432TIP3    H125260   5.953   0.712   0.407 -1.2412 -0.5544 -0.6569
 8432TIP3    H225261   5.859   0.627   0.490  1.1390 -1.2529  1.4663
 8433TIP3   OH225262   2.177   4.329   2.130 -0.0012  0.5187 -0.2645
 8433TIP3    H125263   2.222   4.403   2.170  1.3762  0.1404 -1.0784
 8433TIP3    H225264   2.222   4.252   2.164 -1.1499  0.0367  0.2405
 8434TIP3   OH225265   2.441   5.160   0.969  0.1110 -0.3955 -0.3481
 8434TIP3    H125266   2.426   5.111   0.889 -0.3183  1.7315 -1.6413
 8434TIP3    H225267   2.522   5.124   1.005  0.8368 -0.7485 -2.2453
 8435TIP3   OH225268   1.171   5.787   4.929 -1.0726 -0.3967  0.0825
 8435TIP3    H125269   1.089   5.757   4.969 -0.6395 -0.1837  1.1390
 8435TIP3    H225270   1.237   5.773   4.996 -0.4733  0.7898 -0.2450
 8436TIP3   OH225271   1.143   1.539   4.445 -0.1794  0.5990  0.0068
 8436TIP3    H125272   1.065   1.530   4.499  0.2079 -0.1200  0.4641
 8436TIP3    H225273   1.127   1.481   4.370 -0.4453  1.1074 -0.3317
 8437TIP3   OH225274   0.502   2.886   2.715 -0.1097  0.6128  0.2047
 8437TIP3    H125275   0.474   2.818   2.777  0.3219  0.8319  0.6443
 8437TIP3    H225276   0.556   2.945   2.767  0.0683  0.9277 -0.3319
 8438TIP3   OH225277   1.624   5.190   5.345  0.1960  0.2774 -0.8003
 8438TIP3    H125278   1.551   5.180   5.284 -0.8691 -3.2692  0.7836
 8438TIP3    H225279   1.582   5.205   5.430  1.2241 -1.9510  0.1630
 8439TIP3   OH225280   5.873   1.833   3.305 -0.1669  0.1556 -0.2696
 8439TIP3    H125281   5.876   1.853   3.399  1.2955 -0.7036 -0.1020
 8439TIP3    H225282   5.868   1.918   3.262  0.5892  0.6314  0.5618
 8440TIP3   OH225283   3.288   3.840   5.849 -0.1754  0.1950  0.3475
 8440TIP3    H125284   3.291   3.913   5.911 -0.4254 -0.3093  0.9758
 8440TIP3    H225285   3.195   3.823   5.838 -0.1190  0.0134  0.1581
 8441TIP3   OH225286   3.338   3.300   0.762 -0.7396  0.4948 -0.2314
 8441TIP3    H125287   3.433   3.289   0.765 -0.7082  0.8078  0.0381
 8441TIP3    H225288   3.303   3.218   0.797 -0.6123 -0.1844 -1.6263
 8442TIP3   OH225289   1.385   5.755   1.873  0.0055  0.2797 -0.5572
 8442TIP3    H125290   1.325   5.703   1.820 -0.5103  1.4166 -1.1337
 8442TIP3    H225291   1.402   5.833   1.820  0.4696  0.8639  0.4181
 8443TIP3   OH225292   0.827   5.202   4.938  0.0167 -0.1841  0.3025
 8443TIP3    H125293   0.829   5.198   5.034  1.9769 -1.1767  0.2733
 8443TIP3    H225294   0.916   5.224   4.913 -0.1468 -1.2026 -1.3414
 8444TIP3   OH225295   4.718   6.275   2.913 -0.0334 -0.1862 -0.2981
 8444TIP3    H125296   4.628   6.278   2.880  0.0099  1.0585 -0.3213
 8444TIP3    H225297   4.722   6.194   2.964 -1.3904  0.1519  0.3680
 8445TIP3   OH225298   0.547   1.569   5.057  0.2184 -0.0823  0.3444
 8445TIP3    H125299   0.481   1.578   5.126  1.4832  0.7873  1.4820
 8445TIP3    H225300   0.579   1.480   5.065  0.3778  0.0214  0.9181
 8446TIP3   OH225301   3.452   0.916   2.077  0.4195 -0.2543 -0.3589
 8446TIP3    H125302   3.375   0.908   2.020  1.2039 -0.6365 -1.3818
 8446TIP3    H225303   3.455   1.009   2.100  0.5303  0.0605 -1.5793
 8447TIP3   OH225304   4.784   0.275   4.981  0.2874 -0.3209  0.2122
 8447TIP3    H125305   4.803   0.366   4.960 -1.4086  0.4811  1.8213
 8447TIP3    H225306   4.851   0.225   4.936  1.7626  1.7803 -0.0456
 8448TIP3   OH225307   6.698   0.435   0.995 -0.3722  0.4792  0.2038
 8448TIP3    H125308   6.660   0.391   1.071  0.5344  0.9404  0.9321
 8448TIP3    H225309   6.756   0.370   0.956  1.4030  1.1654  1.6045
 8449TIP3   OH225310   0.201   0.842   2.403 -0.1229  0.5801  0.1729
 8449TIP3    H125311   0.180   0.749   2.416  0.6495 -0.2184 -3.2837
 8449TIP3    H225312   0.117   0.885   2.390 -0.4020  0.0778  0.3071
 8450TIP3   OH225313   7.180   2.841   0.098 -0.5612 -0.0190  0.1584
 8450TIP3    H125314   7.237   2.866   0.170 -0.0653  0.5299 -0.4079
 8450TIP3    H225315   7.222   2.764   0.060 -0.0822  0.5003 -0.3784
 8451TIP3   OH225316   5.816   1.424   4.475 -0.3300  0.0881 -0.3352
 8451TIP3    H125317   5.868   1.417   4.395  0.4799 -0.1704  0.1924
 8451TIP3    H225318   5.872   1.386   4.543 -1.7219 -1.3526  0.0610
 8452TIP3   OH225319   4.846   5.669   3.709 -0.1653  0.1678  0.3348
 8452TIP3    H125320   4.905   5.699   3.640 -1.0371  0.2321 -0.4014
 8452TIP3    H225321   4.813   5.749   3.750 -0.8326  0.1887 -0.2114
 8453TIP3   OH225322   6.037   4.963   0.808 -0.0808 -0.0610  0.2376
 8453TIP3    H125323   6.109   5.027   0.810  0.1952 -0.3823  1.3304
 8453TIP3    H225324   5.984   4.984   0.885 -0.3648 -0.7139  0.2295
 8454TIP3   OH225325   5.336   4.469   4.953 -0.5540  0.4673  0.1764
 8454TIP3    H125326   5.278   4.537   4.988 -1.2954 -0.9829  1.8828
 8454TIP3    H225327   5.335   4.400   5.019 -0.9934 -1.8802 -2.1067
 8455TIP3   OH225328   7.048   2.681   5.337 -0.4046  0.0502 -0.4675
 8455TIP3    H125329   7.043   2.757   5.279 -1.8184 -0.2407 -0.7666
 8455TIP3    H225330   7.136   2.685   5.374 -0.8848  2.6097  0.5896
 8456TIP3   OH225331   5.968   2.228   1.180 -0.3550  0.4527  0.2102
 8456TIP3    H125332   5.928   2.308   1.145 -0.8793 -1.0433 -3.0152
 8456TIP3    H225333   6.010   2.188   1.104 -0.2232 -2.3971  1.6792
 8457TIP3   OH225334   3.123   2.389   3.971 -0.1703  0.0140 -0.3924
 8457TIP3    H125335   3.207   2.364   3.932 -1.2764 -1.7968 -1.8052
 8457TIP3    H225336   3.076   2.306   3.982 -2.8533  1.1226 -2.3245
 8458TIP3   OH225337   0.669   5.438   2.947  0.3510  0.0574  0.6988
 8458TIP3    H125338   0.662   5.381   3.024  0.0856 -0.8343  0.0214
 8458TIP3    H225339   0.757   5.423   2.914  0.3377  0.1673  0.6118
 8459TIP3   OH225340   0.825   2.598   3.366  0.2576  0.3370 -1.1757
 8459TIP3    H125341   0.825   2.503   3.378  0.3829  0.5324  0.6921
 8459TIP3    H225342   0.896   2.629   3.422 -1.0193  1.6767 -0.2484
 8460TIP3   OH225343   5.552   1.424   4.426 -0.8193 -0.0106  0.2812
 8460TIP3    H125344   5.643   1.444   4.450 -1.1853  2.1339  0.0285
 8460TIP3    H225345   5.555   1.333   4.395  1.4225  0.2991 -0.5951
 8461TIP3   OH225346   5.543   6.792   2.917  0.1901 -0.3509  0.0716
 8461TIP3    H125347   5.566   6.714   2.968  0.2603  0.1201  0.7595
 8461TIP3    H225348   5.573   6.771   2.828 -0.7112 -1.5205  0.0176
 8462TIP3   OH225349   3.806   4.508   0.398  0.4158  0.4863 -0.1295
 8462TIP3    H125350   3.767   4.437   0.450  2.7104 -0.4849  0.3770
 8462TIP3    H225351   3.764   4.587   0.431 -0.1041 -0.3630  1.3727
 8463TIP3   OH225352   1.166   4.419   3.670 -0.4075  0.0442  0.2314
 8463TIP3    H125353   1.217   4.458   3.598  0.1852 -4.5101 -2.2154
 8463TIP3    H225354   1.103   4.362   3.626 -2.3864 -0.4773  3.4025
 8464TIP3   OH225355   3.337   2.009   2.195 -0.1229 -0.0982  0.6901
 8464TIP3    H125356   3.297   1.942   2.251 -2.7983  0.6968 -0.1392
 8464TIP3    H225357   3.312   1.984   2.106  1.1306  0.5558  0.1288
 8465TIP3   OH225358   0.174   5.479   3.320  0.2559 -0.4621 -0.3262
 8465TIP3    H125359   0.251   5.514   3.275  0.1566 -2.9638 -2.7331
 8465TIP3    H225360   0.101   5.534   3.291  0.7764  0.4817  0.1158
 8466TIP3   OH225361   3.952   5.067   5.040  0.0339 -0.0370  0.4568
 8466TIP3    H125362   3.992   5.037   4.959  0.2716  1.9601 -0.2255
 8466TIP3    H225363   3.935   4.987   5.090  0.5523 -1.2562 -1.2364
 8467TIP3   OH225364   6.164   4.898   4.581  0.2663 -0.0404  0.1587
 8467TIP3    H125365   6.175   4.988   4.551  2.0665 -0.5330 -0.8214
 8467TIP3    H225366   6.252   4.860   4.574  0.0460 -1.2435  2.7322
 8468TIP3   OH225367   3.723   2.510   5.749 -0.0132 -0.1708 -0.2824
 8468TIP3    H125368   3.749   2.488   5.659  1.0532 -0.0660 -0.0111
 8468TIP3    H225369   3.777   2.585   5.773  2.2628 -2.2548  1.6168
 8469TIP3   OH225370   5.091   2.522   0.897  0.2745 -0.1900 -0.2462
 8469TIP3    H125371   5.124   2.467   0.826 -0.6794  0.1393 -0.9712
 8469TIP3    H225372   4.996   2.522   0.885 -0.0037 -0.8788  1.6016
 8470TIP3   OH225373   4.948   5.091   2.876 -0.3162  0.0518 -0.1372
 8470TIP3    H125374   4.879   5.072   2.939 -0.9010  1.4911 -0.3247
 8470TIP3    H225375   5.019   5.031   2.900 -1.2175 -0.6950  0.7255
 8471TIP3   OH225376   4.114   5.818   5.856 -0.3115  0.7867 -0.7032
 8471TIP3    H125377   4.172   5.811   5.932 -2.8053 -0.8157  1.2301
 8471TIP3    H225378   4.165   5.865   5.791  2.3241  1.3950  1.6105
 8472TIP3   OH225379   2.761   0.618   5.255 -0.5755 -0.0909 -0.5213
 8472TIP3    H125380   2.721   0.533   5.236  0.8349 -0.8853 -0.0552
 8472TIP3    H225381   2.704   0.656   5.322  0.5658 -2.1712  1.7910
 8473TIP3   OH225382   6.148   2.914   4.712  0.1494  0.5386 -0.2628
 8473TIP3    H125383   6.187   2.955   4.789 -1.5541 -0.7854  1.3763
 8473TIP3    H225384   6.179   2.823   4.715  0.0266  0.4532 -1.1482
 8474TIP3   OH225385   4.641   4.189   5.150 -0.2141 -0.0698  0.0888
 8474TIP3    H125386   4.684   4.266   5.114  0.8914 -1.1096 -0.9307
 8474TIP3    H225387   4.639   4.204   5.245 -3.3198  2.8018 -0.2490
 8475TIP3   OH225388   2.690   4.121   0.145 -0.3356  0.2567 -0.3173
 8475TIP3    H125389   2.628   4.080   0.205  0.2096  0.0174  0.0938
 8475TIP3    H225390   2.739   4.183   0.200 -0.1844  0.4172 -0.6314
 8476TIP3   OH225391   3.228   0.774   1.241 -0.6845  0.4009 -0.1699
 8476TIP3    H125392   3.249   0.847   1.183 -2.3702  2.9597  2.1886
 8476TIP3    H225393   3.142   0.743   1.210 -1.0534  1.0020  0.2372
 8477TIP3   OH225394   2.026   3.749   3.345  0.0352 -0.1313 -0.3593
 8477TIP3    H125395   2.110   3.790   3.365 -0.6195  1.2925 -0.3916
 8477TIP3    H225396   2.008   3.775   3.254 -1.4451  1.4619  0.3364
 8478TIP3   OH225397   5.517   6.158   5.215  0.0266  0.2973  0.1028
 8478TIP3    H125398   5.567   6.089   5.259 -0.1455 -0.3802 -0.7234
 8478TIP3    H225399   5.425   6.135   5.230 -0.0588 -0.5850 -1.4942
 8479TIP3   OH225400   3.395   3.608   0.144 -0.1344  0.0733 -0.5106
 8479TIP3    H125401   3.363   3.688   0.102 -1.3433  0.8287  1.6780
 8479TIP3    H225402   3.326   3.584   0.206 -0.0182 -3.0083 -1.4394
 8480TIP3   OH225403   1.609   5.787   1.039  0.5948  0.2294 -0.2872
 8480TIP3    H125404   1.568   5.811   0.955  0.2213 -0.3271 -0.2645
 8480TIP3    H225405   1.690   5.838   1.041  0.2161  0.8572 -0.6245
 8481TIP3   OH225406   0.577   3.878   1.285  0.7783 -0.3675  0.1351
 8481TIP3    H125407   0.550   3.877   1.193  2.4156 -0.6700 -0.3807
 8481TIP3    H225408   0.586   3.785   1.308 -1.7166 -0.3869  1.3058
 8482TIP3   OH225409   5.085   5.582   3.054  0.0032 -0.7005 -0.4276
 8482TIP3    H125410   5.050   5.503   3.011 -0.6952 -1.0219  0.6908
 8482TIP3    H225411   5.017   5.608   3.115  0.0994  0.9813 -0.9907
 8483TIP3   OH225412   6.765   5.472   3.007  0.4257  0.0152 -0.0971
 8483TIP3    H125413   6.742   5.430   3.090  2.0342 -0.1923  0.2806
 8483TIP3    H225414   6.766   5.399   2.944  1.2074 -0.1784  0.1333
 8484TIP3   OH225415   3.757   0.368   0.313 -0.1903 -0.0382  0.1567
 8484TIP3    H125416   3.811   0.294   0.340  0.0115  0.4467  1.1610
 8484TIP3    H225417   3.690   0.374   0.382  0.3052  1.2209  0.5602
 8485TIP3   OH225418   6.493   4.446   2.399 -0.1793 -0.2649 -0.1784
 8485TIP3    H125419   6.531   4.457   2.312 -1.6123  2.1920 -0.6050
 8485TIP3    H225420   6.557   4.486   2.459  0.8561 -2.0510 -0.0330
 8486TIP3   OH225421   1.848   6.290   4.874  0.2246  0.3022 -0.4356
 8486TIP3    H125422   1.886   6.219   4.927 -0.3253  1.3111  1.4096
 8486TIP3    H225423   1.754   6.277   4.880  0.1255  1.0587 -0.2603
 8487TIP3   OH225424   7.075   4.743   1.874  0.7417  0.9096  0.5277
 8487TIP3    H125425   7.081   4.839   1.874  1.9797  0.8513  0.3412
 8487TIP3    H225426   7.097   4.718   1.964  0.4587  0.7961  0.5657
 8488TIP3   OH225427   1.613   0.186   3.199 -0.1431  0.1679  0.7384
 8488TIP3    H125428   1.674   0.258   3.213  0.1434  0.4684 -1.5462
 8488TIP3    H225429   1.535   0.227   3.161  0.6061 -0.7778 -2.0800
 8489TIP3   OH225430   0.841   5.443   5.486  0.3628 -0.5282 -0.4872
 8489TIP3    H125431   0.751   5.476   5.497  0.7824  0.5101  0.0029
 8489TIP3    H225432   0.894   5.522   5.473  0.8293 -1.2682 -3.8902
 8490TIP3   OH225433   3.179   1.712   3.244 -0.1480  0.4483  0.0101
 8490TIP3    H125434   3.270   1.728   3.270  0.1209 -1.7954  0.6710
 8490TIP3    H225435   3.141   1.799   3.234  2.3202  1.4955 -1.2429
 8491TIP3   OH225436   4.467   5.217   0.720  0.1331 -0.3627  0.1017
 8491TIP3    H125437   4.376   5.192   0.730 -0.1205  0.9019  1.2919
 8491TIP3    H225438   4.488   5.266   0.800  1.6037  0.1026 -0.5222
 8492TIP3   OH225439   3.423   3.732   1.727 -0.1287 -0.4362 -0.1769
 8492TIP3    H125440   3.328   3.738   1.734 -0.1548 -0.9166 -0.0603
 8492TIP3    H225441   3.451   3.819   1.698 -0.2801  0.8445  3.1244
 8493TIP3   OH225442   1.061   4.709   4.667 -0.1228  0.2528  0.5712
 8493TIP3    H125443   1.088   4.798   4.645  2.2660 -0.1420  1.5734
 8493TIP3    H225444   1.065   4.705   4.762 -2.0192 -0.4363  0.6653
 8494TIP3   OH225445   5.137   5.207   0.209 -0.0131 -0.0824  0.3999
 8494TIP3    H125446   5.229   5.205   0.235  0.3215  1.9222 -0.3754
 8494TIP3    H225447   5.100   5.279   0.260 -0.1760  1.6121 -1.9416
 8495TIP3   OH225448   3.815   6.304   5.839  0.1469  0.3053  0.0512
 8495TIP3    H125449   3.791   6.211   5.844 -2.0443  0.6421 -2.0911
 8495TIP3    H225450   3.741   6.350   5.878  0.7272  1.1832  0.1330
 8496TIP3   OH225451   7.158   0.998   5.770  0.2237 -0.1826 -0.1038
 8496TIP3    H125452   7.120   1.056   5.836  0.6686 -1.1847  1.0715
 8496TIP3    H225453   7.248   0.983   5.800  1.2220  1.1312 -2.1576
 8497TIP3   OH225454   5.011   2.924   0.251 -0.3205 -0.4613 -0.4725
 8497TIP3    H125455   5.012   2.909   0.156  0.0417 -0.0056 -0.5454
 8497TIP3    H225456   5.092   2.973   0.268 -1.1301  0.8379 -0.1700
 8498TIP3   OH225457   1.174   5.643   0.159 -0.0688  0.6028 -0.7257
 8498TIP3    H125458   1.205   5.706   0.093 -1.7982  2.7102  0.3131
 8498TIP3    H225459   1.205   5.680   0.242 -0.7078 -0.2043 -0.1228
 8499TIP3   OH225460   3.612   1.289   3.949 -0.4464  0.5762  0.0527
 8499TIP3    H125461   3.521   1.270   3.928  0.1365 -0.6021 -1.6096
 8499TIP3    H225462   3.648   1.328   3.869  1.1682 -1.5485 -0.3689
 8500TIP3   OH225463   3.010   5.490   3.461  0.8233 -0.0181 -0.1525
 8500TIP3    H125464   2.947   5.455   3.524  0.1355  0.4685 -0.5588
 8500TIP3    H225465   3.095   5.475   3.502  0.3518  1.1444  1.3585
 8501TIP3   OH225466   3.435   2.548   5.363 -0.2307 -0.4412 -0.3364
 8501TIP3    H125467   3.417   2.525   5.454  0.2601  0.7327  0.0791
 8501TIP3    H225468   3.353   2.586   5.331  0.0784  0.6851  0.1493
 8502TIP3   OH225469   2.429   3.979   4.415 -0.2107  0.1069  0.4825
 8502TIP3    H125470   2.456   3.956   4.326 -0.0502  2.0664 -0.0075
 8502TIP3    H225471   2.484   4.054   4.438 -0.9081  0.2141  1.8890
 8503TIP3   OH225472   4.910   2.456   2.289  0.5110 -0.1231  0.1390
 8503TIP3    H125473   4.907   2.549   2.311  1.4076 -0.0260 -0.0795
 8503TIP3    H225474   4.831   2.419   2.328  1.1628  0.3639  2.0383
 8504TIP3   OH225475   1.180   0.547   1.265  0.5260  0.0773 -0.3868
 8504TIP3    H125476   1.127   0.534   1.344 -0.6196 -0.5407 -1.2331
 8504TIP3    H225477   1.270   0.539   1.295  0.1765  1.1481  1.0963
 8505TIP3   OH225478   5.491   5.817   4.919  0.4718  0.2106  0.1891
 8505TIP3    H125479   5.551   5.777   4.857 -0.2568  0.9187 -0.9945
 8505TIP3    H225480   5.437   5.744   4.951 -0.0242  0.0347 -1.0146
 8506TIP3   OH225481   0.295   2.354   0.217 -0.0547 -0.0578 -0.1962
 8506TIP3    H125482   0.216   2.304   0.239 -0.5554  0.2947 -1.1348
 8506TIP3    H225483   0.367   2.303   0.253 -0.6105 -1.0688 -0.4854
 8507TIP3   OH225484   2.325   1.607   1.467  0.6421 -0.2896  0.2226
 8507TIP3    H125485   2.406   1.585   1.422  1.4699 -1.1447  2.0186
 8507TIP3    H225486   2.268   1.641   1.399  1.5982 -2.0551 -1.5741
 8508TIP3   OH225487   1.069   2.253   4.745 -0.0762 -0.3500 -0.0707
 8508TIP3    H125488   1.056   2.348   4.740  0.0329 -0.3410 -0.1923
 8508TIP3    H225489   1.164   2.242   4.743 -0.0118 -0.3735  1.4716
 8509TIP3   OH225490   3.649   6.222   5.439  0.1733  0.1001 -0.0876
 8509TIP3    H125491   3.605   6.290   5.491 -0.6418 -0.8073  0.4508
 8509TIP3    H225492   3.666   6.152   5.502  0.5220 -0.4108 -0.7439
 8510TIP3   OH225493   3.881   1.321   1.880 -0.1713  0.3658 -0.3018
 8510TIP3    H125494   3.940   1.295   1.809  0.4519  1.3620 -0.1600
 8510TIP3    H225495   3.799   1.276   1.859  0.6667 -1.2256 -0.3767
 8511TIP3   OH225496   5.827   0.657   5.634  0.3231 -0.3525 -0.3629
 8511TIP3    H125497   5.912   0.622   5.605  0.0274 -1.2699 -0.1611
 8511TIP3    H225498   5.765   0.626   5.569  0.1616  0.4888 -0.6175
 8512TIP3   OH225499   1.590   5.125   4.013 -0.3928  0.3710  0.4365
 8512TIP3    H125500   1.498   5.135   4.036 -0.5639  0.6631 -0.3408
 8512TIP3    H225501   1.629   5.210   4.033 -0.8457  1.1302 -1.6407
 8513TIP3   OH225502   6.929   4.036   4.873  0.6253  0.5717 -0.2486
 8513TIP3    H125503   7.014   4.042   4.916  0.0901  1.2857  0.7673
 8513TIP3    H225504   6.907   4.126   4.849  1.0853  0.1408 -2.4488
 8514TIP3   OH225505   6.102   4.632   2.183  0.0797  0.2704 -0.2009
 8514TIP3    H125506   6.092   4.661   2.093  1.2166 -2.1645 -1.1930
 8514TIP3    H225507   6.194   4.645   2.203  0.6332 -2.4193 -0.6788
 8515TIP3   OH225508   3.391   5.095   4.305  0.5463 -0.6836 -0.0006
 8515TIP3    H125509   3.349   5.077   4.389  0.9147 -1.0809  0.1054
 8515TIP3    H225510   3.447   5.019   4.290  1.2050 -0.1722 -0.1515
 8516TIP3   OH225511   5.942   0.183   3.194 -0.4123  0.3739 -0.1492
 8516TIP3    H125512   5.981   0.270   3.191 -0.7193  0.4945 -1.0640
 8516TIP3    H225513   5.935   0.156   3.102  0.2609 -0.8856  0.1389
 8517TIP3   OH225514   0.678   5.650   3.153  0.0702 -0.5615 -0.3777
 8517TIP3    H125515   0.685   5.570   3.102 -0.5615 -1.6958  1.2148
 8517TIP3    H225516   0.627   5.625   3.230  2.0260  0.6926  1.4723
 8518TIP3   OH225517   2.262   4.286   2.555  0.3260  0.1205 -0.5317
 8518TIP3    H125518   2.297   4.348   2.491 -1.4804  2.1438  0.3004
 8518TIP3    H225519   2.295   4.316   2.639  0.3198 -0.7368 -0.2083
 8519TIP3   OH225520   5.138   4.778   0.743 -0.2136  0.2563 -0.0325
 8519TIP3    H125521   5.065   4.716   0.747 -0.3955  0.3639 -1.2601
 8519TIP3    H225522   5.215   4.723   0.728 -0.0581  0.1587  1.0656
 8520TIP3   OH225523   6.940   3.641   5.389 -0.2543 -0.3793  0.9040
 8520TIP3    H125524   6.968   3.560   5.432  0.8854 -1.2763 -1.3317
 8520TIP3    H225525   7.005   3.706   5.414  0.1022 -0.7539  0.9732
 8521TIP3   OH225526   1.157   3.254   5.569  0.2166  0.3243  0.4358
 8521TIP3    H125527   1.198   3.305   5.499 -2.0855  2.6745  0.6511
 8521TIP3    H225528   1.144   3.167   5.531  2.5314  0.3694 -0.6428
 8522TIP3   OH225529   3.117   4.733   4.753 -0.0922  0.2989  0.6736
 8522TIP3    H125530   3.205   4.744   4.788 -0.0971  2.0987  0.2015
 8522TIP3    H225531   3.113   4.640   4.728  2.3666  0.5536 -1.1014
 8523TIP3   OH225532   3.542   2.777   3.940  0.1029 -0.0353  0.1394
 8523TIP3    H125533   3.558   2.802   4.031  2.8592  0.2696 -0.3553
 8523TIP3    H225534   3.558   2.683   3.937 -3.8025 -0.9254  0.6264
 8524TIP3   OH225535   5.036   5.776   4.525 -0.5944 -0.1411  0.0719
 8524TIP3    H125536   5.026   5.686   4.494 -0.4764 -0.8098  1.9024
 8524TIP3    H225537   5.121   5.778   4.568 -0.2534  1.0684 -0.6121
 8525TIP3   OH225538   3.759   6.556   0.134  0.0563 -0.2745  0.2754
 8525TIP3    H125539   3.712   6.639   0.127 -1.5618 -1.1173  0.5144
 8525TIP3    H225540   3.694   6.490   0.111  1.3947 -1.4702 -0.2370
 8526TIP3   OH225541   5.853   6.362   4.961 -0.5318 -0.3817  0.1526
 8526TIP3    H125542   5.892   6.385   5.046 -3.1673 -1.2148  1.7219
 8526TIP3    H225543   5.923   6.318   4.913  0.6568 -1.2012  2.4828
 8527TIP3   OH225544   5.831   1.083   1.207  0.4032 -0.6105 -0.2472
 8527TIP3    H125545   5.789   1.135   1.276 -1.2452 -0.4553 -1.2847
 8527TIP3    H225546   5.917   1.122   1.195  0.6671 -0.5747  1.6202
 8528TIP3   OH225547   6.881   2.128   2.017  0.4738  0.0924  0.1393
 8528TIP3    H125548   6.926   2.208   2.046  0.5125 -0.1703  0.8404
 8528TIP3    H225549   6.811   2.116   2.082 -1.3932  1.1321 -1.5598
 8529TIP3   OH225550   4.059   2.266   3.959  0.2306 -0.1231  0.1967
 8529TIP3    H125551   4.103   2.301   4.036 -0.2842  1.8154 -0.3379
 8529TIP3    H225552   3.969   2.248   3.988  0.6801 -1.8024  0.6614
 8530TIP3   OH225553   4.199   1.089   1.830 -0.4067  0.4523 -0.3069
 8530TIP3    H125554   4.155   1.109   1.913  1.0542 -0.0150  0.6109
 8530TIP3    H225555   4.208   0.993   1.830 -2.7942  0.1216 -2.2998
 8531TIP3   OH225556   4.813   6.281   3.262  0.1412 -0.3406 -0.2071
 8531TIP3    H125557   4.862   6.208   3.298 -2.0111 -1.6565  0.2330
 8531TIP3    H225558   4.813   6.267   3.168 -1.6972 -1.9455 -0.0183
 8532TIP3   OH225559   4.944   0.969   5.137 -0.4610 -0.1841 -0.0845
 8532TIP3    H125560   5.012   1.029   5.167 -0.3407  0.0199 -0.7530
 8532TIP3    H225561   4.879   0.970   5.206  1.2610 -2.1603  1.7133
 8533TIP3   OH225562   6.620   6.189   4.786 -0.1247  0.7654 -0.0807
 8533TIP3    H125563   6.671   6.255   4.833  1.1166  1.7663 -2.6143
 8533TIP3    H225564   6.617   6.114   4.844 -1.8388  3.0570  3.0803
 8534TIP3   OH225565   1.856   5.185   2.710 -0.4321 -0.4055  0.7547
 8534TIP3    H125566   1.846   5.220   2.622 -0.1700 -0.6613  0.6199
 8534TIP3    H225567   1.823   5.095   2.703  1.4143 -1.1031  0.4227
 8535TIP3   OH225568   0.140   5.076   4.332 -0.0970  0.2337  0.1542
 8535TIP3    H125569   0.234   5.059   4.322  0.0716  0.5172  1.0992
 8535TIP3    H225570   0.112   5.107   4.246  0.5514 -0.3792 -0.2946
 8536TIP3   OH225571   1.012   1.316   3.198 -0.1481 -0.3140 -0.9128
 8536TIP3    H125572   0.940   1.345   3.142 -1.5219 -1.0536  0.3907
 8536TIP3    H225573   1.003   1.220   3.200  0.4040 -0.3533 -0.1205
 8537TIP3   OH225574   6.843   2.559   3.637 -0.6803  0.3662 -0.5488
 8537TIP3    H125575   6.748   2.560   3.645 -0.4967 -0.3459  3.1410
 8537TIP3    H225576   6.873   2.630   3.694  1.0395 -0.1753 -0.7304
 8538TIP3   OH225577   1.616   2.917   3.506  0.5637 -0.6578  0.6640
 8538TIP3    H125578   1.652   2.997   3.544  0.4345  0.3276 -1.1706
 8538TIP3    H225579   1.692   2.869   3.474  0.5908 -0.8762  1.0650
 8539TIP3   OH225580   6.401   6.521   2.293 -0.2280 -0.4529  0.1889
 8539TIP3    H125581   6.401   6.605   2.339 -0.7687 -0.3082 -0.0784
 8539TIP3    H225582   6.483   6.521   2.243 -1.8633  1.5277 -2.7416
 8540TIP3   OH225583   3.276   5.200   3.154  0.4901  0.0097 -0.5322
 8540TIP3    H125584   3.339   5.200   3.226  0.2812 -1.7265 -0.3132
 8540TIP3    H225585   3.312   5.262   3.090  1.5910  0.2325  0.2890
 8541TIP3   OH225586   3.750   6.180   3.453 -0.3650  0.1191  0.4975
 8541TIP3    H125587   3.828   6.227   3.424 -0.4549 -0.0662 -0.0531
 8541TIP3    H225588   3.741   6.107   3.392 -1.3251  0.4982  0.1636
 8542TIP3   OH225589   4.513   3.971   1.448  0.2822 -0.5659 -0.3920
 8542TIP3    H125590   4.527   3.920   1.528 -1.9935  1.8095  1.6654
 8542TIP3    H225591   4.467   3.911   1.390 -1.7801 -1.1714  1.7106
 8543TIP3   OH225592   6.101   5.670   1.203  0.2123  0.0917 -0.1325
 8543TIP3    H125593   6.132   5.761   1.204  0.2075  0.1258 -1.3415
 8543TIP3    H225594   6.036   5.668   1.133  0.3791 -0.8927 -0.2659
 8544TIP3   OH225595   4.088   4.805   2.202 -0.8897 -0.1347  0.3520
 8544TIP3    H125596   4.137   4.722   2.204  0.7782  0.8231  1.6664
 8544TIP3    H225597   4.070   4.825   2.294 -0.7452  1.2506  0.1011
 8545TIP3   OH225598   2.132   2.581   2.902  0.1827  0.4846  0.4827
 8545TIP3    H125599   2.065   2.551   2.964  1.3351  0.4433  1.7598
 8545TIP3    H225600   2.142   2.508   2.841 -1.4245  0.7743 -0.1863
 8546TIP3   OH225601   3.620   1.514   4.875  0.4591 -0.2411 -0.5069
 8546TIP3    H125602   3.608   1.545   4.965 -0.0808  2.2902 -1.3717
 8546TIP3    H225603   3.555   1.444   4.866  0.6657 -0.6953  1.0982
 8547TIP3   OH225604   6.469   2.459   5.077 -0.3785  0.0917  0.2716
 8547TIP3    H125605   6.483   2.451   4.982 -0.6630  0.4995  0.1944
 8547TIP3    H225606   6.527   2.530   5.104  0.1652 -0.4316  0.5134
 8548TIP3   OH225607   6.883   0.217   2.485  0.0159  0.5115 -0.2550
 8548TIP3    H125608   6.976   0.232   2.498 -0.2387  3.5768 -1.2611
 8548TIP3    H225609   6.877   0.163   2.406  0.9279  0.2201 -0.1256
 8549TIP3   OH225610   6.733   6.374   2.352 -0.3806 -0.3430  0.5042
 8549TIP3    H125611   6.645   6.341   2.373 -0.3481 -1.8331 -1.4242
 8549TIP3    H225612   6.743   6.356   2.259  2.7936 -2.1715  1.0734
 8550TIP3   OH225613   0.820   4.654   0.581  0.6833 -0.0498 -0.2178
 8550TIP3    H125614   0.754   4.643   0.650  0.5220 -0.9597 -0.5085
 8550TIP3    H225615   0.858   4.568   0.571  1.3004  0.2761 -0.6879
 8551TIP3   OH225616   7.058   2.619   4.899  0.6886  0.3050  0.3770
 8551TIP3    H125617   6.977   2.637   4.851  2.7375  1.3078 -3.0481
 8551TIP3    H225618   7.068   2.694   4.958 -0.4757  0.5793  0.2469
 8552TIP3   OH225619   4.214   0.306   4.850 -0.1149  0.6967 -0.2537
 8552TIP3    H125620   4.263   0.230   4.818  1.7725  0.4885  2.7385
 8552TIP3    H225621   4.278   0.357   4.899 -1.7055  3.4641 -0.8588
 8553TIP3   OH225622  -0.024   6.091   5.715  0.6113 -0.5716 -0.4186
 8553TIP3    H125623   0.042   6.071   5.649  1.4193 -1.3737  0.6043
 8553TIP3    H225624  -0.004   6.032   5.788 -0.7352 -0.2587  0.2379
 8554TIP3   OH225625   4.867   1.368   4.926 -0.3599 -0.5788 -0.6699
 8554TIP3    H125626   4.954   1.334   4.946 -0.1056  1.5722  2.6767
 8554TIP3    H225627   4.883   1.458   4.896 -1.3919 -0.8237 -2.0678
 8555TIP3   OH225628   3.803   2.553   3.972 -0.0537 -0.3181 -0.7025
 8555TIP3    H125629   3.874   2.515   4.024 -0.2806  0.1348 -0.0346
 8555TIP3    H225630   3.725   2.538   4.025 -0.1880  0.7746 -0.5741
 8556TIP3   OH225631   0.719   1.204   3.798  0.2580  0.1484 -0.1207
 8556TIP3    H125632   0.692   1.115   3.776 -0.0527  0.4826 -1.1503
 8556TIP3    H225633   0.806   1.213   3.759  0.2528  0.3235 -0.0932
 8557TIP3   OH225634   3.926   5.099   2.292  0.0305  0.0590 -0.1290
 8557TIP3    H125635   3.939   5.008   2.319  0.4264  0.1342 -0.0560
 8557TIP3    H225636   3.831   5.111   2.293  0.0052 -0.1293  0.6064
 8558TIP3   OH225637   0.574   3.868   2.975 -0.7824  0.0492 -0.1441
 8558TIP3    H125638   0.661   3.831   2.962 -0.9428 -0.0934 -0.9033
 8558TIP3    H225639   0.566   3.881   3.069  0.1149  0.2136 -0.0902
 8559TIP3   OH225640   4.392   5.575   4.970 -0.0424 -0.4531  0.1590
 8559TIP3    H125641   4.452   5.519   5.019 -1.7872 -0.6116  2.2836
 8559TIP3    H225642   4.315   5.520   4.956 -0.5220  0.3933 -0.6377
 8560TIP3   OH225643   3.415   6.649   1.703  0.0373  0.4998 -0.1853
 8560TIP3    H125644   3.330   6.633   1.743  0.3988  0.0657  0.4276
 8560TIP3    H225645   3.455   6.716   1.759  1.8568 -2.3314  2.2312
 8561TIP3   OH225646   0.919   5.424   0.874 -0.3236 -0.4787  0.4813
 8561TIP3    H125647   0.827   5.396   0.883 -0.7803  0.4776 -0.8983
 8561TIP3    H225648   0.926   5.500   0.932 -0.3765 -0.5946  0.6428
 8562TIP3   OH225649   3.902   0.295   5.805  0.3957 -0.1857 -0.5642
 8562TIP3    H125650   3.853   0.241   5.867 -0.5277  1.3598  0.1132
 8562TIP3    H225651   3.894   0.248   5.722 -1.2642 -0.5812 -0.2254
 8563TIP3   OH225652   6.035   1.010   1.786 -0.1207  0.8757  0.0485
 8563TIP3    H125653   5.961   0.996   1.844 -0.2770  0.0306 -0.3286
 8563TIP3    H225654   6.107   0.962   1.827 -0.3491 -0.1140 -0.6656
 8564TIP3   OH225655   0.959   0.747   5.809  0.0365  0.0916 -0.5429
 8564TIP3    H125656   0.960   0.821   5.870  1.9673  0.4128 -0.8927
 8564TIP3    H225657   0.868   0.718   5.807 -0.3389  0.9873  1.3782
 8565TIP3   OH225658   3.962   0.551   1.493  0.2132 -0.1107 -0.4210
 8565TIP3    H125659   3.883   0.519   1.448  0.5979 -0.4990 -0.8378
 8565TIP3    H225660   3.929   0.593   1.572 -0.4648  0.3184 -0.9103
 8566TIP3   OH225661   3.450   2.881   5.233  0.2622  0.6715 -0.0215
 8566TIP3    H125662   3.509   2.846   5.165  1.2978  1.7912  0.2716
 8566TIP3    H225663   3.383   2.813   5.243  1.6523 -0.7957 -0.1750
 8567TIP3   OH225664   2.173   2.121   3.640 -0.0848  0.4591  0.3259
 8567TIP3    H125665   2.205   2.059   3.573 -0.0552 -0.2726  1.0037
 8567TIP3    H225666   2.220   2.096   3.719 -1.2598  0.3262  0.9913
 8568TIP3   OH225667   1.882   4.117   2.498  0.1711  0.0762  0.2608
 8568TIP3    H125668   1.818   4.089   2.432  1.8493 -1.1683 -0.9354
 8568TIP3    H225669   1.856   4.071   2.578 -0.1222 -0.8469 -0.3465
 8569TIP3   OH225670   3.118   0.403   0.563  0.0005  0.1067  0.7098
 8569TIP3    H125671   3.114   0.308   0.560  0.4353  0.0819  0.8755
 8569TIP3    H225672   3.155   0.429   0.479  1.7452  0.0097  1.3898
 8570TIP3   OH225673   7.055   3.770   1.710 -0.0463 -0.2247 -0.1159
 8570TIP3    H125674   7.104   3.690   1.692 -0.8672 -0.9544  0.7738
 8570TIP3    H225675   7.015   3.793   1.626  1.2102 -0.0113 -0.6845
 8571TIP3   OH225676   4.053   1.097   2.269 -0.0171 -0.4537  0.1218
 8571TIP3    H125677   3.981   1.076   2.209 -1.8748 -2.0597  2.6689
 8571TIP3    H225678   4.097   1.013   2.284  1.9748  0.3581 -0.7630
 8572TIP3   OH225679   1.221   1.816   5.879  0.4221  0.4342 -0.8106
 8572TIP3    H125680   1.197   1.767   5.957  2.0923 -0.3131 -0.7250
 8572TIP3    H225681   1.138   1.834   5.835 -0.3714 -0.9126  0.0847
 8573TIP3   OH225682   0.520   0.517   5.212 -0.3771  0.0289 -0.4654
 8573TIP3    H125683   0.489   0.468   5.288 -2.6971  2.6037  0.4216
 8573TIP3    H225684   0.492   0.465   5.137 -0.6124 -1.1524  0.4020
 8574TIP3   OH225685   2.482   4.712   3.911  1.0427  0.0350 -0.1766
 8574TIP3    H125686   2.549   4.686   3.848 -0.1908  0.6937 -1.8419
 8574TIP3    H225687   2.483   4.807   3.909  0.7902  0.0597  0.6034
 8575TIP3   OH225688   6.103   4.678   1.928 -0.5555 -0.2492 -0.0300
 8575TIP3    H125689   6.132   4.591   1.903 -0.0093 -0.5732  1.6290
 8575TIP3    H225690   6.127   4.734   1.854  1.4659 -1.0506 -0.0223
 8576TIP3   OH225691   6.279   2.522   2.233 -0.1535  0.2399  0.3586
 8576TIP3    H125692   6.187   2.520   2.208 -0.5266 -2.7254  1.5294
 8576TIP3    H225693   6.326   2.510   2.150 -0.9982 -1.1237  0.0317
 8577TIP3   OH225694   2.457   1.208   2.971 -0.0114  0.3657 -0.2868
 8577TIP3    H125695   2.378   1.229   3.021  0.7031 -1.1074  1.5872
 8577TIP3    H225696   2.425   1.155   2.898 -0.7766 -0.1610  0.4108
 8578TIP3   OH225697   0.876   5.707   4.970  0.6639  0.7563  0.5735
 8578TIP3    H125698   0.854   5.800   4.977  0.6943  0.6651  2.4101
 8578TIP3    H225699   0.794   5.665   4.944 -0.1900  0.9805  2.6953
 8579TIP3   OH225700   6.868   0.316   5.900 -0.2272  0.3126  0.5459
 8579TIP3    H125701   6.800   0.349   5.842 -0.9118 -0.0061  1.1534
 8579TIP3    H225702   6.946   0.309   5.845 -0.6937  0.6362 -0.1638
 8580TIP3   OH225703   2.939   3.469   3.671 -0.5829  0.5130 -0.0141
 8580TIP3    H125704   2.889   3.447   3.592 -2.6235  1.0198  1.0536
 8580TIP3    H225705   2.967   3.384   3.705  1.7814  0.3411 -2.0698
 8581TIP3   OH225706   6.771   3.367   3.420 -0.6380  0.4257 -0.3643
 8581TIP3    H125707   6.727   3.297   3.468  0.2567 -0.1117 -0.2923
 8581TIP3    H225708   6.751   3.349   3.328 -1.0854  0.5518 -0.2904
 8582TIP3   OH225709   1.415   5.694   2.727 -0.0641  0.0661  0.3583
 8582TIP3    H125710   1.445   5.715   2.816 -4.1079  0.7238  1.7494
 8582TIP3    H225711   1.405   5.599   2.728 -2.2195  0.2499  1.4777
 8583TIP3   OH225712   6.030   0.088   3.938  0.1293  0.1820 -0.3198
 8583TIP3    H125713   6.005   0.105   3.847  0.6478 -0.3712 -0.5728
 8583TIP3    H225714   5.983   0.009   3.963 -0.8929  0.9632  0.2727
 8584TIP3   OH225715   2.630   4.763   1.763 -0.2756 -0.5994  0.1197
 8584TIP3    H125716   2.543   4.753   1.802 -0.1410  3.1162  1.8031
 8584TIP3    H225717   2.690   4.727   1.828 -0.4281 -0.7683  0.1671
 8585TIP3   OH225718   6.564   5.527   3.756 -0.0828  0.0453 -0.1308
 8585TIP3    H125719   6.548   5.570   3.672 -2.3587 -0.4687 -0.0197
 8585TIP3    H225720   6.501   5.455   3.759  1.4564 -1.3381  1.0818
 8586TIP3   OH225721   2.335   0.420   1.995  0.4095 -0.1394  0.3312
 8586TIP3    H125722   2.388   0.410   1.916 -0.7343 -0.7013 -0.3806
 8586TIP3    H225723   2.365   0.502   2.034 -0.0691  0.9621 -1.5264
 8587TIP3   OH225724   1.209   6.445   4.994  0.0085  0.0160 -0.6179
 8587TIP3    H125725   1.126   6.490   5.010 -1.3240 -1.9421 -1.6054
 8587TIP3    H225726   1.204   6.418   4.902  1.8292 -0.0185 -0.7380
 8588TIP3   OH225727   6.593   5.445   4.033 -0.0666  0.2227 -0.0684
 8588TIP3    H125728   6.594   5.480   3.944 -0.2151  0.1300 -0.1068
 8588TIP3    H225729   6.586   5.522   4.089 -1.2224  0.2218 -0.1795
 8589TIP3   OH225730   6.472   4.517   4.015  0.1409 -0.4010  0.0856
 8589TIP3    H125731   6.406   4.456   3.983 -0.9331 -0.6146  2.4871
 8589TIP3    H225732   6.540   4.462   4.054  1.7212 -0.1705 -2.1380
 8590TIP3   OH225733   3.801   1.783   5.039 -0.0807 -0.0423 -0.9764
 8590TIP3    H125734   3.711   1.817   5.041 -0.6544 -1.5266  0.7279
 8590TIP3    H225735   3.794   1.700   4.992 -0.3414 -1.8341  1.9448
 8591TIP3   OH225736   6.876   0.528   1.900  0.4712  0.4168 -0.7202
 8591TIP3    H125737   6.864   0.433   1.897  0.2473  0.4517 -1.0024
 8591TIP3    H225738   6.863   0.552   1.992  0.7183  0.1506 -0.6146
 8592TIP3   OH225739   3.106   1.898   2.302 -0.2716  0.1651 -0.4767
 8592TIP3    H125740   3.111   1.835   2.375  1.0222  0.7951  0.0165
 8592TIP3    H225741   3.049   1.967   2.334  0.1610  0.3582 -0.1047
 8593TIP3   OH225742   2.031   2.601   5.228  0.4054  0.0671  0.6005
 8593TIP3    H125743   2.051   2.572   5.139  1.0514 -0.5623  0.9473
 8593TIP3    H225744   1.938   2.625   5.224 -0.4199 -2.7304  0.4295
 8594TIP3   OH225745   1.107   4.000   5.456 -0.3280  0.9494  0.0641
 8594TIP3    H125746   1.130   3.996   5.363 -0.3947  0.1244  0.0788
 8594TIP3    H225747   1.011   4.007   5.457 -0.2454  2.3288  0.0499
 8595TIP3   OH225748   6.142   5.124   1.999 -0.0370  0.7779 -0.1351
 8595TIP3    H125749   6.075   5.078   1.949  0.0074  0.1498  0.3729
 8595TIP3    H225750   6.114   5.117   2.090  0.5373  0.8053  0.0536
 8596TIP3   OH225751   4.317   2.502   5.222 -0.4144  0.1684 -0.5191
 8596TIP3    H125752   4.236   2.492   5.271  1.1181 -0.3790  2.0970
 8596TIP3    H225753   4.319   2.594   5.197 -2.3678 -0.0686 -1.7268
 8597TIP3   OH225754   3.404   6.701   3.639  0.4244  0.0831 -0.4324
 8597TIP3    H125755   3.477   6.651   3.603  0.9832  1.5085 -1.3837
 8597TIP3    H225756   3.415   6.789   3.602 -0.7285  0.8165  0.8645
 8598TIP3   OH225757   7.112   2.634   0.712  0.1730  0.9864 -0.0621
 8598TIP3    H125758   7.028   2.644   0.667 -0.2994  0.2799  0.6319
 8598TIP3    H225759   7.093   2.656   0.803  0.5189 -0.0791  0.2805
 8599TIP3   OH225760   5.810   6.246   3.072  0.3160  0.5063  0.3074
 8599TIP3    H125761   5.840   6.157   3.053  1.2953  1.0953 -1.1437
 8599TIP3    H225762   5.761   6.272   2.994  0.9309  1.5924  0.2574
 8600TIP3   OH225763   3.535   2.726   4.499 -0.1532 -0.6018 -0.1945
 8600TIP3    H125764   3.610   2.766   4.455  0.7726 -2.5071 -0.4164
 8600TIP3    H225765   3.459   2.765   4.456  0.6755  1.1741 -0.1434
 8601TIP3   OH225766   4.107   5.434   3.739 -0.1307 -0.1664 -0.4406
 8601TIP3    H125767   4.153   5.391   3.811  1.3377 -0.0461 -1.2671
 8601TIP3    H225768   4.174   5.490   3.698 -0.9895 -0.0556 -1.7478
 8602TIP3   OH225769   2.158   6.556   1.795  0.2291 -0.6121 -0.3577
 8602TIP3    H125770   2.117   6.625   1.743  0.2484  0.1836  0.6509
 8602TIP3    H225771   2.249   6.585   1.805 -0.2054  0.2785  1.7101
 8603TIP3   OH225772   2.275   4.450   1.853 -0.0283 -0.1339  0.0364
 8603TIP3    H125773   2.202   4.465   1.913 -0.2852  1.7446 -0.6667
 8603TIP3    H225774   2.234   4.429   1.769  0.2751 -0.4920 -0.0278
 8604TIP3   OH225775   2.834   6.557   5.593 -0.1573  0.0702  0.4781
 8604TIP3    H125776   2.865   6.486   5.538 -1.1829 -0.1913  0.2225
 8604TIP3    H225777   2.766   6.518   5.648 -0.1665  0.6654  0.9105
 8605TIP3   OH225778   0.438   4.208   0.872  0.2749  0.4863 -0.1460
 8605TIP3    H125779   0.442   4.170   0.784  0.3429 -0.4763  0.2546
 8605TIP3    H225780   0.411   4.135   0.928 -0.6162  1.2968  0.5106
 8606TIP3   OH225781   5.473   5.266   2.180  0.2511  0.0697 -0.0536
 8606TIP3    H125782   5.486   5.270   2.085  2.2686  2.4679  0.2196
 8606TIP3    H225783   5.551   5.220   2.213 -0.3015 -0.5002  0.4787
 8607TIP3   OH225784   2.005   4.876   5.369  0.1688 -0.9523  0.3047
 8607TIP3    H125785   1.930   4.819   5.387  0.0814 -0.2558  2.3864
 8607TIP3    H225786   2.057   4.827   5.305 -0.9098 -2.4619  0.5237
 8608TIP3   OH225787   3.139   3.079   2.975  0.2879 -0.3090 -0.2015
 8608TIP3    H125788   3.167   3.169   2.992  1.1192 -0.7698  1.0253
 8608TIP3    H225789   3.199   3.047   2.907 -0.4793  0.2815 -1.1732
 8609TIP3   OH225790   3.283   3.561   2.581 -0.0029 -0.5517 -0.1582
 8609TIP3    H125791   3.357   3.620   2.572 -1.2765  1.1398 -0.0036
 8609TIP3    H225792   3.244   3.583   2.665  0.9136 -3.3877  1.1347
 8610TIP3   OH225793   2.761   3.115   5.817  0.1123  0.3656 -0.0578
 8610TIP3    H125794   2.809   3.039   5.783 -2.1775 -1.0977 -0.2772
 8610TIP3    H225795   2.719   3.083   5.896  0.4442  1.9482  0.7988
 8611TIP3   OH225796   2.577   6.133   2.528  0.2173 -0.0041  0.4744
 8611TIP3    H125797   2.573   6.098   2.617  5.9588  1.1158  1.5620
 8611TIP3    H225798   2.515   6.206   2.529 -1.7147 -1.5142  2.6514
 8612TIP3   OH225799   4.522   6.771   4.459  0.4074  0.7989  0.2128
 8612TIP3    H125800   4.575   6.760   4.381  1.3824  0.0311  0.9463
 8612TIP3    H225801   4.496   6.681   4.483  1.7609  0.7908  1.8356
 8613TIP3   OH225802   4.502   5.794   1.861  0.4040  0.3977 -0.3785
 8613TIP3    H125803   4.416   5.752   1.851 -0.0053  1.4586 -1.5944
 8613TIP3    H225804   4.554   5.729   1.909 -1.0761 -0.2498  0.4486
 8614TIP3   OH225805   4.860   0.134   1.378 -0.5463 -0.3925  0.0714
 8614TIP3    H125806   4.911   0.141   1.459 -0.2370 -1.7668  0.0187
 8614TIP3    H225807   4.773   0.166   1.401  0.4143  2.6272  0.0019
 8615TIP3   OH225808   5.164   5.500   3.434  0.2000  0.1647  0.3547
 8615TIP3    H125809   5.083   5.542   3.404 -0.2710 -1.0054 -0.0500
 8615TIP3    H225810   5.168   5.522   3.527 -1.4210 -1.0321  0.7535
 8616TIP3   OH225811   3.862   6.233   4.609  0.5140 -0.3650 -0.5028
 8616TIP3    H125812   3.848   6.327   4.621  1.7027 -0.3983  1.6576
 8616TIP3    H225813   3.941   6.228   4.556  2.6955 -0.0007  2.4513
 8617TIP3   OH225814   3.735   3.186   4.897  0.3745  0.8838  0.5230
 8617TIP3    H125815   3.676   3.165   4.970 -0.0799  0.5463  0.0659
 8617TIP3    H225816   3.744   3.282   4.902  0.4163  0.8552  1.0716
 8618TIP3   OH225817   5.097   0.848   0.215 -0.9245 -0.9238  0.2149
 8618TIP3    H125818   5.145   0.917   0.260  1.0050 -1.6490 -0.6364
 8618TIP3    H225819   5.028   0.823   0.276 -0.7946  0.7574  1.1115
 8619TIP3   OH225820   5.506   5.752   2.402 -0.0028 -0.3997 -0.6018
 8619TIP3    H125821   5.475   5.661   2.396 -0.9732 -0.2095  0.9472
 8619TIP3    H225822   5.559   5.754   2.482 -1.0404  0.6542  0.0962
 8620TIP3   OH225823   4.944   5.031   2.230  0.5251 -0.3180  0.3356
 8620TIP3    H125824   4.963   4.961   2.168  0.6057 -0.1276  0.1461
 8620TIP3    H225825   5.030   5.060   2.261  0.5302  0.2350 -0.1831
 8621TIP3   OH225826   5.290   0.195   1.366  0.2608  0.5079 -0.0761
 8621TIP3    H125827   5.334   0.122   1.410  0.5528  0.1748 -0.9099
 8621TIP3    H225828   5.302   0.269   1.426  0.7486  0.0939  0.3548
 8622TIP3   OH225829   3.294   0.657   1.677 -0.1300  0.5538  0.0736
 8622TIP3    H125830   3.285   0.607   1.595 -0.6596  0.1009  0.3968
 8622TIP3    H225831   3.383   0.691   1.675 -0.4629  1.4234 -1.1757
 8623TIP3   OH225832   0.734   0.087   3.569 -0.2884  0.0273 -0.3548
 8623TIP3    H125833   0.691   0.167   3.598  0.5493  0.8151 -1.2042
 8623TIP3    H225834   0.818   0.087   3.615 -0.2196 -0.2703 -0.4799
 8624TIP3   OH225835   3.816   1.534   2.322 -0.0873  0.2588  0.2775
 8624TIP3    H125836   3.882   1.468   2.342 -0.4115 -0.2851 -0.4322
 8624TIP3    H225837   3.733   1.494   2.347 -0.2060  0.7774  0.7595
 8625TIP3   OH225838   0.490   1.934   0.155 -0.3426 -0.1401 -0.0208
 8625TIP3    H125839   0.498   2.012   0.210  0.4908 -0.5934  0.5267
 8625TIP3    H225840   0.412   1.890   0.189 -1.1245  0.6983 -0.6757
 8626TIP3   OH225841   2.401   0.457   0.814  0.2269 -0.4865  0.4531
 8626TIP3    H125842   2.366   0.374   0.845  1.2584 -0.7472  0.9451
 8626TIP3    H225843   2.418   0.508   0.893  1.5569 -0.6217  0.2787
 8627TIP3   OH225844   2.433   4.695   0.454 -0.2092 -0.3194  0.0852
 8627TIP3    H125845   2.429   4.699   0.358 -1.4975 -1.2227  0.0786
 8627TIP3    H225846   2.386   4.773   0.483  1.8070  0.9938  0.0250
 8628TIP3   OH225847   3.731   6.034   5.854  0.4211  1.0943  0.0273
 8628TIP3    H125848   3.639   6.059   5.860  0.2293  0.1467  1.4750
 8628TIP3    H225849   3.737   5.985   5.772 -0.4150  0.9593  0.0344
 8629TIP3   OH225850   3.949   3.208   2.689 -0.1439  0.3875 -0.2814
 8629TIP3    H125851   3.895   3.165   2.622  1.0202 -2.0002  0.2273
 8629TIP3    H225852   4.035   3.217   2.648 -0.2714  2.0458 -0.2600
 8630TIP3   OH225853   0.881   3.291   5.277  0.3313  0.3675  0.1824
 8630TIP3    H125854   0.909   3.212   5.233  2.0327 -0.4121  2.4647
 8630TIP3    H225855   0.881   3.358   5.209  1.1241 -1.0910 -1.3251
 8631TIP3   OH225856   1.746   6.428   4.340 -0.0973 -0.3493  0.2759
 8631TIP3    H125857   1.681   6.443   4.408 -0.5047  0.0506 -0.1935
 8631TIP3    H225858   1.815   6.377   4.383 -0.8555 -1.0253  0.7034
 8632TIP3   OH225859   0.346   4.153   1.805  0.7181 -0.4173  0.5726
 8632TIP3    H125860   0.418   4.148   1.868  0.7608  0.5136  0.6018
 8632TIP3    H225861   0.380   4.207   1.733 -0.1949  0.6641  0.9328
 8633TIP3   OH225862   6.022   0.296   2.295 -0.0619 -0.1000  0.2517
 8633TIP3    H125863   5.944   0.325   2.342  1.0582  1.0881  1.4716
 8633TIP3    H225864   6.047   0.371   2.241 -0.2843 -0.8116 -0.8681
 8634TIP3   OH225865   4.382   4.649   3.755  0.1659  0.8287 -0.2267
 8634TIP3    H125866   4.413   4.667   3.666 -0.9864  0.5668 -0.6964
 8634TIP3    H225867   4.289   4.632   3.745 -0.0887  1.3006  1.1082
 8635TIP3   OH225868   3.235   4.986   0.663  0.2326 -0.0663 -0.2985
 8635TIP3    H125869   3.327   5.010   0.664  0.1647  0.3389 -1.6091
 8635TIP3    H225870   3.216   4.967   0.571 -0.5474 -1.9704  0.2047
 8636TIP3   OH225871   5.974   2.333   5.382  0.1031  0.1569  0.0946
 8636TIP3    H125872   6.070   2.337   5.374  0.1968  1.2331  1.3560
 8636TIP3    H225873   5.957   2.249   5.425  0.4643 -0.1366 -0.3328
 8637TIP3   OH225874   2.435   1.745   5.319 -0.9606  0.1110 -0.1344
 8637TIP3    H125875   2.397   1.754   5.406 -0.1737 -0.5664  0.2835
 8637TIP3    H225876   2.440   1.835   5.286 -4.1059  0.1917 -0.7498
 8638TIP3   OH225877   6.125   3.323   3.198  0.3203 -0.1353 -0.2642
 8638TIP3    H125878   6.154   3.401   3.151  1.0880 -0.1804  0.1357
 8638TIP3    H225879   6.031   3.337   3.211  0.6971  1.3726  1.0392
 8639TIP3   OH225880   0.789   1.980   2.197  0.0680 -0.4145  0.5300
 8639TIP3    H125881   0.885   1.975   2.193  0.1314  0.7989  0.0516
 8639TIP3    H225882   0.761   1.969   2.106 -0.0877  1.5764  0.3096
 8640TIP3   OH225883   3.762   1.851   5.588 -0.2665 -0.5485 -0.0756
 8640TIP3    H125884   3.772   1.774   5.644 -2.2156 -0.6066  0.2583
 8640TIP3    H225885   3.778   1.818   5.500  1.4423 -0.7509  0.2650
 8641TIP3   OH225886   5.934   6.714   4.984  0.1502  0.0239  0.5080
 8641TIP3    H125887   5.868   6.647   5.004  1.4440 -1.2040  0.7976
 8641TIP3    H225888   5.927   6.776   5.057 -2.2007  1.1850 -0.5949
 8642TIP3   OH225889   7.212   5.828   0.812 -0.4774  0.0234  0.0637
 8642TIP3    H125890   7.120   5.804   0.810 -0.6294  0.6388 -0.9230
 8642TIP3    H225891   7.216   5.912   0.767  0.7798 -0.7989 -1.4542
 8643TIP3   OH225892   3.198   6.711   0.244 -0.2049 -0.0712 -0.1124
 8643TIP3    H125893   3.159   6.791   0.208 -1.1176 -0.3598  0.2186
 8643TIP3    H225894   3.130   6.674   0.301  0.5334 -0.6121  0.4416
 8644TIP3   OH225895   4.825   6.398   1.828  0.3725 -0.1471 -0.5485
 8644TIP3    H125896   4.856   6.337   1.896 -1.0309 -2.7835 -2.1011
 8644TIP3    H225897   4.883   6.380   1.754  1.1545  1.8896 -0.4985
 8645TIP3   OH225898   3.486   5.648   1.788  0.1145 -0.0446 -0.1556
 8645TIP3    H125899   3.424   5.575   1.786 -0.0469 -0.0933  2.5553
 8645TIP3    H225900   3.433   5.724   1.810  0.7405  0.2307  0.4528
 8646TIP3   OH225901   6.882   1.471   0.574 -0.2260  0.4308  0.0153
 8646TIP3    H125902   6.856   1.561   0.557 -2.1172  0.8121  3.8072
 8646TIP3    H225903   6.815   1.418   0.531 -0.8969  0.9869  0.3648
 8647TIP3   OH225904   6.649   4.084   4.534 -0.0946  0.1460 -0.0553
 8647TIP3    H125905   6.580   4.127   4.484  0.3706  0.6093 -0.2973
 8647TIP3    H225906   6.720   4.070   4.472  0.1342 -0.1072  0.2531
 8648TIP3   OH225907   3.480   1.505   4.300  0.2870 -0.0278 -0.1570
 8648TIP3    H125908   3.561   1.532   4.343 -0.3976  0.5997  0.7503
 8648TIP3    H225909   3.454   1.581   4.248  1.9549 -1.2776 -3.0942
 8649TIP3   OH225910   0.532   6.040   4.841  0.3438 -0.1794 -0.0056
 8649TIP3    H125911   0.449   6.045   4.793  0.5600  1.0305 -0.2720
 8649TIP3    H225912   0.595   6.085   4.786  1.2168 -1.1500  0.1648
 8650TIP3   OH225913   3.580   4.467   1.830  0.3387  0.5245  0.1744
 8650TIP3    H125914   3.484   4.457   1.827  0.3737 -0.6935  1.6166
 8650TIP3    H225915   3.596   4.527   1.903  0.6763  0.7336 -0.0705
 8651TIP3   OH225916   0.279   2.841   2.295  0.2995  0.2601 -0.1524
 8651TIP3    H125917   0.359   2.851   2.243  0.4599  0.8327  0.1853
 8651TIP3    H225918   0.309   2.810   2.380  0.0146 -0.9084 -0.4572
 8652TIP3   OH225919   1.302   3.318   1.813  0.7403  0.4896  0.5934
 8652TIP3    H125920   1.385   3.299   1.770  0.4800 -0.2508  0.4157
 8652TIP3    H225921   1.275   3.402   1.775  2.4781  1.9124  2.2481
 8653TIP3   OH225922   0.625   6.350   2.319  0.1660 -0.2986 -0.5547
 8653TIP3    H125923   0.558   6.283   2.332 -0.2295  0.1817 -0.0424
 8653TIP3    H225924   0.697   6.323   2.377  0.3437 -0.7187 -0.9701
 8654TIP3   OH225925   6.655   1.956   4.807  0.5374 -0.3065  0.1094
 8654TIP3    H125926   6.692   1.868   4.817  0.7712 -0.1703  0.4808
 8654TIP3    H225927   6.695   1.989   4.727  1.1361 -0.2102  0.4383
 8655TIP3   OH225928   6.731   5.599   4.961  0.1535 -0.1778 -0.1725
 8655TIP3    H125929   6.700   5.657   4.891  0.4049 -0.1992 -0.3028
 8655TIP3    H225930   6.661   5.534   4.971 -0.7216  0.8763  0.8546
 8656TIP3   OH225931   1.396   3.433   4.728 -0.4490 -0.1126  0.1190
 8656TIP3    H125932   1.375   3.363   4.790  0.2061  0.7011  1.2974
 8656TIP3    H225933   1.340   3.506   4.753  0.1853  0.3969  0.0927
 8657TIP3   OH225934   7.029   0.377   2.771  0.6668 -0.4330 -0.0168
 8657TIP3    H125935   7.082   0.308   2.811  0.6620  0.2494  1.2050
 8657TIP3    H225936   6.952   0.331   2.737  0.6310 -1.0282  0.8359
 8658TIP3   OH225937   0.646   5.782   0.024 -0.0561 -0.1201  0.1685
 8658TIP3    H125938   0.617   5.839  -0.047  0.8589 -0.1652 -0.2702
 8658TIP3    H225939   0.598   5.811   0.101 -0.1237  0.7726 -0.2029
 8659TIP3   OH225940   6.537   1.032   0.062  0.2757  0.1209 -0.3524
 8659TIP3    H125941   6.460   1.037   0.004 -0.0838  0.8433  0.1731
 8659TIP3    H225942   6.582   0.952   0.034 -0.8471 -0.5083 -0.4523
 8660TIP3   OH225943   3.696   0.907   3.643  0.0407 -0.5721 -0.6420
 8660TIP3    H125944   3.611   0.948   3.659 -0.2245 -1.1756 -0.4797
 8660TIP3    H225945   3.754   0.946   3.708  0.2984  1.0622 -1.8059
 8661TIP3   OH225946   5.664   0.826   2.936  0.1841 -0.0144  0.0580
 8661TIP3    H125947   5.592   0.877   2.899  0.7086  0.5165 -0.2490
 8661TIP3    H225948   5.704   0.884   3.000  1.3203  0.2982 -0.9020
 8662TIP3   OH225949   2.208   5.395   1.962  0.1237 -0.8089 -0.4378
 8662TIP3    H125950   2.262   5.380   2.040 -0.7489 -1.6205  0.0282
 8662TIP3    H225951   2.150   5.467   1.986 -0.8277 -1.7062  0.0526
 8663TIP3   OH225952   6.267   6.791   4.146  0.1536 -0.0137  0.1270
 8663TIP3    H125953   6.198   6.831   4.200  0.3876  1.7924 -0.8436
 8663TIP3    H225954   6.221   6.756   4.070  0.1614  0.0622  0.0875
 8664TIP3   OH225955   3.207   4.614   2.484  0.3793 -0.2083 -0.0622
 8664TIP3    H125956   3.140   4.565   2.530  0.1391  1.4181  1.3997
 8664TIP3    H225957   3.290   4.580   2.519  0.2666 -0.6301 -0.1984
 8665TIP3   OH225958   3.050   2.245   0.272 -0.1893 -0.2693  0.2083
 8665TIP3    H125959   3.114   2.255   0.342 -0.5733  1.3248  0.3821
 8665TIP3    H225960   2.965   2.259   0.315 -0.5535 -0.8720 -0.2913
 8666TIP3   OH225961   3.133   4.986   0.394  0.1413 -0.0255  0.6844
 8666TIP3    H125962   3.154   4.994   0.301  3.4421 -3.0235  0.9642
 8666TIP3    H225963   3.041   4.958   0.395  0.0359 -0.0075 -1.6770
 8667TIP3   OH225964   0.127   3.574   0.939 -0.1443 -0.0355  0.3854
 8667TIP3    H125965   0.137   3.636   1.011  1.5839  1.0265 -0.7018
 8667TIP3    H225966   0.184   3.500   0.963 -0.4338 -0.1845  0.6181
 8668TIP3   OH225967   4.481   4.709   2.349 -0.5255  0.4065 -0.1402
 8668TIP3    H125968   4.538   4.783   2.324 -1.2479  1.3391  0.8797
 8668TIP3    H225969   4.464   4.723   2.442 -2.0793 -0.1024 -0.3295
 8669TIP3   OH225970   4.694   2.156   3.778 -0.2968 -0.1723  0.2363
 8669TIP3    H125971   4.679   2.249   3.762 -0.1760  0.0067  1.0790
 8669TIP3    H225972   4.781   2.139   3.741  0.8209  0.6856  2.3090
 8670TIP3   OH225973   3.242   1.543   3.583  0.4742 -0.9015  0.0141
 8670TIP3    H125974   3.302   1.473   3.609  2.7380  1.0619  0.3829
 8670TIP3    H225975   3.200   1.511   3.503  3.6265 -1.5681 -1.5301
 8671TIP3   OH225976   4.489   3.481   0.413  0.1390  0.1209 -0.6157
 8671TIP3    H125977   4.544   3.549   0.375  0.2044 -0.9141 -2.5146
 8671TIP3    H225978   4.497   3.493   0.507  1.8416  1.3856 -0.8807
 8672TIP3   OH225979   2.283   3.067   0.966 -0.2063  0.1536 -0.1920
 8672TIP3    H125980   2.339   3.008   1.015  0.7812  0.1559 -1.2719
 8672TIP3    H225981   2.342   3.137   0.936 -0.8956  0.4645 -0.8544
 8673TIP3   OH225982   3.291   5.129   4.043 -0.3777  0.4102 -0.1055
 8673TIP3    H125983   3.357   5.112   4.110  0.9379  2.9323 -0.6371
 8673TIP3    H225984   3.338   5.121   3.960 -0.4670  2.8735 -0.4723
 8674TIP3   OH225985   6.083   5.239   0.448  0.5814 -0.0618  0.5352
 8674TIP3    H125986   6.128   5.243   0.532 -0.3794 -1.4761  1.1378
 8674TIP3    H225987   6.131   5.172   0.399  0.9501  0.5456  0.0480
 8675TIP3   OH225988   5.966   5.254   1.709  0.7145  0.1518  0.0238
 8675TIP3    H125989   5.926   5.194   1.771  1.9378  0.9771  1.6757
 8675TIP3    H225990   6.042   5.290   1.755  2.9920 -0.7998 -2.6837
 8676TIP3   OH225991   1.922   0.118   2.734  0.3602 -0.1376  0.2964
 8676TIP3    H125992   1.848   0.139   2.792 -0.0057 -1.9420  0.5575
 8676TIP3    H225993   1.892   0.142   2.647  0.4693  1.5186  0.6796
 8677TIP3   OH225994   5.830   1.546   2.308  0.1000 -0.3057  0.2948
 8677TIP3    H125995   5.909   1.529   2.358  0.6076  0.0001 -0.3917
 8677TIP3    H225996   5.848   1.509   2.222 -0.1783  0.5139 -0.1231
 8678TIP3   OH225997   4.194   0.111   4.066  0.6747  0.1598  0.0073
 8678TIP3    H125998   4.228   0.177   4.006  1.6696 -0.9640 -0.7308
 8678TIP3    H225999   4.257   0.039   4.061  0.4557 -0.2426  1.9429
 8679TIP3   OH226000   5.935   0.389   3.432  0.1984 -0.7373  0.0414
 8679TIP3    H126001   5.967   0.428   3.351 -1.0912 -2.0370 -1.1573
 8679TIP3    H226002   5.863   0.446   3.460  0.1242 -0.7163 -0.1859
 8680TIP3   OH226003   1.773   1.677   2.393  0.0562 -0.5436  0.3423
 8680TIP3    H126004   1.728   1.716   2.318  0.9747  1.1950  0.6525
 8680TIP3    H226005   1.801   1.591   2.361  0.1915  0.0459 -1.2369
 8681TIP3   OH226006   5.048   0.923   3.896  0.0140 -0.3800  0.1242
 8681TIP3    H126007   4.966   0.898   3.939  1.1596  0.2184  2.8529
 8681TIP3    H226008   5.058   1.016   3.915  1.7413 -0.6360  0.6446
 8682TIP3   OH226009   0.596   3.840   0.677  0.3956  0.2958 -0.0932
 8682TIP3    H126010   0.553   3.758   0.703  0.9548 -0.9735 -2.7701
 8682TIP3    H226011   0.687   3.830   0.706  0.6933 -0.5168 -1.2077
 8683TIP3   OH226012   6.301   6.351   4.104 -0.2800  0.1778  0.2389
 8683TIP3    H126013   6.279   6.260   4.123 -0.8652 -0.0533 -1.4143
 8683TIP3    H226014   6.225   6.401   4.133  0.0855  0.1803  1.2467
 8684TIP3   OH226015   5.902   1.158   2.194 -0.4686 -0.0204  0.2456
 8684TIP3    H126016   5.929   1.173   2.284  1.8272 -1.0465 -0.1880
 8684TIP3    H226017   5.895   1.246   2.156  1.0803  0.3493  0.7627
 8685TIP3   OH226018   3.414   3.273   5.465  0.3765 -0.6294  0.5305
 8685TIP3    H126019   3.372   3.359   5.476  1.1057 -0.4030  1.8501
 8685TIP3    H226020   3.367   3.233   5.392  0.8817  1.4002 -1.0116
 8686TIP3   OH226021   6.827   1.021   4.675 -0.2159 -0.7593  0.4760
 8686TIP3    H126022   6.853   0.983   4.592  0.5207  2.1751 -0.7834
 8686TIP3    H226023   6.909   1.053   4.714 -0.8169 -0.0758  1.2213
 8687TIP3   OH226024   6.811   2.094   0.728 -0.1030 -0.6193  0.0851
 8687TIP3    H126025   6.725   2.112   0.692 -0.6131 -0.2082  1.4390
 8687TIP3    H226026   6.860   2.176   0.715  0.9010 -1.5789 -2.7852
 8688TIP3   OH226027   1.719   1.504   4.251  0.4323  0.3401 -0.2553
 8688TIP3    H126028   1.637   1.471   4.288 -0.0123  1.4915 -0.1617
 8688TIP3    H226029   1.787   1.466   4.307 -0.1440  0.7937  0.7938
 8689TIP3   OH226030   0.734   6.393   4.474 -0.3454  0.1519  0.5644
 8689TIP3    H126031   0.747   6.414   4.381  0.6398 -1.2631  0.3599
 8689TIP3    H226032   0.823   6.380   4.508 -0.7828 -1.1044  1.2705
 8690TIP3   OH226033   6.681   5.954   2.490 -0.2106  0.4071 -0.1640
 8690TIP3    H126034   6.742   5.888   2.522 -0.9768 -0.4233 -0.3763
 8690TIP3    H226035   6.698   6.031   2.545 -1.4816 -0.9584  2.3357
 8691TIP3   OH226036   2.676   0.365   5.250 -0.0378 -0.1465  0.0051
 8691TIP3    H126037   2.720   0.315   5.182  0.6331  1.1420 -0.5381
 8691TIP3    H226038   2.589   0.325   5.256 -0.8434  0.8968 -3.0195
 8692TIP3   OH226039   6.851   4.010   5.343 -0.1716  0.0952  0.6965
 8692TIP3    H126040   6.834   3.998   5.249  1.9950  0.9248  0.1276
 8692TIP3    H226041   6.794   3.947   5.386  1.1671 -2.7640 -1.3800
 8693TIP3   OH226042   3.526   3.856   1.099 -0.6687 -0.1532  0.0899
 8693TIP3    H126043   3.535   3.788   1.166 -0.6792  2.1371  2.5791
 8693TIP3    H226044   3.436   3.886   1.109 -0.5966  0.3839 -0.8345
 8694TIP3   OH226045   3.913   1.795   4.662  0.6149 -0.3956 -0.0643
 8694TIP3    H126046   3.834   1.741   4.668  0.3820  0.1051  1.9921
 8694TIP3    H226047   3.975   1.754   4.723  1.1161  0.5642  0.0881
 8695TIP3   OH226048   3.927   6.698   5.690 -0.2020  0.7350 -0.1639
 8695TIP3    H126049   3.981   6.732   5.762 -1.8227  0.5111  1.2138
 8695TIP3    H226050   3.839   6.691   5.727 -0.2039 -4.5075 -0.3548
 8696TIP3   OH226051   3.236   0.163   2.926  0.0777 -0.0087  0.4729
 8696TIP3    H126052   3.317   0.214   2.918  0.5977 -1.0117 -1.0119
 8696TIP3    H226053   3.168   0.222   2.893  0.5756 -0.0189 -0.6158
 8697TIP3   OH226054   1.508   1.152   1.525 -0.0060 -0.4268  0.4340
 8697TIP3    H126055   1.458   1.230   1.546  1.8249  0.7967  0.4134
 8697TIP3    H226056   1.598   1.173   1.549  0.3008 -3.1955  2.1869
 8698TIP3   OH226057   1.880   5.083   0.790  0.4851 -0.1141  0.4303
 8698TIP3    H126058   1.951   5.128   0.836 -0.2593 -0.1222  1.6118
 8698TIP3    H226059   1.808   5.081   0.853 -0.3598 -0.6622 -0.5325
 8699TIP3   OH226060   4.327   2.787   5.177 -0.6187  0.3930  0.1389
 8699TIP3    H126061   4.252   2.847   5.181 -0.3683  0.7314 -0.2395
 8699TIP3    H226062   4.400   2.836   5.215 -1.0795 -0.7353  2.7002
 8700TIP3   OH226063   5.833   5.522   4.765  0.4253  0.1647  0.2645
 8700TIP3    H126064   5.831   5.430   4.738  1.4782  0.2119 -0.0157
 8700TIP3    H226065   5.916   5.555   4.731 -0.0516  1.2919  0.1553
 8701TIP3   OH226066   4.730   1.725   4.265  0.4176  0.1870  0.3000
 8701TIP3    H126067   4.643   1.685   4.266  0.6256 -0.5785 -2.6803
 8701TIP3    H226068   4.768   1.699   4.349 -1.6092 -0.8684  0.9886
 8702TIP3   OH226069   1.486   2.385   5.453  0.0216 -0.9538  0.1461
 8702TIP3    H126070   1.510   2.472   5.422  0.0031 -1.0961 -0.2690
 8702TIP3    H226071   1.391   2.380   5.441  0.2228 -1.5976 -1.2802
 8703TIP3   OH226072   5.558   4.041   2.898  0.0018 -0.0308 -0.1678
 8703TIP3    H126073   5.505   4.086   2.832 -0.7853 -0.3190  0.2566
 8703TIP3    H226074   5.605   3.973   2.849 -0.9434 -0.5565 -0.3609
 8704TIP3   OH226075   2.471   4.821   4.948  0.3104 -0.1106 -0.3348
 8704TIP3    H126076   2.516   4.739   4.928  0.8670 -0.6803  2.7478
 8704TIP3    H226077   2.541   4.880   4.977 -0.0749  1.5475 -2.5718
 8705TIP3   OH226078   6.108   0.857   0.331 -0.5139  0.0288 -0.4566
 8705TIP3    H126079   6.179   0.809   0.289 -1.3733 -0.0032 -1.9140
 8705TIP3    H226080   6.044   0.873   0.262 -1.9639  0.0397  0.8170
 8706TIP3   OH226081   4.491   1.256   3.400 -0.3488 -0.1856  0.2571
 8706TIP3    H126082   4.407   1.295   3.424 -0.9299 -1.4035  0.3162
 8706TIP3    H226083   4.478   1.162   3.413  1.4911 -0.3060  1.7027
 8707TIP3   OH226084   5.913   6.621   4.731  0.0794  0.2221 -0.4551
 8707TIP3    H126085   5.988   6.564   4.715 -0.0239  0.0366 -0.2893
 8707TIP3    H226086   5.941   6.679   4.801  0.1533  0.3145 -0.5618
 8708TIP3   OH226087   6.905   3.773   4.767  0.3217 -0.1525 -0.2166
 8708TIP3    H126088   6.924   3.853   4.816  1.8805 -0.6889  0.1109
 8708TIP3    H226089   6.819   3.789   4.727 -0.5384  0.7041  1.8258
 8709TIP3   OH226090   5.205   4.210   2.441  0.2747  0.3849  0.4599
 8709TIP3    H126091   5.239   4.163   2.365 -1.1081  0.5378 -0.2781
 8709TIP3    H226092   5.139   4.151   2.478  1.0678  0.2204  1.6866
 8710TIP3   OH226093   3.794   2.697   1.011 -0.0521  0.0138 -0.4840
 8710TIP3    H126094   3.699   2.705   1.006 -0.0236 -0.3404 -2.3839
 8710TIP3    H226095   3.810   2.632   1.079 -1.1941 -0.3233 -0.5289
 8711TIP3   OH226096   0.084   6.548   2.577 -0.4860  0.2919  0.7996
 8711TIP3    H126097   0.101   6.506   2.661  0.6828  0.3671  0.6056
 8711TIP3    H226098   0.158   6.608   2.564 -1.0911  0.9150  0.1173
 8712TIP3   OH226099   1.720   3.903   3.336  0.0612 -0.3729 -0.4354
 8712TIP3    H126100   1.695   3.892   3.428 -1.3762  0.9365 -0.6309
 8712TIP3    H226101   1.788   3.970   3.338 -0.3039 -0.0029 -0.3667
 8713TIP3   OH226102   1.975   6.423   2.790  0.0817  0.4722  0.5217
 8713TIP3    H126103   1.994   6.333   2.762  2.0077  1.2188 -0.8194
 8713TIP3    H226104   1.988   6.422   2.885  1.8356 -0.3178  0.3176
 8714TIP3   OH226105   6.511   0.944   1.067  0.1553  0.2126 -0.5238
 8714TIP3    H126106   6.547   0.904   1.146 -0.7559  0.8496  0.2435
 8714TIP3    H226107   6.486   1.033   1.094  0.0065  0.5152 -1.5803
 8715TIP3   OH226108   6.553   0.736   0.335  0.3020  0.4162  0.1414
 8715TIP3    H126109   6.592   0.674   0.274  1.3770 -0.2749  1.4882
 8715TIP3    H226110   6.463   0.747   0.304  0.3900 -1.0448 -0.7094
 8716TIP3   OH226111   3.710   2.049   1.773  0.1771 -0.3166  0.2698
 8716TIP3    H126112   3.788   2.103   1.787  0.3978 -0.5203 -0.1347
 8716TIP3    H226113   3.674   2.034   1.860 -1.0878  2.2322  0.2749
 8717TIP3   OH226114   2.757   4.090   1.930 -0.0743 -0.6581  0.5243
 8717TIP3    H126115   2.738   4.079   1.837 -1.5621  0.8089  0.6042
 8717TIP3    H226116   2.831   4.152   1.931 -0.6415  0.0432  0.3062
 8718TIP3   OH226117   4.430   1.939   3.844  0.1395  0.2964  0.1078
 8718TIP3    H126118   4.523   1.922   3.859 -0.2782 -1.2939  1.2182
 8718TIP3    H226119   4.428   2.005   3.775  2.0931  0.8857  0.5446
 8719TIP3   OH226120   2.962   4.467   5.666 -0.4573 -0.4663  0.1422
 8719TIP3    H126121   2.936   4.546   5.714 -1.9064 -0.5049 -0.5278
 8719TIP3    H226122   2.973   4.401   5.734 -1.4560 -0.2499  0.5385
 8720TIP3   OH226123   1.124   6.176   5.768  0.0418 -0.2914  0.0114
 8720TIP3    H126124   1.028   6.174   5.772  0.0524 -0.7184  0.1679
 8720TIP3    H226125   1.152   6.137   5.850  0.3462 -0.5157 -0.1976
 8721TIP3   OH226126   2.416   3.531   3.111 -0.4549 -0.1654  0.2438
 8721TIP3    H126127   2.381   3.619   3.099  0.1036  0.2082  1.1855
 8721TIP3    H226128   2.345   3.483   3.154 -1.8879 -1.0809 -2.8834
 8722TIP3   OH226129   0.747   0.634   2.958  0.0162 -0.4561 -0.4410
 8722TIP3    H126130   0.818   0.612   3.019 -1.2380 -1.2265  0.8073
 8722TIP3    H226131   0.734   0.554   2.908 -0.4796 -0.5835 -0.1176
 8723TIP3   OH226132   2.556   5.557   4.676 -0.1289  0.5909  0.0705
 8723TIP3    H126133   2.568   5.643   4.634 -0.3273 -0.3665 -2.0974
 8723TIP3    H226134   2.643   5.535   4.709  0.8375  0.1408 -2.5143
 8724TIP3   OH226135   6.866   1.080   3.918  0.4373  0.0777 -0.0294
 8724TIP3    H126136   6.940   1.109   3.972  0.5150 -1.0277  0.4871
 8724TIP3    H226137   6.906   1.047   3.838  0.5190 -0.5732  0.2734
 8725TIP3   OH226138   1.922   3.349   3.643 -0.5647 -0.0477 -0.4032
 8725TIP3    H126139   1.991   3.284   3.636 -0.5890 -0.2334  0.8655
 8725TIP3    H226140   1.967   3.433   3.627 -0.4373 -0.3117 -1.5105
 8726TIP3   OH226141   1.345   6.016   3.826  0.1029  0.4929 -0.0154
 8726TIP3    H126142   1.390   5.932   3.816  0.9284  1.0996 -1.6158
 8726TIP3    H226143   1.351   6.035   3.920  2.3707  0.0914 -0.0285
 8727TIP3   OH226144   6.952   5.357   2.325 -0.1587  1.0270 -0.4522
 8727TIP3    H126145   6.955   5.422   2.256  0.2674 -0.3903 -1.8162
 8727TIP3    H226146   6.900   5.285   2.289  0.6412 -0.0279  0.4208
 8728TIP3   OH226147   6.731   3.654   0.098  1.1739  0.1135  0.8814
 8728TIP3    H126148   6.817   3.629   0.063  0.9783 -0.9628  1.1130
 8728TIP3    H226149   6.686   3.695   0.024  0.5301 -2.7051 -0.4241
 8729TIP3   OH226150   5.704   6.407   1.586 -0.3521  0.1824  0.1995
 8729TIP3    H126151   5.773   6.474   1.593  0.0555  0.0366 -1.7412
 8729TIP3    H226152   5.668   6.420   1.498 -1.8301 -0.6902  0.6567
 8730TIP3   OH226153   3.836   0.616   5.340  0.1983 -0.4269 -0.0383
 8730TIP3    H126154   3.775   0.657   5.280 -0.9808 -0.9787  0.7339
 8730TIP3    H226155   3.898   0.570   5.284  0.8836  1.4330 -0.8850
 8731TIP3   OH226156   6.719   2.550   2.759  0.0439  0.5884  0.2047
 8731TIP3    H126157   6.791   2.609   2.782 -0.7875  1.4000  0.7570
 8731TIP3    H226158   6.723   2.480   2.824  1.3002 -0.2407 -0.7047
 8732TIP3   OH226159   4.558   3.918   3.754 -0.8189  0.0895 -0.5226
 8732TIP3    H126160   4.654   3.915   3.758 -0.8250  0.1435 -0.3128
 8732TIP3    H226161   4.537   4.012   3.754 -0.9024  0.0797  0.3015
 8733TIP3   OH226162   3.905   4.462   4.366 -0.3200  0.3730  0.0735
 8733TIP3    H126163   3.826   4.408   4.359 -0.1830  0.1037  0.5964
 8733TIP3    H226164   3.924   4.465   4.459 -0.0682  0.9603  0.0063
 8734TIP3   OH226165   2.178   2.086   5.325  0.4507  0.6668 -0.1025
 8734TIP3    H126166   2.188   2.138   5.245  1.3133  0.4046 -0.1718
 8734TIP3    H226167   2.252   2.025   5.323 -0.6556 -0.7310 -0.1499
 8735TIP3   OH226168   1.766   3.751   4.400 -0.5145  0.6564 -0.0192
 8735TIP3    H126169   1.762   3.836   4.443  0.8153  1.3888 -1.2296
 8735TIP3    H226170   1.748   3.770   4.308  1.6657 -0.0219 -0.6479
 8736TIP3   OH226171   5.479   0.512   2.328 -0.4464  0.2557 -0.5778
 8736TIP3    H126172   5.517   0.443   2.274  1.1363 -0.8469  1.7679
 8736TIP3    H226173   5.425   0.466   2.392  1.3885  0.9989  1.6329
 8737TIP3   OH226174   3.836   2.823   4.800 -0.4654  0.2166 -0.0017
 8737TIP3    H126175   3.762   2.843   4.857 -1.0191  0.0811 -0.6624
 8737TIP3    H226176   3.834   2.728   4.790 -0.8448  0.3023 -0.8551
 8738TIP3   OH226177   5.941   3.734   0.200  0.2002  0.3056 -0.5846
 8738TIP3    H126178   5.969   3.803   0.140 -0.1976  0.5578 -0.4835
 8738TIP3    H226179   5.992   3.751   0.280  1.0613 -0.2997 -0.9942
 8739TIP3   OH226180   5.285   4.188   3.778 -0.0121  0.4158 -0.1884
 8739TIP3    H126181   5.310   4.256   3.716  0.8656  0.4386  0.1734
 8739TIP3    H226182   5.362   4.177   3.835 -0.9527  0.7204  1.1959
 8740TIP3   OH226183   0.689   6.448   0.408 -0.1306  0.7301  0.5384
 8740TIP3    H126184   0.769   6.493   0.436  0.5968 -1.5435  2.4590
 8740TIP3    H226185   0.658   6.403   0.487 -1.8486 -0.5406 -0.7929
 8741TIP3   OH226186   5.027   6.027   0.620  0.3397  0.3162 -0.3188
 8741TIP3    H126187   5.095   6.089   0.592 -0.3179  0.7087 -1.0572
 8741TIP3    H226188   4.986   5.997   0.539 -1.3422  1.1908  0.1692
 8742TIP3   OH226189   1.969   0.646   2.363 -0.3443 -0.3192  0.1483
 8742TIP3    H126190   1.885   0.664   2.320 -0.9682  1.3252  1.9094
 8742TIP3    H226191   2.014   0.730   2.364  0.9948 -1.0027  0.0021
 8743TIP3   OH226192   3.329   4.286   5.377  0.6306 -0.5594 -0.1902
 8743TIP3    H126193   3.296   4.376   5.369  1.7709 -0.1387 -0.3509
 8743TIP3    H226194   3.290   4.254   5.458  0.9725  0.4320  0.3912
 8744TIP3   OH226195   5.790   5.437   3.662  0.0230 -0.6848 -0.1451
 8744TIP3    H126196   5.791   5.425   3.567  1.5379  0.7043 -0.3504
 8744TIP3    H226197   5.873   5.400   3.691 -0.1766 -0.5776  0.5640
 8745TIP3   OH226198   1.501   6.163   4.282 -0.3380  0.0583 -0.3176
 8745TIP3    H126199   1.563   6.106   4.326 -0.0663  0.3085 -0.3768
 8745TIP3    H226200   1.475   6.227   4.349  1.0746  1.2514 -0.8678
 8746TIP3   OH226201   1.605   5.112   2.223 -0.2450  0.4296 -0.2782
 8746TIP3    H126202   1.640   5.124   2.312 -1.6087  4.2470 -0.0827
 8746TIP3    H226203   1.515   5.083   2.237  0.1018 -0.8944 -0.5689
 8747TIP3   OH226204   1.365   6.687   4.002 -1.0094 -0.2650 -0.0222
 8747TIP3    H126205   1.342   6.636   3.924 -1.7590 -0.1218  0.0964
 8747TIP3    H226206   1.425   6.754   3.970 -1.9933  0.3430 -0.6572
 8748TIP3   OH226207   5.690   1.643   0.445  0.0145  0.2325 -0.0023
 8748TIP3    H126208   5.685   1.676   0.535 -0.4960 -2.3090  0.9925
 8748TIP3    H226209   5.770   1.591   0.443  0.5035  0.9818 -1.3384
 8749TIP3   OH226210   1.499   1.140   3.542  0.0564  0.1730 -0.4330
 8749TIP3    H126211   1.482   1.156   3.635 -1.8755  0.5547 -0.8025
 8749TIP3    H226212   1.491   1.045   3.532  0.6994  0.0834 -0.1468
 8750TIP3   OH226213   1.746   0.647   2.230  0.0686  0.3594 -0.2683
 8750TIP3    H126214   1.657   0.672   2.256  0.1983 -0.7532  1.3965
 8750TIP3    H226215   1.738   0.619   2.139 -1.0245  1.4545 -0.5469
 8751TIP3   OH226216   2.513   6.558   3.746  0.4658  0.4163  0.0798
 8751TIP3    H126217   2.489   6.476   3.790 -0.8283  0.6797 -0.0874
 8751TIP3    H226218   2.474   6.550   3.659  3.1478 -0.1776 -1.1736
 8752TIP3   OH226219   3.417   3.876   2.377 -0.6050  0.2739 -0.3438
 8752TIP3    H126220   3.441   3.967   2.396 -0.1286 -0.1514  1.2661
 8752TIP3    H226221   3.323   3.879   2.362 -1.0245  0.7309  2.0242
 8753TIP3   OH226222   6.081   6.188   5.479 -0.1097  0.0901 -0.2356
 8753TIP3    H126223   6.018   6.252   5.511  0.9482  1.5573 -0.9881
 8753TIP3    H226224   6.055   6.106   5.522 -1.7106  0.9204  0.4768
 8754TIP3   OH226225   4.420   1.026   3.514 -0.7879 -0.3091 -0.4504
 8754TIP3    H126226   4.447   1.067   3.596  0.1425  0.8593 -1.3097
 8754TIP3    H226227   4.455   0.937   3.520 -0.9705 -0.3273  0.5329
 8755TIP3   OH226228   4.629  -0.009   4.591 -0.0408 -0.2274  0.1735
 8755TIP3    H126229   4.547   0.010   4.636 -0.1610  1.9316 -0.8140
 8755TIP3    H226230   4.697   0.029   4.646 -0.1063  1.5522 -0.8879
 8756TIP3   OH226231   1.158   2.382   5.042 -0.3169 -0.3332  0.5465
 8756TIP3    H126232   1.116   2.413   5.122  0.5340 -0.9445  1.2446
 8756TIP3    H226233   1.124   2.439   4.973  1.4451  2.4789  1.8118
 8757TIP3   OH226234   2.113   5.164   0.585  0.1108 -0.5492  1.1096
 8757TIP3    H126235   2.055   5.088   0.583  0.5242 -0.8577  0.4272
 8757TIP3    H226236   2.076   5.225   0.521  0.0181 -0.3526  1.3489
 8758TIP3   OH226237   5.354   0.455   0.833  0.5363 -0.3014 -0.0867
 8758TIP3    H126238   5.337   0.448   0.739  1.7643 -0.3369 -0.3336
 8758TIP3    H226239   5.448   0.475   0.838  0.2127  0.9955  1.1006
 8759TIP3   OH226240   3.956   3.333   5.784  0.1011 -0.5248 -0.0188
 8759TIP3    H126241   3.862   3.324   5.766 -0.0303  0.6904  0.0143
 8759TIP3    H226242   3.997   3.320   5.698 -0.1775  0.1519 -0.2581
 8760TIP3   OH226243   2.730   3.999   4.297  0.4871 -0.1010 -0.0008
 8760TIP3    H126244   2.651   3.956   4.265  0.6079 -1.0237  0.9115
 8760TIP3    H226245   2.719   4.091   4.272  0.2565 -0.6332 -2.0496
 8761TIP3   OH226246   2.912   3.692   1.434  0.0839 -0.5759  0.7436
 8761TIP3    H126247   2.919   3.604   1.469  2.2218 -0.2165  1.3699
 8761TIP3    H226248   2.909   3.749   1.511  1.0335  0.0062  0.3725
 8762TIP3   OH226249   7.226   0.418   5.845  0.2044 -0.5564 -0.0986
 8762TIP3    H126250   7.204   0.420   5.938 -2.5946  2.0286 -0.6427
 8762TIP3    H226251   7.191   0.335   5.814  0.2365 -0.9803  0.9590
 8763TIP3   OH226252   6.566   2.747   5.353  0.3237  0.2109 -0.3022
 8763TIP3    H126253   6.572   2.829   5.304 -2.6092 -0.9728 -3.0151
 8763TIP3    H226254   6.656   2.726   5.376  1.3845  3.1570 -1.2440
 8764TIP3   OH226255   3.834   2.592   5.489 -0.5950  0.2817  0.1649
 8764TIP3    H126256   3.773   2.665   5.481  1.6536  2.3762  0.8746
 8764TIP3    H226257   3.900   2.607   5.421  2.1445  1.3658  2.8327
 8765TIP3   OH226258   6.930   1.624   5.219 -0.0316 -0.3095  0.2793
 8765TIP3    H126259   6.856   1.573   5.187 -1.7844  1.8799  0.6667
 8765TIP3    H226260   6.891   1.696   5.267  2.3690  0.8791  0.5796
 8766TIP3   OH226261   4.380   0.619   0.274 -0.7672  0.3711 -0.0945
 8766TIP3    H126262   4.463   0.591   0.313 -1.2524 -0.5608  0.3153
 8766TIP3    H226263   4.372   0.565   0.194 -1.6772 -0.6709  0.6629
 8767TIP3   OH226264   2.255   6.336   3.769 -0.0633 -0.4886  0.0661
 8767TIP3    H126265   2.168   6.297   3.768 -0.4759  0.3570 -1.9352
 8767TIP3    H226266   2.282   6.337   3.677  1.9880 -0.5579  0.6301
 8768TIP3   OH226267   6.935   2.565   0.054  0.2057  0.1098  0.1112
 8768TIP3    H126268   6.851   2.520   0.048  1.7789 -2.8846 -1.4164
 8768TIP3    H226269   6.998   2.496   0.075  2.7763  1.5393 -2.2469
 8769TIP3   OH226270   6.889   0.871   2.878  0.1347  0.1143 -0.1438
 8769TIP3    H126271   6.795   0.886   2.870 -0.0140 -0.2667  0.7461
 8769TIP3    H226272   6.897   0.777   2.893  0.6972  0.0711 -0.6371
 8770TIP3   OH226273   1.004   4.155   3.195 -0.0243  0.3115 -0.6106
 8770TIP3    H126274   0.973   4.108   3.272 -0.6428  1.1977 -0.3047
 8770TIP3    H226275   0.925   4.170   3.143  0.2264  0.6843 -0.8833
 8771TIP3   OH226276   6.352   4.343   3.640 -0.0893 -0.4458 -0.0107
 8771TIP3    H126277   6.350   4.424   3.692  1.6676  0.9755 -1.9745
 8771TIP3    H226278   6.427   4.354   3.582 -0.8214 -2.7741 -1.5321
 8772TIP3   OH226279   6.720   6.504   0.574  0.4958  0.2803  0.4611
 8772TIP3    H126280   6.652   6.519   0.640  0.0698  0.5490 -0.0250
 8772TIP3    H226281   6.802   6.528   0.618  0.0973  1.6639  0.5189
 8773TIP3   OH226282   2.984   2.349   4.880  0.4330  0.0592  0.6396
 8773TIP3    H126283   2.948   2.315   4.798 -1.9031  1.9470  0.7848
 8773TIP3    H226284   3.048   2.415   4.853 -0.6410  0.9809  0.3037
 8774TIP3   OH226285   6.619   0.133   2.781 -0.5746  0.3751  0.2764
 8774TIP3    H126286   6.535   0.089   2.780  0.4393 -1.6488 -0.0764
 8774TIP3    H226287   6.681   0.069   2.747  1.1447  1.7606  0.6250
 8775TIP3   OH226288   4.655   1.072   2.295  0.2269 -0.0450 -0.4034
 8775TIP3    H126289   4.623   0.986   2.269  0.6752  0.0335 -1.2389
 8775TIP3    H226290   4.728   1.090   2.236  0.5064  0.6585  0.1415
 8776TIP3   OH226291   0.410   4.436   1.386  0.1184  0.5084  0.0867
 8776TIP3    H126292   0.329   4.486   1.392 -0.8630 -1.1312  1.3275
 8776TIP3    H226293   0.410   4.381   1.464  1.9370 -0.2705 -0.4144
 8777TIP3   OH226294   2.742   5.130   2.862  0.1616 -0.0540 -0.0750
 8777TIP3    H126295   2.768   5.053   2.811  0.1090  0.5269 -0.9824
 8777TIP3    H226296   2.692   5.094   2.935  0.5211 -0.9159 -0.2394
 8778TIP3   OH226297   2.395   1.059   3.496 -0.0172 -0.5989 -0.1858
 8778TIP3    H126298   2.307   1.061   3.535  0.2396  0.2420  0.3897
 8778TIP3    H226299   2.415   0.966   3.485 -0.5216 -0.8292  0.7441
 8779TIP3   OH226300   0.658   4.228   5.683 -0.0150  0.0764 -0.0002
 8779TIP3    H126301   0.641   4.155   5.743  1.6731  0.2228  0.7191
 8779TIP3    H226302   0.648   4.306   5.737 -0.0666  0.2922 -0.3184
 8780TIP3   OH226303   3.146   3.144   1.824  0.0231  0.3925  0.3369
 8780TIP3    H126304   3.051   3.138   1.837 -0.0217  0.2838 -0.0252
 8780TIP3    H226305   3.159   3.117   1.733  0.4872 -0.3556  0.6192
 8781TIP3   OH226306   0.762   1.102   5.205 -0.1527 -0.0039 -0.3272
 8781TIP3    H126307   0.668   1.089   5.195 -0.0095 -0.3398 -1.3108
 8781TIP3    H226308   0.772   1.194   5.227 -0.5806  0.6156 -2.4947
 8782TIP3   OH226309   0.451   3.058   0.450  0.1891 -0.1202  0.0275
 8782TIP3    H126310   0.365   3.030   0.482  1.0788 -1.3349  1.4899
 8782TIP3    H226311   0.503   2.978   0.447  1.0442  0.4512 -1.6768
 8783TIP3   OH226312   0.751   2.332   3.423 -0.2786  0.4537 -0.1101
 8783TIP3    H126313   0.663   2.316   3.459 -0.3165  0.5842 -0.1405
 8783TIP3    H226314   0.772   2.253   3.374  0.0840 -0.0265  0.8047
 8784TIP3   OH226315   2.960   6.057   4.413 -0.6538 -0.2139  0.3101
 8784TIP3    H126316   2.944   6.086   4.323 -0.9791  1.1712  0.7927
 8784TIP3    H226317   3.048   6.019   4.411  0.2628  1.8008 -0.1666
 8785TIP3   OH226318   0.342   2.678   0.538  0.4325  0.6268 -0.1495
 8785TIP3    H126319   0.258   2.632   0.537  0.0625  1.2769 -0.0326
 8785TIP3    H226320   0.382   2.659   0.453  0.6442 -0.5279  0.1876
 8786TIP3   OH226321   5.221   5.255   4.459 -0.4066 -0.6531  0.1539
 8786TIP3    H126322   5.238   5.343   4.424 -2.1197 -0.5589 -0.5760
 8786TIP3    H226323   5.276   5.197   4.407 -0.0259 -0.1048 -0.0631
 8787TIP3   OH226324   1.700   6.797   5.812 -0.7709  0.2156  0.3766
 8787TIP3    H126325   1.647   6.856   5.758 -0.7773 -0.3297 -0.2316
 8787TIP3    H226326   1.658   6.712   5.802  0.6388 -0.3857 -0.7029
 8788TIP3   OH226327   5.914   1.270   2.471  0.0726 -0.1701 -0.4614
 8788TIP3    H126328   5.854   1.260   2.546 -0.0630  0.0389 -0.5407
 8788TIP3    H226329   5.992   1.311   2.509  0.7765 -1.8131 -0.0646
 8789TIP3   OH226330   6.315   2.880   4.208  0.2963 -0.1733 -0.2374
 8789TIP3    H126331   6.393   2.831   4.234  1.3474  0.6842 -1.6326
 8789TIP3    H226332   6.284   2.837   4.129 -0.6055 -0.4309  0.2394
 8790TIP3   OH226333   6.613   4.673   4.283 -0.4734 -0.2385 -0.4547
 8790TIP3    H126334   6.680   4.742   4.291  0.0353 -0.6544 -1.0593
 8790TIP3    H226335   6.538   4.718   4.243 -0.3012  0.0739 -0.4317
 8791TIP3   OH226336   6.814   0.241   4.735  0.3582  0.2768  0.3325
 8791TIP3    H126337   6.884   0.286   4.782  1.3513  1.3903 -2.0597
 8791TIP3    H226338   6.775   0.308   4.679 -0.1394 -1.1373 -1.1070
 8792TIP3   OH226339   0.436   0.895   1.199  0.1832  0.0524  0.0145
 8792TIP3    H126340   0.501   0.864   1.262  0.7269  0.1398 -0.4888
 8792TIP3    H226341   0.487   0.910   1.118 -0.3548  0.6753 -0.2164
 8793TIP3   OH226342   6.424   5.884   2.498  0.3161  0.2730 -0.0393
 8793TIP3    H126343   6.515   5.914   2.498  0.9994 -1.5040 -2.2579
 8793TIP3    H226344   6.429   5.794   2.532 -0.7393  0.4245  0.5538
 8794TIP3   OH226345   2.140   5.536   5.838  0.6648  0.1772 -0.2579
 8794TIP3    H126346   2.112   5.445   5.842  1.6975 -0.1371  0.1543
 8794TIP3    H226347   2.181   5.545   5.752  1.2516  0.0318 -0.0012
 8795TIP3   OH226348   1.940   0.383   5.240  0.1894 -0.0849 -0.0719
 8795TIP3    H126349   1.925   0.438   5.164 -0.2341  1.0196  0.7845
 8795TIP3    H226350   1.898   0.300   5.219 -0.9620  0.6018 -0.5691
 8796TIP3   OH226351   3.111   3.617   4.340  0.0794  0.0119  0.1842
 8796TIP3    H126352   3.198   3.645   4.368  0.4895  1.1368 -2.0210
 8796TIP3    H226353   3.098   3.533   4.385  1.9501  0.1923  1.1783
 8797TIP3   OH226354   7.068   5.117   2.913 -0.0952 -0.1528  0.5404
 8797TIP3    H126355   7.121   5.183   2.957  0.5492  1.9330 -2.9900
 8797TIP3    H226356   6.991   5.165   2.883 -1.7359 -2.0692  1.4422
 8798TIP3   OH226357   0.154   0.069   0.553 -0.5076  0.1591  0.0969
 8798TIP3    H126358   0.182   0.144   0.502 -0.1139 -0.0361  0.0222
 8798TIP3    H226359   0.059   0.071   0.548 -0.4697 -0.3314 -1.3422
 8799TIP3   OH226360   2.198   1.291   4.890  0.1767 -0.4437 -0.0718
 8799TIP3    H126361   2.288   1.290   4.924  0.2772 -1.5341 -0.3316
 8799TIP3    H226362   2.174   1.384   4.889  0.7509 -0.2485  1.4427
 8800TIP3   OH226363   1.300   5.348   3.085  0.4218 -0.6454 -0.4488
 8800TIP3    H126364   1.373   5.291   3.063 -0.0865 -2.0590  1.2550
 8800TIP3    H226365   1.245   5.295   3.143 -0.5858  1.2666  0.4420
 8801TIP3   OH226366   3.435   2.432   1.271 -0.6421 -0.4565  0.3813
 8801TIP3    H126367   3.414   2.426   1.364  0.9614 -1.6944  0.7224
 8801TIP3    H226368   3.521   2.389   1.263  0.7028  2.2557 -1.1931
 8802TIP3   OH226369   5.669   5.483   3.023 -0.3187 -0.4563 -0.7915
 8802TIP3    H126370   5.627   5.476   3.109 -0.3392 -1.6431 -0.8781
 8802TIP3    H226371   5.706   5.396   3.008 -0.8902 -0.4636 -2.2778
 8803TIP3   OH226372   3.977   2.564   4.213  0.4945 -0.4009 -0.2193
 8803TIP3    H126373   3.980   2.473   4.243 -0.8339  0.7705  4.2453
 8803TIP3    H226374   4.066   2.596   4.228  0.2307 -0.2435  1.1033
 8804TIP3   OH226375   0.119   3.846   5.271 -0.0340 -0.8177 -0.4484
 8804TIP3    H126376   0.190   3.909   5.284 -0.2904 -0.4623 -0.7663
 8804TIP3    H226377   0.062   3.859   5.346 -0.5467 -0.0507 -0.9541
 8805TIP3   OH226378   2.953   1.826   4.104 -0.1497 -0.0806 -0.3843
 8805TIP3    H126379   2.989   1.739   4.084 -1.1886 -0.8331  0.8077
 8805TIP3    H226380   3.023   1.871   4.150  0.0811 -0.6591 -0.1510
 8806TIP3   OH226381   3.461   6.420   0.437  1.1322  0.0407 -0.0220
 8806TIP3    H126382   3.390   6.392   0.380  2.0848 -1.1153 -0.6917
 8806TIP3    H226383   3.481   6.343   0.491 -0.5897  1.4598  2.8754
 8807TIP3   OH226384   3.643   2.761   5.397 -0.0702  0.4480 -0.1807
 8807TIP3    H126385   3.615   2.852   5.404 -0.4415  0.5423 -2.1695
 8807TIP3    H226386   3.563   2.710   5.408  0.4630  0.1545  3.2585
 8808TIP3   OH226387   2.994   4.012   2.961  0.0651 -0.0651 -0.3139
 8808TIP3    H126388   2.922   3.951   2.945  2.1794 -2.9576  0.2188
 8808TIP3    H226389   2.972   4.053   3.045 -1.1955 -0.5123 -0.4048
 8809TIP3   OH226390   5.804   3.248   4.228  0.1160  0.0378 -0.2747
 8809TIP3    H126391   5.723   3.200   4.211 -0.4231  0.1034  1.8311
 8809TIP3    H226392   5.800   3.322   4.167  0.7438 -2.1679 -3.2681
 8810TIP3   OH226393   5.109   5.805   4.941  0.0583 -0.2103  0.1015
 8810TIP3    H126394   5.034   5.847   4.900 -0.0258 -0.7261 -0.2808
 8810TIP3    H226395   5.102   5.828   5.033 -0.4574 -0.0833  0.0340
 8811TIP3   OH226396   3.466   2.466   0.981  0.1186  0.3363  0.3487
 8811TIP3    H126397   3.402   2.411   0.936  0.2015  0.4122  0.1378
 8811TIP3    H226398   3.436   2.469   1.072  1.1350 -1.6204  0.8079
 8812TIP3   OH226399   6.638   3.615   5.150  0.2057  0.2311  0.1081
 8812TIP3    H126400   6.603   3.541   5.200 -3.5300  0.3226 -2.0228
 8812TIP3    H226401   6.676   3.576   5.072  0.6975  0.4363  0.2411
 8813TIP3   OH226402   5.494   6.109   1.278 -0.1275 -0.1079  0.3599
 8813TIP3    H126403   5.583   6.091   1.248  0.0439 -0.1772  0.9132
 8813TIP3    H226404   5.503   6.129   1.371 -0.7710 -0.8444  0.5919
 8814TIP3   OH226405   7.101   2.347   0.151 -0.3752 -0.1124 -0.0851
 8814TIP3    H126406   7.124   2.289   0.078 -0.3358 -0.1925 -0.0098
 8814TIP3    H226407   7.045   2.294   0.208  0.7643 -0.5371  0.6824
 8815TIP3   OH226408   5.674   6.523   4.780  0.1547  0.1908 -0.6853
 8815TIP3    H126409   5.670   6.462   4.707  2.1668  0.0595 -0.7345
 8815TIP3    H226410   5.757   6.569   4.768 -1.1507  2.7691 -0.4951
 8816TIP3   OH226411   1.325   6.293   1.717  0.2321  0.2111  0.0748
 8816TIP3    H126412   1.313   6.353   1.643 -1.8190 -0.2116 -0.0028
 8816TIP3    H226413   1.344   6.350   1.792  0.1451  0.8084 -0.3505
 8817TIP3   OH226414   2.181   3.481   3.278  0.0541 -0.1152 -0.5929
 8817TIP3    H126415   2.087   3.487   3.293  0.2757  0.7997  0.5339
 8817TIP3    H226416   2.221   3.524   3.354  1.3496  0.9072 -1.7922
 8818TIP3   OH226417   3.766   5.265   5.078  0.0682  0.2329 -0.1496
 8818TIP3    H126418   3.820   5.186   5.082  0.0425  0.2407  0.4901
 8818TIP3    H226419   3.805   5.318   5.009 -1.3164 -1.3731 -2.2634
 8819TIP3   OH226420   2.155   2.992   0.137 -0.2494 -0.2312 -0.4613
 8819TIP3    H126421   2.065   2.978   0.167  0.2080 -1.4644  0.4530
 8819TIP3    H226422   2.210   2.963   0.210  0.8960  0.4089 -1.0322
 8820TIP3   OH226423   1.283   2.443   1.948  0.4307 -0.6535 -0.3262
 8820TIP3    H126424   1.242   2.449   2.034 -0.3948  0.2454 -0.7622
 8820TIP3    H226425   1.366   2.489   1.957 -0.6509  1.4637 -0.5638
 8821TIP3   OH226426   0.966   1.521   3.431 -0.5757  0.5472 -0.6494
 8821TIP3    H126427   0.873   1.541   3.418 -0.9171  1.1599  2.0785
 8821TIP3    H226428   0.969   1.480   3.517  1.6632  0.1860 -0.8606
 8822TIP3   OH226429   6.325   2.218   2.536  0.5618 -0.0649  0.1872
 8822TIP3    H126430   6.255   2.260   2.485 -0.6302 -1.6070  0.4775
 8822TIP3    H226431   6.405   2.235   2.485 -0.0617  1.3773 -0.3751
 8823TIP3   OH226432   5.857   2.981   5.369 -0.9455 -0.1585 -0.1673
 8823TIP3    H126433   5.802   3.000   5.293 -1.0394  0.2921  0.0086
 8823TIP3    H226434   5.877   2.888   5.362  0.2173  0.1594 -1.5136
 8824TIP3   OH226435   5.107   1.299   0.056  0.4068  0.1775 -0.4117
 8824TIP3    H126436   5.034   1.352   0.089 -2.3806 -3.5336 -0.0655
 8824TIP3    H226437   5.169   1.295   0.129 -1.2655 -0.3264  1.0286
 8825TIP3   OH226438   2.508   0.461   4.635 -0.2244  0.3891  0.4906
 8825TIP3    H126439   2.593   0.500   4.655  1.0483 -1.4955 -0.8965
 8825TIP3    H226440   2.518   0.425   4.547 -2.4665  0.0882  0.3090
 8826TIP3   OH226441   2.003   6.216   4.261 -0.2873 -0.3080  0.3421
 8826TIP3    H126442   2.020   6.284   4.195 -1.5181 -0.8420 -0.5779
 8826TIP3    H226443   2.089   6.194   4.297  0.3813  0.1966 -0.8972
 8827TIP3   OH226444   6.486   1.715   4.426  0.3490 -0.1129 -0.4185
 8827TIP3    H126445   6.395   1.716   4.457  0.1244 -0.7107 -1.0463
 8827TIP3    H226446   6.514   1.624   4.438  1.9857  0.6557  2.9054
 8828TIP3   OH226447   4.900   2.416   3.315 -0.0240 -0.4106  0.0364
 8828TIP3    H126448   4.909   2.464   3.233  2.4496 -0.3285  0.2918
 8828TIP3    H226449   4.907   2.324   3.290  1.6479 -0.3615  0.1826
 8829TIP3   OH226450   1.803   3.640   4.892  0.2709  0.3569  0.0137
 8829TIP3    H126451   1.730   3.702   4.891 -0.3436 -0.3419  0.1627
 8829TIP3    H226452   1.761   3.554   4.891  1.0390 -0.0784  1.5179
 8830TIP3   OH226453   4.968   6.092   5.835 -0.1297  0.1332 -0.0877
 8830TIP3    H126454   4.903   6.068   5.768  0.3991  0.9951 -0.9365
 8830TIP3    H226455   5.051   6.065   5.797  0.1540  0.3834  0.3563
 8831TIP3   OH226456   6.612   5.181   4.870 -0.4598 -0.3772  0.4222
 8831TIP3    H126457   6.646   5.091   4.871  0.6105 -0.0203  2.4362
 8831TIP3    H226458   6.561   5.188   4.950  0.9632  1.2887  1.2568
 8832TIP3   OH226459   1.876   2.908   0.192  0.3092  0.7143  0.2848
 8832TIP3    H126460   1.828   2.938   0.270  0.1661 -0.5480  0.6953
 8832TIP3    H226461   1.813   2.918   0.120 -0.3077 -0.1413  0.6866
 8833TIP3   OH226462   3.524   2.809   1.452 -0.5970 -0.4748 -0.5783
 8833TIP3    H126463   3.565   2.726   1.429  0.6594 -0.2613  0.7431
 8833TIP3    H226464   3.556   2.828   1.540 -2.6061  0.3271  0.0235
 8834TIP3   OH226465   6.320   2.245   5.890 -0.8199  0.1995 -0.4335
 8834TIP3    H126466   6.344   2.275   5.802  0.7654 -0.9765 -0.4475
 8834TIP3    H226467   6.316   2.150   5.882  0.6287 -0.0173  1.0432
 8835TIP3   OH226468   1.710   1.196   4.736 -0.3067  0.1964  0.2818
 8835TIP3    H126469   1.640   1.186   4.800 -0.9631  1.0944 -0.2688
 8835TIP3    H226470   1.775   1.251   4.780 -0.7709  0.8398  0.1718
 8836TIP3   OH226471   5.831   5.403   3.397  0.5387  0.0854  0.0619
 8836TIP3    H126472   5.894   5.335   3.375  0.3090  0.0991 -0.6503
 8836TIP3    H226473   5.747   5.370   3.365  0.4615  0.7989 -0.4964
 8837TIP3   OH226474   7.021   0.388   4.885  0.1339 -0.1885  0.3698
 8837TIP3    H126475   7.109   0.392   4.923  0.2863  1.2412 -0.0795
 8837TIP3    H226476   6.972   0.457   4.929 -0.3453 -0.0317 -0.3907
 8838TIP3   OH226477   5.357   2.495   2.642 -0.0088 -0.1542  0.0763
 8838TIP3    H126478   5.425   2.466   2.580  0.3709  1.5519 -0.3423
 8838TIP3    H226479   5.276   2.490   2.592  0.0591 -0.3864 -0.0150
 8839TIP3   OH226480   5.094   0.446   5.172  0.0826  0.3497 -0.0927
 8839TIP3    H126481   5.135   0.363   5.196  0.2586  0.8360  1.3859
 8839TIP3    H226482   5.106   0.502   5.249 -2.3695  0.8739  0.0042
 8840TIP3   OH226483   1.575   1.077   0.988  0.3252  0.7273 -0.1624
 8840TIP3    H126484   1.583   1.159   0.941  0.5352  0.6908 -0.1923
 8840TIP3    H226485   1.662   1.063   1.027  0.4474  0.2517 -0.6017
 8841TIP3   OH226486   4.911   2.100   1.230 -0.0359  0.8183  0.3049
 8841TIP3    H126487   4.948   2.027   1.279 -1.1879  0.0860  0.0973
 8841TIP3    H226488   4.946   2.178   1.274 -1.0826  0.1960  2.3507
 8842TIP3   OH226489   5.906   0.824   5.373  0.0115  0.2100 -0.7903
 8842TIP3    H126490   5.865   0.783   5.450  2.2901 -1.7050 -0.4777
 8842TIP3    H226491   5.914   0.754   5.309  1.8692  0.7055 -1.1801
 8843TIP3   OH226492   5.200   6.001   3.089 -0.3422 -0.6248  0.4968
 8843TIP3    H126493   5.163   6.080   3.129  1.6854 -0.3279  1.9173
 8843TIP3    H226494   5.169   6.004   2.998  0.8421  2.6114  0.0827
 8844TIP3   OH226495   5.698   0.188   2.992  0.6799 -0.5996  0.5252
 8844TIP3    H126496   5.660   0.275   3.006  3.6126  0.5587  2.2140
 8844TIP3    H226497   5.708   0.181   2.897 -0.8236  0.2730  0.2616
 8845TIP3   OH226498   2.619   4.934   4.603 -0.2079  0.5870 -0.1649
 8845TIP3    H126499   2.616   4.854   4.655  2.1286 -0.6468 -1.7365
 8845TIP3    H226500   2.559   4.917   4.530  0.9191 -0.1290 -0.9497
 8846TIP3   OH226501   2.999   6.161   5.392  0.0841  0.2408  0.2733
 8846TIP3    H126502   2.989   6.084   5.336  1.1600 -0.2997  0.7905
 8846TIP3    H226503   2.922   6.160   5.448  0.2860 -0.7083  0.5560
 8847TIP3   OH226504   1.395   5.212   5.212 -0.6452 -0.3383 -0.3046
 8847TIP3    H126505   1.343   5.291   5.200 -1.5955 -1.1354 -1.7130
 8847TIP3    H226506   1.332   5.146   5.241 -0.2852 -1.1249 -1.2807
 8848TIP3   OH226507   0.874   4.745   1.857 -0.1052  0.1760  0.5190
 8848TIP3    H126508   0.836   4.692   1.927 -0.0535 -1.9350 -0.9623
 8848TIP3    H226509   0.955   4.700   1.834 -0.6720  0.1234 -1.6408
 8849TIP3   OH226510   4.150   2.679   2.928 -0.3214  0.0530  0.3385
 8849TIP3    H126511   4.127   2.665   3.020  0.7463  1.0758  0.7874
 8849TIP3    H226512   4.137   2.594   2.887  0.9454 -0.9225  1.8297
 8850TIP3   OH226513   4.086   4.716   4.339 -0.2234 -0.1821 -0.4642
 8850TIP3    H126514   4.061   4.665   4.262 -0.2243  0.0315 -0.6083
 8850TIP3    H226515   4.055   4.666   4.414  1.3487 -1.3019 -0.5118
 8851TIP3   OH226516   0.150   6.417   2.815 -0.0539  0.7306 -0.1491
 8851TIP3    H126517   0.111   6.403   2.901  0.8691 -1.3799 -0.0228
 8851TIP3    H226518   0.241   6.441   2.833  0.6560 -1.4997 -0.4977
 8852TIP3   OH226519   0.490   6.414   0.220  0.0720  0.3174 -0.0481
 8852TIP3    H126520   0.471   6.320   0.225 -1.3978  0.6340  1.9925
 8852TIP3    H226521   0.552   6.430   0.292 -1.6553  1.2358  1.3368
 8853TIP3   OH226522   0.279   2.968   1.620 -0.8308 -0.1578  0.2325
 8853TIP3    H126523   0.204   2.915   1.596  0.2418 -0.7763 -2.0840
 8853TIP3    H226524   0.278   2.971   1.716 -3.0301 -1.2050  0.2915
 8854TIP3   OH226525   3.262   0.096   5.097  0.0962  0.0465  0.2857
 8854TIP3    H126526   3.231   0.005   5.092 -0.1159  0.1037  0.4919
 8854TIP3    H226527   3.352   0.093   5.065 -0.1586 -0.1077 -0.4323
 8855TIP3   OH226528   3.883   3.147   5.563 -0.2172  0.2365  0.1607
 8855TIP3    H126529   3.884   3.125   5.470 -0.7240 -0.7401  0.3732
 8855TIP3    H226530   3.807   3.203   5.574 -0.9455 -0.7353  0.2051
 8856TIP3   OH226531   7.042   0.135   1.448  0.6886  0.5691 -0.3577
 8856TIP3    H126532   7.040   0.048   1.488 -0.1448  0.0052 -1.5658
 8856TIP3    H226533   6.979   0.187   1.499  0.9873  0.4029  0.1931
 8857TIP3   OH226534   3.727   6.339   2.504 -0.0171  0.1220  1.0707
 8857TIP3    H126535   3.676   6.258   2.494  1.9579 -0.8571 -2.8188
 8857TIP3    H226536   3.660   6.407   2.517 -2.2123 -1.4211 -1.2276
 8858TIP3   OH226537   1.258   2.958   0.618 -0.4450  0.0359  0.5214
 8858TIP3    H126538   1.201   3.031   0.641 -0.7396  0.9720 -2.7438
 8858TIP3    H226539   1.203   2.880   0.631 -0.7300  0.4749  2.2414
 8859TIP3   OH226540   6.020   5.660   3.378 -0.2951 -0.4430  0.0112
 8859TIP3    H126541   6.047   5.631   3.291 -4.7799  1.3111 -2.2460
 8859TIP3    H226542   5.998   5.579   3.424  1.3943 -1.3438 -0.6549
 8860TIP3   OH226543   6.461   0.882   2.215 -0.9446 -0.0553  0.3159
 8860TIP3    H126544   6.387   0.837   2.257 -0.1624 -1.5350  0.1610
 8860TIP3    H226545   6.503   0.814   2.162  0.1484  0.9297 -0.1047
 8861TIP3   OH226546   6.402   2.079   1.825 -0.4278  0.2321  0.5398
 8861TIP3    H126547   6.348   2.025   1.767 -0.4451  0.1290  0.6520
 8861TIP3    H226548   6.480   2.027   1.842 -0.9975 -0.3141  1.6677
 8862TIP3   OH226549   0.654   0.929   4.892 -0.0334  0.0272 -0.0988
 8862TIP3    H126550   0.620   0.848   4.853 -0.4303  0.0400  0.2231
 8862TIP3    H226551   0.593   0.950   4.963  0.9208 -0.2397  0.8338
 8863TIP3   OH226552   1.407   6.004   1.742  0.3185  0.2493  0.3380
 8863TIP3    H126553   1.415   6.082   1.797 -0.0777  0.6008 -0.0956
 8863TIP3    H226554   1.339   6.027   1.679  1.9171  0.4826 -1.3626
 8864TIP3   OH226555   4.079   4.025   2.150  0.2460  0.1725  0.0168
 8864TIP3    H126556   4.082   3.935   2.180 -0.7036  0.0735 -0.1455
 8864TIP3    H226557   4.147   4.032   2.084 -0.7799 -0.9007 -1.2025
 8865TIP3   OH226558   2.680   5.978   5.585 -0.9343  0.1703 -0.0153
 8865TIP3    H126559   2.757   5.922   5.574 -1.0236  0.0578 -0.0637
 8865TIP3    H226560   2.655   5.966   5.676 -0.2212  1.0689  0.3139
 8866TIP3   OH226561   2.374   3.935   4.777  0.1891  0.2430 -0.8550
 8866TIP3    H126562   2.401   3.847   4.751 -0.4926  0.1225 -1.1674
 8866TIP3    H226563   2.315   3.964   4.708 -0.7107  0.3801 -0.0573
 8867TIP3   OH226564   0.633   1.259   1.128 -0.5096 -0.4064  0.0139
 8867TIP3    H126565   0.662   1.327   1.067  0.9124 -0.3492  0.7178
 8867TIP3    H226566   0.709   1.201   1.137 -0.0359  0.5270  3.0248
 8868TIP3   OH226567   0.895   1.542   4.571  1.0704 -0.0986  0.0325
 8868TIP3    H126568   0.884   1.575   4.661 -0.3815  1.1371 -0.5499
 8868TIP3    H226569   0.827   1.475   4.563  1.1039 -0.1050 -0.1784
 8869TIP3   OH226570   1.555   3.129   1.443 -0.3213 -0.0037 -0.1560
 8869TIP3    H126571   1.523   3.131   1.352 -1.9364 -0.3560  0.3715
 8869TIP3    H226572   1.646   3.101   1.435  0.2608  2.0945 -1.8290
 8870TIP3   OH226573   2.842   5.183   1.524  0.0111 -0.4532  0.6657
 8870TIP3    H126574   2.899   5.236   1.580  1.4160 -2.1007  0.8789
 8870TIP3    H226575   2.788   5.132   1.584 -0.0738 -0.5760  0.4872
 8871TIP3   OH226576   3.920   4.602   2.912 -0.2589  0.6857  0.0943
 8871TIP3    H126577   3.863   4.527   2.928 -0.4298  0.5391 -1.0921
 8871TIP3    H226578   3.900   4.663   2.983 -2.4996  0.9620 -0.6771
 8872TIP3   OH226579   4.804   0.205   0.448  0.3405  0.4558 -0.0185
 8872TIP3    H126580   4.806   0.120   0.403  2.2789 -0.1458  1.1172
 8872TIP3    H226581   4.713   0.214   0.477 -0.1903 -0.6299 -1.2177
 8873TIP3   OH226582   4.555   3.217   0.639 -0.5291  0.4633 -0.6661
 8873TIP3    H126583   4.551   3.288   0.703 -0.1074  1.8310 -2.0945
 8873TIP3    H226584   4.478   3.231   0.584  0.1365  0.4719 -1.6106
 8874TIP3   OH226585   3.470   5.408   3.056 -0.1759  0.7658  0.4917
 8874TIP3    H126586   3.556   5.366   3.048 -0.2686  0.2743  1.7661
 8874TIP3    H226587   3.488   5.489   3.103 -0.3634  0.7977  0.5067
 8875TIP3   OH226588   5.937   1.337   4.878  0.4432  0.4757  0.6624
 8875TIP3    H126589   5.848   1.353   4.848  0.3312  2.1228  1.7621
 8875TIP3    H226590   5.993   1.387   4.818  0.5061  0.7400  0.9413
 8876TIP3   OH226591   3.484   4.617   5.181  0.9484  0.2462 -0.0272
 8876TIP3    H126592   3.420   4.619   5.251  1.0977  0.5114  0.1048
 8876TIP3    H226593   3.455   4.546   5.123  1.0397 -0.2315  0.5058
 8877TIP3   OH226594   1.783   3.348   4.106 -0.3280 -0.0512 -0.0331
 8877TIP3    H126595   1.861   3.394   4.135 -0.7973  0.0794  1.0956
 8877TIP3    H226596   1.719   3.417   4.088 -0.4421 -0.1848 -0.1469
 8878TIP3   OH226597   6.525   0.554   2.271  0.3320 -0.1470  0.1048
 8878TIP3    H126598   6.514   0.467   2.309 -2.3971  0.0437 -0.0792
 8878TIP3    H226599   6.479   0.613   2.331  0.9898  1.0035 -0.4777
 8879TIP3   OH226600   5.142   2.203   1.025 -0.4244  0.4098 -0.9011
 8879TIP3    H126601   5.060   2.222   0.978 -2.5075 -2.9049  0.9502
 8879TIP3    H226602   5.180   2.129   0.978  0.1105  0.2398 -0.2193
 8880TIP3   OH226603   7.084   4.162   3.226 -0.0046  0.1163 -0.0458
 8880TIP3    H126604   7.127   4.101   3.165  2.3090  0.0429  1.5218
 8880TIP3    H226605   7.049   4.105   3.295  0.5019  0.4220  0.4676
 8881TIP3   OH226606   2.356   5.862   1.488  0.3782 -0.0247 -0.4473
 8881TIP3    H126607   2.330   5.939   1.539  3.1383  0.2683  0.7202
 8881TIP3    H226608   2.448   5.848   1.511  0.5314 -2.5132 -2.1439
 8882TIP3   OH226609   2.521   3.727   0.253  0.1613 -0.0071  0.2551
 8882TIP3    H126610   2.427   3.744   0.252  0.0105 -0.8051  0.4976
 8882TIP3    H226611   2.542   3.714   0.345  0.4973  0.0870  0.1924
 8883TIP3   OH226612   2.070   0.475   0.091 -0.2912 -0.0277  0.7614
 8883TIP3    H126613   2.143   0.446   0.145  0.2153 -0.2446 -0.0278
 8883TIP3    H226614   2.082   0.570   0.084  0.0636 -0.0916  0.4369
 8884TIP3   OH226615   4.696   6.547   1.283 -0.4934 -0.5020 -0.2284
 8884TIP3    H126616   4.740   6.610   1.225 -2.6167  1.1883 -0.0973
 8884TIP3    H226617   4.739   6.559   1.368  1.0122 -1.3030 -0.8277
 8885TIP3   OH226618   6.407   2.897   1.056  0.3137 -0.0046 -0.3128
 8885TIP3    H126619   6.448   2.837   0.994  1.6130  1.3211 -0.7788
 8885TIP3    H226620   6.479   2.947   1.094 -0.7890  2.1086 -0.8336
 8886TIP3   OH226621   7.065   2.876   2.417  0.1806 -0.3704 -0.0284
 8886TIP3    H126622   7.097   2.959   2.381  0.8312 -0.4886  0.2588
 8886TIP3    H226623   7.030   2.829   2.341  0.0488  0.0586 -0.2355
 8887TIP3   OH226624   4.520   0.495   1.489 -0.0162  0.2819  0.6709
 8887TIP3    H126625   4.593   0.434   1.497  0.1280  0.3221 -0.2301
 8887TIP3    H226626   4.560   0.577   1.461 -0.4280  0.2101 -0.1756
 8888TIP3   OH226627   4.930   6.076   4.018 -0.4017 -0.5557 -0.2127
 8888TIP3    H126628   5.001   6.128   3.982 -0.5804  0.6899  1.1338
 8888TIP3    H226629   4.850   6.118   3.986 -0.5758 -1.8501 -1.5851
 8889TIP3   OH226630   3.298   5.857   1.840 -0.2078  0.4230 -0.4542
 8889TIP3    H126631   3.282   5.821   1.927 -3.1080 -1.2819 -1.5436
 8889TIP3    H226632   3.269   5.947   1.845  1.5800  0.9947  0.7912
 8890TIP3   OH226633   3.894   3.608   4.687  0.2072 -0.2759  0.4660
 8890TIP3    H126634   3.941   3.671   4.633  0.0989 -0.7776 -0.2152
 8890TIP3    H226635   3.942   3.526   4.676  2.2586  0.2784  3.7504
 8891TIP3   OH226636   3.749   4.223   2.083 -0.1932 -0.0406  0.2243
 8891TIP3    H126637   3.719   4.216   1.992 -0.5625  0.8403  0.2696
 8891TIP3    H226638   3.670   4.245   2.132 -0.1871 -1.4572  0.9162
 8892TIP3   OH226639   0.478   1.319   4.036  0.2565 -0.3750 -0.4689
 8892TIP3    H126640   0.394   1.279   4.013  0.2352 -0.0777 -0.9482
 8892TIP3    H226641   0.529   1.314   3.955  0.3879  0.2083 -0.4286
 8893TIP3   OH226642   4.479   3.098   1.170 -0.2925 -0.0082  0.2230
 8893TIP3    H126643   4.424   3.022   1.153 -0.4208 -0.0491  0.8049
 8893TIP3    H226644   4.417   3.169   1.188 -0.1749  0.2383 -0.3160
 8894TIP3   OH226645   1.354   5.555   1.381  0.5949 -0.2250 -0.0858
 8894TIP3    H126646   1.267   5.515   1.382  0.9335 -0.9875  0.6813
 8894TIP3    H226647   1.410   5.490   1.339  0.7082  0.4896 -1.0733
 8895TIP3   OH226648   4.818   2.979   5.808 -0.2624  0.2249 -0.1592
 8895TIP3    H126649   4.760   2.903   5.805  0.6809 -0.6312  1.5086
 8895TIP3    H226650   4.786   3.030   5.882  0.7016  0.0415  0.4135
 8896TIP3   OH226651   1.767   0.190   5.314 -0.2821 -0.2062  0.0973
 8896TIP3    H126652   1.795   0.142   5.392  1.2600  1.7668  0.8490
 8896TIP3    H226653   1.734   0.274   5.347  1.3908  1.1178 -1.3484
 8897TIP3   OH226654   4.722   6.637   0.302 -0.9479 -0.1104 -0.2105
 8897TIP3    H126655   4.633   6.613   0.330 -0.4999 -0.6588  0.7591
 8897TIP3    H226656   4.780   6.581   0.353 -0.0587 -0.3624 -1.4483
 8898TIP3   OH226657   2.227   6.141   4.403  0.2036  0.1058  0.0719
 8898TIP3    H126658   2.317   6.140   4.371 -0.3181 -0.0311 -1.4313
 8898TIP3    H226659   2.199   6.050   4.399  0.1485  0.0687  1.0305
 8899TIP3   OH226660   5.340   1.089   0.225  0.1301 -0.0002 -0.1823
 8899TIP3    H126661   5.329   1.148   0.299  0.9881  1.4762 -1.1908
 8899TIP3    H226662   5.409   1.028   0.254 -1.7007 -1.4935  1.3843
 8900TIP3   OH226663   2.903   2.010   5.745 -0.2491 -0.1283  0.0052
 8900TIP3    H126664   2.875   2.018   5.654  1.4364  3.3937 -0.3765
 8900TIP3    H226665   2.996   1.989   5.740 -0.4714 -1.5260  1.0096
 8901TIP3   OH226666   5.164   6.320   5.301 -0.0686  0.2160  0.3150
 8901TIP3    H126667   5.094   6.356   5.248 -2.1158 -2.2071  1.1949
 8901TIP3    H226668   5.218   6.271   5.239 -0.1050  0.7108 -0.1149
 8902TIP3   OH226669   0.919   4.704   2.508 -0.0492 -0.1590 -0.3456
 8902TIP3    H126670   0.916   4.666   2.595 -0.1168  2.4969  0.9138
 8902TIP3    H226671   1.012   4.708   2.486 -0.0611 -1.3543 -0.6861
 8903TIP3   OH226672   3.074   0.832   0.250 -0.0306  0.2489  0.1311
 8903TIP3    H126673   3.112   0.765   0.193  1.7387 -0.4169  1.9597
 8903TIP3    H226674   2.983   0.806   0.261  0.2226 -0.9737 -0.4445
 8904TIP3   OH226675   4.913   0.703   4.494  0.5816 -0.2259 -0.2010
 8904TIP3    H126676   4.850   0.636   4.521  0.3097 -0.8679 -2.2422
 8904TIP3    H226677   4.998   0.660   4.502  0.3631 -1.1017 -2.1150
 8905TIP3   OH226678   6.448   5.629   2.595  0.4455  0.2879 -0.6810
 8905TIP3    H126679   6.367   5.638   2.645  0.0390  0.5928 -1.3801
 8905TIP3    H226680   6.515   5.608   2.661  0.1596  1.8482  0.1536
 8906TIP3   OH226681   5.135   6.556   5.492 -0.0356  0.2238 -0.1213
 8906TIP3    H126682   5.132   6.636   5.440  0.4017 -0.5125 -1.3218
 8906TIP3    H226683   5.147   6.586   5.582  3.4678  1.4652 -0.8484
 8907TIP3   OH226684   3.671   2.250   1.284  0.1634 -0.0759 -0.0384
 8907TIP3    H126685   3.762   2.221   1.272 -0.3128 -1.2463 -1.0053
 8907TIP3    H226686   3.631   2.182   1.338 -0.5584 -0.4243 -0.9913
 8908TIP3   OH226687   6.964   5.729   3.686  0.0869 -0.0259 -0.4382
 8908TIP3    H126688   6.936   5.667   3.619  0.8800 -1.0471  0.1431
 8908TIP3    H226689   6.965   5.813   3.642  1.3095 -0.7812 -1.9480
 8909TIP3   OH226690   1.403   6.504   3.402  0.4615  0.4525  0.4163
 8909TIP3    H126691   1.470   6.558   3.445 -0.0582  0.0200  1.8537
 8909TIP3    H226692   1.453   6.441   3.351  1.1667  0.3548  1.1926
 8910TIP3   OH226693   4.711   4.849   4.616  0.3778  0.1022 -0.1059
 8910TIP3    H126694   4.677   4.800   4.690  1.2920  1.2323  1.1145
 8910TIP3    H226695   4.726   4.783   4.548 -1.1634 -0.8523  0.4258
 8911TIP3   OH226696   5.719   3.278   0.530 -0.2644  0.2834  0.1558
 8911TIP3    H126697   5.694   3.371   0.539 -1.3430  0.0056  0.2607
 8911TIP3    H226698   5.644   3.230   0.567 -1.4343 -0.7359 -3.1760
 8912TIP3   OH226699   0.284   4.722   5.657  0.5169 -0.0625  0.0507
 8912TIP3    H126700   0.346   4.783   5.617 -0.0175  1.2367  1.1439
 8912TIP3    H226701   0.312   4.715   5.748 -0.7568  0.3103  0.4855
 8913TIP3   OH226702   2.278   2.371   3.269 -0.1718 -0.0021 -0.1743
 8913TIP3    H126703   2.324   2.376   3.353 -0.6273 -0.5495  0.1155
 8913TIP3    H226704   2.318   2.440   3.215  0.4302  0.0586  0.3384
 8914TIP3   OH226705   4.480   4.097   1.771 -0.9116  0.4901 -0.3876
 8914TIP3    H126706   4.527   4.163   1.822  0.3981  0.2100 -1.1771
 8914TIP3    H226707   4.549   4.039   1.737 -2.0472 -1.5327  0.6021
 8915TIP3   OH226708   2.466   4.367   4.171 -0.1343 -0.0037  0.0568
 8915TIP3    H126709   2.385   4.328   4.205 -0.6990  0.5494 -0.6195
 8915TIP3    H226710   2.494   4.308   4.102 -0.4456  0.2648 -0.3008
 8916TIP3   OH226711   3.265   1.093   4.119 -0.2493  0.1980  0.5181
 8916TIP3    H126712   3.187   1.039   4.106  0.1740 -0.3322  0.1473
 8916TIP3    H226713   3.312   1.050   4.191  0.1178  0.0321  0.1822
 8917TIP3   OH226714   6.167   2.889   0.912  0.1299 -0.5863 -0.4117
 8917TIP3    H126715   6.129   2.813   0.955 -0.2968  0.7888  1.7779
 8917TIP3    H226716   6.237   2.918   0.971 -1.2858  2.0937  0.0901
 8918TIP3   OH226717   5.144   1.834   2.452 -0.1729 -0.3390  0.5384
 8918TIP3    H126718   5.154   1.929   2.455  0.4622 -0.3682 -0.3098
 8918TIP3    H226719   5.154   1.811   2.360 -1.6674 -1.1079  0.5263
 8919TIP3   OH226720   2.391   5.207   1.653 -0.6614 -0.5072  0.0035
 8919TIP3    H126721   2.432   5.172   1.574 -1.6928  0.0502 -0.8109
 8919TIP3    H226722   2.348   5.288   1.623  0.9580  1.0347  1.6248
 8920TIP3   OH226723   1.606   0.756   4.948  0.1311 -0.2165  0.7115
 8920TIP3    H126724   1.673   0.822   4.933  0.9365 -0.5487  2.5510
 8920TIP3    H226725   1.524   0.801   4.928  0.8026  0.6012 -0.3091
 8921TIP3   OH226726   0.724   2.860   3.563 -0.0692 -0.4854 -0.0153
 8921TIP3    H126727   0.797   2.800   3.574  0.1654 -0.3340 -0.6947
 8921TIP3    H226728   0.714   2.903   3.648  0.2077 -0.9829  0.2659
 8922TIP3   OH226729   3.926   1.475   0.868 -0.2894  0.2830 -0.0276
 8922TIP3    H126730   3.988   1.430   0.925  0.2678  0.2754 -0.6306
 8922TIP3    H226731   3.915   1.561   0.908  0.8060  0.6080 -0.3967
 8923TIP3   OH226732   0.896   2.944   1.652 -0.4588  0.3313 -0.4838
 8923TIP3    H126733   0.899   2.849   1.639 -2.1248  0.0858  0.6222
 8923TIP3    H226734   0.842   2.976   1.579 -0.3925  0.3596 -0.5204
 8924TIP3   OH226735   5.756   0.787   0.899 -0.5570  0.3649  0.6922
 8924TIP3    H126736   5.840   0.829   0.881  0.8634 -1.7357  2.0799
 8924TIP3    H226737   5.723   0.762   0.813  1.2306 -0.5800  0.2474
 8925TIP3   OH226738   1.411   0.265   5.545  0.8168 -0.4839  0.0503
 8925TIP3    H126739   1.362   0.348   5.549  2.8288  0.7796 -0.1369
 8925TIP3    H226740   1.392   0.222   5.628  0.2036  0.4449  0.4092
 8926TIP3   OH226741   7.053   6.677   5.064 -0.4140  0.0418  0.1568
 8926TIP3    H126742   7.017   6.588   5.070 -0.6395  0.0865 -0.5460
 8926TIP3    H226743   7.140   6.669   5.104  1.0806 -1.3563 -2.9901
 8927TIP3   OH226744   5.387   2.466   3.396 -0.5685  0.3569  0.2778
 8927TIP3    H126745   5.319   2.522   3.433 -0.6041  0.7594 -0.3783
 8927TIP3    H226746   5.438   2.524   3.339  1.0223  0.3231  1.6041
 8928TIP3   OH226747   6.192   1.904   2.405 -1.3119 -0.1872  0.5562
 8928TIP3    H126748   6.231   1.904   2.492 -0.5946  0.6772  0.2454
 8928TIP3    H226749   6.099   1.889   2.421 -1.5340  1.9383  1.6498
 8929TIP3   OH226750   6.682   2.202   1.695 -0.1467  0.4567 -0.2944
 8929TIP3    H126751   6.709   2.150   1.620 -0.0772 -0.8073  0.5765
 8929TIP3    H226752   6.675   2.139   1.767  0.0541  1.6669  0.8274
 8930TIP3   OH226753   3.043   6.024   1.364 -0.4760  0.8277 -0.0012
 8930TIP3    H126754   3.047   6.039   1.459 -2.8211  1.6034  0.0192
 8930TIP3    H226755   3.135   6.008   1.339  0.0879 -0.6024  2.5614
 8931TIP3   OH226756   0.322   0.255   2.784  0.1529 -0.0332 -0.3302
 8931TIP3    H126757   0.327   0.161   2.768 -1.3825  0.0940 -1.8137
 8931TIP3    H226758   0.354   0.266   2.873 -0.0289 -2.0014  0.0195
 8932TIP3   OH226759   5.786   2.640   1.650 -0.6005 -0.6097 -0.1673
 8932TIP3    H126760   5.794   2.590   1.569  2.0444  0.2567 -0.5206
 8932TIP3    H226761   5.772   2.574   1.718  0.6653 -1.6599 -0.8948
 8933TIP3   OH226762   2.282   1.336   4.420 -0.0940 -0.4921  0.0705
 8933TIP3    H126763   2.261   1.269   4.355  0.2979  1.4505 -2.2248
 8933TIP3    H226764   2.377   1.332   4.429  0.2039  1.0756 -1.7478
 8934TIP3   OH226765   5.995   1.242   4.595 -0.1794 -0.0065  0.4296
 8934TIP3    H126766   6.069   1.202   4.550 -1.4487 -1.0950 -0.7615
 8934TIP3    H226767   6.009   1.220   4.687  1.4252  0.5835  0.3601
 8935TIP3   OH226768   6.857   2.087   2.862  0.3690  0.5014 -0.1463
 8935TIP3    H126769   6.882   2.175   2.832  2.1180 -0.6284 -2.2761
 8935TIP3    H226770   6.899   2.028   2.800 -0.8918 -1.8722  1.1386
 8936TIP3   OH226771   2.533   2.402   2.764  0.4748  0.2372  0.2590
 8936TIP3    H126772   2.572   2.386   2.851 -0.2420 -2.0136  0.2277
 8936TIP3    H226773   2.602   2.447   2.716  1.5505 -0.0662  1.4453
 8937TIP3   OH226774   0.923   0.683   5.102  0.2802  0.3815  0.1209
 8937TIP3    H126775   0.876   0.725   5.174 -2.5410 -0.4039 -1.1279
 8937TIP3    H226776   0.900   0.591   5.109  0.4646  0.1951 -1.3928
 8938TIP3   OH226777   3.931   6.504   0.707  0.0252  0.2616 -0.3889
 8938TIP3    H126778   3.843   6.502   0.745 -0.4748 -1.3829 -1.5386
 8938TIP3    H226779   3.917   6.528   0.616  0.9972  1.9734 -0.1265
 8939TIP3   OH226780   2.055   2.490   4.980 -0.5920  0.0889 -0.6591
 8939TIP3    H126781   2.103   2.436   4.917 -1.1223  0.6684 -1.5887
 8939TIP3    H226782   1.999   2.428   5.027  2.5401 -0.9865  2.0302
 8940TIP3   OH226783   6.790   3.956   4.308  0.3591 -0.1349  0.7125
 8940TIP3    H126784   6.836   3.994   4.382  1.4375  0.0717 -0.0442
 8940TIP3    H226785   6.851   3.964   4.234 -0.2091 -1.4450  0.0666
 8941TIP3   OH226786   6.196   2.780   2.648 -0.0331  0.3347  0.5896
 8941TIP3    H126787   6.130   2.746   2.588 -0.1671  1.2844  0.1730
 8941TIP3    H226788   6.275   2.789   2.594  0.8679 -2.0061  1.3738
 8942TIP3   OH226789   1.510   3.542   3.449 -0.6937  0.0718  0.1899
 8942TIP3    H126790   1.457   3.621   3.447 -0.9385 -0.1080 -1.2733
 8942TIP3    H226791   1.600   3.573   3.434 -0.6242  0.1748  0.7747
 8943TIP3   OH226792   3.577   3.599   0.587 -0.0299  0.2586 -0.5070
 8943TIP3    H126793   3.572   3.685   0.547  1.6531 -0.0306 -1.4173
 8943TIP3    H226794   3.502   3.596   0.646 -1.1713  1.6296 -1.8116
 8944TIP3   OH226795   4.568   1.445   1.746  0.2724 -0.4055  0.6896
 8944TIP3    H126796   4.540   1.450   1.838 -2.1657  1.6273 -0.0660
 8944TIP3    H226797   4.491   1.413   1.700  0.6715  0.8811 -0.9433
 8945TIP3   OH226798   4.926   6.486   0.862  0.3314  0.0330  0.0277
 8945TIP3    H126799   4.973   6.481   0.946  0.3698  0.2181  0.0177
 8945TIP3    H226800   4.995   6.483   0.796  0.3210  0.1831  0.0099
 8946TIP3   OH226801   1.946   3.010   4.806 -0.0068  0.3378  0.6513
 8946TIP3    H126802   2.001   2.988   4.731 -0.2376 -0.6447  0.7521
 8946TIP3    H226803   1.874   3.061   4.769  0.1202  0.2379  0.2624
 8947TIP3   OH226804   0.856   3.778   0.770 -0.1216 -0.1207 -0.5182
 8947TIP3    H126805   0.885   3.728   0.846 -2.7285 -1.2583 -0.1443
 8947TIP3    H226806   0.924   3.765   0.704  0.6274 -1.8510  0.5387
 8948TIP3   OH226807   5.062   0.374   5.515 -0.0575  0.1343  0.1349
 8948TIP3    H126808   5.042   0.355   5.423 -0.6773  1.1316  0.0533
 8948TIP3    H226809   5.074   0.469   5.519 -0.2244  0.1292  1.1205
 8949TIP3   OH226810   2.331   5.331   2.190 -0.3595 -0.5124  0.2934
 8949TIP3    H126811   2.414   5.353   2.234 -0.4439 -0.6804  0.5378
 8949TIP3    H226812   2.287   5.272   2.250 -0.0534 -1.5052 -0.4329
 8950TIP3   OH226813   1.841   4.448   1.188  0.6126 -0.1448  0.4416
 8950TIP3    H126814   1.922   4.475   1.232  0.6663 -0.1802  0.3643
 8950TIP3    H226815   1.799   4.530   1.163 -0.0967 -0.0675  1.7715
 8951TIP3   OH226816   2.816   4.644   2.488 -0.1123  0.3324  0.2131
 8951TIP3    H126817   2.728   4.612   2.507  0.7335 -2.9934 -0.7546
 8951TIP3    H226818   2.872   4.601   2.553  0.9410  1.5077  0.1209
 8952TIP3   OH226819   1.484   4.377   4.312  0.1031  0.8003 -0.7253
 8952TIP3    H126820   1.428   4.303   4.289  0.8833  0.2427 -0.8505
 8952TIP3    H226821   1.454   4.402   4.400  0.1033  0.0714 -0.5077
 8953TIP3   OH226822   4.691   1.165   3.152 -0.4734 -0.3314 -0.3643
 8953TIP3    H126823   4.772   1.139   3.109  0.0513  0.8594 -0.1466
 8953TIP3    H226824   4.720   1.198   3.238 -1.2162 -0.1320 -0.1863
 8954TIP3   OH226825   0.780   0.814   5.299  0.0990  0.7851  0.0434
 8954TIP3    H126826   0.856   0.824   5.357  0.0544  0.5824  0.1389
 8954TIP3    H226827   0.741   0.901   5.295 -0.3315  0.6433  0.9257
 8955TIP3   OH226828   2.657   2.831   5.581 -0.1739 -0.0870 -0.5822
 8955TIP3    H126829   2.737   2.881   5.599  0.0101 -0.3805 -0.5655
 8955TIP3    H226830   2.609   2.884   5.518  0.3394 -0.2023 -1.0861
 8956TIP3   OH226831   5.840   1.337   5.356 -0.0928 -0.1952 -0.3244
 8956TIP3    H126832   5.902   1.410   5.351 -1.3421  0.8245 -2.4191
 8956TIP3    H226833   5.796   1.337   5.271 -3.2866 -0.5550  1.1663
 8957TIP3   OH226834   1.632   5.396   2.106 -0.2509 -0.5850  0.8713
 8957TIP3    H126835   1.721   5.364   2.091 -0.8130 -1.0128 -2.3068
 8957TIP3    H226836   1.595   5.335   2.170  1.9157  0.1308  2.9721
 8958TIP3   OH226837   5.757   0.789   2.424 -0.5646 -0.3052 -0.5550
 8958TIP3    H126838   5.781   0.853   2.492  0.6405 -0.2997 -0.9570
 8958TIP3    H226839   5.688   0.737   2.464  1.6905 -1.8558  1.6513
 8959TIP3   OH226840   2.838   6.409   2.911 -0.2985 -0.0698  0.3546
 8959TIP3    H126841   2.861   6.426   2.820  0.5910  0.9439  0.7621
 8959TIP3    H226842   2.751   6.368   2.906 -0.4280  0.3191 -0.9211
 8960TIP3   OH226843   3.604   5.673   4.310 -0.4446 -0.3321  0.4290
 8960TIP3    H126844   3.536   5.735   4.336 -0.4364 -0.6279  1.1780
 8960TIP3    H226845   3.571   5.633   4.230  0.2897  1.8294 -1.0468
 8961TIP3   OH226846   2.494   5.829   2.987 -0.0284  0.2339  0.0213
 8961TIP3    H126847   2.483   5.862   3.076  0.5522 -0.3874  0.3344
 8961TIP3    H226848   2.457   5.741   2.989 -1.0876  0.6414 -0.6679
 8962TIP3   OH226849   5.973   3.970   4.030  0.5722 -0.0801  0.8319
 8962TIP3    H126850   6.028   4.024   3.973  1.8748 -1.8747  0.2977
 8962TIP3    H226851   5.886   3.975   3.991  1.2552 -0.5571 -0.8472
 8963TIP3   OH226852   3.450   4.592   3.506 -0.3128 -0.2898 -0.3651
 8963TIP3    H126853   3.507   4.518   3.530  2.2724  1.6338 -0.1845
 8963TIP3    H226854   3.378   4.588   3.569 -0.1545 -2.5120 -0.2392
 8964TIP3   OH226855   4.755   2.400   5.556 -0.1880  0.2967 -0.0490
 8964TIP3    H126856   4.770   2.306   5.570 -1.1066 -0.1044 -1.4733
 8964TIP3    H226857   4.693   2.403   5.483  1.7375  2.0817 -1.7122
 8965TIP3   OH226858   3.453   6.605   4.387 -0.1640 -0.2477 -0.2683
 8965TIP3    H126859   3.460   6.511   4.403 -0.9328 -0.2213  0.2669
 8965TIP3    H226860   3.366   6.616   4.349  0.1867  0.1723 -0.9771
 8966TIP3   OH226861   0.736   3.598   0.421 -0.3798  0.1803 -0.0858
 8966TIP3    H126862   0.651   3.566   0.392 -0.4628 -0.0786  0.4459
 8966TIP3    H226863   0.742   3.572   0.513 -0.1417  1.0461  0.1572
 8967TIP3   OH226864   2.879   3.948   3.332 -0.4299  0.3210  0.2342
 8967TIP3    H126865   2.871   4.021   3.271  0.1677 -0.7138 -1.1274
 8967TIP3    H226866   2.956   3.970   3.385 -0.6131  0.9657  0.2342
 8968TIP3   OH226867   2.959   2.727   4.863  0.7637  0.1944  0.2821
 8968TIP3    H126868   2.881   2.686   4.825  1.0447  0.4639 -0.6032
 8968TIP3    H226869   3.028   2.663   4.850  0.1365 -1.5368  3.9958
 8969TIP3   OH226870   5.626   4.622   3.514  0.0935  0.1870  0.4128
 8969TIP3    H126871   5.617   4.673   3.434  1.4121 -0.1290  0.0489
 8969TIP3    H226872   5.691   4.669   3.566  0.2366 -0.3403  0.7199
 8970TIP3   OH226873   5.641   3.736   0.308  0.3229  0.5585  0.2067
 8970TIP3    H126874   5.723   3.724   0.259  1.4226  1.4369  1.7532
 8970TIP3    H226875   5.605   3.818   0.274  0.6247  0.7137  0.2603
 8971TIP3   OH226876   5.639   1.868   2.353  0.1363 -0.4795 -0.0849
 8971TIP3    H126877   5.579   1.856   2.427  0.3894 -1.9333 -0.0818
 8971TIP3    H226878   5.680   1.952   2.369 -0.7402 -0.1882  0.7530
 8972TIP3   OH226879   3.534   1.950   5.054  0.0111 -0.1331  0.0643
 8972TIP3    H126880   3.575   1.992   4.979  0.9251 -1.6909 -0.3494
 8972TIP3    H226881   3.547   2.011   5.126  1.0758  0.3951 -0.5549
 8973TIP3   OH226882   1.471   4.883   2.858  0.2085  0.1561 -0.1067
 8973TIP3    H126883   1.416   4.896   2.781 -0.1210  3.7426  0.5877
 8973TIP3    H226884   1.426   4.815   2.908 -1.3216  0.0765 -1.4933
 8974TIP3   OH226885   3.163   1.792   0.219  0.5921  0.0174 -0.2144
 8974TIP3    H126886   3.131   1.725   0.159  0.8968  0.2210 -0.6076
 8974TIP3    H226887   3.103   1.866   0.208  0.8291  0.1718 -0.5069
 8975TIP3   OH226888   5.853   3.037   2.219 -0.2142  0.2309 -0.3106
 8975TIP3    H126889   5.901   2.966   2.263  0.0785  0.3706 -0.4003
 8975TIP3    H226890   5.921   3.100   2.195 -0.5389  0.8259  0.2988
 8976TIP3   OH226891   0.982   4.352   0.867 -0.2007 -0.7222  0.5962
 8976TIP3    H126892   1.044   4.281   0.850  0.0747 -0.0563 -1.5306
 8976TIP3    H226893   0.918   4.345   0.796 -1.1747  0.0832  1.3709
 8977TIP3   OH226894   0.544   0.064   0.991 -0.1831  0.1142  0.2083
 8977TIP3    H126895   0.523   0.147   1.032 -0.0929  1.3574 -2.0728
 8977TIP3    H226896   0.474   0.050   0.927  0.1625 -1.2282  0.0857
 8978TIP3   OH226897   4.441   4.723   2.629 -0.3655  0.2261  0.0764
 8978TIP3    H126898   4.533   4.744   2.641 -0.4377  1.0789 -0.8062
 8978TIP3    H226899   4.394   4.788   2.682 -0.5510  1.8214 -1.9339
 8979TIP3   OH226900   0.808   2.328   0.869  0.5173 -0.2161 -0.4144
 8979TIP3    H126901   0.875   2.273   0.908  0.2715 -1.1679 -1.2919
 8979TIP3    H226902   0.769   2.274   0.800  0.1668  1.0048 -1.2079
 8980TIP3   OH226903   1.094   6.076   2.497 -0.1339  0.2051 -0.5219
 8980TIP3    H126904   1.117   6.071   2.404  0.1964 -1.2239 -0.3921
 8980TIP3    H226905   1.177   6.095   2.540 -0.5545  2.4435 -0.6134
 8981TIP3   OH226906   6.839   6.301   4.496 -0.0678 -0.0273  0.1934
 8981TIP3    H126907   6.752   6.318   4.460  0.4509  1.7732 -0.3358
 8981TIP3    H226908   6.850   6.367   4.565  2.2914  2.5285 -2.3158
 8982TIP3   OH226909   1.440   5.763   3.846  0.4109  0.1928  0.0757
 8982TIP3    H126910   1.500   5.740   3.776  0.5010  0.4146  0.0801
 8982TIP3    H226911   1.489   5.745   3.926 -1.0827 -4.1404  0.2410
 8983TIP3   OH226912   4.308   4.189   1.557 -0.0455 -0.1568 -0.0206
 8983TIP3    H126913   4.345   4.275   1.536 -1.8606  0.3595 -1.4122
 8983TIP3    H226914   4.373   4.148   1.614  0.4259  2.5256  1.5415
 8984TIP3   OH226915   2.759   2.503   5.399 -0.0114 -0.0260  0.2934
 8984TIP3    H126916   2.690   2.532   5.459  0.4921 -0.6862  1.2120
 8984TIP3    H226917   2.799   2.584   5.368 -0.0758  0.3222  1.0966
 8985TIP3   OH226918   2.523   1.131   2.055  0.4579  0.0822  0.1329
 8985TIP3    H126919   2.582   1.090   1.991 -1.1795 -0.2608 -1.2213
 8985TIP3    H226920   2.564   1.215   2.075  1.0493  0.1766 -1.3469
 8986TIP3   OH226921   4.256   2.572   4.037  0.3235  0.7181  0.0147
 8986TIP3    H126922   4.247   2.661   4.071 -0.2832  0.0384  1.7442
 8986TIP3    H226923   4.311   2.527   4.101  0.1172 -0.3096 -0.5099
 8987TIP3   OH226924   4.411   5.009   1.421  0.1139  0.0887  0.2119
 8987TIP3    H126925   4.462   4.948   1.368 -1.1246 -0.4434 -0.3951
 8987TIP3    H226926   4.409   4.970   1.509  0.8329  0.1762  0.2717
 8988TIP3   OH226927   1.595   1.039   0.177  0.0570 -0.1802 -0.1515
 8988TIP3    H126928   1.673   0.984   0.168  0.4828  0.3471  0.3176
 8988TIP3    H226929   1.599   1.073   0.266  0.3395  1.4220 -0.7520
 8989TIP3   OH226930   1.039   4.775   2.231  0.2308  0.0271  0.0411
 8989TIP3    H126931   0.957   4.740   2.195  0.5308  1.1740 -1.9027
 8989TIP3    H226932   1.074   4.704   2.285 -2.1846 -0.3738  1.2524
 8990TIP3   OH226933   1.734   6.763   3.469 -0.1016 -0.5208 -0.5482
 8990TIP3    H126934   1.712   6.778   3.561  0.1264 -0.9799 -0.4147
 8990TIP3    H226935   1.650   6.763   3.423 -0.2404 -0.6057 -0.2926
 8991TIP3   OH226936   6.110   5.078   5.571 -0.0809  0.6230  0.0347
 8991TIP3    H126937   6.021   5.111   5.586 -0.3257 -0.0632  0.1215
 8991TIP3    H226938   6.110   4.990   5.609  0.1361 -0.0290 -1.4239
 8992TIP3   OH226939   0.321   4.160   5.080 -0.1503 -0.5769 -0.2548
 8992TIP3    H126940   0.263   4.182   5.153 -0.4258  0.5303 -0.7926
 8992TIP3    H226941   0.409   4.158   5.118 -0.3191 -0.2449  0.1539
 8993TIP3   OH226942   6.931   6.140   5.054 -0.3840 -0.2769 -0.1631
 8993TIP3    H126943   6.988   6.074   5.094 -0.1199  0.7181  1.1680
 8993TIP3    H226944   6.897   6.191   5.128 -2.0347 -0.0549 -1.0082
 8994TIP3   OH226945   1.440   4.322   2.724 -0.2745  0.2152  0.2226
 8994TIP3    H126946   1.455   4.270   2.645 -0.9295  1.4716 -0.7672
 8994TIP3    H226947   1.368   4.277   2.768 -0.5416  0.0188 -0.3903
 8995TIP3   OH226948   0.561   6.101   0.044  0.3034 -0.0861  0.3060
 8995TIP3    H126949   0.498   6.134   0.108 -1.1602 -0.5701 -0.8317
 8995TIP3    H226950   0.511   6.042  -0.012  1.0903  1.4653 -2.2480
 8996TIP3   OH226951   1.949   4.589   4.135 -0.2037  0.4995  0.3281
 8996TIP3    H126952   1.964   4.607   4.042 -1.1745 -1.4300 -0.2566
 8996TIP3    H226953   2.007   4.650   4.180  0.0846  1.6944 -1.5197
 8997TIP3   OH226954   7.142   3.719   4.235  0.0676  0.0350  0.1969
 8997TIP3    H126955   7.167   3.751   4.149 -2.6041  2.2561  0.0811
 8997TIP3    H226956   7.106   3.632   4.220  0.3393  0.0937 -0.8129
 8998TIP3   OH226957   0.038   4.498   5.284 -0.1991 -0.7064 -0.6277
 8998TIP3    H126958   0.022   4.572   5.225  0.8914  0.3319  0.3136
 8998TIP3    H226959  -0.047   4.478   5.322 -0.3887  0.6124 -0.3126
 8999TIP3   OH226960   1.894   5.483   4.277 -0.6624  0.2245 -0.4600
 8999TIP3    H126961   1.948   5.496   4.199 -1.0154 -1.1411 -0.9492
 8999TIP3    H226962   1.904   5.565   4.325  1.6880  0.1137 -0.6114
 9000TIP3   OH226963   6.248   5.312   3.295  0.1846  0.6360 -0.2580
 9000TIP3    H126964   6.196   5.271   3.227 -1.1903  2.1361 -0.1755
 9000TIP3    H226965   6.309   5.369   3.248  0.8124 -0.0517 -0.2969
 9001TIP3   OH226966   0.331   0.000   1.534 -0.8521  0.2613 -0.1331
 9001TIP3    H126967   0.380   0.081   1.545  1.3481 -1.1774  1.5539
 9001TIP3    H226968   0.350  -0.028   1.445  2.4096 -0.7689  0.7660
 9002TIP3   OH226969   4.999   4.119   2.043  0.4284  0.6975  0.1081
 9002TIP3    H126970   4.927   4.172   2.076  1.2948  0.8048  1.9108
 9002TIP3    H226971   4.958   4.061   1.978 -1.6582 -0.4394  2.2818
 9003TIP3   OH226972   3.662   6.625   5.782 -0.3579  0.1190  0.0275
 9003TIP3    H126973   3.640   6.713   5.749 -2.5027 -0.6084 -0.6600
 9003TIP3    H226974   3.583   6.596   5.827  0.6376 -1.1236  1.0455
 9004TIP3   OH226975   0.451   1.481   1.563  0.2300  0.0565 -0.3708
 9004TIP3    H126976   0.397   1.429   1.505 -0.9200 -0.2948  0.9689
 9004TIP3    H226977   0.474   1.422   1.635  0.7739  0.7522  0.0473
 9005TIP3   OH226978   4.752   0.635   5.626  0.4107 -0.7850  0.1653
 9005TIP3    H126979   4.793   0.563   5.675  0.5373 -1.0665 -0.3446
 9005TIP3    H226980   4.808   0.711   5.642  0.6213 -0.9485  0.2136
 9006TIP3   OH226981   4.400   2.488   3.328 -0.8029 -0.2366  0.3087
 9006TIP3    H126982   4.348   2.411   3.349 -1.7112  0.7144  1.6747
 9006TIP3    H226983   4.483   2.475   3.373 -1.3577  0.0610  1.4404
 9007TIP3   OH226984   1.087   5.121   1.598 -0.4300 -0.2340  0.1503
 9007TIP3    H126985   1.121   5.138   1.686 -0.5890  2.3801 -0.2178
 9007TIP3    H226986   1.040   5.039   1.606 -0.4005 -0.0863  2.5006
 9008TIP3   OH226987   6.587   2.161   1.296 -0.0022  0.4441  0.0076
 9008TIP3    H126988   6.570   2.145   1.388  1.0517  0.7219  0.2586
 9008TIP3    H226989   6.621   2.078   1.263  0.7896  0.7062  0.1594
 9009TIP3   OH226990   0.946   1.979   0.215 -0.6642 -0.0594 -0.3906
 9009TIP3    H126991   0.926   1.913   0.150 -1.3908 -0.5186  0.2825
 9009TIP3    H226992   0.954   2.061   0.166  0.0566 -0.6128 -1.2019
 9010TIP3   OH226993   4.234   6.344   4.621 -0.3481  0.4431 -0.2076
 9010TIP3    H126994   4.180   6.339   4.542 -1.7619  0.5105  0.7066
 9010TIP3    H226995   4.186   6.291   4.685  1.1541 -0.2431  0.4105
 9011TIP3   OH226996   4.452   4.801   5.741 -0.1927 -0.1396 -0.6390
 9011TIP3    H126997   4.399   4.759   5.808  0.4922  0.9744  0.6503
 9011TIP3    H226998   4.526   4.742   5.728 -0.3867 -0.4128 -0.4910
 9012TIP3   OH226999   4.544   6.347   1.913  0.6081 -0.1137  0.4066
 9012TIP3    H127000   4.633   6.335   1.882 -0.3607 -2.8478 -1.7132
 9012TIP3    H227001   4.522   6.265   1.956 -1.1026  0.2353  0.2876
 9013TIP3   OH227002   2.458   6.051   4.848 -0.3417  0.0132 -0.0798
 9013TIP3    H127003   2.534   6.109   4.857  0.3846 -0.8297 -0.5289
 9013TIP3    H227004   2.392   6.104   4.804  0.6714  0.2104 -1.4336
 9014TIP3   OH227005   3.472   1.588   5.168 -0.5759  0.5482  0.0618
 9014TIP3    H127006   3.564   1.592   5.195 -0.8374  2.6750  0.8964
 9014TIP3    H227007   3.442   1.502   5.196  1.0413 -0.0067  0.1794
 9015TIP3   OH227008   2.424   6.656   4.893  0.0126  0.0303  0.5244
 9015TIP3    H127009   2.405   6.640   4.985  0.5775 -0.4579  0.5607
 9015TIP3    H227010   2.353   6.612   4.846  1.3117 -2.3415  0.6369
 9016TIP3   OH227011   0.168   6.383   2.051  0.4448  0.9080 -0.2561
 9016TIP3    H127012   0.263   6.375   2.044  0.4328 -3.3671  1.3398
 9016TIP3    H227013   0.151   6.378   2.145 -1.3982 -0.6308 -0.6189
 9017TIP3   OH227014   0.368   2.855   5.391  0.4361 -0.8072  0.5557
 9017TIP3    H127015   0.408   2.804   5.321  0.9915 -0.2620  0.4685
 9017TIP3    H227016   0.430   2.926   5.408 -1.0542  0.7910 -0.4104
 9018TIP3   OH227017   7.140   5.934   3.483  0.0122 -0.2475  0.1012
 9018TIP3    H127018   7.183   6.020   3.475 -0.3226 -0.1114 -0.2347
 9018TIP3    H227019   7.063   5.951   3.538 -0.2913 -0.2481 -0.3234
 9019TIP3   OH227020   4.232   2.132   2.223 -0.2265 -0.1120 -0.2975
 9019TIP3    H127021   4.194   2.047   2.241 -0.2832 -0.0250  0.0002
 9019TIP3    H227022   4.308   2.114   2.167  0.0709 -0.4081  0.1919
 9020TIP3   OH227023   3.439   1.202   0.885  0.0881  0.1406 -0.1402
 9020TIP3    H127024   3.454   1.122   0.935 -0.5533  0.7345  1.0501
 9020TIP3    H227025   3.409   1.265   0.950 -1.9867  0.6097 -1.4613
 9021TIP3   OH227026   3.934   2.679   2.211  0.0513 -0.4005 -0.5474
 9021TIP3    H127027   3.886   2.626   2.276 -1.2808  0.8609 -0.4479
 9021TIP3    H227028   3.971   2.751   2.262  0.5087 -0.3687 -0.9213
 9022TIP3   OH227029   0.047   3.159   1.661 -0.0734  0.5541 -0.3702
 9022TIP3    H127030   0.053   3.072   1.702  0.5099  0.7457 -0.0332
 9022TIP3    H227031   0.060   3.142   1.568  0.0564  0.2837 -0.3045
 9023TIP3   OH227032   6.801   2.729   5.470  0.2247 -0.0653 -0.1974
 9023TIP3    H127033   6.823   2.670   5.542  0.9888 -0.4652 -0.7428
 9023TIP3    H227034   6.857   2.701   5.398 -0.1587  0.6580 -0.7936
 9024TIP3   OH227035   3.397   1.392   2.683 -0.3537  0.6454  0.2731
 9024TIP3    H127036   3.441   1.339   2.749 -0.4673  0.3253  0.0921
 9024TIP3    H227037   3.339   1.450   2.732  1.3173  2.1034  0.6427
 9025TIP3   OH227038   3.384   2.602   1.775 -0.1953 -0.5468 -0.3964
 9025TIP3    H127039   3.433   2.520   1.782  1.3179  0.3419 -0.1168
 9025TIP3    H227040   3.391   2.642   1.861  0.5249  0.6389 -0.9778
 9026TIP3   OH227041   5.438   4.937   2.175  0.0590  0.6013 -0.2122
 9026TIP3    H127042   5.472   4.894   2.097  2.7972  0.6115  0.8640
 9026TIP3    H227043   5.515   4.977   2.216 -1.2691  0.6727  2.4401
 9027TIP3   OH227044   0.084   6.702   4.869  0.0748 -0.1860 -0.4544
 9027TIP3    H127045   0.064   6.620   4.825  1.6408 -0.1757 -1.2851
 9027TIP3    H227046   0.110   6.677   4.958  1.3289 -0.6952 -0.9459
 9028TIP3   OH227047   2.334   0.492   3.761  0.5287  0.0647 -0.2338
 9028TIP3    H127048   2.414   0.451   3.795  0.3405  0.1499  0.3235
 9028TIP3    H227049   2.302   0.545   3.834  0.3390  0.5808 -0.6868
 9029TIP3   OH227050   1.783   4.195   2.916 -0.3794 -0.1681 -0.3011
 9029TIP3    H127051   1.741   4.132   2.858  2.0541 -0.6825 -1.6862
 9029TIP3    H227052   1.877   4.181   2.902  0.2787  1.8674  1.4618
 9030TIP3   OH227053   1.392   2.109   0.096  0.0968 -0.6080  0.6344
 9030TIP3    H127054   1.410   2.027   0.143 -1.7039 -1.1903  0.4025
 9030TIP3    H227055   1.427   2.177   0.152  0.2856 -1.4597  1.5781
 9031TIP3   OH227056   0.574   4.035   1.504 -0.3802 -0.6120 -0.1948
 9031TIP3    H127057   0.559   4.006   1.414 -2.1060  0.9137 -0.4642
 9031TIP3    H227058   0.586   3.954   1.553 -0.7191 -1.5507 -1.5951
 9032TIP3   OH227059   6.299   4.788   3.557 -0.2985 -0.4805  0.1846
 9032TIP3    H127060   6.241   4.864   3.560 -0.6575 -0.5003 -2.9114
 9032TIP3    H227061   6.387   4.826   3.548 -0.1416 -0.4765  1.4940
 9033TIP3   OH227062   2.030   2.960   5.906  0.1690 -0.0327  0.6236
 9033TIP3    H127063   1.977   2.912   5.842 -0.4176  0.6325  0.6025
 9033TIP3    H227064   2.074   3.028   5.854  1.7198 -1.0774  0.4868
 9034TIP3   OH227065   0.429   2.353   1.565 -0.2484  0.4236  0.0363
 9034TIP3    H127066   0.394   2.417   1.503  0.4958 -1.0419 -2.0343
 9034TIP3    H227067   0.368   2.279   1.560  0.1123  0.0723  0.6796
 9035TIP3   OH227068   3.898   5.182   2.690  0.6436 -0.0925  0.1094
 9035TIP3    H127069   3.944   5.188   2.606  2.1148  0.1071  0.9009
 9035TIP3    H227070   3.842   5.105   2.680  0.0301  0.4979 -1.3959
 9036TIP3   OH227071   4.195   4.365   2.483 -0.0724  0.1758  0.3143
 9036TIP3    H127072   4.202   4.434   2.550  2.1570 -0.2443  0.6049
 9036TIP3    H227073   4.102   4.361   2.462 -0.4581  2.2470  1.3697
 9037TIP3   OH227074   2.729   0.506   0.331  0.1034  0.0078  0.0529
 9037TIP3    H127075   2.638   0.533   0.338  0.1735 -0.0259  1.3994
 9037TIP3    H227076   2.779   0.586   0.343  0.2564 -0.0435 -0.2371
 9038TIP3   OH227077   3.687   4.784   3.088  0.4328 -0.2882  0.1382
 9038TIP3    H127078   3.727   4.870   3.100 -0.1462  0.1061 -0.5888
 9038TIP3    H227079   3.655   4.760   3.175 -0.6491  0.8931  0.1069
 9039TIP3   OH227080   4.461   2.993   1.918  0.0785 -0.2900  0.3888
 9039TIP3    H127081   4.370   2.966   1.931 -0.3611  0.0866 -1.6010
 9039TIP3    H227082   4.459   3.089   1.924  0.1306 -0.2095 -0.7311
 9040TIP3   OH227083   1.761   3.444   2.424 -0.3719 -0.4095  0.4489
 9040TIP3    H127084   1.676   3.403   2.407  0.3334 -1.8950  0.3476
 9040TIP3    H227085   1.740   3.534   2.449 -1.9536 -0.6827  0.1882
 9041TIP3   OH227086   3.601   0.656   3.579 -0.3813  0.3394 -0.5595
 9041TIP3    H127087   3.642   0.731   3.623  1.0359  0.6982 -2.3827
 9041TIP3    H227088   3.507   0.674   3.585 -0.2074  0.8901  1.3334
 9042TIP3   OH227089   3.975   6.003   4.281 -0.0374 -0.8171 -0.2532
 9042TIP3    H127090   4.037   5.971   4.215  0.0762 -1.0990 -0.0102
 9042TIP3    H227091   3.915   5.930   4.295  0.7600 -1.2688  0.9607
 9043TIP3   OH227092   7.068   0.956   1.235 -0.0837 -0.1461 -0.1721
 9043TIP3    H127093   7.087   0.872   1.193 -0.8676 -0.9725  1.0297
 9043TIP3    H227094   6.987   0.986   1.193 -0.2401 -0.4023 -0.0608
 9044TIP3   OH227095   4.526   6.801   1.978  0.0436 -0.1745  0.9551
 9044TIP3    H127096   4.608   6.759   1.950  0.4207  0.8915  0.3560
 9044TIP3    H227097   4.459   6.735   1.964  0.8078 -1.0764  1.4705
 9045TIP3   OH227098   1.029   0.647   4.086  0.6126 -0.7713 -0.6593
 9045TIP3    H127099   0.995   0.618   4.171  1.5078  0.0806  0.0170
 9045TIP3    H227100   1.108   0.595   4.073  0.4103 -0.9875 -1.0407
 9046TIP3   OH227101   4.956   3.077   0.820 -0.2224  0.0477  0.0853
 9046TIP3    H127102   4.912   3.026   0.889 -0.9494 -2.7318 -2.2569
 9046TIP3    H227103   4.884   3.125   0.777 -0.0303  0.3280  0.0711
 9047TIP3   OH227104   3.812   3.952   2.167  0.1612 -0.1061  0.0796
 9047TIP3    H127105   3.835   3.879   2.108  1.3632 -0.7307  1.2593
 9047TIP3    H227106   3.795   3.910   2.251  1.3533  0.9877  0.9071
 9048TIP3   OH227107   1.316   1.316   0.298 -0.0297 -0.2087  0.1364
 9048TIP3    H127108   1.237   1.330   0.351  0.0362  0.8884 -0.0404
 9048TIP3    H227109   1.298   1.236   0.249  0.0867 -1.5315  2.1337
 9049TIP3   OH227110   1.461   5.166   2.748  0.1449 -0.6315  0.1323
 9049TIP3    H127111   1.512   5.091   2.716  0.9859  0.2192 -0.5714
 9049TIP3    H227112   1.371   5.134   2.752  0.5149 -1.7348  0.0316
 9050TIP3   OH227113   5.172   1.212   4.452  0.3000 -0.2206  0.1331
 9050TIP3    H127114   5.096   1.225   4.397  0.3869 -1.4022 -0.2831
 9050TIP3    H227115   5.247   1.216   4.392  0.4210 -1.1100  0.2137
 9051TIP3   OH227116   5.994   4.154   1.166  0.7656 -0.5502 -0.1838
 9051TIP3    H127117   5.904   4.136   1.138  0.4185 -0.0714  0.5820
 9051TIP3    H227118   6.000   4.114   1.253  1.0887 -0.0270  0.0381
 9052TIP3   OH227119   6.694   4.746   2.827  0.7927 -0.2423 -0.4954
 9052TIP3    H127120   6.764   4.775   2.885  0.4936  0.2788 -0.3890
 9052TIP3    H227121   6.628   4.710   2.886 -0.1052  1.4969 -0.3640
 9053TIP3   OH227122   2.155   0.203   0.443  0.1650  0.2344 -0.4374
 9053TIP3    H127123   2.087   0.141   0.419  1.4746 -1.4407  0.0248
 9053TIP3    H227124   2.107   0.279   0.477 -1.4642 -0.8364 -0.2520
 9054TIP3   OH227125   2.995   6.581   2.131 -0.0215  0.2017 -0.8653
 9054TIP3    H127126   2.991   6.550   2.041 -0.7605 -3.7490  0.3264
 9054TIP3    H227127   2.904   6.581   2.161  0.2401  1.0917 -0.0120
 9055TIP3   OH227128   5.353   3.540   2.097 -0.7414  0.4546  0.3977
 9055TIP3    H127129   5.283   3.484   2.064 -0.8408  0.4179  0.6709
 9055TIP3    H227130   5.388   3.583   2.019 -1.5976  1.0844  0.3537
 9056TIP3   OH227131   6.323   4.249   0.128  0.2791 -0.7132  0.3726
 9056TIP3    H127132   6.298   4.275   0.039 -1.1852 -1.3375  0.5772
 9056TIP3    H227133   6.376   4.170   0.115  3.2489  1.1951 -0.1304
 9057TIP3   OH227134   2.963   0.996   1.169  0.2187 -0.5202  0.1571
 9057TIP3    H127135   2.962   0.902   1.190  2.2985 -0.7154 -0.3938
 9057TIP3    H227136   3.000   1.000   1.081 -1.7862  0.7353 -0.6941
 9058TIP3   OH227137   1.921   3.227   5.395  0.2407 -0.4344  0.4368
 9058TIP3    H127138   2.003   3.252   5.353  0.0711 -1.6582 -0.6957
 9058TIP3    H227139   1.853   3.266   5.339 -0.0438 -3.5851 -1.6373
 9059TIP3   OH227140   7.111   3.422  -0.007 -0.4570  0.1896 -0.2442
 9059TIP3    H127141   7.108   3.426   0.089 -0.7888  0.0043 -0.2471
 9059TIP3    H227142   7.047   3.355  -0.030  0.4424 -0.5926 -0.5322
 9060TIP3   OH227143   6.322   6.432   3.017 -0.6077 -0.5503  0.6401
 9060TIP3    H127144   6.370   6.495   2.964 -1.0493 -0.8764 -0.1506
 9060TIP3    H227145   6.251   6.401   2.961 -0.5887 -1.5187  1.1279
 9061TIP3   OH227146   1.828   0.060   0.759 -0.1117 -0.1809 -0.9478
 9061TIP3    H127147   1.806   0.119   0.832  0.5979 -0.4748 -0.4850
 9061TIP3    H227148   1.784  -0.022   0.781 -0.3043 -0.1181 -1.1005
 9062TIP3   OH227149   0.382   3.922   3.284  0.1365  0.1371  0.0650
 9062TIP3    H127150   0.421   3.843   3.246  1.1050  1.5690 -2.1251
 9062TIP3    H227151   0.290   3.917   3.259  0.5988  0.6547 -1.9564
 9063TIP3   OH227152   6.320   3.243   1.000  0.4689 -0.2775 -0.0966
 9063TIP3    H127153   6.314   3.204   0.912  0.6292  0.8382 -0.6161
 9063TIP3    H227154   6.344   3.334   0.984  0.7475 -0.1242  1.1291
 9064TIP3   OH227155   2.736   4.881   2.688  0.6401 -0.3698 -0.2337
 9064TIP3    H127156   2.733   4.795   2.732 -2.6409 -0.7409 -0.9037
 9064TIP3    H227157   2.781   4.864   2.606  0.3767 -1.4121 -0.1857
 9065TIP3   OH227158   0.701   1.988   1.134 -0.4978 -0.5677 -0.2290
 9065TIP3    H127159   0.690   1.920   1.199  0.2568  0.7105  1.2977
 9065TIP3    H227160   0.612   2.016   1.113 -0.7578 -1.2104  0.0158
 9066TIP3   OH227161   0.711   2.187   2.736  0.5744  0.3292  0.6087
 9066TIP3    H127162   0.687   2.273   2.769  0.9863  1.0004 -0.7739
 9066TIP3    H227163   0.749   2.204   2.650  1.1458 -1.1889  0.5346
 9067TIP3   OH227164   2.529   3.060   1.532 -0.7294  0.3708 -0.1484
 9067TIP3    H127165   2.440   3.089   1.554 -1.1954 -1.1580  0.1186
 9067TIP3    H227166   2.516   2.982   1.479  0.4436 -0.9816  1.4611
 9068TIP3   OH227167   6.742   6.694   2.283 -0.0919  0.3458 -0.2315
 9068TIP3    H127168   6.708   6.667   2.368 -0.9780 -1.2227 -1.0405
 9068TIP3    H227169   6.713   6.626   2.222 -0.4063  1.9347 -1.9895
 9069TIP3   OH227170   2.807   0.880   3.140  0.5326 -0.4424 -0.3036
 9069TIP3    H127171   2.833   0.956   3.191 -0.3698  0.1201 -0.6541
 9069TIP3    H227172   2.796   0.810   3.205 -1.2013  0.4214  0.4092
 9070TIP3   OH227173   3.732   2.413   0.954 -0.7473  0.2485 -0.0556
 9070TIP3    H127174   3.638   2.432   0.955 -0.7982  0.0273  1.4108
 9070TIP3    H227175   3.747   2.363   1.034  0.6125  0.2417 -0.2987
 9071TIP3   OH227176   2.071   0.504   1.954  0.1624 -0.3800  0.2590
 9071TIP3    H127177   2.158   0.470   1.972  0.3006  0.8546  2.3312
 9071TIP3    H227178   2.084   0.598   1.940 -0.8344 -0.1246  0.8883
 9072TIP3   OH227179   1.893   0.092   3.136 -0.1378  0.0356 -0.0867
 9072TIP3    H127180   1.954   0.130   3.198  0.1007 -0.4494 -0.0177
 9072TIP3    H227181   1.837   0.034   3.189  0.8111 -1.2814 -0.4781
 9073TIP3   OH227182   0.199   4.293   1.166  1.2660  0.2127  0.9423
 9073TIP3    H127183   0.113   4.335   1.154  1.3620 -0.4091 -3.0002
 9073TIP3    H227184   0.181   4.222   1.229 -1.6588 -1.1101 -1.1426
 9074TIP3   OH227185   2.609   1.444   5.492 -0.2609 -0.0348  0.1543
 9074TIP3    H127186   2.550   1.505   5.537 -0.3223  0.0575 -0.0479
 9074TIP3    H227187   2.638   1.384   5.560 -0.4704  0.0125  0.2877
 9075TIP3   OH227188   6.744   5.175   4.081  0.9172  0.1629 -0.0227
 9075TIP3    H127189   6.683   5.239   4.045 -0.0186 -1.2465 -1.0687
 9075TIP3    H227190   6.738   5.186   4.176 -0.2498  0.7016 -0.1487
 9076TIP3   OH227191   1.720   0.181   1.689 -0.0905  0.0906 -0.1306
 9076TIP3    H127192   1.779   0.113   1.721  1.2462  0.9207 -0.7546
 9076TIP3    H227193   1.730   0.252   1.752  1.9120  1.4045 -1.8064
 9077TIP3   OH227194   3.298   2.577   4.027 -0.0817 -0.0429 -0.4362
 9077TIP3    H127195   3.242   2.575   3.949 -0.0042 -1.0881 -0.4807
 9077TIP3    H227196   3.271   2.655   4.075 -1.7783 -0.6821 -0.3107
 9078TIP3   OH227197   4.480   0.310   2.398 -0.1272  0.4954  0.0834
 9078TIP3    H127198   4.500   0.224   2.362 -1.9476  0.0686  0.0385
 9078TIP3    H227199   4.526   0.312   2.483 -1.2606 -1.1104  0.7716
 9079TIP3   OH227200   4.106   4.987   2.665 -0.4035  0.1425 -0.1256
 9079TIP3    H127201   4.060   4.914   2.625 -1.4991 -0.4595  2.0635
 9079TIP3    H227202   4.083   5.063   2.611 -0.8823 -0.7827 -1.2485
 9080TIP3   OH227203   2.527   1.715   0.543  0.3205 -0.1509  0.2309
 9080TIP3    H127204   2.464   1.786   0.535  0.4215  0.1476  1.7336
 9080TIP3    H227205   2.577   1.718   0.462  0.0089  1.1936  0.0654
 9081TIP3   OH227206   6.753   2.286   1.029 -0.7167  0.2383 -0.3903
 9081TIP3    H127207   6.801   2.255   1.105 -1.1795  0.2633 -0.0871
 9081TIP3    H227208   6.664   2.303   1.061 -0.6098  1.3819 -0.6564
 9082TIP3   OH227209   6.560   3.373   4.072  1.0383  0.3001 -0.5402
 9082TIP3    H127210   6.648   3.410   4.075  1.3376 -0.4026 -0.3010
 9082TIP3    H227211   6.574   3.278   4.078  0.1907  0.2425  1.8333
 9083TIP3   OH227212   1.465   0.125   5.244 -0.9408 -0.2310  0.5008
 9083TIP3    H127213   1.493   0.101   5.332 -0.5226  1.5759  0.9098
 9083TIP3    H227214   1.546   0.130   5.194 -0.7755  1.9196  0.8827
 9084TIP3   OH227215   4.689   0.204   3.666 -0.6497 -0.2975 -0.3968
 9084TIP3    H127216   4.718   0.181   3.578 -0.7013  1.1784 -0.8294
 9084TIP3    H227217   4.693   0.122   3.715  0.3543 -0.9332 -1.4995
 9085TIP3   OH227218   6.136   2.106   3.628  0.5161  0.5876  0.5440
 9085TIP3    H127219   6.204   2.046   3.660  2.3377  2.4552  0.4131
 9085TIP3    H227220   6.177   2.151   3.554 -1.1105  1.3582  0.0643
 9086TIP3   OH227221   7.191   4.575   4.699  0.4541  0.0606  0.5401
 9086TIP3    H127222   7.103   4.550   4.669  0.3021 -0.3851  1.3463
 9086TIP3    H227223   7.177   4.652   4.754  0.6330  0.3352  0.2036
 9087TIP3   OH227224   1.589   2.173   2.023  0.0817 -0.7171  0.0475
 9087TIP3    H127225   1.662   2.115   2.001  0.2503 -0.4661 -0.0452
 9087TIP3    H227226   1.609   2.204   2.111 -0.3356 -1.3119  0.3635
 9088TIP3   OH227227   4.608   0.822   3.581  0.0258 -0.1447 -0.3416
 9088TIP3    H127228   4.694   0.820   3.622  0.1605  1.2832 -0.4905
 9088TIP3    H227229   4.566   0.741   3.608  1.3046 -0.7308 -0.0347
 9089TIP3   OH227230   1.014   3.703   1.074 -0.1144  0.6981  0.2362
 9089TIP3    H127231   1.052   3.785   1.042 -0.4184  0.9958  0.6298
 9089TIP3    H227232   1.008   3.715   1.169 -2.1187  1.0646  0.0995
 9090TIP3   OH227233   0.491   3.523   0.292  0.0011 -0.3403 -0.1398
 9090TIP3    H127234   0.428   3.473   0.344 -0.8959  1.8437  0.9665
 9090TIP3    H227235   0.441   3.597   0.258  1.6131  0.6203 -0.5184
 9091TIP3   OH227236   2.243   1.384   2.129 -0.6782 -0.2805  0.3826
 9091TIP3    H127237   2.202   1.406   2.212 -0.7053 -1.9664  0.8495
 9091TIP3    H227238   2.175   1.340   2.079 -0.7169  0.8975 -0.6201
 9092TIP3   OH227239   4.878   5.655   0.603 -0.5831  0.2733 -0.4598
 9092TIP3    H127240   4.791   5.695   0.613 -2.0003 -2.7146  0.5211
 9092TIP3    H227241   4.927   5.686   0.679 -1.9055 -0.4048  0.7261
 9093TIP3   OH227242   0.933   6.780   4.522  1.2435 -0.0613  0.2352
 9093TIP3    H127243   0.896   6.801   4.608  1.1131  0.3337  0.0816
 9093TIP3    H227244   0.972   6.693   4.534 -0.2293 -0.7502  0.2574
 9094TIP3   OH227245   3.559   2.284   4.979  0.5999  0.0023 -0.0836
 9094TIP3    H127246   3.594   2.332   5.054  0.0112 -0.4181  0.4675
 9094TIP3    H227247   3.471   2.318   4.968  0.2763 -0.7470  0.1367
 9095TIP3   OH227248   4.681   4.345   0.562 -0.2657 -0.3138 -0.0238
 9095TIP3    H127249   4.619   4.272   0.559 -0.7723  0.1176 -0.1196
 9095TIP3    H227250   4.640   4.414   0.511  0.0357  0.1753  0.3847
 9096TIP3   OH227251   7.112   1.739   1.647 -0.4472  0.1269  0.8517
 9096TIP3    H127252   7.093   1.712   1.737 -2.4904  0.5692  0.6030
 9096TIP3    H227253   7.104   1.659   1.596 -1.0965  0.1926  0.8403
 9097TIP3   OH227254   5.610   3.290   1.648 -0.0076 -0.2866 -0.2801
 9097TIP3    H127255   5.655   3.353   1.704  2.5281 -2.0984 -0.1515
 9097TIP3    H227256   5.590   3.339   1.569  3.3205  0.4021 -0.8346
 9098TIP3   OH227257   6.803   3.576   1.738  0.5449 -0.2634  0.0007
 9098TIP3    H127258   6.867   3.645   1.756  1.2234 -1.0771  0.7775
 9098TIP3    H227259   6.848   3.518   1.676  0.5679 -0.8280  0.5376
 9099TIP3   OH227260   4.126   6.427   2.018  0.3331 -0.2876  0.3705
 9099TIP3    H127261   4.044   6.471   1.995 -0.1421 -0.0307  2.3653
 9099TIP3    H227262   4.113   6.336   1.991  0.5716  0.3157 -2.0022
 9100TIP3   OH227263   7.100   3.489   3.699  0.4919  0.0043  0.0302
 9100TIP3    H127264   7.104   3.397   3.675 -0.2817 -0.0141 -0.0540
 9100TIP3    H227265   7.127   3.491   3.791  0.5185 -0.3056  0.0288
 9101TIP3   OH227266   5.662   5.169   4.006  0.0824  0.1256  0.2634
 9101TIP3    H127267   5.573   5.168   4.042 -0.2313 -0.5558 -0.4787
 9101TIP3    H227268   5.677   5.260   3.981 -1.2850 -0.0921 -1.6124
 9102TIP3   OH227269   3.929   4.793   5.084  0.0459 -0.7426  0.3042
 9102TIP3    H127270   3.844   4.771   5.123 -0.0746  0.1317  0.5660
 9102TIP3    H227271   3.991   4.785   5.156 -0.1527  0.7177  0.6621
 9103TIP3   OH227272   4.483   0.099   1.951  0.3329  0.3906  0.0212
 9103TIP3    H127273   4.468   0.137   1.864  0.3163  1.5477  0.5137
 9103TIP3    H227274   4.451   0.166   2.012 -1.1300 -1.0487  0.9099
 9104TIP3   OH227275   1.431   0.385   2.513 -0.0594  0.8136  0.4581
 9104TIP3    H127276   1.409   0.457   2.455  0.8931  0.8211  0.0884
 9104TIP3    H227277   1.506   0.342   2.471 -0.6487 -0.4279  0.6381
 9105TIP3   OH227278   4.590   0.272   5.824 -0.1959  0.8763  0.2785
 9105TIP3    H127279   4.595   0.298   5.732  1.1552  1.3315  0.4670
 9105TIP3    H227280   4.643   0.193   5.829 -0.8312  0.4535  0.5499
 9106TIP3   OH227281   0.067   0.706   5.091 -0.3064  0.2977  0.1643
 9106TIP3    H127282   0.024   0.773   5.038 -0.2251  0.0960 -0.1574
 9106TIP3    H227283   0.116   0.755   5.157 -0.5132  0.5447  0.1367
 9107TIP3   OH227284   5.035   5.274   5.464 -0.5063  0.0337  1.1056
 9107TIP3    H127285   4.943   5.261   5.442 -0.7944 -0.0968  2.2960
 9107TIP3    H227286   5.079   5.290   5.380 -1.3539 -1.3585  0.3742
 9108TIP3   OH227287   6.212   6.707   2.959  0.4106  0.0926 -0.1016
 9108TIP3    H127288   6.118   6.690   2.965  0.2106  0.9302 -0.7067
 9108TIP3    H227289   6.219   6.784   2.903  1.2563  2.0377  2.4701
 9109TIP3   OH227290   5.316   0.859   1.168  0.1227 -0.4516  0.0153
 9109TIP3    H127291   5.284   0.946   1.191  0.9923 -0.2431  0.4916
 9109TIP3    H227292   5.387   0.842   1.229  0.1233 -1.4064 -0.2207
 9110TIP3   OH227293   6.336   0.117   3.563 -0.1525  0.1070  0.5538
 9110TIP3    H127294   6.311   0.085   3.650  1.5313 -1.3467  0.5541
 9110TIP3    H227295   6.260   0.097   3.508 -1.2313  1.0352  1.6604
 9111TIP3   OH227296   3.714   5.535   0.023 -0.2467  0.3686 -0.3345
 9111TIP3    H127297   3.687   5.526   0.115  1.5891 -0.3509  0.1935
 9111TIP3    H227298   3.798   5.580   0.028 -0.3325  0.7096 -1.7103
 9112TIP3   OH227299   2.322   5.943   1.216  0.1227  0.0493 -0.4667
 9112TIP3    H127300   2.242   5.990   1.193 -0.1315 -0.3470 -0.3914
 9112TIP3    H227301   2.314   5.926   1.310  1.0694  1.4934 -0.0849
 9113TIP3   OH227302   5.224   0.406   2.068  0.2431 -0.7514 -0.2223
 9113TIP3    H127303   5.184   0.439   1.988  2.5892  0.3755 -1.0321
 9113TIP3    H227304   5.266   0.324   2.042 -1.9429 -2.2948  0.7804
 9114TIP3   OH227305   4.498   0.631   3.849  0.2451  0.5972  0.7414
 9114TIP3    H127306   4.579   0.583   3.865  0.7502  1.0694 -0.2865
 9114TIP3    H227307   4.522   0.723   3.860  0.4300  0.9057 -1.6834
 9115TIP3   OH227308   0.537   5.109   1.055  0.3514  0.4154 -0.0979
 9115TIP3    H127309   0.473   5.050   1.096  0.7284 -0.8211 -1.1979
 9115TIP3    H227310   0.488   5.189   1.036 -0.5093 -0.0076  0.2966
 9116TIP3   OH227311   4.134   6.473   1.755  0.6155  0.1891  0.2168
 9116TIP3    H127312   4.144   6.380   1.733  1.8831  0.5662 -0.9507
 9116TIP3    H227313   4.168   6.480   1.845  0.6201 -0.4498  0.2716
 9117TIP3   OH227314   6.936   3.076   5.677  0.0259  0.4943  0.3687
 9117TIP3    H127315   6.965   3.166   5.666 -0.8736  0.7359 -0.2379
 9117TIP3    H227316   6.891   3.056   5.594  0.2937 -0.5342  0.4645
 9118TIP3   OH227317   5.827   4.746   1.027  0.1052 -0.7948 -0.8685
 9118TIP3    H127318   5.882   4.694   0.968 -0.4675 -1.5119 -0.7846
 9118TIP3    H227319   5.752   4.689   1.046 -0.0542 -0.3110  0.0041
 9119TIP3   OH227320   0.254   0.515   5.732 -0.0522  0.0772 -0.1350
 9119TIP3    H127321   0.244   0.460   5.654 -0.0523 -1.1565  0.7032
 9119TIP3    H227322   0.177   0.495   5.785 -0.0121  0.8488  0.2280
 9120TIP3   OH227323   4.944   2.627   2.722  0.3121  0.1258 -0.0805
 9120TIP3    H127324   4.935   2.670   2.637  0.8925  1.2517  0.4176
 9120TIP3    H227325   5.036   2.599   2.725  1.0485  2.4169  1.2132
 9121TIP3   OH227326   4.697   4.148   0.913 -0.4674 -0.4108  0.5311
 9121TIP3    H127327   4.609   4.132   0.880 -0.1419 -2.0477  0.3578
 9121TIP3    H227328   4.728   4.062   0.940  1.5605 -0.1005 -0.6049
 9122TIP3   OH227329   1.829   6.471   0.028  0.7855 -0.3553 -0.1335
 9122TIP3    H127330   1.918   6.450   0.055  0.6447  0.7329  1.3076
 9122TIP3    H227331   1.815   6.418  -0.051  2.4034 -1.1591  0.0649
 9123TIP3   OH227332   0.475   0.292   4.119 -0.2378  0.0695  0.0414
 9123TIP3    H127333   0.464   0.379   4.080  0.2406 -0.4516 -1.3242
 9123TIP3    H227334   0.390   0.249   4.107 -0.2329  0.0712  0.0013
 9124TIP3   OH227335   6.697   3.821   3.215  0.2565 -0.0762  0.4530
 9124TIP3    H127336   6.614   3.865   3.231  0.7831  1.2440 -0.2745
 9124TIP3    H227337   6.698   3.747   3.276  0.0393  1.8290  2.8694
 9125TIP3   OH227338   1.430   0.941   4.036  0.0747  0.2168  0.4546
 9125TIP3    H127339   1.467   0.869   3.984  0.1073  1.4895 -1.4006
 9125TIP3    H227340   1.380   0.897   4.105  1.5800 -1.5540  0.4982
 9126TIP3   OH227341   1.079   5.327   5.160 -0.1684  0.3686 -0.4295
 9126TIP3    H127342   1.085   5.320   5.065  2.4270  0.1054 -0.3336
 9126TIP3    H227343   1.048   5.417   5.176 -0.2460  0.5398 -1.5149
 9127TIP3   OH227344   0.251   6.787   2.783 -0.0404 -0.1130 -0.2812
 9127TIP3    H127345   0.175   6.839   2.756  0.1550 -0.2118 -1.0508
 9127TIP3    H227346   0.273   6.736   2.705  0.0274 -1.0392  0.3299
 9128TIP3   OH227347   0.972   3.130   4.081  0.3196 -0.2307 -0.2721
 9128TIP3    H127348   1.050   3.110   4.030 -0.1580  0.2473 -1.2373
 9128TIP3    H227349   0.937   3.209   4.040 -1.3755 -1.1505 -0.6991
 9129TIP3   OH227350   0.895   2.406   5.607 -0.4178 -0.0746  0.7997
 9129TIP3    H127351   0.807   2.431   5.578 -0.8702 -0.0466  2.1096
 9129TIP3    H227352   0.888   2.312   5.626  0.0404 -0.2297  0.2368
 9130TIP3   OH227353   4.238   0.176   0.948  0.5660 -0.4958 -0.3722
 9130TIP3    H127354   4.185   0.252   0.972  0.3557 -0.4852 -0.8733
 9130TIP3    H227355   4.308   0.175   1.014  1.5402  1.1345 -1.3215
 9131TIP3   OH227356   1.611   0.330   4.182 -0.8751 -0.1794 -0.0459
 9131TIP3    H127357   1.648   0.409   4.143  1.1321 -0.7134  0.6881
 9131TIP3    H227358   1.630   0.261   4.119  0.9066 -0.7477  1.0616
 9132TIP3   OH227359   6.660   1.759   5.646  0.2522  0.1914  0.3978
 9132TIP3    H127360   6.743   1.712   5.640  0.7799  0.8456  1.9579
 9132TIP3    H227361   6.655   1.788   5.738 -1.7228  0.1339  0.3644
 9133TIP3   OH227362   5.487   2.923   4.059 -0.0123 -0.1779  0.6844
 9133TIP3    H127363   5.407   2.968   4.085 -0.9220 -0.6372 -1.1599
 9133TIP3    H227364   5.474   2.833   4.086 -0.8474 -0.5974 -0.9346
 9134TIP3   OH227365   5.348   6.194   2.198  0.6772 -0.3440 -0.5033
 9134TIP3    H127366   5.367   6.145   2.118 -0.3273 -2.7476  0.6306
 9134TIP3    H227367   5.426   6.182   2.253  1.0155  0.5813 -0.7637
 9135TIP3   OH227368   1.427   4.803   3.244  0.4950  0.4135 -0.0214
 9135TIP3    H127369   1.415   4.708   3.250  0.4663  0.4937  1.4107
 9135TIP3    H227370   1.521   4.816   3.257  0.2818  0.6794  1.3623
 9136TIP3   OH227371   2.765   4.032   5.076 -0.2702  0.5402 -0.0534
 9136TIP3    H127372   2.749   3.938   5.073 -1.3132  0.6891  0.2961
 9136TIP3    H227373   2.860   4.040   5.080 -0.1672 -0.4948 -0.1553
 9137TIP3   OH227374   1.325   0.321   1.402 -0.0125  0.3010 -0.1797
 9137TIP3    H127375   1.235   0.305   1.374  0.5571 -1.6045 -1.0877
 9137TIP3    H227376   1.322   0.314   1.497 -0.4543 -2.1630 -0.3120
 9138TIP3   OH227377   3.181   2.130   3.892  0.0759 -0.1884 -0.5367
 9138TIP3    H127378   3.109   2.067   3.884  0.1582 -0.1089 -2.6569
 9138TIP3    H227379   3.252   2.092   3.840  0.8930  0.6302 -0.0422
 9139TIP3   OH227380   4.511   2.975   2.207 -0.2670 -0.2105 -0.3013
 9139TIP3    H127381   4.517   2.968   2.112  1.8542  1.0966 -0.3376
 9139TIP3    H227382   4.594   3.017   2.233 -1.2770  0.5162  1.9967
 9140TIP3   OH227383   3.646   5.582   2.850  0.1577 -0.2841 -0.3787
 9140TIP3    H127384   3.742   5.586   2.847  0.1628 -0.0473  0.1227
 9140TIP3    H227385   3.626   5.489   2.838  0.4630 -0.3926 -0.0589
 9141TIP3   OH227386   6.942   3.337   0.778  0.0861 -0.4693  0.1029
 9141TIP3    H127387   7.000   3.264   0.758  0.4994 -0.5313  1.4099
 9141TIP3    H227388   6.991   3.391   0.840 -0.9079 -0.0713  0.5776
 9142TIP3   OH227389   0.343   2.457   2.500 -0.1364 -0.3299  0.3185
 9142TIP3    H127390   0.291   2.537   2.502 -1.4182 -1.1332  0.0023
 9142TIP3    H227391   0.350   2.436   2.407  2.9622  1.1104  0.0792
 9143TIP3   OH227392   5.432   4.877   0.244  0.3599 -0.0202 -0.2869
 9143TIP3    H127393   5.512   4.918   0.277 -0.3653  0.4870  0.9124
 9143TIP3    H227394   5.381   4.856   0.323 -0.9503  0.2143 -1.0376
 9144TIP3   OH227395   5.287   4.075   2.838 -0.4398  0.3086  0.1899
 9144TIP3    H127396   5.212   4.025   2.806  0.7109 -0.5945 -1.2440
 9144TIP3    H227397   5.250   4.136   2.902 -2.1198 -1.2398  0.7574
 9145TIP3   OH227398   1.696   0.890   2.361  0.1204 -0.9196  0.7185
 9145TIP3    H127399   1.731   0.827   2.298  0.9125 -0.8136  1.0404
 9145TIP3    H227400   1.601   0.885   2.349  0.2386 -1.1664 -0.2237
 9146TIP3   OH227401   3.466   0.453   4.428 -0.0075 -0.2586  0.3511
 9146TIP3    H127402   3.463   0.429   4.521 -0.9322 -2.0680 -0.0822
 9146TIP3    H227403   3.560   0.462   4.409  0.2660 -1.1114  1.1837
 9147TIP3   OH227404   1.796   2.079   1.567 -0.0606  0.0803 -0.8729
 9147TIP3    H127405   1.832   1.992   1.548 -1.5376 -0.5558 -0.8453
 9147TIP3    H227406   1.724   2.063   1.627  1.9005  1.6697  2.2047
 9148TIP3   OH227407   1.702   2.132   0.571  0.1339  0.0127  0.4350
 9148TIP3    H127408   1.636   2.064   0.585 -0.6753  0.0576 -2.5560
 9148TIP3    H227409   1.759   2.097   0.503  0.3610  1.8741 -0.4020
 9149TIP3   OH227410   6.262   2.594   0.721  0.4341 -0.5039  0.0471
 9149TIP3    H127411   6.306   2.678   0.707 -0.0722 -0.2031  0.2389
 9149TIP3    H227412   6.186   2.598   0.664  1.1620 -1.4254 -1.0341
 9150TIP3   OH227413   3.838   4.522   3.498 -0.1859 -0.3725 -0.2868
 9150TIP3    H127414   3.911   4.579   3.474 -0.7372  0.3484 -0.2761
 9150TIP3    H227415   3.830   4.532   3.593 -0.1862 -0.5894 -0.2632
 9151TIP3   OH227416   1.190   2.526   4.035  0.0618  0.4638  0.4388
 9151TIP3    H127417   1.285   2.536   4.046 -0.2764  2.4094  2.2249
 9151TIP3    H227418   1.158   2.507   4.124 -1.1539 -1.3334 -0.3112
 9152TIP3   OH227419   4.987   2.350   2.620 -0.3329 -0.3869  0.2098
 9152TIP3    H127420   4.915   2.388   2.670 -0.6755 -0.7054 -0.0397
 9152TIP3    H227421   5.023   2.424   2.570 -0.5014 -0.2327  0.3149
 9153TIP3   OH227422   6.620   4.983   1.872 -0.2739 -0.5326  0.1645
 9153TIP3    H127423   6.589   5.073   1.867  2.1604  0.2918 -1.9087
 9153TIP3    H227424   6.542   4.932   1.893 -2.3809  1.7032 -1.6974
 9154TIP3   OH227425   0.928   1.697   3.002  0.1466 -0.4560  0.1745
 9154TIP3    H127426   1.023   1.705   3.017  0.0847 -1.8491  1.5168
 9154TIP3    H227427   0.920   1.630   2.934  0.1023 -1.4917  1.1707
 9155TIP3   OH227428   1.054   3.966   1.528 -0.4501  0.3858  0.0337
 9155TIP3    H127429   0.978   4.008   1.569 -0.2107  1.2303 -0.3728
 9155TIP3    H227430   1.130   4.009   1.567 -0.2152  1.0184 -1.0681
 9156TIP3   OH227431   4.973   0.671   5.299  0.1879  0.0793 -0.2429
 9156TIP3    H127432   4.993   0.716   5.381 -0.1334  0.3733 -0.3258
 9156TIP3    H227433   4.879   0.657   5.301  0.3426 -1.0567  0.0208
 9157TIP3   OH227434   5.144   0.570   4.560  0.0694  0.6322 -0.1597
 9157TIP3    H127435   5.204   0.517   4.507 -1.0448  1.7319 -2.6997
 9157TIP3    H227436   5.109   0.509   4.625  2.0813 -0.6110 -0.1729
 9158TIP3   OH227437   0.716   4.137   3.708  0.0249 -0.1981 -0.0460
 9158TIP3    H127438   0.651   4.071   3.683  0.0610 -0.0767 -0.4815
 9158TIP3    H227439   0.735   4.184   3.626  1.4988 -0.9557 -0.1806
 9159TIP3   OH227440   4.364   2.426   2.522  0.3846  0.1852 -0.0216
 9159TIP3    H127441   4.334   2.434   2.431  2.2419 -0.5040 -0.7490
 9159TIP3    H227442   4.311   2.489   2.571 -0.7777  0.4480 -1.5422
 9160TIP3   OH227443   1.682   6.568   4.119  0.6120 -0.5061  0.3376
 9160TIP3    H127444   1.697   6.531   4.206  0.7554 -2.2458 -0.3874
 9160TIP3    H227445   1.606   6.520   4.085  1.3285 -0.7612 -0.9736
 9161TIP3   OH227446   3.946   2.354   5.550  0.4626 -0.0018 -0.2409
 9161TIP3    H127447   3.909   2.440   5.530  0.6753  0.1385 -0.0352
 9161TIP3    H227448   3.980   2.322   5.467 -0.7765 -0.4564 -0.5905
 9162TIP3   OH227449   2.192   5.522   0.511  0.1990  0.2790  0.1458
 9162TIP3    H127450   2.267   5.513   0.453  0.8861 -0.4259  1.1067
 9162TIP3    H227451   2.122   5.555   0.455  1.0721  0.4304 -0.8848
 9163TIP3   OH227452   1.361   6.086   2.597 -0.1926 -0.0602  0.4313
 9163TIP3    H127453   1.417   6.147   2.548  1.2468  0.5160  2.6494
 9163TIP3    H227454   1.327   6.139   2.669 -0.3766 -1.4239  1.3638
 9164TIP3   OH227455   0.411   5.996   5.380  0.0523  0.0919  0.0522
 9164TIP3    H127456   0.447   6.061   5.440  2.1831 -0.4210 -0.5894
 9164TIP3    H227457   0.413   6.039   5.295 -1.1151  0.1290  0.0338
 9165TIP3   OH227458   4.078   5.721   5.396 -0.2575 -0.1447  0.1964
 9165TIP3    H127459   4.151   5.757   5.446  0.5291 -0.2450 -0.8567
 9165TIP3    H227460   4.118   5.653   5.341 -1.6734 -2.8097  2.1974
 9166TIP3   OH227461   4.014   0.509   5.172 -0.2259  0.5482 -0.0086
 9166TIP3    H127462   4.008   0.558   5.090  0.6551 -1.3809 -1.3293
 9166TIP3    H227463   4.106   0.484   5.178 -0.5588 -0.5830  0.7797
 9167TIP3   OH227464   6.752   5.715   1.248 -0.2114  0.2409 -0.1439
 9167TIP3    H127465   6.679   5.774   1.266  1.8892  2.3680  2.2449
 9167TIP3    H227466   6.804   5.715   1.329  3.1034 -0.1061 -2.0777
 9168TIP3   OH227467   4.528   1.766   2.727  0.7285 -0.5464  0.1661
 9168TIP3    H127468   4.594   1.814   2.777  0.9169 -1.1849  0.5372
 9168TIP3    H227469   4.452   1.825   2.726  0.9026 -0.3040  0.7512
 9169TIP3   OH227470   4.820   0.770   0.627  0.2821  0.1817  0.5319
 9169TIP3    H127471   4.838   0.856   0.665  0.2502  0.9241 -1.0653
 9169TIP3    H227472   4.728   0.754   0.647  0.6977 -0.2526  2.2554
 9170TIP3   OH227473   0.275   3.160   0.732  0.2811 -0.2197 -0.2246
 9170TIP3    H127474   0.237   3.099   0.668  0.1724  0.3305 -0.6907
 9170TIP3    H227475   0.368   3.138   0.734  1.1125  2.2235 -3.4857
 9171TIP3   OH227476   2.679   4.782   0.697 -0.1058  0.2796 -0.2417
 9171TIP3    H127477   2.674   4.863   0.645  0.9907 -0.5201 -1.6400
 9171TIP3    H227478   2.759   4.739   0.668 -0.9271 -1.5714  0.1160
 9172TIP3   OH227479   4.618   4.669   0.936  0.1526  0.0708 -0.6939
 9172TIP3    H127480   4.550   4.610   0.969  1.1143 -0.1493  1.0226
 9172TIP3    H227481   4.583   4.757   0.949  0.2493 -0.0371  0.3184
 9173TIP3   OH227482   0.689   6.266   3.448  0.7856  0.4356  0.0272
 9173TIP3    H127483   0.608   6.278   3.499  0.0655 -1.0569 -0.6779
 9173TIP3    H227484   0.705   6.351   3.407 -0.1333  0.9012  0.5999
 9174TIP3   OH227485   2.825   1.131   0.452  0.6197  0.2351 -0.1125
 9174TIP3    H127486   2.858   1.161   0.537 -0.2171  1.3947 -0.1750
 9174TIP3    H227487   2.730   1.136   0.460  0.4936 -1.1432 -0.6114
 9175TIP3   OH227488   4.201   4.009   1.381 -0.3623  0.0104 -0.2811
 9175TIP3    H127489   4.141   4.066   1.333  1.0358 -0.4842 -2.7973
 9175TIP3    H227490   4.238   4.065   1.449 -1.6585  1.0739 -0.4248
 9176TIP3   OH227491   1.265   2.532   2.927  0.1620  0.4410  0.0517
 9176TIP3    H127492   1.278   2.451   2.878  0.2509 -1.0992  2.4774
 9176TIP3    H227493   1.182   2.521   2.972  0.1109  1.7554  0.3263
 9177TIP3   OH227494   7.116   1.736   0.318  0.6435  0.1983  0.0965
 9177TIP3    H127495   7.141   1.813   0.266 -0.3174  0.9771  0.7287
 9177TIP3    H227496   7.051   1.691   0.264  0.6794  0.2321  0.0251
 9178TIP3   OH227497   3.559   3.242   2.467 -0.0380  0.2746 -0.3566
 9178TIP3    H127498   3.608   3.322   2.485 -0.4559 -0.0921  2.8859
 9178TIP3    H227499   3.620   3.171   2.489 -1.1325 -0.2009  1.3012
 9179TIP3   OH227500   0.209   4.609   3.790  0.0546 -0.0275  0.1344
 9179TIP3    H127501   0.228   4.520   3.761  0.5538  0.6615 -1.8677
 9179TIP3    H227502   0.289   4.658   3.771 -0.4778  1.0082  0.4759
 9180TIP3   OH227503   3.788   2.264   2.824  0.2249 -0.4015 -0.0142
 9180TIP3    H127504   3.797   2.170   2.806 -0.7057 -0.4791 -0.1033
 9180TIP3    H227505   3.802   2.306   2.739 -1.2052 -0.5849 -0.3618
 9181TIP3   OH227506   1.913   6.487   2.262 -0.2399  0.2540 -0.0022
 9181TIP3    H127507   1.951   6.403   2.237  1.1684  0.4995  1.1925
 9181TIP3    H227508   1.929   6.544   2.187  1.9822  0.3986  0.5330
 9182TIP3   OH227509   3.771   1.956   0.242  0.5093  0.5226 -0.8248
 9182TIP3    H127510   3.824   2.029   0.211  0.0291  1.4076  0.3484
 9182TIP3    H227511   3.693   1.997   0.280 -0.3017 -0.6696 -1.1502
 9183TIP3   OH227512   5.607   0.185   1.108  0.0630  0.2073  0.8481
 9183TIP3    H127513   5.535   0.199   1.047 -0.4663  1.1258  1.6456
 9183TIP3    H227514   5.652   0.107   1.076  0.3177  1.1458 -1.1980
 9184TIP3   OH227515   3.576   5.926   2.257 -1.0147 -0.1415  0.1076
 9184TIP3    H127516   3.587   5.849   2.202  2.0560 -1.3739  2.1852
 9184TIP3    H227517   3.497   5.909   2.308 -1.7668 -0.6814 -1.1736
 9185TIP3   OH227518   2.703   0.695   1.907  0.2076  0.1478  0.1013
 9185TIP3    H127519   2.718   0.615   1.857 -3.0644 -1.1493  0.8909
 9185TIP3    H227520   2.657   0.753   1.847 -0.2335  0.1587  0.4429
 9186TIP3   OH227521   5.183   1.626   5.345  0.0860  0.2532  0.3107
 9186TIP3    H127522   5.275   1.636   5.371 -0.1450 -0.1425  1.3294
 9186TIP3    H227523   5.166   1.532   5.356 -0.6896  0.4664  1.0134
 9187TIP3   OH227524   5.549   3.990   5.610 -0.2139  0.3537  0.0654
 9187TIP3    H127525   5.521   3.973   5.700 -0.3473  0.3255  0.0180
 9187TIP3    H227526   5.552   3.904   5.569  3.1896 -0.1439  0.9947
 9188TIP3   OH227527   0.883   3.503   3.860  0.1184 -0.3186 -0.5165
 9188TIP3    H127528   0.920   3.503   3.772 -1.0797 -2.9792 -1.1189
 9188TIP3    H227529   0.957   3.481   3.917  0.4684 -0.8396 -1.1564
 9189TIP3   OH227530   6.631   5.922   3.619  0.1997 -0.6733  0.2368
 9189TIP3    H127531   6.577   5.985   3.570  0.5602 -0.8480 -0.3978
 9189TIP3    H227532   6.635   5.958   3.707  0.2870  0.1371 -0.0827
 9190TIP3   OH227533   0.577   4.227   2.353 -0.5385  0.0842  0.1107
 9190TIP3    H127534   0.499   4.237   2.297 -0.4025  0.3242 -0.0373
 9190TIP3    H227535   0.592   4.132   2.356 -0.4017  0.0819 -0.4639
 9191TIP3   OH227536   3.360   2.172   0.118  0.2615  0.2271  0.6027
 9191TIP3    H127537   3.354   2.232   0.193  0.2246  1.1582 -0.1310
 9191TIP3    H227538   3.344   2.227   0.042  1.7761 -0.4230 -0.2133
 9192TIP3   OH227539   5.479   6.695   4.299  0.7622  0.6000 -0.4791
 9192TIP3    H127540   5.389   6.718   4.322  0.3394 -0.9348 -0.4365
 9192TIP3    H227541   5.483   6.704   4.204  0.7933  1.3755 -0.4107
 9193TIP3   OH227542   1.634   4.411   3.698  0.4160  0.1573 -0.3977
 9193TIP3    H127543   1.552   4.421   3.747  0.4409 -0.3139 -0.2550
 9193TIP3    H227544   1.656   4.500   3.670 -1.0263  0.0999 -1.8867
 9194TIP3   OH227545   5.260   0.496   2.904  0.2473 -0.3349 -0.3074
 9194TIP3    H127546   5.165   0.487   2.910  0.3292 -0.8220  0.5014
 9194TIP3    H227547   5.279   0.496   2.811 -0.5720  0.0236 -0.4801
 9195TIP3   OH227548   0.232   0.506   3.688 -0.1682  0.1491 -0.2013
 9195TIP3    H127549   0.172   0.459   3.746 -0.4917 -0.5721 -1.1055
 9195TIP3    H227550   0.252   0.587   3.736  0.8715 -1.1339  1.6766
 9196TIP3   OH227551   4.008   3.636   5.300  0.1998  0.4021 -0.2210
 9196TIP3    H127552   4.085   3.680   5.337 -0.5418  2.0381 -0.5129
 9196TIP3    H227553   3.955   3.708   5.265 -1.0965 -0.7614 -0.7067
 9197TIP3   OH227554   5.331   4.459   5.587 -0.0384 -0.4453  0.4483
 9197TIP3    H127555   5.256   4.481   5.643  1.3966  0.4953  2.0862
 9197TIP3    H227556   5.303   4.379   5.541 -1.5278 -0.8896  2.0125
 9198TIP3   OH227557   3.461   4.578   0.772 -0.4067 -0.5379  0.2044
 9198TIP3    H127558   3.457   4.495   0.821 -0.8428  0.1263  1.3177
 9198TIP3    H227559   3.475   4.551   0.681 -0.1765 -1.8237  0.6012
 9199TIP3   OH227560   4.146   5.193   0.980  0.4252  0.9614  0.4689
 9199TIP3    H127561   4.062   5.238   0.992 -0.1062  0.2892 -0.5216
 9199TIP3    H227562   4.205   5.233   1.043 -0.6266  1.5086  1.1251
 9200TIP3   OH227563   4.374   2.714   0.254 -0.2180  0.1460 -0.3405
 9200TIP3    H127564   4.418   2.798   0.244  1.5343 -0.3809  2.1082
 9200TIP3    H227565   4.433   2.651   0.213 -0.2227 -0.1813  0.1452
 9201TIP3   OH227566   6.931   5.646   2.859 -0.0583 -0.0477  0.5243
 9201TIP3    H127567   6.997   5.708   2.890 -1.7125  1.3545  1.4538
 9201TIP3    H227568   6.876   5.630   2.936 -2.8454  1.6025 -0.9628
 9202TIP3   OH227569   7.058   5.176   0.720  0.8490  0.4298 -0.5525
 9202TIP3    H127570   7.055   5.178   0.625  2.0868 -0.7563 -0.6439
 9202TIP3    H227571   6.997   5.245   0.747 -3.4457 -2.3520 -2.1169
 9203TIP3   OH227572   0.665   2.471   5.512 -0.6101  0.2009  0.3855
 9203TIP3    H127573   0.644   2.454   5.420  1.0302  0.2491 -0.0172
 9203TIP3    H227574   0.584   2.508   5.548 -1.4044 -0.1911 -0.9250
 9204TIP3   OH227575   1.759   2.239   5.684  0.3639 -0.7858 -0.3118
 9204TIP3    H127576   1.721   2.160   5.722  0.6541 -0.8401 -0.1266
 9204TIP3    H227577   1.742   2.232   5.590 -2.9209  0.7228  0.0381
 9205TIP3   OH227578   5.146   4.597   3.152  0.0781 -0.6358 -0.1054
 9205TIP3    H127579   5.141   4.503   3.163  0.8142 -0.5521  1.0537
 9205TIP3    H227580   5.194   4.609   3.069  0.7632 -1.2783  0.1925
 9206TIP3   OH227581   0.561   1.247   2.343  0.3128  0.1394  0.5277
 9206TIP3    H127582   0.572   1.168   2.289 -3.1830  0.3355 -0.6773
 9206TIP3    H227583   0.542   1.214   2.430 -0.2605 -0.3376  0.2265
 9207TIP3   OH227584   2.342   2.026   1.459  0.2553 -0.1079 -0.7205
 9207TIP3    H127585   2.308   2.115   1.469 -0.5380 -0.4878  0.0945
 9207TIP3    H227586   2.327   2.005   1.367 -1.7664 -0.2527 -0.4155
 9208TIP3   OH227587   3.136   3.178   4.791  0.0455  0.0115 -0.6248
 9208TIP3    H127588   3.071   3.155   4.857 -0.6098  1.5445 -0.7014
 9208TIP3    H227589   3.176   3.095   4.767  1.2135 -0.5452  2.6132
 9209TIP3   OH227590   0.086   0.221   1.823  0.5550 -0.3293  0.0880
 9209TIP3    H127591   0.029   0.259   1.890  0.7940  0.3424 -0.0871
 9209TIP3    H227592   0.109   0.135   1.858  0.3974 -0.1255  0.7123
 9210TIP3   OH227593   2.746   0.880   5.085  0.7226  0.0145 -0.2386
 9210TIP3    H127594   2.831   0.844   5.060  0.0581 -1.1321 -0.9498
 9210TIP3    H227595   2.731   0.846   5.174  0.1244 -1.4687 -0.8843
 9211TIP3   OH227596   1.863   3.813   1.365  0.0908  0.3514 -0.3806
 9211TIP3    H127597   1.918   3.873   1.416  1.7179 -0.3375 -1.2644
 9211TIP3    H227598   1.775   3.825   1.402  0.7473  1.7257  0.8630
 9212TIP3   OH227599   0.303   0.262   2.067  0.1818  0.5463  0.1323
 9212TIP3    H127600   0.341   0.174   2.078 -0.6328  0.3813  2.0149
 9212TIP3    H227601   0.247   0.254   1.990 -0.0873 -0.6888  0.4277
 9213TIP3   OH227602   3.573   2.943   0.643 -0.4170 -0.2122 -0.0796
 9213TIP3    H127603   3.650   2.978   0.598 -0.7820 -0.6518 -1.0638
 9213TIP3    H227604   3.542   3.016   0.697  0.6182  0.0018  0.2459
 9214TIP3   OH227605   1.723   1.509   3.589 -0.4069  0.2596 -0.2694
 9214TIP3    H127606   1.713   1.600   3.562 -0.3227  0.5591  0.6969
 9214TIP3    H227607   1.709   1.509   3.683  1.9249 -0.3260  0.1415
 9215TIP3   OH227608   0.056   3.517   2.363 -0.2626 -0.4082  0.2159
 9215TIP3    H127609   0.070   3.434   2.317 -1.3291 -0.5769  0.1654
 9215TIP3    H227610  -0.033   3.542   2.340 -0.1674  0.4452  0.7305
 9216TIP3   OH227611   4.277   3.579   3.641 -0.2080 -0.5773 -0.3788
 9216TIP3    H127612   4.288   3.657   3.696  0.9847 -1.0445  0.0923
 9216TIP3    H227613   4.183   3.562   3.641 -0.3905  0.3671  0.2094
 9217TIP3   OH227614   6.875   0.596   4.508  0.0815 -0.2189  0.2990
 9217TIP3    H127615   6.942   0.549   4.460 -0.6994  0.6667 -1.7609
 9217TIP3    H227616   6.825   0.528   4.553 -0.0019 -1.2553 -1.2793
 9218TIP3   OH227617   5.158   2.573   1.771 -0.0661 -0.6137  0.3983
 9218TIP3    H127618   5.252   2.569   1.752 -0.5277 -2.6169 -1.9322
 9218TIP3    H227619   5.152   2.560   1.866  1.9638 -1.1666  0.5001
 9219TIP3   OH227620   6.609   1.383   5.362 -0.2856 -0.8484  0.0159
 9219TIP3    H127621   6.676   1.392   5.431 -1.7587  1.2078  1.3206
 9219TIP3    H227622   6.566   1.300   5.381  1.1359 -1.6503 -0.1519
 9220TIP3   OH227623   0.969   2.627   5.891 -0.9259 -0.1918  0.2514
 9220TIP3    H127624   0.955   2.700   5.952  0.1447  0.3378 -0.1108
 9220TIP3    H227625   0.978   2.669   5.806 -1.3131 -0.8392 -0.1149
 9221TIP3   OH227626   0.817   3.315   0.879  0.7416  0.0884 -0.6478
 9221TIP3    H127627   0.876   3.359   0.818  0.6750  1.4228  0.2128
 9221TIP3    H227628   0.851   3.226   0.885  2.0601  0.5481 -0.9532
 9222TIP3   OH227629   2.950   5.079   2.137  0.4719 -0.5346 -0.6919
 9222TIP3    H127630   2.905   5.111   2.059  0.8202 -0.7697 -0.9911
 9222TIP3    H227631   2.890   5.015   2.175 -1.8337  2.7087  1.7955
 9223TIP3   OH227632   6.186   0.409   4.479  0.0946 -0.0238  0.4797
 9223TIP3    H127633   6.176   0.338   4.416 -1.7103 -0.6813  1.4614
 9223TIP3    H227634   6.169   0.488   4.428 -1.0131 -0.5218  0.0457
 9224TIP3   OH227635   6.780   2.047   1.486 -0.3109 -0.4281  0.1969
 9224TIP3    H127636   6.770   1.970   1.430 -2.5295 -1.7350  2.2357
 9224TIP3    H227637   6.871   2.074   1.472 -0.2799 -1.6138 -2.7576
 9225TIP3   OH227638   3.243   1.215   0.183  0.1784  0.8596  0.0181
 9225TIP3    H127639   3.152   1.188   0.190  0.0543  0.9796 -1.0197
 9225TIP3    H227640   3.265   1.249   0.270 -0.5488  0.1789  0.4725
 9226TIP3   OH227641   6.997   3.474   0.357  0.1114 -1.0178 -0.2138
 9226TIP3    H127642   7.093   3.479   0.359  0.1936 -1.9443  2.0101
 9226TIP3    H227643   6.968   3.565   0.355  1.1016 -0.6261  1.4364
 9227TIP3   OH227644   6.732   0.845   3.643  0.0954  0.1143  0.3087
 9227TIP3    H127645   6.745   0.939   3.628  0.1294  0.1006  0.2552
 9227TIP3    H227646   6.806   0.803   3.599 -0.3496  0.0086 -0.3405
 9228TIP3   OH227647   1.778   1.002   1.997 -0.2784 -0.1881  0.0030
 9228TIP3    H127648   1.697   0.952   1.983 -1.1065  1.1292 -0.1538
 9228TIP3    H227649   1.848   0.942   1.971 -1.3036 -0.7294 -1.6970
 9229TIP3   OH227650   4.979   6.726   4.266 -0.5116 -0.0349  0.3220
 9229TIP3    H127651   4.981   6.737   4.362  0.3103 -0.1644  0.3234
 9229TIP3    H227652   4.902   6.671   4.251 -0.1400 -0.7769  0.9977
 9230TIP3   OH227653   4.523   2.253   2.115  0.2058 -0.5274 -0.0088
 9230TIP3    H127654   4.530   2.337   2.159  0.3434 -0.7804  0.4571
 9230TIP3    H227655   4.586   2.197   2.160  0.6452 -0.6775 -0.7888
 9231TIP3   OH227656   1.475   3.361   5.636 -0.1097  0.0446  0.3899
 9231TIP3    H127657   1.416   3.383   5.564  1.9189  0.1927 -1.3305
 9231TIP3    H227658   1.463   3.433   5.699 -0.4529  1.0316 -0.7542
 9232TIP3   OH227659   3.559   4.998   1.387 -0.2862 -0.2088 -0.1203
 9232TIP3    H127660   3.545   5.062   1.317 -0.3136 -0.1781 -0.0863
 9232TIP3    H227661   3.614   4.931   1.346  0.3978  0.2305  0.0723
 9233TIP3   OH227662   0.086   3.265   2.756  1.0627  0.2117 -0.1486
 9233TIP3    H127663  -0.001   3.274   2.796  1.6613  0.2300  1.2114
 9233TIP3    H227664   0.092   3.338   2.694 -0.0010  0.0271 -0.4899
 9234TIP3   OH227665   1.129   3.074   1.856  0.2016 -0.0875 -0.9325
 9234TIP3    H127666   1.142   3.006   1.922 -0.6960  0.0451 -0.6048
 9234TIP3    H227667   1.187   3.145   1.883 -0.3591  0.0737 -0.1145
 9235TIP3   OH227668   3.703   2.542   0.446 -0.3721  0.2850 -0.0354
 9235TIP3    H127669   3.748   2.542   0.530  0.3894  0.2341 -0.4331
 9235TIP3    H227670   3.754   2.483   0.391 -1.2178 -0.1728 -0.3550
 9236TIP3   OH227671   2.287   2.650   2.625 -0.5507  0.0039  0.3192
 9236TIP3    H127672   2.258   2.568   2.584 -0.8184  0.4360 -0.3801
 9236TIP3    H227673   2.211   2.708   2.619 -0.9770 -0.2654  2.4595
 9237TIP3   OH227674   4.805   6.000   2.624 -0.7083 -0.2120  0.0706
 9237TIP3    H127675   4.821   6.091   2.597 -0.0259 -0.1584  0.6352
 9237TIP3    H227676   4.878   5.951   2.586 -0.8523 -0.4599  0.1108
 9238TIP3   OH227677   5.297   6.022   5.332  0.0156  0.3418 -0.2984
 9238TIP3    H127678   5.290   5.945   5.276  1.6340  0.8135 -1.2297
 9238TIP3    H227679   5.319   5.988   5.419 -1.5724 -0.3422 -0.1412
 9239TIP3   OH227680   6.498   1.857   5.165 -0.0351 -0.4989  0.3608
 9239TIP3    H127681   6.502   1.763   5.183 -0.8476 -0.2132  2.3272
 9239TIP3    H227682   6.408   1.882   5.187  0.3620  0.8628  0.5661
 9240TIP3   OH227683   4.817   1.156   4.490  0.2962 -0.3420 -0.0570
 9240TIP3    H127684   4.731   1.129   4.523 -1.1613  0.3105 -2.9719
 9240TIP3    H227685   4.857   1.076   4.457  0.7047 -0.5948  1.0179
 9241TIP3   OH227686   3.658   2.318   4.258  0.6308 -0.3007  0.1421
 9241TIP3    H127687   3.745   2.350   4.281  0.0682  1.2387  0.2319
 9241TIP3    H227688   3.671   2.273   4.174  1.4737  0.0890  0.0504
 9242TIP3   OH227689   1.953   1.801   0.550 -0.5615  0.2654 -0.2305
 9242TIP3    H127690   2.016   1.799   0.622 -0.7550  0.9029 -0.0317
 9242TIP3    H227691   1.869   1.781   0.591 -0.6536  0.5058 -0.3016
 9243TIP3   OH227692   0.921   3.070   0.915  0.3547  0.4354  0.2330
 9243TIP3    H127693   0.985   3.054   0.845 -0.0284  0.9969 -0.2600
 9243TIP3    H227694   0.956   3.023   0.990 -0.6180 -2.6127 -1.0623
 9244TIP3   OH227695   5.910   2.853   0.536  0.2040 -0.1115  0.2262
 9244TIP3    H127696   5.952   2.938   0.550  0.0948 -0.4511  3.5469
 9244TIP3    H227697   5.820   2.875   0.510  1.0308  0.6510 -2.2673
 9245TIP3   OH227698   5.916   3.601   3.720  0.0120 -0.1444 -0.0967
 9245TIP3    H127699   5.840   3.542   3.715 -0.4961  0.0872  2.8303
 9245TIP3    H227700   5.914   3.649   3.638 -2.3733 -0.9423 -0.5999
 9246TIP3   OH227701   0.155   1.944   3.497  0.3339  0.0903  0.1869
 9246TIP3    H127702   0.192   2.031   3.512  0.3209  0.1171  0.0657
 9246TIP3    H227703   0.167   1.929   3.403  1.0378 -0.3615  0.3391
 9247TIP3   OH227704   1.758   4.599   4.705 -0.1199 -0.0911  0.4877
 9247TIP3    H127705   1.707   4.522   4.731 -0.5656  0.0164 -0.0597
 9247TIP3    H227706   1.748   4.605   4.610 -0.2547  0.7557  0.5435
 9248TIP3   OH227707   1.704   6.331   2.083 -0.0617 -1.0525  0.0849
 9248TIP3    H127708   1.772   6.394   2.060 -0.2109 -1.0034 -0.2322
 9248TIP3    H227709   1.643   6.381   2.138 -1.1068 -0.4030 -1.5850
 9249TIP3   OH227710   1.852   4.319   4.152 -0.0811  0.4970 -0.1070
 9249TIP3    H127711   1.830   4.330   4.059  2.9818 -0.1166 -1.0058
 9249TIP3    H227712   1.899   4.399   4.175  1.9060 -0.6329 -0.0454
 9250TIP3   OH227713   0.257   0.125   3.526  0.5358 -0.0939  0.3325
 9250TIP3    H127714   0.219   0.041   3.500  1.3195  0.2509 -2.1716
 9250TIP3    H227715   0.341   0.101   3.566  1.1371 -0.5213 -1.1050
 9251TIP3   OH227716   1.395   1.645   4.415 -0.0451 -0.1508 -0.1699
 9251TIP3    H127717   1.453   1.569   4.416  1.1524  0.6468  2.8475
 9251TIP3    H227718   1.312   1.611   4.447 -0.2702 -0.6470 -1.2467
 9252TIP3   OH227719   0.599   3.337   3.678  0.1879  0.3102 -0.1642
 9252TIP3    H127720   0.639   3.424   3.670  2.4960 -0.5671  0.8709
 9252TIP3    H227721   0.604   3.317   3.771  0.9908 -1.4681 -0.5478
 9253TIP3   OH227722   4.767   6.524   2.673 -0.2241 -0.1192  0.2599
 9253TIP3    H127723   4.860   6.534   2.652  0.4839 -1.4771  2.4094
 9253TIP3    H227724   4.766   6.495   2.764 -2.7959  0.1272  0.3869
 9254TIP3   OH227725   2.997   4.834   4.537 -0.0813 -0.1406  0.5109
 9254TIP3    H127726   3.053   4.813   4.611  2.5772  2.0714 -0.6735
 9254TIP3    H227727   3.039   4.792   4.462 -1.5939 -0.6945 -0.0615
 9255TIP3   OH227728   2.885   5.202   1.243 -0.0591  0.2888 -0.4121
 9255TIP3    H127729   2.830   5.268   1.201 -2.4018 -0.6142  1.0393
 9255TIP3    H227730   2.859   5.206   1.336  1.8937 -0.6429  0.2143
 9256TIP3   OH227731   4.166   3.945   5.185  0.1802  0.7199 -0.0555
 9256TIP3    H127732   4.226   3.955   5.111 -0.2029 -0.0774 -0.4842
 9256TIP3    H227733   4.079   3.954   5.146 -0.1958 -2.6888 -0.2955
 9257TIP3   OH227734   5.133   1.510   2.975  0.0325  0.2594  0.1924
 9257TIP3    H127735   5.127   1.475   2.886  0.8538 -0.9773  0.5894
 9257TIP3    H227736   5.199   1.579   2.969  0.6788 -0.3604 -0.0199
 9258TIP3   OH227737   3.843   1.610   4.054  0.0289 -0.4204 -0.4854
 9258TIP3    H127738   3.847   1.533   4.111  1.3195  0.1870  0.2837
 9258TIP3    H227739   3.807   1.679   4.109 -0.5020 -0.2960 -0.9790
 9259TIP3   OH227740   2.459   5.107   1.418 -0.5094  0.9066 -0.4935
 9259TIP3    H127741   2.389   5.106   1.354 -1.6908 -0.0450  0.7678
 9259TIP3    H227742   2.525   5.047   1.383 -1.0141  0.6024 -0.9354
 9260TIP3   OH227743   1.384   1.397   1.486  0.4453 -0.7125  0.2788
 9260TIP3    H127744   1.478   1.412   1.500  0.7249 -0.1564 -1.8179
 9260TIP3    H227745   1.356   1.471   1.433 -0.4305 -2.4566 -1.8466
 9261TIP3   OH227746   3.054   6.171   2.097 -0.1476  0.0119  0.2030
 9261TIP3    H127747   3.026   6.225   2.171 -0.0325 -0.2989  0.4739
 9261TIP3    H227748   3.139   6.137   2.123  0.0345  0.1569 -0.2073
 9262TIP3   OH227749   4.990   0.967   1.554 -0.2960 -0.5405  0.3751
 9262TIP3    H127750   5.016   0.935   1.468 -3.4486 -2.8458  0.0818
 9262TIP3    H227751   4.914   1.023   1.537 -0.2522 -0.0842  1.5943
 9263TIP3   OH227752   0.348   5.787   0.515  0.6919  0.0631 -0.1066
 9263TIP3    H127753   0.369   5.696   0.493  0.5069  0.0988 -0.4425
 9263TIP3    H227754   0.260   5.783   0.553  0.2468  0.2114 -1.0621
 9264TIP3   OH227755   4.545   0.055   2.304 -0.4256  0.1992  0.8487
 9264TIP3    H127756   4.627   0.084   2.266 -1.8087  1.1820 -1.6175
 9264TIP3    H227757   4.529  -0.031   2.265 -1.1026  0.5127  0.4185
 9265TIP3   OH227758   6.666   0.722   3.020 -0.1941  0.7332 -0.1336
 9265TIP3    H127759   6.589   0.665   3.015  0.3284 -0.0563  0.5423
 9265TIP3    H227760   6.741   0.663   3.009  0.4486  0.9295  2.5022
 9266TIP3   OH227761   0.611   0.185   1.911  0.4021 -0.8981  0.0423
 9266TIP3    H127762   0.589   0.095   1.936 -0.9637 -1.0226 -1.4719
 9266TIP3    H227763   0.668   0.215   1.982 -0.0893 -2.5321  1.2180
 9267TIP3   OH227764   2.422   3.049   2.520 -0.1072 -0.4718 -0.2950
 9267TIP3    H127765   2.408   2.976   2.459 -0.7203  0.5528 -1.4193
 9267TIP3    H227766   2.335   3.074   2.549  0.0367  0.3054 -0.5153
 9268TIP3   OH227767   5.732   0.238   1.632  0.3320  0.0851  0.5266
 9268TIP3    H127768   5.728   0.190   1.549  0.0194  2.3560 -0.8870
 9268TIP3    H227769   5.766   0.324   1.607  2.5916  0.0887  3.1806
 9269TIP3   OH227770   5.732   3.325   2.847 -0.3847  0.2628  0.4732
 9269TIP3    H127771   5.654   3.280   2.878 -0.4812  0.0717 -0.0326
 9269TIP3    H227772   5.708   3.358   2.761  0.4262 -0.7228 -0.1567
 9270TIP3   OH227773   5.120   6.054   2.194  0.3824 -0.4550  0.2824
 9270TIP3    H127774   5.200   6.104   2.205 -0.0083  0.2971 -0.2060
 9270TIP3    H227775   5.139   5.993   2.122  0.5118 -0.2558  0.1472
 9271TIP3   OH227776   2.755   2.841   5.133  0.4603 -0.1923  0.4858
 9271TIP3    H127777   2.742   2.890   5.052 -0.2396  1.2787  1.4475
 9271TIP3    H227778   2.715   2.755   5.116 -0.7073  0.4932 -0.3593
 9272TIP3   OH227779   0.692   0.703   5.842  0.4537  0.1054 -0.4984
 9272TIP3    H127780   0.669   0.793   5.817  1.1826  0.6921  0.8225
 9272TIP3    H227781   0.612   0.668   5.882 -0.0252 -0.0658 -1.5860
 9273TIP3   OH227782   6.550   0.969   4.369  0.4723 -0.5303  0.2442
 9273TIP3    H127783   6.644   0.976   4.351  0.0226  0.7404 -1.9492
 9273TIP3    H227784   6.533   0.875   4.373  2.0983 -0.8060  2.5317
 9274TIP3   OH227785   5.918   0.538   5.276  0.4840 -0.4631 -0.1129
 9274TIP3    H127786   5.831   0.507   5.298  0.0957 -0.0572 -1.0496
 9274TIP3    H227787   5.969   0.526   5.357 -0.1242 -1.7700  0.0978
 9275TIP3   OH227788   0.755   3.103   0.446 -0.5499  0.4643 -0.5605
 9275TIP3    H127789   0.797   3.046   0.510  1.1113  1.2427 -0.9218
 9275TIP3    H227790   0.661   3.095   0.465 -0.2639 -1.2819  0.2902
 9276TIP3   OH227791   5.351   5.691   3.049 -0.2312 -0.7353 -0.4092
 9276TIP3    H127792   5.386   5.604   3.070 -1.1615 -0.9266  0.4196
 9276TIP3    H227793   5.263   5.690   3.086  0.2410  1.0719  0.8573
 9277TIP3   OH227794   7.210   2.000   4.551  0.0724 -0.0892  0.4965
 9277TIP3    H127795   7.169   1.938   4.490 -0.0736  1.9475 -1.6094
 9277TIP3    H227796   7.148   2.006   4.623 -0.8856 -0.8829 -0.2276
 9278TIP3   OH227797   0.470  -0.012   1.294 -0.0985  0.0491  0.7807
 9278TIP3    H127798   0.546   0.028   1.338  0.5760 -0.3468  0.0059
 9278TIP3    H227799   0.470   0.028   1.207 -0.3916 -0.4431  0.5540
 9279TIP3   OH227800   6.532   4.809   2.602 -0.1668 -0.6899  0.1038
 9279TIP3    H127801   6.442   4.803   2.634 -0.3043  0.9667  0.0956
 9279TIP3    H227802   6.586   4.785   2.678 -0.5808  0.2997  0.7433
 9280TIP3   OH227803   3.890   5.054   0.790 -0.0605  0.1772  0.2255
 9280TIP3    H127804   3.836   5.131   0.773 -0.3133 -0.2476 -0.9654
 9280TIP3    H227805   3.879   5.037   0.884  0.0723  1.6290  0.5217
 9281TIP3   OH227806   2.284   2.299   1.486  0.2268  0.3732  0.0729
 9281TIP3    H127807   2.281   2.299   1.581  1.5324 -0.1397  0.1283
 9281TIP3    H227808   2.376   2.314   1.464  0.0315 -0.0082 -1.1005
 9282TIP3   OH227809   7.061   5.831   3.951 -0.1295  0.4307  0.0688
 9282TIP3    H127810   7.147   5.790   3.953 -0.4627 -0.2700  0.5035
 9282TIP3    H227811   7.066   5.903   4.014  0.8317  1.8596 -1.5690
 9283TIP3   OH227812   2.798   3.533   5.415  0.3720 -0.0731  0.2888
 9283TIP3    H127813   2.829   3.619   5.387  2.5649  0.3615  3.4577
 9283TIP3    H227814   2.717   3.551   5.462 -0.4143 -0.0976 -1.0219
 9284TIP3   OH227815   4.584   4.145   2.519  0.1275 -0.0807  0.6646
 9284TIP3    H127816   4.625   4.222   2.479  1.4463 -0.6949  0.8124
 9284TIP3    H227817   4.501   4.135   2.471  0.4548  0.7520 -0.1115
 9285TIP3   OH227818   1.690   6.693   2.029 -0.4241  0.5184 -0.1576
 9285TIP3    H127819   1.753   6.625   2.005 -1.6917 -0.1022 -1.8920
 9285TIP3    H227820   1.642   6.655   2.103  1.5245  1.2319  1.5776
 9286TIP3   OH227821   3.279   1.989   2.943  0.2893  0.3330 -0.4098
 9286TIP3    H127822   3.260   2.081   2.930  1.2961  0.3244 -2.2681
 9286TIP3    H227823   3.197   1.951   2.974 -0.0611  1.8676  0.6483
 9287TIP3   OH227824   1.997   4.727   2.602 -0.3385  0.7005  0.0275
 9287TIP3    H127825   1.961   4.666   2.538 -2.1761 -1.3987  2.8501
 9287TIP3    H227826   2.047   4.672   2.663 -2.0220  1.8466  2.6517
 9288TIP3   OH227827   5.365   1.355   1.509  0.2836  0.1624 -0.0716
 9288TIP3    H127828   5.440   1.414   1.500 -0.1929  0.8396  0.3268
 9288TIP3    H227829   5.378   1.312   1.593  0.3173  0.1458 -0.0854
 9289TIP3   OH227830   3.538   0.877   3.892 -0.2088 -0.3358 -0.1845
 9289TIP3    H127831   3.449   0.846   3.873 -0.8802  1.6699 -0.5054
 9289TIP3    H227832   3.525   0.952   3.949  1.4314 -1.4054  1.7270
 9290TIP3   OH227833   2.737   4.932   5.854  0.1176 -0.0985  0.1061
 9290TIP3    H127834   2.792   5.009   5.867 -1.1238  0.9523 -0.7091
 9290TIP3    H227835   2.663   4.945   5.914 -0.1854 -0.5776 -0.1574
 9291TIP3   OH227836   3.659   4.102   5.697 -0.2182 -0.0301  0.0381
 9291TIP3    H127837   3.621   4.190   5.693 -1.6821 -0.6073  0.7357
 9291TIP3    H227838   3.695   4.095   5.786 -1.0814 -0.5159  0.3559
 9292TIP3   OH227839   0.585   0.751   4.454  0.6959 -0.4572  0.2136
 9292TIP3    H127840   0.512   0.698   4.420  2.0139 -1.4140 -1.2566
 9292TIP3    H227841   0.644   0.761   4.379  1.6013  1.1742  1.0949
 9293TIP3   OH227842   5.338   6.360   4.704  0.3601 -0.0747 -0.0902
 9293TIP3    H127843   5.307   6.377   4.616 -0.9424  0.2259  0.4003
 9293TIP3    H227844   5.267   6.389   4.761  0.7224 -1.2510  1.0190
 9294TIP3   OH227845   0.060   1.392   3.485  0.0102  0.4812 -0.6610
 9294TIP3    H127846  -0.010   1.360   3.429  0.1148  0.4588 -0.7803
 9294TIP3    H227847   0.027   1.474   3.520  0.5794  1.3482 -2.0536
 9295TIP3   OH227848   5.752   4.930   4.758 -0.1996 -0.9137 -0.5721
 9295TIP3    H127849   5.751   4.839   4.730  1.0495 -0.7181 -1.3126
 9295TIP3    H227850   5.769   4.980   4.678  1.8212 -0.2380  0.2132
 9296TIP3   OH227851   5.032   2.464   5.546  0.6246  0.5091  0.2160
 9296TIP3    H127852   4.940   2.447   5.569  0.6770 -0.0339  0.0423
 9296TIP3    H227853   5.032   2.472   5.451  0.6711  1.0676  0.2634
 9297TIP3   OH227854   4.977   3.668   0.884 -0.8506 -0.1148  0.1161
 9297TIP3    H127855   4.995   3.632   0.798 -0.1675  0.1140  0.1537
 9297TIP3    H227856   4.934   3.598   0.932 -0.0036 -0.7123  0.0226
 9298TIP3   OH227857   5.887   0.570   2.873 -0.1089 -0.0992  0.5901
 9298TIP3    H127858   5.799   0.606   2.877  0.6953  2.1077 -0.2119
 9298TIP3    H227859   5.936   0.617   2.940  0.5469 -1.0817  0.8243
 9299TIP3   OH227860   5.718   1.567   5.491  0.4877  0.6860  0.2960
 9299TIP3    H127861   5.672   1.559   5.574 -0.6094  1.4537 -0.2099
 9299TIP3    H227862   5.716   1.479   5.453 -1.2083  0.8343 -0.0273
 9300TIP3   OH227863   0.138   3.728   0.066  0.3925  0.3959 -0.4172
 9300TIP3    H127864   0.217   3.776   0.092  0.9051  0.0754 -1.3273
 9300TIP3    H227865   0.142   3.647   0.116  0.7671  0.2803 -0.6298
 9301TIP3   OH227866   6.824   3.266   1.875 -0.2617  0.0105 -0.4591
 9301TIP3    H127867   6.899   3.277   1.817 -0.1315  2.2852  0.0215
 9301TIP3    H227868   6.749   3.294   1.822 -0.4579 -0.1486 -0.2634
 9302TIP3   OH227869   6.799   4.495   5.184 -0.0924 -0.0203  0.3282
 9302TIP3    H127870   6.813   4.481   5.090 -2.2842  2.2351 -0.4397
 9302TIP3    H227871   6.738   4.426   5.209  1.0027 -1.0329  0.3081
 9303TIP3   OH227872   7.064   2.692   4.049 -0.0473  0.0309 -0.0262
 9303TIP3    H127873   7.156   2.707   4.069 -0.2823 -1.1274  2.3049
 9303TIP3    H227874   7.061   2.604   4.012 -0.3320 -0.6858  1.5825
 9304TIP3   OH227875   5.985   0.010   1.421  0.1282  0.8846 -0.0912
 9304TIP3    H127876   6.039   0.066   1.365 -0.8031 -0.8348 -2.8564
 9304TIP3    H227877   5.895   0.032   1.398 -0.2587 -1.0689 -0.5756
 9305TIP3   OH227878   3.809   5.010   1.808  0.0268 -0.1576  0.0652
 9305TIP3    H127879   3.857   4.934   1.842  0.3835 -0.1211 -0.3474
 9305TIP3    H227880   3.870   5.083   1.818 -1.0013  0.4590  2.2281
 9306TIP3   OH227881   5.012   1.866   1.388 -0.1665  0.6397 -0.2052
 9306TIP3    H127882   4.948   1.806   1.428  1.0556 -0.4240  0.2278
 9306TIP3    H227883   5.046   1.918   1.461  0.7184 -0.0176 -0.1319
 9307TIP3   OH227884   0.559   3.394   4.158  0.6160  0.2845  0.1337
 9307TIP3    H127885   0.612   3.450   4.215  0.2314 -0.9413  1.7711
 9307TIP3    H227886   0.503   3.345   4.218 -2.6792  1.7441 -1.5004
 9308TIP3   OH227887   5.566   1.150   5.843 -0.9107 -0.4670 -0.1285
 9308TIP3    H127888   5.567   1.217   5.912 -0.3048 -0.0723 -0.5118
 9308TIP3    H227889   5.492   1.094   5.866 -0.9390 -0.1318  0.6445
 9309TIP3   OH227890   1.161   3.272   2.698  0.4320  0.2048  0.7703
 9309TIP3    H127891   1.098   3.201   2.715  0.9330 -0.0906  1.4053
 9309TIP3    H227892   1.172   3.316   2.782 -2.1400  2.9814 -0.1784
 9310TIP3   OH227893   3.097   3.791   4.663 -0.6020  0.6663  0.1327
 9310TIP3    H127894   3.050   3.766   4.583  0.0140 -1.3025  0.3348
 9310TIP3    H227895   3.181   3.745   4.657 -0.9332 -0.3593  2.3737
 9311TIP3   OH227896   4.146   5.277   5.634  0.1848  0.1738  0.1690
 9311TIP3    H127897   4.075   5.331   5.669 -1.8998 -2.1787 -0.1338
 9311TIP3    H227898   4.176   5.226   5.709  0.9450  0.4871  0.0890
 9312TIP3   OH227899   3.187   1.401   0.774 -0.4474  0.6908  0.0282
 9312TIP3    H127900   3.261   1.344   0.751 -1.4472  0.1332 -1.9933
 9312TIP3    H227901   3.206   1.483   0.729 -0.4904  0.9803  0.5221
 9313TIP3   OH227902   3.393   0.543   3.995 -0.1615 -0.2637  0.0329
 9313TIP3    H127903   3.403   0.454   3.962 -0.8616 -1.0794  1.8760
 9313TIP3    H227904   3.325   0.583   3.940 -1.3211 -1.5721  0.4766
 9314TIP3   OH227905   1.187   4.745   4.399  0.6817 -0.0131  0.1462
 9314TIP3    H127906   1.279   4.748   4.423  0.1943 -2.0291  2.6107
 9314TIP3    H227907   1.141   4.779   4.476 -0.7216 -0.8031 -0.3134
 9315TIP3   OH227908   5.952   6.211   4.736 -0.3383  0.4073  0.1667
 9315TIP3    H127909   5.981   6.161   4.813 -0.4560  0.8919  0.5267
 9315TIP3    H227910   5.878   6.161   4.702  0.3656 -0.3840 -0.2597
 9316TIP3   OH227911   3.396   6.053   0.849  0.9986  0.3341 -0.0848
 9316TIP3    H127912   3.420   6.030   0.938 -0.9447  0.2515  0.4567
 9316TIP3    H227913   3.318   6.001   0.830  0.5704  1.3616 -1.3383
 9317TIP3   OH227914   6.758   3.011   5.481  0.2220  0.4201  0.5694
 9317TIP3    H127915   6.775   2.925   5.519  0.0531  0.9360  1.8832
 9317TIP3    H227916   6.736   2.994   5.389  1.4494 -0.8026  0.4817
 9318TIP3   OH227917   3.223   1.636   1.835  0.3311 -0.1160  0.3051
 9318TIP3    H127918   3.257   1.586   1.909 -0.5656 -1.3461 -0.0861
 9318TIP3    H227919   3.142   1.591   1.810 -1.9676  3.0043  1.5306
 9319TIP3   OH227920   6.490   5.115   4.291 -0.3221  0.3478  0.3983
 9319TIP3    H127921   6.431   5.142   4.361 -1.8816  2.1163 -1.4369
 9319TIP3    H227922   6.573   5.157   4.312  0.0742 -1.3595  2.5115
 9320TIP3   OH227923   3.746   4.956   2.702  0.0630  0.3853  0.3244
 9320TIP3    H127924   3.678   4.894   2.728  0.7472 -0.8235 -0.6586
 9320TIP3    H227925   3.810   4.903   2.655  1.1158  1.7008  0.2210
 9321TIP3   OH227926   2.992   5.886   0.368  0.0818  0.3433 -0.1271
 9321TIP3    H127927   3.013   5.959   0.426 -1.3704  2.0852 -1.6643
 9321TIP3    H227928   3.053   5.896   0.294  0.5649 -0.6560  0.1165
 9322TIP3   OH227929   6.310   1.227   2.817  0.3401  0.1141 -0.0992
 9322TIP3    H127930   6.396   1.268   2.808 -0.2737  1.9513  1.5625
 9322TIP3    H227931   6.252   1.281   2.764  0.1029 -0.8056 -0.7989
 9323TIP3   OH227932   0.201   6.382   2.302  0.4670  0.4706  0.0308
 9323TIP3    H127933   0.229   6.471   2.278 -0.0120  0.0063 -2.6099
 9323TIP3    H227934   0.279   6.340   2.336  1.3055  1.2377 -0.8785
 9324TIP3   OH227935   5.128   4.967   1.942  0.3109  0.5040  0.0387
 9324TIP3    H127936   5.071   4.962   1.865  0.2452  1.2504  0.0367
 9324TIP3    H227937   5.082   4.915   2.008  0.1416  0.2406 -0.2798
 9325TIP3   OH227938   1.418   5.535   4.363 -0.4777  0.1824  0.6562
 9325TIP3    H127939   1.471   5.466   4.323 -0.1373  0.1207  1.2056
 9325TIP3    H227940   1.356   5.560   4.294  0.0400  0.0219  0.1232
 9326TIP3   OH227941   5.929   1.200   0.390  0.2897  0.0549 -0.5871
 9326TIP3    H127942   5.971   1.129   0.438 -0.8360 -0.6750 -0.6276
 9326TIP3    H227943   5.987   1.217   0.315  0.6360 -0.7358 -0.5064
 9327TIP3   OH227944   6.617   5.657   1.904  0.0358 -0.1636  0.9336
 9327TIP3    H127945   6.569   5.737   1.887 -0.0620 -0.2993  0.5624
 9327TIP3    H227946   6.679   5.680   1.973  1.3524  0.7683 -0.4988
 9328TIP3   OH227947   4.661   4.426   4.611 -0.0535  0.0188  0.0088
 9328TIP3    H127948   4.587   4.366   4.606 -1.2322  1.4042  0.0730
 9328TIP3    H227949   4.644   4.478   4.689  0.9684  0.4131 -0.0132
 9329TIP3   OH227950   4.766   1.187   1.535 -0.2051 -0.2985  0.0043
 9329TIP3    H127951   4.807   1.271   1.512 -1.5878  0.2082 -0.7047
 9329TIP3    H227952   4.672   1.202   1.523 -0.7485 -1.1147  2.5564
 9330TIP3   OH227953   2.899   2.211   5.127  0.1524  0.4160  0.4536
 9330TIP3    H127954   2.938   2.248   5.048  0.8384  0.2420  0.7022
 9330TIP3    H227955   2.942   2.126   5.137 -1.7742 -0.7271 -0.4029
 9331TIP3   OH227956   5.655   2.946   0.469 -0.4786  0.8082 -0.1120
 9331TIP3    H127957   5.617   3.016   0.415 -1.1431  0.6651  0.1718
 9331TIP3    H227958   5.608   2.951   0.552 -1.4551 -0.8148 -0.5293
 9332TIP3   OH227959   0.454   6.574   0.017  0.1795 -0.2304  0.2365
 9332TIP3    H127960   0.477   6.541  -0.070  1.0186  1.9517 -0.4312
 9332TIP3    H227961   0.451   6.495   0.072  1.2117 -1.5042 -1.4198
 9333TIP3   OH227962   4.662   0.243   2.623 -0.1763 -0.4159 -0.2152
 9333TIP3    H127963   4.732   0.240   2.558 -1.1633 -1.1424 -1.2836
 9333TIP3    H227964   4.699   0.292   2.696  0.7195  1.1149 -1.6242
 9334TIP3   OH227965   3.210   6.287   4.968  0.0535  0.4348  0.1168
 9334TIP3    H127966   3.268   6.290   4.892 -0.5242 -1.1195 -0.4410
 9334TIP3    H227967   3.132   6.335   4.941  0.0675  0.3485 -0.0788
 9335TIP3   OH227968   7.074   4.198   4.683  0.1682  0.2179 -0.7817
 9335TIP3    H127969   7.144   4.227   4.742 -0.2489  0.4158 -0.3787
 9335TIP3    H227970   7.051   4.277   4.635 -0.6583  0.4685 -0.0021
 9336TIP3   OH227971   1.281   1.877   0.654 -0.3246  0.3423 -0.0690
 9336TIP3    H127972   1.261   1.970   0.667  0.9308  0.7901 -1.0375
 9336TIP3    H227973   1.227   1.850   0.580  0.5252  0.7801 -0.8698
 9337TIP3   OH227974   0.007   5.762   2.453 -0.3492 -0.4213 -0.1406
 9337TIP3    H127975   0.044   5.820   2.519 -0.9190 -0.1939 -0.0130
 9337TIP3    H227976  -0.020   5.684   2.503  0.0272 -0.6226 -0.2460
 9338TIP3   OH227977   5.886   2.636   0.812 -0.1592 -0.1139  0.4041
 9338TIP3    H127978   5.948   2.594   0.873 -0.1891 -1.5022 -0.4600
 9338TIP3    H227979   5.935   2.642   0.730 -1.0728 -1.0599 -0.2430
 9339TIP3   OH227980   1.164   1.381   4.185 -0.2439  0.2792  0.6906
 9339TIP3    H127981   1.108   1.364   4.108  1.1783 -0.9344 -0.1372
 9339TIP3    H227982   1.151   1.304   4.240  0.7986 -0.1578  0.3489
 9340TIP3   OH227983   0.726   3.103   2.228 -0.0451 -0.6508  0.4295
 9340TIP3    H127984   0.642   3.089   2.272  0.6421 -0.6699  1.8017
 9340TIP3    H227985   0.720   3.050   2.149 -0.4148 -2.6885  1.7228
 9341TIP3   OH227986   0.244   2.193   3.416  0.0905  0.1572  0.6280
 9341TIP3    H127987   0.266   2.197   3.323 -0.4846  0.8567  0.5094
 9341TIP3    H227988   0.308   2.251   3.457 -0.8713  1.4380  0.4004
 9342TIP3   OH227989   1.359   6.315   0.275  0.2291 -0.2468  0.5284
 9342TIP3    H127990   1.290   6.259   0.240 -0.1402 -1.1822  2.6279
 9342TIP3    H227991   1.415   6.333   0.199 -0.8813 -1.5949 -0.6800
 9343TIP3   OH227992   1.429   6.394   0.855 -0.4264 -0.1427 -0.2309
 9343TIP3    H127993   1.403   6.369   0.766  0.9822 -0.4577 -0.5806
 9343TIP3    H227994   1.515   6.354   0.867  0.1126  1.2080  0.6835
 9344TIP3   OH227995   6.267   2.825   3.617  0.3254 -0.2606  0.0292
 9344TIP3    H127996   6.255   2.735   3.647 -0.0246  0.5841  2.6412
 9344TIP3    H227997   6.180   2.854   3.591  0.1438 -0.1890  0.7029
 9345TIP3   OH227998   5.633   2.138   1.824  0.2438  0.3725  0.2310
 9345TIP3    H127999   5.611   2.225   1.856  2.3626  1.1238 -0.2038
 9345TIP3    H228000   5.571   2.080   1.867 -0.2622  1.9288  1.6804
 9346TIP3   OH228001   1.805   4.578   0.129 -0.6429 -0.5592  0.7480
 9346TIP3    H128002   1.870   4.611   0.068 -2.3519 -1.1346 -1.4970
 9346TIP3    H228003   1.854   4.517   0.185  1.3671  1.4710  1.3383
 9347TIP3   OH228004   4.480   0.021   3.338  0.8834 -0.5723 -0.4424
 9347TIP3    H128005   4.433  -0.058   3.311  1.3247 -1.2158  0.5799
 9347TIP3    H228006   4.437   0.048   3.419  0.0067  0.9244 -1.3610
 9348TIP3   OH228007   2.487   4.007   2.772 -0.7947 -0.2509  0.1665
 9348TIP3    H128008   2.399   4.030   2.740 -0.3645  0.5713 -0.4772
 9348TIP3    H228009   2.477   3.918   2.807 -1.4322 -0.9890 -1.7622
 9349TIP3   OH228010   4.686   0.298   5.239  0.3083  0.1489  0.1571
 9349TIP3    H128011   4.715   0.311   5.148 -0.0176 -1.4466 -0.1943
 9349TIP3    H228012   4.746   0.232   5.274  0.5403  0.8789  1.1758
 9350TIP3   OH228013   4.958   6.455   5.184 -0.6383  0.7798  0.1316
 9350TIP3    H128014   4.882   6.513   5.179 -1.2151  0.0557  0.3008
 9350TIP3    H228015   4.922   6.369   5.205  0.3516  0.6945  1.6813
 9351TIP3   OH228016   0.332   6.496   0.451  0.2718 -0.3702 -0.3994
 9351TIP3    H128017   0.320   6.407   0.483 -1.1025  0.1584  0.6610
 9351TIP3    H228018   0.364   6.485   0.361  0.0396 -1.9286 -0.3183
 9352TIP3   OH228019   5.216   3.585   2.766 -0.4000  0.1747 -0.6458
 9352TIP3    H128020   5.252   3.638   2.695  2.3689 -0.0452  0.4342
 9352TIP3    H228021   5.186   3.649   2.831 -1.2689  0.3734 -1.2299
 9353TIP3   OH228022   3.241   4.525   1.528 -0.5369  0.4010  0.0604
 9353TIP3    H128023   3.209   4.466   1.461  0.1648 -0.2138  0.2560
 9353TIP3    H228024   3.225   4.613   1.493  0.6402  0.0926 -1.2992
 9354TIP3   OH228025   4.475   6.644   3.868 -0.3347 -0.3716  0.2095
 9354TIP3    H128026   4.513   6.730   3.884 -0.2231 -0.3019 -0.4023
 9354TIP3    H228027   4.445   6.615   3.954 -0.3691  0.2745  0.4243
 9355TIP3   OH228028   1.777   4.320   3.224  0.2448 -0.4891 -0.2954
 9355TIP3    H128029   1.683   4.335   3.239  0.4379  0.8808 -0.3078
 9355TIP3    H228030   1.784   4.308   3.130  0.3782  2.2945 -0.7316
 9356TIP3   OH228031   6.400   6.296   1.434  0.0245  0.0592 -0.1053
 9356TIP3    H128032   6.448   6.353   1.494 -0.3172 -1.2122  1.4638
 9356TIP3    H228033   6.381   6.351   1.358 -0.4680  2.1048  1.3976
 9357TIP3   OH228034   2.045   2.027   4.053 -0.0477  0.3104 -0.0600
 9357TIP3    H128035   1.961   2.059   4.087  0.3192  1.6365 -0.3299
 9357TIP3    H228036   2.108   2.095   4.078  0.7777 -0.2075 -0.6817
 9358TIP3   OH228037   4.669   0.794   5.214  0.0783  0.3680 -0.2347
 9358TIP3    H128038   4.680   0.731   5.285 -0.9115 -0.4843 -0.8143
 9358TIP3    H228039   4.652   0.877   5.258  0.0102 -0.0451  0.5321
 9359TIP3   OH228040   0.486   1.197   5.232 -0.2302  0.0152  0.0994
 9359TIP3    H128041   0.414   1.259   5.242  0.0605  0.2444  0.8944
 9359TIP3    H228042   0.445   1.118   5.198 -0.8562  0.1493  0.5281
 9360TIP3   OH228043   7.091   3.531   1.382 -0.0571  0.3912  0.3346
 9360TIP3    H128044   7.149   3.526   1.457  2.6547 -0.0852 -1.6511
 9360TIP3    H228045   7.045   3.615   1.392  2.1369  1.5556  1.2263
 9361TIP3   OH228046   1.388   0.325   2.790 -0.0373  0.3806 -0.0210
 9361TIP3    H128047   1.386   0.325   2.695 -0.6586 -2.6827 -0.1095
 9361TIP3    H228048   1.338   0.403   2.815 -2.3584 -0.2435 -2.2556
 9362TIP3   OH228049   1.447   5.480   5.388 -0.2750  0.1116  0.4128
 9362TIP3    H128050   1.363   5.441   5.410 -0.3417  0.4931  0.8633
 9362TIP3    H228051   1.446   5.487   5.292 -0.7158  0.0291  0.4077
 9363TIP3   OH228052   1.637   3.215   5.781  0.3625 -0.6052  0.1339
 9363TIP3    H128053   1.567   3.170   5.829 -0.5141  0.2612 -0.2925
 9363TIP3    H228054   1.592   3.259   5.709  1.0350  1.6271  1.0057
 9364TIP3   OH228055   1.900   5.834   5.638  0.2165  0.0546 -0.5102
 9364TIP3    H128056   1.889   5.778   5.561 -0.3249  1.6987 -1.7004
 9364TIP3    H228057   1.994   5.848   5.645  0.3355 -0.7840 -0.3456
 9365TIP3   OH228058   1.914   6.645   5.116  0.7381 -0.0323  0.8768
 9365TIP3    H128059   1.872   6.657   5.201  1.2391  1.6896  0.9127
 9365TIP3    H228060   1.951   6.557   5.120 -0.4133 -0.4986  1.9005
 9366TIP3   OH228061   3.515   6.193   4.187 -0.6700 -0.1698 -0.3314
 9366TIP3    H128062   3.565   6.271   4.162 -0.7995 -0.1358 -0.4864
 9366TIP3    H228063   3.529   6.185   4.281 -1.3926  0.5619 -0.1505
 9367TIP3   OH228064   5.436   0.842   5.324 -0.8578  0.2675  0.0091
 9367TIP3    H128065   5.399   0.927   5.301  0.2049  0.4279 -1.2219
 9367TIP3    H228066   5.430   0.838   5.420 -3.1572  0.6488 -0.0794
 9368TIP3   OH228067   1.069   0.557   2.321  0.9097 -0.1334  0.3539
 9368TIP3    H128068   1.065   0.567   2.416  0.1297 -3.2037  0.7714
 9368TIP3    H228069   1.067   0.462   2.307 -0.5460  0.2177 -2.7900
 9369TIP3   OH228070   5.874   1.772   2.143 -0.6009 -0.5690  0.6828
 9369TIP3    H128071   5.815   1.716   2.193 -0.3013 -0.8814  0.6902
 9369TIP3    H228072   5.962   1.738   2.163 -0.5256 -1.4198 -0.9059
 9370TIP3   OH228073   6.802   5.052   5.727 -0.2628 -0.0434  0.4418
 9370TIP3    H128074   6.729   5.098   5.769  0.0080  0.4290  0.4004
 9370TIP3    H228075   6.877   5.112   5.737  0.2119 -0.6847  0.8174
 9371TIP3   OH228076   1.190   0.040   5.695  0.1067 -0.0421 -0.2621
 9371TIP3    H128077   1.166   0.131   5.710  4.2757  1.1007  0.8703
 9371TIP3    H228078   1.191   0.001   5.783  0.0164 -0.6884 -0.5404
 9372TIP3   OH228079   0.766   6.023   5.629 -0.0015 -0.0701 -0.1613
 9372TIP3    H128080   0.854   5.986   5.639  0.5471  1.2320  0.1044
 9372TIP3    H228081   0.780   6.104   5.580 -1.1317 -0.1216 -0.5779
 9373TIP3   OH228082   5.083   3.759   4.886  0.3055 -0.3301  0.7007
 9373TIP3    H128083   5.034   3.821   4.832  1.0169  0.5356  1.0123
 9373TIP3    H228084   5.059   3.673   4.853  1.6979  0.1803 -1.9129
 9374TIP3   OH228085   7.141   3.106   1.946  0.6041  0.2144  0.8974
 9374TIP3    H128086   7.082   3.031   1.935  1.8942 -0.7740  0.3258
 9374TIP3    H228087   7.204   3.076   2.011  1.9307  0.2587 -0.3145
 9375TIP3   OH228088   4.064   4.181   1.711 -0.0989  0.2230 -0.5232
 9375TIP3    H128089   4.039   4.124   1.638 -0.8743 -0.1270  0.0038
 9375TIP3    H228090   4.157   4.200   1.695  0.4262 -1.8668 -0.2787
 9376TIP3   OH228091   3.328   2.045   1.279  0.3957  0.0252  0.2525
 9376TIP3    H128092   3.417   2.013   1.292  0.2569 -0.3340  0.3269
 9376TIP3    H228093   3.305   2.085   1.364  0.9630  1.3189 -0.1712
 9377TIP3   OH228094   2.527   5.065   2.415  0.1819 -0.4711  0.4418
 9377TIP3    H128095   2.605   5.010   2.410  0.2924 -0.3818  1.0229
 9377TIP3    H228096   2.456   5.009   2.384  0.7282  0.0109 -1.7937
 9378TIP3   OH228097   0.512   6.388   5.468 -0.3047 -0.2501  0.6913
 9378TIP3    H128098   0.443   6.365   5.530 -1.2179  0.3332 -0.0620
 9378TIP3    H228099   0.560   6.459   5.511 -0.9390  0.1608  0.7482
 9379TIP3   OH228100   0.146   4.711   0.384  0.1840 -0.3708 -0.4203
 9379TIP3    H128101   0.127   4.796   0.424  3.0951  2.3712 -4.1077
 9379TIP3    H228102   0.101   4.713   0.300 -0.5441 -3.0461 -0.1781
 9380TIP3   OH228103   5.337   3.556   4.624 -0.3627 -0.1643 -1.0290
 9380TIP3    H128104   5.244   3.572   4.608 -0.1020  2.1563 -0.5292
 9380TIP3    H228105   5.380   3.639   4.603  1.3169 -0.4566  0.9448
 9381TIP3   OH228106   0.405   0.897   0.460 -0.1097  0.2597 -0.1569
 9381TIP3    H128107   0.367   0.809   0.461  2.1339 -0.8194 -1.5531
 9381TIP3    H228108   0.375   0.938   0.541 -3.2606 -0.8451 -0.6376
 9382TIP3   OH228109   1.693   4.581   0.456 -0.1296 -0.2580 -0.3423
 9382TIP3    H128110   1.637   4.510   0.425 -0.0339 -0.3406 -0.3300
 9382TIP3    H228111   1.635   4.640   0.504 -0.3233  0.0039 -0.8966
 9383TIP3   OH228112   6.863   3.345   5.141  0.1713  0.3833 -0.7198
 9383TIP3    H128113   6.841   3.436   5.122 -0.3982  0.2212 -0.8546
 9383TIP3    H228114   6.912   3.349   5.223 -0.5204  0.7424 -0.3187
 9384TIP3   OH228115   4.860   4.749   5.305 -0.3979 -0.8269 -0.8351
 9384TIP3    H128116   4.919   4.695   5.358 -0.6371 -2.8995 -2.5493
 9384TIP3    H228117   4.916   4.789   5.239 -0.3730  0.3647 -0.1309
 9385TIP3   OH228118   0.530   1.015   5.534 -0.2548 -0.1158 -0.2343
 9385TIP3    H128119   0.509   1.067   5.611 -0.4376  0.7288 -0.8293
 9385TIP3    H228120   0.502   1.070   5.460 -0.2311 -0.9658 -0.8925
 9386TIP3   OH228121   6.818   2.800   3.365  0.1206 -0.1080  0.2521
 9386TIP3    H128122   6.883   2.852   3.413  0.8368 -0.3929 -0.3939
 9386TIP3    H228123   6.843   2.709   3.382 -0.8132 -0.2564  0.9480
 9387TIP3   OH228124   7.151   5.743   5.812 -0.4483 -0.0241 -0.1451
 9387TIP3    H128125   7.193   5.809   5.868  0.0527 -1.3342  1.0775
 9387TIP3    H228126   7.223   5.690   5.779 -0.9615 -0.9944  0.2532
 9388TIP3   OH228127   3.355   3.279   1.464  0.9783 -0.3863 -0.0509
 9388TIP3    H128128   3.275   3.285   1.516  0.4048  1.6596 -1.0624
 9388TIP3    H228129   3.326   3.242   1.380  0.7379  1.7250 -0.9590
 9389TIP3   OH228130   5.598   3.841   2.729  0.0979  0.4466 -0.0761
 9389TIP3    H128131   5.590   3.835   2.633 -2.3781 -0.9415  0.1217
 9389TIP3    H228132   5.614   3.751   2.757 -0.1624  0.6867  0.8767
 9390TIP3   OH228133   7.070   6.584   5.409  0.1033  0.1945  0.5291
 9390TIP3    H128134   6.992   6.547   5.367 -0.0371  0.4257  0.5815
 9390TIP3    H228135   7.143   6.540   5.366 -0.0138  0.9492 -0.4968
 9391TIP3   OH228136   2.907   3.433   1.518 -0.5383  0.0840 -0.2355
 9391TIP3    H128137   2.885   3.441   1.611  0.1348  0.6190 -0.1070
 9391TIP3    H228138   2.838   3.378   1.481 -1.5079  0.8941  0.3285
 9392TIP3   OH228139   4.680   5.348   1.179 -0.1257 -0.5919  0.0826
 9392TIP3    H128140   4.752   5.309   1.130  1.1006  2.2864 -0.6636
 9392TIP3    H228141   4.723   5.408   1.240 -1.8045 -1.3116  2.0891
 9393TIP3   OH228142   5.409   2.578   1.653 -0.0950  0.5283  0.1611
 9393TIP3    H128143   5.403   2.589   1.558  0.6974  0.7968  0.1301
 9393TIP3    H228144   5.499   2.547   1.667 -0.2133  0.4788  0.8236
 9394TIP3   OH228145   2.815   0.857   3.959 -0.2203  0.2903 -0.2252
 9394TIP3    H128146   2.873   0.876   3.885 -1.5884 -0.3154 -1.4947
 9394TIP3    H228147   2.727   0.873   3.926 -1.0245 -1.9591  0.6119
 9395TIP3   OH228148   2.516   4.380   3.221  0.1396 -0.2194 -0.3407
 9395TIP3    H128149   2.480   4.380   3.310  2.3462 -0.1807  0.6187
 9395TIP3    H228150   2.609   4.359   3.233  0.1371 -2.0231 -2.8197
 9396TIP3   OH228151   0.102   6.634   5.139 -0.3330  0.3605  0.9888
 9396TIP3    H128152   0.076   6.550   5.178  0.8055 -1.3498 -1.5828
 9396TIP3    H228153   0.192   6.646   5.168  0.6956 -1.1788 -1.2585
 9397TIP3   OH228154   5.475   1.928   3.638  0.0132 -0.1389 -0.0224
 9397TIP3    H128155   5.386   1.954   3.614  0.2453  1.7093  1.0163
 9397TIP3    H228156   5.463   1.861   3.705 -0.5886 -0.0787 -0.0634
 9398TIP3   OH228157   1.175   4.539   5.629 -0.3664  0.4572 -0.7148
 9398TIP3    H128158   1.234   4.564   5.558  0.4754  0.2482 -0.1024
 9398TIP3    H228159   1.158   4.446   5.614  0.2991  0.2663 -0.2997
 9399TIP3   OH228160   0.659   1.858   4.917 -0.2826 -0.0613 -0.2904
 9399TIP3    H128161   0.680   1.766   4.927  0.0693  0.1576  1.2593
 9399TIP3    H228162   0.663   1.874   4.822 -0.7754 -1.7122 -0.6142
 9400TIP3   OH228163   2.486   3.381   5.138 -0.1780 -0.1256 -0.0610
 9400TIP3    H128164   2.460   3.293   5.165 -0.6930 -0.1491 -0.5971
 9400TIP3    H228165   2.437   3.439   5.196  1.0767 -0.1778  1.1080
 9401TIP3   OH228166   4.448   6.375   0.737  0.1181  0.1479  0.1128
 9401TIP3    H128167   4.428   6.468   0.752 -0.1679  0.2734 -0.9765
 9401TIP3    H228168   4.530   6.377   0.687  0.5831 -0.2265  0.8476
 9402TIP3   OH228169   1.868   1.797   3.266 -0.2806  0.3231 -0.0536
 9402TIP3    H128170   1.909   1.819   3.350  1.0527 -0.8119 -0.3805
 9402TIP3    H228171   1.941   1.790   3.205 -1.2856  1.8072 -1.5061
 9403TIP3   OH228172   5.954   3.720   5.830  0.8597 -0.6069 -0.2748
 9403TIP3    H128173   5.892   3.677   5.770  1.9709 -0.7356 -1.3757
 9403TIP3    H228174   5.999   3.647   5.873  2.1981 -0.5915 -1.5690
 9404TIP3   OH228175   4.674   4.760   0.192 -0.1923  0.1328  0.0847
 9404TIP3    H128176   4.651   4.815   0.268 -0.5886 -0.1803  0.1939
 9404TIP3    H228177   4.715   4.821   0.131  1.0184  0.2148  0.9360
 9405TIP3   OH228178   3.142   6.784   0.828 -0.3798  0.9485 -0.5116
 9405TIP3    H128179   3.207   6.838   0.872 -0.4138  1.2767 -0.8618
 9405TIP3    H228180   3.178   6.769   0.741 -0.3462  0.3602 -0.4042
 9406TIP3   OH228181   4.753   3.092   5.527 -0.2820  0.3133  0.1705
 9406TIP3    H128182   4.792   3.057   5.607 -1.3714 -1.4037 -0.0000
 9406TIP3    H228183   4.824   3.089   5.463  0.1891  0.2941  0.6826
 9407TIP3   OH228184   3.298   4.934   2.243  0.1413  0.0960  0.4113
 9407TIP3    H128185   3.331   4.919   2.155  0.7846  1.0307  0.4747
 9407TIP3    H228186   3.370   4.908   2.300  0.4209  1.2045  0.5881
 9408TIP3   OH228187   2.936   2.113   4.684 -0.5263  0.1950  0.1888
 9408TIP3    H128188   2.977   2.027   4.687 -0.4980  0.1779 -0.4896
 9408TIP3    H228189   2.942   2.139   4.592 -1.6960  0.3593  0.1481
 9409TIP3   OH228190   2.120   0.849   3.898  0.1081  0.3119 -0.0456
 9409TIP3    H128191   2.059   0.918   3.926 -2.4959 -1.2290 -1.5306
 9409TIP3    H228192   2.064   0.773   3.882  2.7754 -1.9592  0.7744
 9410TIP3   OH228193   0.580   4.286   3.080 -0.0716 -0.2361  0.2166
 9410TIP3    H128194   0.675   4.277   3.078  0.0394  0.7707  0.4013
 9410TIP3    H228195   0.562   4.339   3.158 -0.7803 -0.3482  0.1406
 9411TIP3   OH228196   5.814   5.752   1.743 -0.1016  0.0111 -0.4288
 9411TIP3    H128197   5.730   5.775   1.782 -0.0479  0.2575 -0.4546
 9411TIP3    H228198   5.854   5.692   1.805 -0.0440  0.3482 -0.1337
 9412TIP3   OH228199   6.849   6.183   3.922 -0.2884 -0.1910  0.3344
 9412TIP3    H128200   6.793   6.161   3.997 -0.4967 -2.2146 -0.3402
 9412TIP3    H228201   6.924   6.227   3.961 -1.1001  0.1633  1.5626
 9413TIP3   OH228202   6.215   0.388   0.242 -0.1439  0.0071  0.1025
 9413TIP3    H128203   6.133   0.340   0.248 -0.6255  0.8693  0.7637
 9413TIP3    H228204   6.188   0.480   0.241  0.8476  0.3359  1.3410
 9414TIP3   OH228205   6.902   6.303   1.754  0.1798 -0.0739  0.0520
 9414TIP3    H128206   6.887   6.239   1.684 -0.6757  0.2186 -0.0382
 9414TIP3    H228207   6.878   6.257   1.834  1.0622 -0.3746  0.1587
 9415TIP3   OH228208   6.614   1.262   0.172 -0.0473 -0.1869 -0.4350
 9415TIP3    H128209   6.603   1.173   0.140  1.1634 -0.6080  0.2769
 9415TIP3    H228210   6.628   1.314   0.093 -1.4485 -0.4805 -0.9169
 9416TIP3   OH228211   2.377   5.350   5.749  0.0981  0.2185 -0.0505
 9416TIP3    H128212   2.398   5.431   5.795 -0.7089  0.3661  0.0685
 9416TIP3    H228213   2.445   5.342   5.682  0.5157  0.6856  0.3117
 9417TIP3   OH228214   0.357   4.773   1.422 -0.1740 -0.1289  0.1360
 9417TIP3    H128215   0.450   4.779   1.442 -0.1763 -0.2108  0.1704
 9417TIP3    H228216   0.321   4.856   1.454 -0.2911 -0.5302  1.0843
 9418TIP3   OH228217   1.092   0.342   1.849 -0.1795 -0.2248 -0.1007
 9418TIP3    H128218   0.999   0.321   1.842 -0.5794  1.1229  0.9080
 9418TIP3    H228219   1.125   0.288   1.920 -0.8907  1.4019  1.5372
 9419TIP3   OH228220   6.979   2.594   2.862  0.3118  0.1128  0.0144
 9419TIP3    H128221   6.990   2.648   2.940  2.8874 -0.5758  0.2173
 9419TIP3    H228222   7.008   2.650   2.790  0.7074 -0.1790 -0.0610
 9420TIP3   OH228223   1.438   2.259   1.819 -0.1870 -0.0344 -0.1439
 9420TIP3    H128224   1.371   2.308   1.867  0.8297  1.9514 -0.6407
 9420TIP3    H228225   1.498   2.228   1.887  1.8850  3.7389  0.0439
 9421TIP3   OH228226   5.756   1.546   4.153 -0.4581 -0.0796 -0.6210
 9421TIP3    H128227   5.706   1.627   4.142  0.4103  0.4560 -0.7971
 9421TIP3    H228228   5.847   1.576   4.158 -0.2990 -0.8047  1.9236
 9422TIP3   OH228229   0.878   5.785   0.968  0.0768 -0.2456 -0.2841
 9422TIP3    H128230   0.851   5.801   0.877  0.0768  0.3324 -0.1860
 9422TIP3    H228231   0.932   5.861   0.990 -0.8724  0.1881  0.5775
 9423TIP3   OH228232   1.315   1.976   3.619  0.7117 -0.5004  0.0199
 9423TIP3    H128233   1.273   2.061   3.610  1.5073  0.0940  1.4995
 9423TIP3    H228234   1.243   1.913   3.619 -0.1851  0.4295  1.8853
 9424TIP3   OH228235   4.951   4.545   3.650 -0.6345 -0.1995 -0.0407
 9424TIP3    H128236   5.001   4.577   3.725 -0.5507 -0.2772 -0.0630
 9424TIP3    H228237   5.010   4.557   3.575 -0.3417 -1.0319  0.0463
 9425TIP3   OH228238   3.452   4.803   4.325  0.5478  0.5375 -1.0984
 9425TIP3    H128239   3.412   4.780   4.241  0.1255 -0.6754 -0.5912
 9425TIP3    H228240   3.380   4.840   4.376  0.9020  1.6761 -1.4130
 9426TIP3   OH228241   5.724   2.986   2.490 -0.2462 -0.6062  0.4788
 9426TIP3    H128242   5.793   3.004   2.553  3.6271 -2.2486 -2.8669
 9426TIP3    H228243   5.687   2.902   2.518  1.4531 -1.3423  0.6571
 9427TIP3   OH228244   3.482   6.731   2.958  0.1175  0.3534  0.1501
 9427TIP3    H128245   3.419   6.802   2.949 -0.1809  0.0071 -0.5276
 9427TIP3    H228246   3.430   6.656   2.986  0.5439  0.5756  1.6581
 9428TIP3   OH228247   7.109   1.998   0.678  0.1811 -0.7240  0.2243
 9428TIP3    H128248   7.015   2.007   0.662  0.2665 -0.1399  0.0268
 9428TIP3    H228249   7.129   2.063   0.745  0.5778 -0.3205 -0.2768
 9429TIP3   OH228250   6.971   6.540   1.623  0.1494 -0.4386  0.1720
 9429TIP3    H128251   7.055   6.558   1.665  0.0935 -1.3167  0.6875
 9429TIP3    H228252   6.953   6.449   1.645 -0.1054 -0.7823 -1.3782
 9430TIP3   OH228253   5.484   5.905   3.212 -0.5976 -0.5549 -0.2084
 9430TIP3    H128254   5.546   5.833   3.228  0.9864  0.8896  0.5405
 9430TIP3    H228255   5.416   5.866   3.157 -0.6028 -3.0024  1.3484
 9431TIP3   OH228256   5.666   3.484   5.456 -0.6981  0.6398 -0.1282
 9431TIP3    H128257   5.715   3.505   5.376  0.2986 -0.3262  0.1957
 9431TIP3    H228258   5.593   3.430   5.425 -0.3462  0.3113 -0.4063
 9432TIP3   OH228259   3.783   0.230   5.057  0.1600 -0.5775  0.3983
 9432TIP3    H128260   3.749   0.316   5.079  1.7323  0.1075  0.2840
 9432TIP3    H228261   3.847   0.246   4.988 -0.0135 -1.9250 -0.1022
 9433TIP3   OH228262   6.184   4.276   0.987  0.0874 -0.6879  0.3951
 9433TIP3    H128263   6.126   4.332   0.935 -0.2732 -1.1242  0.3216
 9433TIP3    H228264   6.126   4.234   1.051  0.4270 -0.6396  0.7379
 9434TIP3   OH228265   3.718   3.818   5.572  0.5453  0.7101  0.0569
 9434TIP3    H128266   3.774   3.819   5.650 -1.1955 -0.3314  1.3810
 9434TIP3    H228267   3.645   3.874   5.594 -0.9497 -1.1109 -0.0205
 9435TIP3   OH228268   5.417   6.567   3.330 -0.2456 -0.1016  0.5012
 9435TIP3    H128269   5.444   6.477   3.310  0.8218  0.4017 -0.4666
 9435TIP3    H228270   5.467   6.590   3.408  1.0138  0.2864 -0.3784
 9436TIP3   OH228271   5.503   1.246   4.642 -0.0170  0.2538 -0.7491
 9436TIP3    H128272   5.532   1.178   4.581  2.3199 -1.0939  1.6013
 9436TIP3    H228273   5.472   1.317   4.587  0.4428 -1.4685 -3.4141
 9437TIP3   OH228274   6.427   5.110   5.573  0.3987  0.0960 -0.2813
 9437TIP3    H128275   6.468   5.194   5.553  0.2402  0.2788  0.1374
 9437TIP3    H228276   6.337   5.133   5.598  0.1055 -0.2766 -0.9691
 9438TIP3   OH228277   6.832   3.537   3.636 -0.5674  0.3121  0.5477
 9438TIP3    H128278   6.821   3.493   3.551 -2.3391  0.9542  0.3889
 9438TIP3    H228279   6.926   3.535   3.652  0.0145  1.3604 -2.0923
 9439TIP3   OH228280   0.450   2.850   2.052  0.5954 -0.4587 -0.0439
 9439TIP3    H128281   0.466   2.756   2.038  1.7513  0.0386 -2.7853
 9439TIP3    H228282   0.529   2.893   2.019  0.2369  1.4967  1.4829
 9440TIP3   OH228283   6.687   6.458   2.814 -0.0257 -0.1765 -0.3336
 9440TIP3    H128284   6.622   6.480   2.882 -0.1061 -1.3487 -0.0120
 9440TIP3    H228285   6.637   6.462   2.732  0.3902  2.6572 -0.5503
 9441TIP3   OH228286   3.380   2.045   1.571 -0.1310 -0.3628  0.9898
 9441TIP3    H128287   3.304   1.990   1.587 -0.6016  0.4839  1.7869
 9441TIP3    H228288   3.357   2.130   1.609  0.3801  0.5443 -0.6173
 9442TIP3   OH228289   4.950   3.103   5.316 -0.4358 -0.1978 -0.4851
 9442TIP3    H128290   4.897   3.075   5.241 -0.3606 -1.6696 -0.0194
 9442TIP3    H228291   5.014   3.033   5.327  0.2866  0.5654  0.2530
 9443TIP3   OH228292   3.696   1.781   4.237  0.1451 -0.2669 -0.0629
 9443TIP3    H128293   3.603   1.766   4.224 -1.1163  3.0054  3.4217
 9443TIP3    H228294   3.719   1.727   4.313 -0.1154  1.9824  1.7215
 9444TIP3   OH228295   1.565   1.602   5.426 -0.6567  0.6290 -0.0443
 9444TIP3    H128296   1.655   1.622   5.399 -0.4856 -0.0157  0.0435
 9444TIP3    H228297   1.511   1.625   5.351 -0.4273  1.0987 -0.0666
 9445TIP3   OH228298   1.374   0.458   2.186  0.3367 -0.3029  0.1491
 9445TIP3    H128299   1.387   0.522   2.256 -0.0573  1.1571 -1.0734
 9445TIP3    H228300   1.336   0.508   2.114  0.2046 -1.8816 -0.9248
 9446TIP3   OH228301   1.946   4.727   2.162 -0.2345 -0.3698  0.0555
 9446TIP3    H128302   1.871   4.786   2.156  0.9303  1.1423 -0.0865
 9446TIP3    H228303   1.910   4.647   2.200 -1.3810  1.3413  2.9399
 9447TIP3   OH228304   3.401   2.772   1.016  0.3867  0.0407  0.0985
 9447TIP3    H128305   3.455   2.731   0.949  1.5672  0.8669  0.5201
 9447TIP3    H228306   3.387   2.703   1.081 -0.5411 -0.6860 -0.8113
 9448TIP3   OH228307   3.432   0.723   2.583 -0.6401  0.1562 -0.2714
 9448TIP3    H128308   3.474   0.766   2.508 -1.5447  0.9778 -0.3319
 9448TIP3    H228309   3.424   0.631   2.557  0.0251  0.2251 -0.7383
 9449TIP3   OH228310   2.422   4.097   3.089  0.5333 -0.7713  0.7822
 9449TIP3    H128311   2.514   4.121   3.085  0.1480  0.5755 -1.0264
 9449TIP3    H228312   2.411   4.032   3.020 -0.2438  0.5861 -0.4226
 9450TIP3   OH228313   0.067   3.943   1.809 -0.1886 -0.3019 -0.3827
 9450TIP3    H128314   0.044   3.906   1.895  0.0925 -1.2956 -0.7290
 9450TIP3    H228315   0.019   3.889   1.746 -1.2298  1.0762 -0.8187
 9451TIP3   OH228316   5.763   1.827   1.613  0.4464 -0.6065  0.1316
 9451TIP3    H128317   5.799   1.819   1.701  1.8089 -2.3565 -0.5348
 9451TIP3    H228318   5.699   1.899   1.619  0.9858 -0.2656  2.3600
 9452TIP3   OH228319   6.280   3.992   1.894 -0.0892  0.0580 -0.2347
 9452TIP3    H128320   6.203   4.048   1.880 -0.3159  0.3115  1.7016
 9452TIP3    H228321   6.246   3.903   1.888 -0.6258  0.1672  0.8183
 9453TIP3   OH228322   3.233   2.236   1.740  0.3944  0.0877 -0.2612
 9453TIP3    H128323   3.140   2.213   1.739 -0.0192  1.5609  0.8163
 9453TIP3    H228324   3.267   2.193   1.819 -0.0091  1.6700  0.8284
 9454TIP3   OH228325   2.361   2.709   2.116  0.5067  0.2233  0.1399
 9454TIP3    H128326   2.293   2.703   2.049  0.9682  2.2164 -0.5742
 9454TIP3    H228327   2.433   2.755   2.073  1.3582  0.3244  1.6120
 9455TIP3   OH228328   0.645   0.763   5.557 -0.3231 -0.0635  0.4024
 9455TIP3    H128329   0.631   0.857   5.559  0.0815 -0.0107  2.6662
 9455TIP3    H228330   0.575   0.727   5.611 -1.8319 -1.3318 -2.1791
 9456TIP3   OH228331   1.304   5.101   1.879  0.0156 -0.3168  0.1247
 9456TIP3    H128332   1.275   5.078   1.968  2.2943  1.4472  1.4392
 9456TIP3    H228333   1.248   5.174   1.854  0.6702  0.5219  1.0162
 9457TIP3   OH228334   2.636   1.597   4.875  0.1805 -0.8252  1.0337
 9457TIP3    H128335   2.729   1.614   4.889  0.4907 -1.9467  0.4091
 9457TIP3    H228336   2.614   1.529   4.939  0.3060 -2.0482 -0.1724
 9458TIP3   OH228337   1.673   5.380   3.712  0.2723  0.0301 -1.1323
 9458TIP3    H128338   1.761   5.367   3.747  0.8265  1.1452 -2.0418
 9458TIP3    H228339   1.678   5.345   3.622 -0.5821 -1.0506 -0.7781
 9459TIP3   OH228340   4.287   1.118   0.759  0.0420  0.1838  0.2633
 9459TIP3    H128341   4.224   1.183   0.727  0.0045 -0.0392 -0.1224
 9459TIP3    H228342   4.372   1.160   0.746  0.0811 -0.2126 -0.9014
 9460TIP3   OH228343   1.313   4.322   5.250  0.3170  0.1428  0.3224
 9460TIP3    H128344   1.218   4.328   5.246  0.2383 -1.0990 -0.2565
 9460TIP3    H228345   1.332   4.307   5.342 -0.1926 -1.1995  0.2382
 9461TIP3   OH228346   2.592   2.613   5.104 -0.1634  0.2780  0.2204
 9461TIP3    H128347   2.535   2.538   5.084 -2.7072  2.4092 -1.1486
 9461TIP3    H228348   2.577   2.630   5.196  0.1350 -0.6344  0.4488
 9462TIP3   OH228349   1.976   2.219   3.833 -0.3679  0.0255  0.4433
 9462TIP3    H128350   2.020   2.168   3.902  0.7920  0.5694  0.1284
 9462TIP3    H228351   1.996   2.172   3.752  1.1680  1.2149  0.0803
 9463TIP3   OH228352   6.438   1.929   4.227 -0.2151  0.2652 -0.1489
 9463TIP3    H128353   6.501   1.999   4.209 -0.1011  0.4244  0.8253
 9463TIP3    H228354   6.471   1.887   4.306 -1.6796  0.7813  0.7659
 9464TIP3   OH228355   2.374   0.025   5.509  0.6777 -0.3508  0.4723
 9464TIP3    H128356   2.470   0.035   5.511  0.7328 -0.4980 -0.5384
 9464TIP3    H228357   2.360  -0.060   5.467  0.0953  0.1751 -0.4328
 9465TIP3   OH228358   5.836   5.044   2.160 -0.1342  0.1842 -0.3201
 9465TIP3    H128359   5.885   5.123   2.181 -0.3846  0.1439  0.4449
 9465TIP3    H228360   5.788   5.023   2.240 -1.4908  0.2929 -1.0823
 9466TIP3   OH228361   2.042   5.538   4.857  0.4350  0.3403 -0.2399
 9466TIP3    H128362   2.134   5.558   4.839  0.2326  0.2530 -1.5198
 9466TIP3    H228363   2.034   5.545   4.952  2.4376 -2.4091  0.2877
 9467TIP3   OH228364   3.390   3.621   2.208 -0.1520 -0.0624 -0.6971
 9467TIP3    H128365   3.397   3.688   2.276  2.2901  1.9262 -2.7371
 9467TIP3    H228366   3.404   3.538   2.254 -1.3065  0.9249  1.5923
 9468TIP3   OH228367   4.462   4.854   3.523 -0.4113  0.0586 -0.2214
 9468TIP3    H128368   4.533   4.881   3.464 -0.4490 -0.4908 -0.5326
 9468TIP3    H228369   4.483   4.894   3.607  0.5747 -0.5645 -0.1631
 9469TIP3   OH228370   4.769   5.254   5.399 -0.0938  0.3258  0.3727
 9469TIP3    H128371   4.794   5.217   5.315  0.5918  2.0823 -0.2275
 9469TIP3    H228372   4.688   5.208   5.422  0.1475 -0.7524 -0.8312
 9470TIP3   OH228373   3.721   2.896   2.782 -0.2957 -0.2617  0.2260
 9470TIP3    H128374   3.714   2.938   2.868 -1.0007  0.4691 -0.1710
 9470TIP3    H228375   3.815   2.884   2.768 -0.1992 -0.7542  1.2643
 9471TIP3   OH228376   3.070   5.103   2.376  0.1019  0.3086  0.4202
 9471TIP3    H128377   3.158   5.064   2.374 -0.4875 -1.0703 -0.7432
 9471TIP3    H228378   3.049   5.117   2.283 -2.1229 -2.3623  0.4061
 9472TIP3   OH228379   1.597   1.348   0.624 -0.0885 -0.1459 -0.0433
 9472TIP3    H128380   1.663   1.370   0.690 -0.5181 -0.2534  0.4302
 9472TIP3    H228381   1.639   1.367   0.541  0.9223 -1.1928  0.2003
 9473TIP3   OH228382   1.824   2.958   1.215 -0.1434  0.3520 -0.2647
 9473TIP3    H128383   1.773   2.967   1.135  0.3620 -0.9076 -0.7554
 9473TIP3    H228384   1.902   3.011   1.199 -0.7231  1.2948 -0.0029
 9474TIP3   OH228385   2.255   4.897   2.910 -0.1112 -0.5162  0.3364
 9474TIP3    H128386   2.170   4.928   2.881  0.3462  0.7979  0.3368
 9474TIP3    H228387   2.235   4.828   2.974 -1.1677  0.0139  0.5992
 9475TIP3   OH228388   0.063   2.134   5.197 -0.0370  0.2114 -0.3118
 9475TIP3    H128389   0.148   2.105   5.164  0.4550  1.2250  0.0117
 9475TIP3    H228390   0.039   2.206   5.139 -0.5552  0.0920 -0.2461
 9476TIP3   OH228391   6.394   5.481   4.740 -0.5358 -0.2461  0.1357
 9476TIP3    H128392   6.403   5.389   4.714 -1.9937 -0.0652 -1.1719
 9476TIP3    H228393   6.481   5.518   4.726 -0.2204 -1.1699 -0.4618
 9477TIP3   OH228394   2.089   2.051   3.320 -0.2944 -0.1429 -0.1382
 9477TIP3    H128395   2.184   2.052   3.309 -0.1824  0.4232  0.8198
 9477TIP3    H228396   2.073   1.983   3.385 -0.6622 -1.0512 -1.1378
 9478TIP3   OH228397   6.923   3.285   0.174  0.4751 -0.0489  0.2075
 9478TIP3    H128398   6.908   3.202   0.219  1.6490 -0.3785  0.0397
 9478TIP3    H228399   6.912   3.352   0.242 -1.2687 -0.2556  0.1675
 9479TIP3   OH228400   3.138   6.193   0.459  0.4271  0.7224 -0.0911
 9479TIP3    H128401   3.091   6.251   0.518  0.6443  0.4192  0.3872
 9479TIP3    H228402   3.195   6.142   0.516  0.8748  0.6459 -0.5936
 9480TIP3   OH228403   0.148   2.779   1.197 -0.3348 -0.2041  0.2756
 9480TIP3    H128404   0.082   2.786   1.267 -0.3249 -0.0087  0.2662
 9480TIP3    H228405   0.097   2.773   1.116 -0.3919  3.0085 -0.0652
 9481TIP3   OH228406   7.019   1.614   3.510 -0.5232  0.0561 -0.7141
 9481TIP3    H128407   6.968   1.691   3.486  0.3473  0.9164  0.0994
 9481TIP3    H228408   7.043   1.629   3.601  1.4703 -0.1192 -1.1535
 9482TIP3   OH228409   5.548   6.145   1.003 -0.0607 -0.4767 -0.4612
 9482TIP3    H128410   5.621   6.138   1.066  0.8888 -1.7434 -1.6399
 9482TIP3    H228411   5.578   6.095   0.927 -1.6429  0.1023 -1.4953
 9483TIP3   OH228412   0.859   4.831   3.608  0.0555 -1.0099  0.6379
 9483TIP3    H128413   0.942   4.845   3.653  0.5272 -1.3790 -0.0858
 9483TIP3    H228414   0.865   4.741   3.574  0.5660 -0.1216 -1.8408
 9484TIP3   OH228415   4.123   0.579   3.027  0.1104  0.2859  0.2549
 9484TIP3    H128416   4.039   0.607   3.064 -0.1067  0.6394 -0.4775
 9484TIP3    H228417   4.121   0.483   3.033 -0.5065  0.2723 -0.0814
 9485TIP3   OH228418   7.133   0.637   1.764 -0.7649  0.2673 -0.2941
 9485TIP3    H128419   7.056   0.596   1.803 -1.6231 -0.2111 -2.3615
 9485TIP3    H228420   7.129   0.614   1.671  2.7013 -1.0505 -0.2818
 9486TIP3   OH228421   6.367   4.209   0.394 -0.4615 -0.0627 -0.1034
 9486TIP3    H128422   6.351   4.219   0.301  0.0977  3.9451  0.0760
 9486TIP3    H228423   6.459   4.233   0.405 -1.0115  1.4997  1.6296
 9487TIP3   OH228424   4.026   6.814   5.427 -0.0021  0.4377 -0.2319
 9487TIP3    H128425   4.009   6.744   5.489  2.3269 -2.0160 -2.1095
 9487TIP3    H228426   3.948   6.817   5.372 -0.6659  0.2583  0.6777
 9488TIP3   OH228427   3.929   2.197   2.370  0.0479  0.3632  0.1236
 9488TIP3    H128428   3.917   2.131   2.438 -3.0662  0.4519 -0.1995
 9488TIP3    H228429   3.889   2.159   2.292  0.7406  1.5143 -0.8273
 9489TIP3   OH228430   5.566   3.616   1.938  0.3785  0.4994  0.1202
 9489TIP3    H128431   5.595   3.628   2.028  1.5624  2.0248 -0.4292
 9489TIP3    H228432   5.622   3.546   1.905  1.7476  1.6779 -0.1594
 9490TIP3   OH228433   4.297   1.961   4.123  0.0047 -0.6012 -0.3322
 9490TIP3    H128434   4.325   1.923   4.040  0.0202  0.4498 -0.8227
 9490TIP3    H228435   4.335   2.049   4.123 -0.8856 -0.2046  0.3030
 9491TIP3   OH228436   6.442   1.449   4.544  0.1268 -0.5541  0.2256
 9491TIP3    H128437   6.396   1.470   4.626 -0.8380  0.2852 -0.5116
 9491TIP3    H228438   6.419   1.358   4.526 -1.2124 -0.1635 -0.0989
 9492TIP3   OH228439   3.995   2.041   1.637  0.1455 -0.2842  0.3048
 9492TIP3    H128440   4.001   1.990   1.718 -2.1956 -2.3299 -0.7024
 9492TIP3    H228441   3.978   2.130   1.667  0.7893 -0.7068  2.0746
 9493TIP3   OH228442   1.853   3.431   2.698 -0.1628  0.2744 -0.4520
 9493TIP3    H128443   1.837   3.442   2.604  0.1787 -0.3647 -0.5872
 9493TIP3    H228444   1.933   3.379   2.703 -0.4477 -0.1094  0.1935
 9494TIP3   OH228445   6.818   0.926   0.243  0.3341 -0.2113 -0.6528
 9494TIP3    H128446   6.856   0.857   0.298  1.3759 -0.3940 -1.5667
 9494TIP3    H228447   6.851   1.007   0.281 -1.3055 -0.1550  0.7363
 9495TIP3   OH228448   4.936   2.206   0.802 -0.3704  0.0796 -0.0982
 9495TIP3    H128449   5.010   2.239   0.751 -1.1786  1.1689 -0.6241
 9495TIP3    H228450   4.884   2.156   0.739  0.1088 -1.0409  0.3673
 9496TIP3   OH228451   5.080   4.565   5.014 -0.0972 -0.3589 -0.4087
 9496TIP3    H128452   5.048   4.653   5.030  3.3892  0.7652  1.1241
 9496TIP3    H228453   5.079   4.556   4.918 -0.8493  1.1750 -0.5625
 9497TIP3   OH228454   2.240   3.778   2.418 -0.4031 -0.1559  0.1097
 9497TIP3    H128455   2.253   3.752   2.509 -1.1738 -0.6790  0.0764
 9497TIP3    H228456   2.145   3.783   2.407 -0.3667 -1.2255 -0.9626
 9498TIP3   OH228457   4.957   2.258   0.170  0.0477  0.4676 -0.0264
 9498TIP3    H128458   4.895   2.255   0.243  0.2468  0.7839  0.1548
 9498TIP3    H228459   5.042   2.276   0.211  0.5769 -1.5604 -0.0726
 9499TIP3   OH228460   5.077   2.803   0.683  0.0378 -0.2640 -0.0270
 9499TIP3    H128461   5.070   2.891   0.646  1.7902  0.2669  0.7882
 9499TIP3    H228462   5.008   2.798   0.749 -0.3726  0.3193 -0.4040
 9500TIP3   OH228463   2.424   5.029   5.801 -0.3532  0.2182  0.5580
 9500TIP3    H128464   2.372   5.101   5.765  1.2913 -0.0145 -2.6385
 9500TIP3    H228465   2.375   4.950   5.778  0.3771  0.1085 -0.7528
 9501TIP3   OH228466   0.113   4.338   3.058  0.7416 -0.3977  0.1153
 9501TIP3    H128467   0.141   4.408   3.117 -0.9757  0.4306  0.0285
 9501TIP3    H228468   0.020   4.357   3.042 -0.0268 -3.1628  0.7492
 9502TIP3   OH228469   5.331   3.887   4.944 -0.1871 -0.6816 -0.0885
 9502TIP3    H128470   5.251   3.857   4.900 -1.1286 -2.0250  2.3143
 9502TIP3    H228471   5.310   3.975   4.974 -0.6191 -0.8512  0.1255
 9503TIP3   OH228472   0.640   4.777   0.389  0.0922 -0.8941 -0.1878
 9503TIP3    H128473   0.711   4.762   0.451 -0.6324 -2.6429  0.2778
 9503TIP3    H228474   0.592   4.851   0.425  0.9888 -0.4501  0.1188
 9504TIP3   OH228475   2.435   3.150   3.592  0.2127  0.0061 -0.1416
 9504TIP3    H128476   2.438   3.136   3.498 -0.7303  0.7656 -0.3077
 9504TIP3    H228477   2.352   3.110   3.620  0.1865  0.3300  0.2584
 9505TIP3   OH228478   4.258   4.059   3.921 -0.2220 -0.1228 -0.0325
 9505TIP3    H128479   4.266   4.074   4.015 -1.8226 -0.5371  0.1957
 9505TIP3    H228480   4.258   4.147   3.882 -2.1409  0.2222  0.6192
 9506TIP3   OH228481   1.372   2.552   1.522 -0.6283 -0.1314  0.1178
 9506TIP3    H128482   1.384   2.646   1.537  1.8853 -0.3505 -0.0030
 9506TIP3    H228483   1.280   2.536   1.539 -1.6599  2.7390 -2.0047
 9507TIP3   OH228484   1.121   5.947   4.376 -0.0906  0.6862 -0.2163
 9507TIP3    H128485   1.124   5.985   4.464  2.0873  1.6399 -0.6385
 9507TIP3    H228486   1.071   6.011   4.324 -0.2234  0.7797  0.0243
 9508TIP3   OH228487   6.644   5.150   1.559  0.0796  0.4842 -0.0155
 9508TIP3    H128488   6.549   5.138   1.561  0.2180 -0.6616  0.2434
 9508TIP3    H228489   6.656   5.244   1.572 -0.9484  0.3493  2.6550
 9509TIP3   OH228490   0.766   3.310   3.997 -0.1187 -0.2420 -0.5216
 9509TIP3    H128491   0.694   3.329   4.057 -0.6920 -0.6707 -1.0539
 9509TIP3    H228492   0.789   3.394   3.959  1.7475  0.4555  1.8759
 9510TIP3   OH228493   3.815   3.501   1.235  0.7237 -0.1014  0.1791
 9510TIP3    H128494   3.816   3.411   1.268 -0.9686 -0.2394 -0.0436
 9510TIP3    H228495   3.809   3.492   1.140 -2.0759  0.1398  0.2484
 9511TIP3   OH228496   3.133   4.528   1.143 -0.3220  0.7759  1.1325
 9511TIP3    H128497   3.202   4.593   1.133 -0.0196  0.5110  1.4491
 9511TIP3    H228498   3.104   4.509   1.054  0.6727  0.1912  0.9239
 9512TIP3   OH228499   0.007   5.265   2.639  0.3376 -0.1386 -0.0377
 9512TIP3    H128500   0.029   5.184   2.593  1.9989 -0.0704  0.5520
 9512TIP3    H228501  -0.018   5.237   2.727 -1.7291 -0.1808 -0.5893
 9513TIP3   OH228502   4.806   2.210   0.429  0.2024 -0.2434  0.1179
 9513TIP3    H128503   4.854   2.139   0.471 -0.2301 -0.7443 -0.2244
 9513TIP3    H228504   4.714   2.192   0.449  0.1869  1.2350  1.5878
 9514TIP3   OH228505   2.509   3.064   0.194 -0.1814 -0.3777 -0.2517
 9514TIP3    H128506   2.587   3.008   0.194 -0.2770 -0.5107 -0.4467
 9514TIP3    H228507   2.436   3.003   0.201 -0.2930 -0.2848 -0.6008
 9515TIP3   OH228508   3.054   3.148   3.267 -0.1924 -0.1600  0.0057
 9515TIP3    H128509   3.111   3.082   3.228  2.2898  0.7865  1.7782
 9515TIP3    H228510   3.096   3.232   3.245 -2.1800  0.7707 -0.5261
 9516TIP3   OH228511   5.408   4.376   2.910  0.2458 -0.0593  0.2336
 9516TIP3    H128512   5.410   4.353   2.817  1.2253 -1.1412  0.5004
 9516TIP3    H228513   5.399   4.472   2.911 -2.4545 -0.2101 -0.9293
 9517TIP3   OH228514   4.951   2.882   1.955 -0.5321  0.7069 -0.0448
 9517TIP3    H128515   5.033   2.915   1.991 -0.1115  2.6493 -2.5075
 9517TIP3    H228516   4.974   2.852   1.867 -2.2698  0.2127 -0.3698
 9518TIP3   OH228517   4.064   4.029   0.734  0.6283 -0.2157  0.4374
 9518TIP3    H128518   4.082   4.069   0.820  1.3419  0.6031 -0.0783
 9518TIP3    H228519   3.998   4.087   0.695  0.2648 -0.6194  0.4483
 9519TIP3   OH228520   5.834   0.553   1.298  0.1923  0.5343  0.3020
 9519TIP3    H128521   5.903   0.556   1.365  0.8323  1.8217 -0.3730
 9519TIP3    H228522   5.795   0.641   1.300 -0.8325  0.1021  0.0495
 9520TIP3   OH228523   6.020   1.069   5.418 -0.2944 -0.0937 -0.2163
 9520TIP3    H128524   5.968   0.990   5.405  1.4133 -1.0614 -1.5610
 9520TIP3    H228525   5.968   1.138   5.376 -1.0179 -0.8163 -0.5333
 9521TIP3   OH228526   4.176   5.033   1.257 -0.0196  0.0352 -0.0983
 9521TIP3    H128527   4.242   5.042   1.327  0.4435  0.6357 -0.6069
 9521TIP3    H228528   4.185   4.942   1.228 -0.8179 -0.4923  1.2010
 9522TIP3   OH228529   2.025   1.189   0.111 -0.3596 -0.0391  0.2759
 9522TIP3    H128530   1.939   1.202   0.070 -0.0256 -0.8732 -0.7446
 9522TIP3    H228531   2.013   1.217   0.201 -1.1589  1.8013 -0.3459
 9523TIP3   OH228532   4.258   1.604   0.938 -0.5822  0.5495  0.1486
 9523TIP3    H128533   4.171   1.630   0.967 -0.2329 -0.9893  3.0616
 9523TIP3    H228534   4.314   1.677   0.962 -0.8636  0.9443 -0.3852
 9524TIP3   OH228535   6.893   6.396   5.635  0.2328  0.1508 -0.1824
 9524TIP3    H128536   6.877   6.475   5.687 -0.0794 -1.0575  1.6659
 9524TIP3    H228537   6.807   6.373   5.600  0.0072 -0.2052  0.5763
 9525TIP3   OH228538   1.619   6.768   3.865 -0.6243  0.1328  0.4004
 9525TIP3    H128539   1.661   6.787   3.949  0.8539  0.0527 -0.2962
 9525TIP3    H228540   1.562   6.844   3.850 -0.0911  0.6529  0.9620
 9526TIP3   OH228541   5.279   6.013   4.449 -0.2529 -0.0914 -0.3921
 9526TIP3    H128542   5.215   5.981   4.385 -0.8320 -1.6988  0.9113
 9526TIP3    H228543   5.237   6.088   4.490 -0.8248 -0.4252 -0.3559
 9527TIP3   OH228544   5.979   3.689   1.482 -0.0442  0.2687  0.6301
 9527TIP3    H128545   5.939   3.715   1.565 -1.0070  0.4802  0.1112
 9527TIP3    H228546   6.041   3.620   1.506 -0.4732  0.1696  1.5007
 9528TIP3   OH228547   5.845   5.914   2.041 -0.5443  0.1313  0.0572
 9528TIP3    H128548   5.782   5.846   2.064 -0.6411  0.6958  1.6148
 9528TIP3    H228549   5.819   5.989   2.094  0.5839  0.8353 -0.3544
 9529TIP3   OH228550   2.711   5.196   3.486  0.3462 -0.5040 -0.1863
 9529TIP3    H128551   2.697   5.187   3.392 -1.5210  2.0196 -0.2747
 9529TIP3    H228552   2.631   5.164   3.526 -0.0355  0.9483  0.3035
 9530TIP3   OH228553   5.518   4.510   5.798  0.2375 -0.4756  0.4247
 9530TIP3    H128554   5.496   4.426   5.838  0.8557 -1.9462 -2.0976
 9530TIP3    H228555   5.459   4.517   5.724 -0.2159  1.6647  0.9405
 9531TIP3   OH228556   0.986   4.250   2.103  0.0003  0.3740 -0.7269
 9531TIP3    H128557   1.035   4.332   2.096  0.3830  0.2613  0.3976
 9531TIP3    H228558   0.922   4.265   2.173 -0.3224 -0.0894 -0.9148
 9532TIP3   OH228559   4.654   2.190   5.285 -0.8014 -0.2234  0.0520
 9532TIP3    H128560   4.665   2.100   5.254  0.5456 -0.2879  0.6447
 9532TIP3    H228561   4.561   2.208   5.272 -1.3158 -2.0234  0.7712
 9533TIP3   OH228562   0.733   0.183   4.710 -0.1794  0.1623 -0.0588
 9533TIP3    H128563   0.828   0.171   4.711 -0.0791  0.3892 -2.0015
 9533TIP3    H228564   0.698   0.101   4.743  0.6810 -0.2166 -0.0516
 9534TIP3   OH228565   2.566   1.519   3.818  0.0482 -0.6866  0.2781
 9534TIP3    H128566   2.591   1.487   3.904  1.5209 -0.6734 -0.1232
 9534TIP3    H228567   2.624   1.473   3.757 -1.3050 -1.0769 -0.7667
 9535TIP3   OH228568   0.468   5.230   3.589 -0.2788 -1.1832 -0.6140
 9535TIP3    H128569   0.520   5.161   3.549  0.1881 -0.3560 -1.4808
 9535TIP3    H228570   0.463   5.298   3.522 -0.6428 -0.3345  0.2472
 9536TIP3   OH228571   7.120   1.786   2.215  0.3778  0.0757 -0.1097
 9536TIP3    H128572   7.132   1.711   2.273  2.0686  0.5818  0.2552
 9536TIP3    H228573   7.082   1.853   2.271 -0.3644 -0.2331 -0.2329
 9537TIP3   OH228574   6.353   6.774   3.799  0.5817 -0.2185 -0.0471
 9537TIP3    H128575   6.424   6.742   3.854 -0.5400 -0.2145  1.4502
 9537TIP3    H228576   6.274   6.757   3.849 -0.2199  3.5290  0.2260
 9538TIP3   OH228577   6.269   5.565   5.230  0.0522 -0.7891 -0.2972
 9538TIP3    H128578   6.314   5.585   5.148 -0.8540 -1.1627 -0.9020
 9538TIP3    H228579   6.198   5.506   5.204 -0.8555 -0.1262  0.6163
 9539TIP3   OH228580   0.019   2.272   4.240 -0.0968 -0.1230  0.1774
 9539TIP3    H128581   0.110   2.280   4.267 -0.1797 -4.2215  2.4980
 9539TIP3    H228582  -0.029   2.332   4.298  0.9413  0.8907  0.0090
 9540TIP3   OH228583   4.293   0.624   2.009  0.0973  0.1944 -0.2707
 9540TIP3    H128584   4.240   0.551   1.978 -0.1952  0.7084 -1.0228
 9540TIP3    H228585   4.351   0.586   2.075  0.4914 -0.8742 -1.1929
 9541TIP3   OH228586   4.530   3.648   3.784  0.0389  0.1169  0.6619
 9541TIP3    H128587   4.544   3.741   3.770  0.7287 -0.2574 -1.4738
 9541TIP3    H228588   4.572   3.630   3.868  1.3514  1.4197  0.3204
 9542TIP3   OH228589   2.334   3.620   3.516  0.5291 -0.5675 -0.3309
 9542TIP3    H128590   2.401   3.553   3.504  1.8925  0.5707  0.6849
 9542TIP3    H228591   2.371   3.698   3.476 -0.8627 -0.2628 -1.1176
 9543TIP3   OH228592   2.331   0.115   1.336 -0.7632  0.5878  0.3392
 9543TIP3    H128593   2.276   0.159   1.271  0.1138 -0.0289 -0.8621
 9543TIP3    H228594   2.281   0.036   1.359 -0.0827 -0.3900 -1.3500
 9544TIP3   OH228595   6.414   5.545   2.330 -0.0090 -0.2987 -0.4935
 9544TIP3    H128596   6.501   5.566   2.297 -0.4468  2.0768 -0.3579
 9544TIP3    H228597   6.415   5.573   2.421 -0.3464 -2.1027  0.0978
 9545TIP3   OH228598   6.363   3.585   3.560 -0.2904  0.3677  0.3479
 9545TIP3    H128599   6.288   3.526   3.553 -0.6735  0.8401  0.4029
 9545TIP3    H228600   6.364   3.612   3.652  0.2244  0.0017  0.4485
 9546TIP3   OH228601   0.210   2.574   5.152 -0.0665  0.1271  0.2000
 9546TIP3    H128602   0.219   2.499   5.211 -0.7847 -1.6758 -1.8511
 9546TIP3    H228603   0.282   2.564   5.089 -1.9605 -0.7520 -1.9787
 9547TIP3   OH228604   3.637   2.771   0.145 -0.9154 -0.2050 -0.2693
 9547TIP3    H128605   3.599   2.705   0.087  1.7108 -1.0214 -1.2317
 9547TIP3    H228606   3.591   2.760   0.228 -1.8278 -1.9607 -0.9598
 9548TIP3   OH228607   4.616   4.475   0.165 -0.0853  0.5179 -0.0415
 9548TIP3    H128608   4.632   4.569   0.157  1.5617  0.2027 -0.9020
 9548TIP3    H228609   4.646   4.452   0.253 -0.2448  0.7572  0.0748
 9549TIP3   OH228610   1.641   5.375   0.043  0.5451  0.2831 -0.5243
 9549TIP3    H128611   1.637   5.318   0.120  0.5391 -0.5232 -1.1067
 9549TIP3    H228612   1.554   5.369   0.004  0.7880  0.0274 -1.0473
 9550TIP3   OH228613   3.430   1.897   0.046  0.3290  0.0363  0.0566
 9550TIP3    H128614   3.400   1.985   0.071 -0.6579 -0.0616 -0.7355
 9550TIP3    H228615   3.354   1.841   0.060  0.3650 -0.3600 -1.2342
 9551TIP3   OH228616   2.916   2.129   2.293 -1.0023  0.3212 -0.2330
 9551TIP3    H128617   2.868   2.185   2.355 -1.9865 -1.6503  0.8569
 9551TIP3    H228618   2.858   2.122   2.217 -0.1439  2.0689 -1.1308
 9552TIP3   OH228619   5.119   5.585   0.473 -0.6728  0.3204  0.3842
 9552TIP3    H128620   5.041   5.540   0.441 -0.6203 -0.9049  1.8815
 9552TIP3    H228621   5.110   5.583   0.569  0.4412  1.5459  0.5424
 9553TIP3   OH228622   1.100   1.109   2.000  0.1789  0.5540  0.3554
 9553TIP3    H128623   1.119   1.113   2.094 -0.7007 -0.5930  0.5944
 9553TIP3    H228624   1.005   1.121   1.994  0.3299  1.5418 -0.4785
 9554TIP3   OH228625   3.638   5.292   4.310 -0.3454  0.5567  0.3305
 9554TIP3    H128626   3.593   5.209   4.292  1.4842 -0.4093 -0.0192
 9554TIP3    H228627   3.692   5.307   4.232  2.3242 -0.0160  1.9303
 9555TIP3   OH228628   3.273   0.234   3.290  0.4686 -0.4619 -0.1756
 9555TIP3    H128629   3.333   0.307   3.307  0.2611 -0.2353 -0.4010
 9555TIP3    H228630   3.309   0.191   3.213  2.3376 -2.4816  1.6917
 9556TIP3   OH228631   0.467   2.900   1.449 -0.5326  0.3745 -0.2059
 9556TIP3    H128632   0.408   2.910   1.524  0.9769  0.5115  1.0120
 9556TIP3    H228633   0.471   2.805   1.434 -0.7163  0.3347 -0.0068
 9557TIP3   OH228634   3.697   3.125   1.045 -0.0724 -0.1654  0.0040
 9557TIP3    H128635   3.786   3.105   1.015 -0.2514  0.2512 -0.8624
 9557TIP3    H228636   3.694   3.094   1.135  0.9653 -0.1573  0.0555
 9558TIP3   OH228637   1.306   3.771   4.447  0.1512 -0.1843  0.4106
 9558TIP3    H128638   1.281   3.738   4.533  1.0627 -0.0639  0.7334
 9558TIP3    H228639   1.389   3.728   4.427 -0.0794 -0.2597 -0.4393
 9559TIP3   OH228640   0.858   4.108   4.724 -0.1310  0.0531  0.1707
 9559TIP3    H128641   0.815   4.117   4.809 -1.8065 -0.5952 -0.5719
 9559TIP3    H228642   0.806   4.043   4.677  0.7915  0.3588 -1.3416
 9560TIP3   OH228643   2.005   2.968   5.499  0.5044 -0.9687 -0.2037
 9560TIP3    H128644   2.015   3.053   5.455  0.9770 -0.7330  0.3456
 9560TIP3    H228645   1.943   2.985   5.569 -0.2104 -1.3335 -0.7292
 9561TIP3   OH228646   0.506   4.086   0.643  0.0689 -0.0417 -0.2454
 9561TIP3    H128647   0.517   3.995   0.672 -0.0116 -0.1841 -0.6561
 9561TIP3    H228648   0.572   4.098   0.575 -0.3018  0.0325 -0.5921
 9562TIP3   OH228649   1.801   6.090   4.151 -0.1201  0.4243  0.1279
 9562TIP3    H128650   1.856   6.120   4.223 -1.1709 -0.1517  1.2082
 9562TIP3    H228651   1.770   6.171   4.110 -0.0783  0.7810  0.7733
 9563TIP3   OH228652   6.925   6.347   1.306  0.5915 -0.0796 -0.2487
 9563TIP3    H128653   6.856   6.406   1.275 -0.5894 -1.2151  0.1182
 9563TIP3    H228654   7.007   6.392   1.285 -0.2514  2.2445  1.0860
 9564TIP3   OH228655   3.129   5.653   1.692  0.0196  0.0097 -0.0706
 9564TIP3    H128656   3.046   5.702   1.691 -0.7705 -1.1502  1.9746
 9564TIP3    H228657   3.196   5.719   1.710 -0.6015  0.8124 -0.6672
 9565TIP3   OH228658   0.554   0.428   3.154  0.2091 -0.2833  0.1464
 9565TIP3    H128659   0.517   0.472   3.078  1.1904 -0.7421 -0.6140
 9565TIP3    H228660   0.586   0.344   3.121  1.4360 -0.1265  0.8757
 9566TIP3   OH228661   4.103   3.236   1.847 -0.0180  0.3300 -0.4076
 9566TIP3    H128662   4.056   3.301   1.899 -0.7802 -0.9097  0.5108
 9566TIP3    H228663   4.195   3.261   1.855  0.0118 -0.3638  2.4418
 9567TIP3   OH228664   4.756   5.657   2.697  0.5433  0.3330 -0.2165
 9567TIP3    H128665   4.840   5.688   2.733  0.0581  0.0222  1.2890
 9567TIP3    H228666   4.763   5.561   2.701  0.5878  0.2813 -1.2890
 9568TIP3   OH228667   5.688   5.962   2.631  0.0130 -0.1806 -0.2423
 9568TIP3    H128668   5.705   5.945   2.539  2.1120 -0.5252  0.1564
 9568TIP3    H228669   5.697   5.876   2.673 -1.7280 -0.1824  0.2146
 9569TIP3   OH228670   1.959   3.216   1.682 -0.1032  0.3939  0.3961
 9569TIP3    H128671   2.042   3.251   1.715 -0.5846  0.3102  1.7711
 9569TIP3    H228672   1.893   3.278   1.713 -0.7570 -0.6220  1.0959
 9570TIP3   OH228673   2.556   2.319   4.526  0.1836  0.4288  0.8948
 9570TIP3    H128674   2.513   2.242   4.490 -1.5944  1.1668  1.3154
 9570TIP3    H228675   2.609   2.286   4.598  1.9693 -0.7669 -0.8698
 9571TIP3   OH228676   7.128   5.813   2.961 -0.8149  0.2184 -0.1038
 9571TIP3    H128677   7.216   5.814   2.923 -0.1261 -2.1890  1.2046
 9571TIP3    H228678   7.112   5.903   2.988  1.8187  0.5029  0.7538
 9572TIP3   OH228679   1.149   4.619   3.896  0.6906 -0.0288  0.3014
 9572TIP3    H128680   1.175   4.555   3.962 -0.3053 -0.0114  0.7261
 9572TIP3    H228681   1.143   4.569   3.814  0.1600 -0.4353  0.5825
 9573TIP3   OH228682   3.827   2.660   1.622  0.2863  0.0500  0.1378
 9573TIP3    H128683   3.765   2.647   1.551  1.8009  1.0505 -1.4592
 9573TIP3    H228684   3.856   2.751   1.613  3.9573 -1.0724 -0.9637
 9574TIP3   OH228685   1.881   0.131   2.433  0.2549 -0.3147  0.1062
 9574TIP3    H128686   1.933   0.211   2.435 -0.9452  0.4700  1.0033
 9574TIP3    H228687   1.939   0.066   2.391  1.0261  1.1551 -1.2233
 9575TIP3   OH228688   0.669   3.519   2.203  0.2300 -0.1143 -0.6902
 9575TIP3    H128689   0.590   3.542   2.154 -0.5290 -1.3588 -0.0908
 9575TIP3    H228690   0.735   3.583   2.173 -1.0602  1.1286 -0.9808
 9576TIP3   OH228691   2.118   0.780   3.322 -0.1668  0.5860  0.7534
 9576TIP3    H128692   2.198   0.798   3.273 -0.5391 -0.1609 -0.1576
 9576TIP3    H228693   2.146   0.724   3.395 -0.0447 -0.8832 -0.3807
 9577TIP3   OH228694   6.667   0.340   0.665 -0.3573 -0.1175  0.3493
 9577TIP3    H128695   6.634   0.322   0.577 -1.8626 -0.9761  1.0577
 9577TIP3    H228696   6.712   0.424   0.657 -0.9376  0.0784 -1.1127
 9578TIP3   OH228697   2.161   5.374   3.609 -0.0781 -0.3294 -0.3208
 9578TIP3    H128698   2.244   5.333   3.588 -1.3000 -2.9003 -0.5500
 9578TIP3    H228699   2.098   5.332   3.551 -1.7737  0.3975  0.9021
 9579TIP3   OH228700   4.338   0.198   1.757  0.0174  0.2839 -0.3582
 9579TIP3    H128701   4.278   0.269   1.735  0.6026  1.0785  0.5075
 9579TIP3    H228702   4.293   0.148   1.824 -0.6816 -0.5881 -1.4550
 9580TIP3   OH228703   5.295   4.889   5.345  0.1750 -0.4793  0.0036
 9580TIP3    H128704   5.325   4.973   5.381 -1.1764 -0.1051  0.3099
 9580TIP3    H228705   5.303   4.899   5.251  1.0692 -0.4214  0.0797
 9581TIP3   OH228706   4.787   1.056   0.482 -0.7698 -0.2965 -0.1943
 9581TIP3    H128707   4.811   0.978   0.431 -1.2171 -0.7026  0.2132
 9581TIP3    H228708   4.839   1.050   0.562  0.5596  0.7676 -0.9188
 9582TIP3   OH228709   5.766   5.184   0.741  0.2893  0.1151 -0.4785
 9582TIP3    H128710   5.680   5.221   0.759  0.2038  0.5561 -1.6837
 9582TIP3    H228711   5.813   5.189   0.825 -1.2920 -1.4391  0.5613
 9583TIP3   OH228712   0.698   4.412   1.641  0.1910 -0.4644  0.1329
 9583TIP3    H128713   0.689   4.464   1.561 -0.4693 -2.4330 -1.1594
 9583TIP3    H228714   0.790   4.420   1.664  0.0121  1.6415  0.2879
 9584TIP3   OH228715   4.032   1.258   2.810  0.1834 -0.2157 -0.0311
 9584TIP3    H128716   4.081   1.275   2.891  0.3628 -0.2988 -0.1229
 9584TIP3    H228717   4.083   1.192   2.764  0.9056  0.9738 -0.9590
 9585TIP3   OH228718   3.969   2.599   0.253 -0.5353 -0.4623 -0.2807
 9585TIP3    H128719   3.931   2.682   0.281 -1.9221 -0.8538 -0.8980
 9585TIP3    H228720   4.047   2.589   0.307  0.6240  2.0239 -1.3655
 9586TIP3   OH228721   4.700   3.792   0.658  0.1918  0.1205  0.0241
 9586TIP3    H128722   4.629   3.727   0.658  0.5034 -0.2261 -0.7183
 9586TIP3    H228723   4.777   3.742   0.684  0.4332  0.1817 -0.5582
 9587TIP3   OH228724   2.028   6.037   2.960 -0.1378 -0.2053 -0.1810
 9587TIP3    H128725   2.042   6.057   2.867 -0.1773  0.9240  0.0351
 9587TIP3    H228726   2.116   6.031   2.997 -0.0491 -2.5998 -0.6354
 9588TIP3   OH228727   4.997   0.950   3.326 -0.0654  0.2045 -0.0394
 9588TIP3    H128728   4.904   0.929   3.333  0.1154 -0.1653  1.7375
 9588TIP3    H228729   5.005   1.037   3.365  0.5013 -0.2959  0.9993
 9589TIP3   OH228730   3.144   5.894   0.910  0.3787 -0.0302 -0.2281
 9589TIP3    H128731   3.051   5.886   0.930  0.1588  1.5019 -0.4738
 9589TIP3    H228732   3.159   5.831   0.840  0.2759 -2.5690  1.9088
 9590TIP3   OH228733   1.517   3.527   2.747  0.1546 -0.5476 -0.2710
 9590TIP3    H128734   1.563   3.448   2.716 -1.6006 -1.0440 -1.7928
 9590TIP3    H228735   1.526   3.590   2.675 -1.5835 -0.7154 -0.6954
 9591TIP3   OH228736   5.806   5.876   5.154 -0.0610  0.1224 -0.1535
 9591TIP3    H128737   5.726   5.869   5.205 -0.8593  0.3935 -1.3348
 9591TIP3    H228738   5.777   5.899   5.066  1.1948 -1.3962 -1.0179
 9592TIP3   OH228739   3.214   0.544   1.435  0.0132  0.0923 -0.0008
 9592TIP3    H128740   3.163   0.484   1.380  0.0936 -0.9549  1.0336
 9592TIP3    H228741   3.221   0.624   1.383 -2.0034 -0.0128 -0.4956
 9593TIP3   OH228742   5.733   2.419   1.036 -0.2608 -0.3823  0.3579
 9593TIP3    H128743   5.646   2.442   1.067  0.4409  1.6304  0.9708
 9593TIP3    H228744   5.728   2.325   1.019 -2.6380 -0.2635  0.0243
 9594TIP3   OH228745   2.893   0.993   3.502 -0.4562  0.3221 -0.2537
 9594TIP3    H128746   2.847   1.073   3.530  0.8500  0.9427  0.1967
 9594TIP3    H228747   2.946   1.021   3.427  2.5691  0.7764  1.8727
 9595TIP3   OH228748   3.757   2.026   2.253 -0.0258  0.0863 -0.0152
 9595TIP3    H128749   3.704   2.035   2.174  0.4154  0.1753 -0.2999
 9595TIP3    H228750   3.718   1.951   2.299  0.7599 -1.0532 -1.1409
 9596TIP3   OH228751   6.140   0.279   5.544  0.1217  0.6952 -0.3287
 9596TIP3    H128752   6.121   0.313   5.631 -0.4540  1.2586 -0.6682
 9596TIP3    H228753   6.085   0.201   5.535 -2.0322  2.2429 -1.2578
 9597TIP3   OH228754   5.668   5.513   1.908 -0.4727 -0.0968  0.6623
 9597TIP3    H128755   5.759   5.540   1.903 -0.5597 -0.0265 -1.7954
 9597TIP3    H228756   5.618   5.591   1.883 -0.8738 -1.3051 -3.0684
 9598TIP3   OH228757   5.066   0.310   1.270  0.6422  0.3517  0.0901
 9598TIP3    H128758   5.137   0.246   1.283 -1.5654 -2.2879  0.1024
 9598TIP3    H228759   4.990   0.269   1.311 -1.5441  1.7617 -2.2977
 9599TIP3   OH228760   2.938   6.032   4.902  0.2897  0.0130  0.2652
 9599TIP3    H128761   2.897   6.090   4.966  2.4264  0.7983  1.0023
 9599TIP3    H228762   2.997   6.089   4.852 -2.1627 -0.2681 -3.3544
 9600TIP3   OH228763   5.300   1.496   0.550  0.2080  0.5300 -0.2896
 9600TIP3    H128764   5.251   1.573   0.578 -0.9952 -0.0382 -0.7719
 9600TIP3    H228765   5.300   1.500   0.454  0.3214  0.0500 -0.3162
 9601TIP3   OH228766   4.947   4.344   1.541  0.3424 -0.0113  0.2381
 9601TIP3    H128767   4.916   4.297   1.463  0.5415 -0.4162  0.4029
 9601TIP3    H228768   4.962   4.433   1.510  0.1657 -0.1054 -0.1258
 9602TIP3   OH228769   6.790   1.117   3.587 -0.0499 -0.0496 -0.0435
 9602TIP3    H128770   6.810   1.210   3.587  1.2673 -0.3000  0.3466
 9602TIP3    H228771   6.767   1.097   3.497 -1.7803  0.9127  0.1593
 9603TIP3   OH228772   3.003   4.638   1.660  0.1104  0.1820  0.1685
 9603TIP3    H128773   2.985   4.545   1.642  0.8162  0.0513  0.0944
 9603TIP3    H228774   3.073   4.661   1.599 -0.6106  0.9895 -0.3675
 9604TIP3   OH228775   6.164   5.152   3.897 -0.2905 -0.2089 -0.4749
 9604TIP3    H128776   6.242   5.105   3.927  0.5306  3.2877  3.8721
 9604TIP3    H228777   6.093   5.088   3.907  1.5110 -2.5866 -1.7542
 9605TIP3   OH228778   2.946   0.056   5.789  0.0125  0.0188 -0.0843
 9605TIP3    H128779   2.928   0.076   5.881 -1.6520  2.0355 -0.7687
 9605TIP3    H228780   2.887  -0.016   5.767 -0.2302  0.1337  0.1977
 9606TIP3   OH228781   3.863   5.172   5.839  0.2074  0.9613  0.4360
 9606TIP3    H128782   3.893   5.251   5.794 -1.3688  1.6336  0.4967
 9606TIP3    H228783   3.880   5.188   5.931  3.0067 -0.2249  0.2292
 9607TIP3   OH228784   2.129   2.125   2.050  0.3019  0.3190  0.2295
 9607TIP3    H128785   2.209   2.112   2.100  0.6589 -1.3433 -0.7162
 9607TIP3    H228786   2.080   2.043   2.060 -0.3051  0.5205 -0.9109
 9608TIP3   OH228787   2.303   4.712   2.576 -0.7696  0.3166 -0.6851
 9608TIP3    H128788   2.250   4.695   2.653  0.3901 -0.2105  0.0285
 9608TIP3    H228789   2.357   4.787   2.599 -2.3186  1.9245 -2.0085
 9609TIP3   OH228790   5.110   6.640   5.799  0.1875 -0.0482  0.2509
 9609TIP3    H128791   5.154   6.721   5.770 -0.4642  0.8891  1.7826
 9609TIP3    H228792   5.163   6.608   5.872  0.8175 -1.4164 -0.7564
 9610TIP3   OH228793   3.580   3.795   5.828 -0.1199 -0.2779 -0.4237
 9610TIP3    H128794   3.485   3.787   5.836 -0.0200 -0.7606  0.3708
 9610TIP3    H228795   3.605   3.856   5.898  0.1639 -0.2284 -0.5686
 9611TIP3   OH228796   2.407   4.971   3.890  0.2585 -0.0248 -0.5794
 9611TIP3    H128797   2.330   5.027   3.877 -0.2697 -0.4658  0.4318
 9611TIP3    H228798   2.479   5.019   3.851 -0.2680  1.1350 -0.1838
 9612TIP3   OH228799   4.571   3.353   3.925 -0.2942  0.6973  0.2212
 9612TIP3    H128800   4.489   3.389   3.889 -0.1717 -0.2445 -1.0757
 9612TIP3    H228801   4.582   3.270   3.880  0.6372  0.1254  1.4650
 9613TIP3   OH228802   1.782   5.335   5.577  0.1455 -0.2995 -0.3057
 9613TIP3    H128803   1.829   5.254   5.596  0.1525 -0.1236  0.4385
 9613TIP3    H228804   1.689   5.310   5.581  0.1475 -0.2662 -0.0691
 9614TIP3   OH228805   7.098   2.932   5.150  0.0237  0.2898  0.3341
 9614TIP3    H128806   7.178   2.900   5.108 -1.0337 -0.0436 -1.5474
 9614TIP3    H228807   7.115   3.024   5.168  0.5631  0.4261 -0.7833
 9615TIP3   OH228808   0.375   5.762   4.927 -0.0405  0.0628  0.0543
 9615TIP3    H128809   0.359   5.830   4.993 -0.1240 -0.7057  0.8471
 9615TIP3    H228810   0.462   5.728   4.949  0.1330  0.1285 -0.5319
 9616TIP3   OH228811   4.347   3.465   4.581  0.3321  0.0922  0.6781
 9616TIP3    H128812   4.270   3.463   4.524  1.8218 -0.4059 -1.4278
 9616TIP3    H228813   4.312   3.491   4.667 -1.9908  1.0616 -0.4579
 9617TIP3   OH228814   5.174   3.552   3.498 -0.5980  0.1580 -0.1979
 9617TIP3    H128815   5.155   3.459   3.488  1.8671 -0.3051 -1.1582
 9617TIP3    H228816   5.120   3.580   3.572 -3.3615 -1.3754 -1.5029
 9618TIP3   OH228817   7.046   2.693   3.129 -0.0742  0.1077  0.2244
 9618TIP3    H128818   7.105   2.619   3.122  0.5828  0.6713 -0.3733
 9618TIP3    H228819   6.974   2.662   3.184  0.2460 -0.9238  0.0711
 9619TIP3   OH228820   3.604   4.141   3.908 -0.3123  0.1752  0.1733
 9619TIP3    H128821   3.640   4.062   3.869  0.2732  0.4670  0.1072
 9619TIP3    H228822   3.591   4.119   4.000  0.5824  0.2332  0.3252
 9620TIP3   OH228823   3.729   2.328   2.550  0.1696 -0.2914  0.0514
 9620TIP3    H128824   3.795   2.271   2.511 -0.3494 -2.7670  2.5147
 9620TIP3    H228825   3.649   2.307   2.503 -0.1885 -2.3243  1.4379
 9621TIP3   OH228826   3.303   4.952   5.499  0.2245 -0.1278 -0.2288
 9621TIP3    H128827   3.238   5.010   5.538 -0.0358  0.2907 -1.2698
 9621TIP3    H228828   3.387   4.984   5.533 -0.1283 -1.4456  2.1333
 9622TIP3   OH228829   6.381   0.089   2.983  0.2389 -0.3248  0.1051
 9622TIP3    H128830   6.319   0.124   2.919  0.6078 -0.6914 -0.4635
 9622TIP3    H228831   6.336   0.097   3.067 -0.2993  0.0550 -0.2124
 9623TIP3   OH228832   5.164   2.806   2.573 -0.2638  0.2163 -0.0091
 9623TIP3    H128833   5.189   2.840   2.659 -3.4248  1.9062  0.3956
 9623TIP3    H228834   5.180   2.879   2.513  0.1165 -0.2834 -0.5213
 9624TIP3   OH228835   4.926   6.077   3.463 -0.1687 -0.3293 -0.2390
 9624TIP3    H128836   4.869   6.005   3.438 -0.0361 -0.1466 -1.0815
 9624TIP3    H228837   4.899   6.098   3.553  0.8433 -2.4397  0.6325
 9625TIP3   OH228838   0.778   6.048   1.079  0.7456 -0.3378 -0.5314
 9625TIP3    H128839   0.797   6.030   0.987  0.0258 -1.9829 -0.3854
 9625TIP3    H228840   0.863   6.073   1.116  1.5173 -1.9491 -1.1341
 9626TIP3   OH228841   4.889   4.165   3.326  0.5023 -0.1740  0.1859
 9626TIP3    H128842   4.943   4.108   3.271 -0.0363 -1.2914  0.7918
 9626TIP3    H228843   4.842   4.106   3.385 -1.3258  0.7485 -0.2514
 9627TIP3   OH228844   5.932   0.669   4.309  0.4723 -0.2009 -0.6227
 9627TIP3    H128845   5.920   0.644   4.217  0.2870  2.4530 -1.3955
 9627TIP3    H228846   6.025   0.654   4.325  0.6179 -0.2275 -1.4121
 9628TIP3   OH228847   4.248   5.056   2.176 -0.3709  0.2316  0.3908
 9628TIP3    H128848   4.192   4.979   2.181 -0.5389  0.2514 -0.7973
 9628TIP3    H228849   4.191   5.125   2.142  0.1903  0.4381 -0.1452
 9629TIP3   OH228850   1.217   2.872   2.334 -0.1782  0.0701  0.6009
 9629TIP3    H128851   1.209   2.777   2.347  0.2229 -0.1277 -0.5334
 9629TIP3    H228852   1.138   2.908   2.374  0.3641 -0.5961  2.3837
 9630TIP3   OH228853   4.218   1.258   3.448 -0.4976  0.0081 -0.2134
 9630TIP3    H128854   4.160   1.184   3.428 -0.8999  0.0533  0.7079
 9630TIP3    H228855   4.183   1.293   3.530  0.9765 -0.1201  0.5024
 9631TIP3   OH228856   1.526   5.299   4.253 -0.1056  0.1796  0.4902
 9631TIP3    H128857   1.542   5.252   4.336  0.0637 -2.0236 -0.7132
 9631TIP3    H228858   1.453   5.251   4.213 -2.6726  3.4042  0.9082
 9632TIP3   OH228859   6.344   0.777   0.128 -0.5808  0.0724 -0.3154
 9632TIP3    H128860   6.299   0.698   0.099  0.4579 -0.8745  0.5305
 9632TIP3    H228861   6.376   0.818   0.047 -0.4084 -0.8371 -0.7222
 9633TIP3   OH228862   2.276   0.978   5.222 -0.0283 -0.3591  0.0700
 9633TIP3    H128863   2.307   0.999   5.310  1.5733  2.3755 -1.0198
 9633TIP3    H228864   2.355   0.951   5.175 -1.1851 -3.9371 -0.1039
 9634TIP3   OH228865   6.777   2.316   3.943  0.3766  0.2171  0.4988
 9634TIP3    H128866   6.850   2.290   3.887 -0.6876 -0.5452 -0.5897
 9634TIP3    H228867   6.768   2.410   3.929  1.1463  0.3153  0.6441
 9635TIP3   OH228868   3.210   5.356   3.622  0.2093  0.4824 -0.0174
 9635TIP3    H128869   3.200   5.417   3.695  1.0646 -0.5766  1.0225
 9635TIP3    H228870   3.281   5.298   3.649 -0.7534 -1.1488 -0.8363
 9636TIP3   OH228871   1.179   1.332   3.471  0.2362  0.9960  0.1245
 9636TIP3    H128872   1.206   1.240   3.471  0.0559  0.9263 -1.0532
 9636TIP3    H228873   1.235   1.373   3.537  0.3197  0.0502  0.6631
 9637TIP3   OH228874   4.908   0.931   4.356 -0.1144 -0.0545  0.6540
 9637TIP3    H128875   4.881   0.924   4.264  0.4805  0.0964  0.4660
 9637TIP3    H228876   4.886   0.845   4.393 -0.9318  0.0910  0.5344
 9638TIP3   OH228877   7.025   5.799   4.289 -0.6169 -0.5727  0.1237
 9638TIP3    H128878   6.978   5.859   4.348  0.5419  0.3481  0.1617
 9638TIP3    H228879   7.109   5.843   4.273 -0.1855 -1.6761 -0.7618
 9639TIP3   OH228880   3.662   1.096   4.778  0.0359 -0.4071  0.4648
 9639TIP3    H128881   3.611   1.037   4.722  0.9003 -1.7750  1.0641
 9639TIP3    H228882   3.679   1.172   4.724  1.1686 -1.8437 -1.3184
 9640TIP3   OH228883   1.098   5.303   4.887 -0.0331  0.0268 -0.3459
 9640TIP3    H128884   1.094   5.222   4.835  1.0582 -0.8646  0.9001
 9640TIP3    H228885   1.164   5.356   4.842  1.5996 -1.1259  0.5490
 9641TIP3   OH228886   6.184   6.629   1.439 -0.2892  0.5122 -0.1676
 9641TIP3    H128887   6.240   6.583   1.502 -0.5119 -1.3579 -1.2450
 9641TIP3    H228888   6.238   6.702   1.408  0.9380 -0.2848  0.0144
 9642TIP3   OH228889   1.374   1.933   1.128 -0.1619  0.5678  0.3400
 9642TIP3    H128890   1.375   1.952   1.221 -1.5040 -1.6312  0.8961
 9642TIP3    H228891   1.330   1.848   1.122  0.5230  0.3128 -2.2378
 9643TIP3   OH228892   6.008   0.367   4.008 -0.0573 -0.0381  1.0937
 9643TIP3    H128893   6.004   0.271   4.010  2.5537 -0.2257  1.2889
 9643TIP3    H228894   6.029   0.389   3.917 -3.4463  0.6331  0.3452
 9644TIP3   OH228895   3.392   1.182   2.131 -0.8224  0.5080 -0.5427
 9644TIP3    H128896   3.324   1.145   2.188 -0.4249  0.9297  0.2230
 9644TIP3    H228897   3.343   1.230   2.064 -1.2824  0.8764  0.0492
 9645TIP3   OH228898   2.650   5.053   1.695  0.4177  0.4429  0.0989
 9645TIP3    H128899   2.653   4.958   1.708  0.0080  0.4583  0.3093
 9645TIP3    H228900   2.558   5.076   1.706  0.2367  0.6408 -1.5500
 9646TIP3   OH228901   5.055   0.063   1.005  0.1592 -0.0261 -0.8331
 9646TIP3    H128902   5.117  -0.003   0.973  0.5436  0.2903 -0.7553
 9646TIP3    H228903   5.073   0.141   0.952 -0.2934  0.0176 -0.9253
 9647TIP3   OH228904   1.563   5.591   2.469 -0.3598 -0.0950 -0.4570
 9647TIP3    H128905   1.606   5.658   2.415 -2.6136  1.5149 -0.3951
 9647TIP3    H228906   1.515   5.537   2.406 -1.0593  0.3012 -0.2697
 9648TIP3   OH228907   1.574   3.662   3.001 -0.1834  0.7938 -0.4786
 9648TIP3    H128908   1.592   3.644   2.909 -1.2952  1.5518 -0.8641
 9648TIP3    H228909   1.502   3.726   3.000 -0.4849  0.5217  0.9186
 9649TIP3   OH228910   7.142   4.673   5.815  0.0858 -0.0366  0.2455
 9649TIP3    H128911   7.162   4.743   5.877 -0.5299 -1.5090  2.2287
 9649TIP3    H228912   7.186   4.596   5.851 -0.1532 -0.9242 -1.2674
 9650TIP3   OH228913   1.774   2.022   2.300 -0.5599 -0.0298 -0.7953
 9650TIP3    H128914   1.715   2.016   2.225 -0.2780  1.3757 -1.1538
 9650TIP3    H228915   1.715   2.025   2.376 -0.8839 -0.2973 -1.0331
 9651TIP3   OH228916   0.436   6.257   2.062  0.2697 -0.5866  0.0441
 9651TIP3    H128917   0.478   6.342   2.051 -0.6412 -0.2797 -1.3515
 9651TIP3    H228918   0.488   6.213   2.129  1.4732  0.6075 -0.0591
 9652TIP3   OH228919   0.406   3.596   4.325 -0.0196  0.0688  0.5208
 9652TIP3    H128920   0.321   3.630   4.354  0.1295 -0.1982  1.2889
 9652TIP3    H228921   0.470   3.638   4.382  0.2025 -1.1900  1.2468
 9653TIP3   OH228922   0.155   6.715   1.269 -0.5876  0.1332 -0.5242
 9653TIP3    H128923   0.119   6.795   1.307  2.7567  0.7228  1.8430
 9653TIP3    H228924   0.125   6.645   1.327 -1.3298  0.0047 -1.0477
 9654TIP3   OH228925   4.167   2.577   2.082  0.6724  0.0984  0.5141
 9654TIP3    H128926   4.089   2.621   2.115 -0.5303 -0.8839 -0.9162
 9654TIP3    H228927   4.217   2.646   2.039 -0.2645  0.4395 -0.0519
 9655TIP3   OH228928   2.416   3.255   0.371  0.3718  0.3174  0.3922
 9655TIP3    H128929   2.462   3.215   0.297 -0.2547 -0.1421  0.2450
 9655TIP3    H228930   2.359   3.321   0.331  0.6771  0.6813  0.5490
 9656TIP3   OH228931   6.933   5.241   3.490 -0.1234  0.1911 -0.6997
 9656TIP3    H128932   7.009   5.214   3.541 -0.1185  1.1739 -0.1605
 9656TIP3    H228933   6.969   5.261   3.403 -0.1733 -1.7229 -1.2074
 9657TIP3   OH228934   6.460   3.124   2.277 -0.1947 -0.7018  0.1224
 9657TIP3    H128935   6.532   3.169   2.322 -0.5788  0.4616 -0.3900
 9657TIP3    H228936   6.487   3.120   2.185  0.2859 -2.4787  0.2923
 9658TIP3   OH228937   4.366   1.115   0.111 -0.0135 -0.2036  0.2878
 9658TIP3    H128938   4.423   1.139   0.038 -0.4005  0.4558  0.1846
 9658TIP3    H228939   4.285   1.087   0.070 -0.9399  1.9920  0.4380
 9659TIP3   OH228940   4.521   5.967   5.376 -0.1783  0.3038 -0.1337
 9659TIP3    H128941   4.477   5.885   5.396  0.2045  0.1898  0.2541
 9659TIP3    H228942   4.522   6.015   5.458 -1.4698  1.2235 -0.6303
 9660TIP3   OH228943   6.429   1.170   4.518 -0.0016 -0.0398  0.3095
 9660TIP3    H128944   6.355   1.181   4.459  0.1574 -1.7977 -0.2990
 9660TIP3    H228945   6.484   1.104   4.475  0.7477 -0.4760  1.8423
 9661TIP3   OH228946   2.256   6.639   0.028  0.3976  0.2569  0.1536
 9661TIP3    H128947   2.344   6.616  -0.003  1.4385  0.5598  2.6633
 9661TIP3    H228948   2.215   6.555   0.045  0.6509  0.1350  0.1742
 9662TIP3   OH228949   5.633   5.001   2.369 -0.0613 -0.3682 -0.2191
 9662TIP3    H128950   5.628   4.923   2.424  0.5025 -0.3267 -0.0971
 9662TIP3    H228951   5.620   5.074   2.429  1.8327 -0.2522  0.1294
 9663TIP3   OH228952   0.564   3.180   4.415 -0.1668  0.3632  0.1790
 9663TIP3    H128953   0.486   3.229   4.439  0.2260  0.8791  0.4263
 9663TIP3    H228954   0.536   3.125   4.342 -0.7057  0.6945  0.1263
 9664TIP3   OH228955   3.719   1.272   4.573  0.4433 -0.8826 -0.1475
 9664TIP3    H128956   3.757   1.202   4.519  0.8173 -1.9205  1.4014
 9664TIP3    H228957   3.784   1.342   4.570  0.3780 -0.8398 -1.1620
 9665TIP3   OH228958   5.409   0.738   5.593  0.3410 -0.0114 -0.6194
 9665TIP3    H128959   5.441   0.798   5.660  1.0529  0.3329 -1.2612
 9665TIP3    H228960   5.484   0.684   5.570  0.1409 -0.0253 -1.2585
 9666TIP3   OH228961   6.789   6.031   2.726 -0.3256 -0.2073  0.7808
 9666TIP3    H128962   6.854   6.102   2.720  1.0900 -1.3359  2.0691
 9666TIP3    H228963   6.706   6.076   2.740  0.2454  1.2531 -0.2230
 9667TIP3   OH228964   4.987   0.848   1.293 -0.5239 -0.6539 -0.5328
 9667TIP3    H128965   5.064   0.896   1.263  0.2453 -1.4949  0.0155
 9667TIP3    H228966   4.913   0.901   1.264  0.2674  1.7322  1.4581
 9668TIP3   OH228967   3.678   3.760   0.394 -0.2789  0.1467 -0.3455
 9668TIP3    H128968   3.628   3.800   0.322  0.4682  1.4303 -0.1699
 9668TIP3    H228969   3.744   3.707   0.349  1.0115  1.9510 -0.6779
 9669TIP3   OH228970   5.109   0.042   2.353  0.5464 -0.3153 -0.1889
 9669TIP3    H128971   5.132   0.052   2.260  0.1283 -0.4995 -0.3144
 9669TIP3    H228972   5.091   0.131   2.383 -3.1912 -0.5095 -1.3063
 9670TIP3   OH228973   5.334   1.695   3.006  0.0938 -0.2742 -0.2221
 9670TIP3    H128974   5.393   1.638   2.957 -1.7736 -1.6450 -1.0180
 9670TIP3    H228975   5.337   1.779   2.960 -0.3234 -1.0238 -1.6628
 9671TIP3   OH228976   3.496   2.383   0.506 -0.4435  0.4797  0.0876
 9671TIP3    H128977   3.534   2.322   0.569  1.1157  0.4229 -0.8687
 9671TIP3    H228978   3.571   2.420   0.460 -1.5068  1.1748 -1.1372
 9672TIP3   OH228979   5.550   0.287   5.657 -0.3627  0.7146 -0.4825
 9672TIP3    H128980   5.561   0.209   5.712 -0.7956  0.5816 -0.5845
 9672TIP3    H228981   5.515   0.353   5.715  3.8724  2.2261  0.7587
 9673TIP3   OH228982   6.861   0.590   4.953 -0.1274  0.4819 -0.3629
 9673TIP3    H128983   6.802   0.644   4.899 -0.4641 -0.2590 -0.7550
 9673TIP3    H228984   6.874   0.641   5.033 -1.1085  0.7680 -0.3749
 9674TIP3   OH228985   0.459   0.867   2.272 -0.1229  0.0075  0.3035
 9674TIP3    H128986   0.451   0.930   2.200  0.4015  1.0443  1.1240
 9674TIP3    H228987   0.372   0.865   2.313 -1.3080 -2.7447 -2.0260
 9675TIP3   OH228988   7.106   5.649   1.885  0.2857 -0.1082 -0.2847
 9675TIP3    H128989   7.135   5.604   1.805 -2.5631 -1.7015 -0.5377
 9675TIP3    H228990   7.173   5.628   1.950  1.9049  0.0157 -1.8345
 9676TIP3   OH228991   2.570   1.907   0.789  0.3610 -0.0323  0.9538
 9676TIP3    H128992   2.566   1.927   0.696 -0.5720  0.9627  1.1933
 9676TIP3    H228993   2.521   1.977   0.831  0.2237 -0.8148  2.1459
 9677TIP3   OH228994   5.433   3.622   5.205  0.5420  0.3536  0.4549
 9677TIP3    H128995   5.491   3.620   5.128  0.1022  0.2537  0.1251
 9677TIP3    H228996   5.390   3.707   5.200 -1.0064 -0.4469 -0.5494
 9678TIP3   OH228997   4.929   6.352   5.533  0.8953  0.3930  0.0577
 9678TIP3    H128998   4.843   6.351   5.491  1.2470  0.5965 -0.6900
 9678TIP3    H228999   4.911   6.374   5.624 -0.0215 -1.4119  0.3589
 9679TIP3   OH229000   3.399   3.471   3.037  0.5933  0.0444  0.5625
 9679TIP3    H129001   3.453   3.543   3.005 -0.0029  0.0561 -0.4509
 9679TIP3    H229002   3.445   3.439   3.114  2.1115 -0.0199 -0.3369
 9680TIP3   OH229003   6.488   3.030   0.419  0.2706  0.5440  0.4967
 9680TIP3    H129004   6.393   3.033   0.409  0.4924  2.3252 -2.0505
 9680TIP3    H229005   6.520   2.990   0.338  1.6956 -0.3367  1.4509
 9681TIP3   OH229006   0.164   3.979   5.825  0.3877  0.4569 -0.2293
 9681TIP3    H129007   0.188   3.932   5.745 -1.3084 -1.3555  0.2209
 9681TIP3    H229008   0.068   3.970   5.829  0.5088 -0.7810  2.6776
 9682TIP3   OH229009   5.023   0.746   3.127 -0.5545  0.1438  0.0644
 9682TIP3    H129010   5.083   0.710   3.193 -1.4379  0.3234  0.9947
 9682TIP3    H229011   5.042   0.840   3.127  1.6748 -0.2055 -2.2842
 9683TIP3   OH229012   3.980   3.733   5.689  0.1257  0.6314 -0.5345
 9683TIP3    H129013   3.929   3.674   5.633 -0.4842  0.0327  0.6074
 9683TIP3    H229014   3.988   3.686   5.772  0.6641  1.6553  0.0118
 9684TIP3   OH229015   0.843   3.618   3.289  0.9491  0.2590  0.4680
 9684TIP3    H129016   0.840   3.531   3.327  0.9763  0.6697  1.4415
 9684TIP3    H229017   0.756   3.630   3.249  0.8614 -0.1168  0.5424
 9685TIP3   OH229018   1.434   2.847   4.376 -0.4884  0.3564 -0.1414
 9685TIP3    H129019   1.520   2.843   4.418 -1.3913  2.1565  2.0798
 9685TIP3    H229020   1.453   2.864   4.284  1.5446 -2.1993 -0.3277
 9686TIP3   OH229021   6.081   2.664   1.454 -0.6411  1.1078  0.1000
 9686TIP3    H129022   6.063   2.581   1.497 -0.9519  0.7854 -0.6441
 9686TIP3    H229023   6.060   2.649   1.362 -0.8805  2.0585 -0.0154
 9687TIP3   OH229024   0.135   5.997   4.999 -0.0587 -0.7336  0.1612
 9687TIP3    H129025   0.136   5.918   5.054 -2.0081 -1.1859 -0.3961
 9687TIP3    H229026   0.056   6.044   5.026 -0.4330 -0.3946 -1.4459
 9688TIP3   OH229027   6.047   2.018   0.454  0.1021 -0.3104 -0.0488
 9688TIP3    H129028   6.022   2.027   0.362 -0.2777  2.2648  0.2428
 9688TIP3    H229029   6.028   1.927   0.475 -1.1710 -0.5866 -2.1255
 9689TIP3   OH229030   0.424   3.005   0.087 -0.2796  0.1784  0.1883
 9689TIP3    H129031   0.467   2.972   0.008 -0.0758 -2.3629  1.2367
 9689TIP3    H229032   0.488   2.992   0.157 -1.6757 -1.1102  1.3311
 9690TIP3   OH229033   4.214   2.816   0.036 -0.3644  0.1632  0.1462
 9690TIP3    H129034   4.251   2.733   0.005 -1.6261 -0.2231 -0.3846
 9690TIP3    H229035   4.207   2.804   0.131 -1.7061 -0.8637 -0.0489
 9691TIP3   OH229036   4.847   0.967   2.645 -0.2079  0.0720 -0.2238
 9691TIP3    H129037   4.870   0.954   2.737 -0.6141  0.0786 -0.1170
 9691TIP3    H229038   4.827   1.060   2.638 -0.7088 -0.0308 -0.1919
 9692TIP3   OH229039   2.819   5.469   4.679 -0.1374 -0.7255  0.2079
 9692TIP3    H129040   2.837   5.408   4.750  0.6220 -2.3248 -1.2893
 9692TIP3    H229041   2.828   5.417   4.599 -0.6947  1.0604 -1.0873
 9693TIP3   OH229042   5.791   1.380   5.762 -0.1275  0.2726  0.5373
 9693TIP3    H129043   5.820   1.289   5.772 -0.3707  0.3141  1.8002
 9693TIP3    H229044   5.708   1.373   5.714  0.0331 -0.1342  0.3104
 9694TIP3   OH229045   2.029   6.101   0.883  0.1674  0.0752  0.2843
 9694TIP3    H129046   2.069   6.161   0.946 -1.3090 -0.2539  1.5921
 9694TIP3    H229047   1.982   6.157   0.822 -0.1925  0.3062  0.7736
 9695TIP3   OH229048   0.823   1.617   4.063 -0.3208  0.1242 -0.5421
 9695TIP3    H129049   0.785   1.530   4.073  0.4162 -0.3314 -1.5287
 9695TIP3    H229050   0.903   1.616   4.115  0.9803 -0.6468 -2.4343
 9696TIP3   OH229051   6.488   4.144   5.207  0.9832 -0.1018 -0.0012
 9696TIP3    H129052   6.445   4.063   5.177 -1.4320  1.2145 -0.3466
 9696TIP3    H229053   6.524   4.183   5.128 -0.5233  0.6023 -0.3889
 9697TIP3   OH229054   3.542   2.530   4.089  0.0867 -0.4390  0.7731
 9697TIP3    H129055   3.545   2.478   4.170 -1.9923 -0.9644  0.5688
 9697TIP3    H229056   3.449   2.535   4.067  0.4050  1.6610 -0.3502
 9698TIP3   OH229057   6.627   1.564   3.870  0.2719  0.1452 -0.4454
 9698TIP3    H129058   6.580   1.482   3.876  0.6979  0.0042  1.4135
 9698TIP3    H229059   6.714   1.540   3.836  0.2009 -0.0805 -0.4664
 9699TIP3   OH229060   5.726   2.964   3.922 -0.4619  0.2234  0.0071
 9699TIP3    H129061   5.752   3.056   3.930 -0.6739  0.3522 -0.6847
 9699TIP3    H229062   5.647   2.957   3.975 -0.2410  0.3506  0.3575
 9700TIP3   OH229063   2.327   0.174   4.038 -0.1122 -0.2434 -0.0321
 9700TIP3    H129064   2.248   0.224   4.017 -0.1143 -0.5419 -0.7630
 9700TIP3    H229065   2.327   0.102   3.975  0.5997 -0.4026  0.1434
 9701TIP3   OH229066   2.996   0.409   4.398 -0.4366 -0.7859  0.7436
 9701TIP3    H129067   2.921   0.354   4.377 -0.0407 -0.1206 -3.0488
 9701TIP3    H229068   3.039   0.364   4.471 -1.8680 -3.7902 -0.1111
 9702TIP3   OH229069   0.446   3.658   2.115  0.0570 -0.0857  0.3487
 9702TIP3    H129070   0.423   3.744   2.150 -0.3254 -0.4786  1.0743
 9702TIP3    H229071   0.471   3.676   2.024  2.5739  1.1815  1.1883
 9703TIP3   OH229072   3.769   1.649   5.765 -0.2184  0.2040  0.6780
 9703TIP3    H129073   3.825   1.607   5.830 -0.2710 -0.3000  0.4073
 9703TIP3    H229074   3.708   1.703   5.815 -1.6458 -1.8070  1.2088
 9704TIP3   OH229075   4.927   6.357   2.331 -0.3598  0.1874 -0.1024
 9704TIP3    H129076   4.869   6.359   2.407  0.5529  0.0229  0.6155
 9704TIP3    H229077   4.916   6.270   2.294 -0.2821  0.0210  0.2638
 9705TIP3   OH229078   2.328   5.543   4.839  0.3540 -0.2385 -0.3541
 9705TIP3    H129079   2.325   5.467   4.782  1.4076  0.4264 -1.3483
 9705TIP3    H229080   2.421   5.564   4.846  0.1153  0.6871  0.2592
 9706TIP3   OH229081   4.675   6.606   0.961  0.0235  0.2379  0.2103
 9706TIP3    H129082   4.718   6.664   1.024  0.8970 -0.9021  0.7078
 9706TIP3    H229083   4.735   6.531   0.953 -0.5367 -0.0869 -1.2468
 9707TIP3   OH229084   0.058   5.289   2.225 -0.1071 -0.3861 -0.1227
 9707TIP3    H129085  -0.024   5.327   2.255  0.6815  0.6774  0.7609
 9707TIP3    H229086   0.124   5.321   2.286  0.9406 -1.4347 -0.6487
 9708TIP3   OH229087   2.713   1.473   2.936 -0.0314  0.5294 -0.0449
 9708TIP3    H129088   2.759   1.470   2.852 -0.8298  0.1723 -0.4843
 9708TIP3    H229089   2.670   1.558   2.937 -1.2456 -0.0421 -0.6934
 9709TIP3   OH229090   6.733   3.889   1.956  0.7046 -0.3195  0.4206
 9709TIP3    H129091   6.699   3.900   1.867 -1.9978 -1.6242  1.1696
 9709TIP3    H229092   6.693   3.961   2.006 -0.0105 -1.1514  1.0812
 9710TIP3   OH229093   6.437   0.860   5.798  0.0056 -0.2401  0.1794
 9710TIP3    H129094   6.497   0.935   5.793 -0.0680 -0.2472 -1.4629
 9710TIP3    H229095   6.363   0.892   5.850  0.1190  0.7270 -0.2245
 9711TIP3   OH229096   3.134   3.098   1.561  0.3601 -0.2797 -0.0716
 9711TIP3    H129097   3.048   3.073   1.528 -0.3257  0.0942  1.3532
 9711TIP3    H229098   3.195   3.036   1.520 -0.7171 -1.2262 -0.2788
 9712TIP3   OH229099   6.995   2.966   3.522  0.0457 -0.1921  0.2004
 9712TIP3    H129100   6.951   3.040   3.480  1.3408 -1.1069 -3.1429
 9712TIP3    H229101   7.068   3.005   3.569  0.9192  0.7321 -1.7952
 9713TIP3   OH229102   6.347   4.737   3.022 -0.0128  0.3179  0.1889
 9713TIP3    H129103   6.319   4.827   3.007 -0.1707  0.0807 -1.0483
 9713TIP3    H229104   6.440   4.744   3.042  0.4551  0.6356 -1.8640
 9714TIP3   OH229105   0.650   6.642   3.037 -0.0598  0.2401  0.4384
 9714TIP3    H129106   0.722   6.584   3.063 -1.0109 -0.9500  0.5019
 9714TIP3    H229107   0.668   6.665   2.946  0.6977  0.4412  0.6301
 9715TIP3   OH229108   6.367   4.717   2.190 -0.0659 -0.1662 -0.1332
 9715TIP3    H129109   6.448   4.748   2.231 -0.4787 -0.9341  1.3579
 9715TIP3    H229110   6.385   4.627   2.166 -0.3632 -0.2274 -0.1310
 9716TIP3   OH229111   4.755   0.524   4.189 -0.0005  0.5771 -0.0581
 9716TIP3    H129112   4.716   0.443   4.223  0.2529  0.6607  0.4450
 9716TIP3    H229113   4.819   0.495   4.125  1.0272  0.3083  1.0605
 9717TIP3   OH229114   5.515   6.296   1.771 -0.1976  0.5662 -0.0191
 9717TIP3    H129115   5.424   6.267   1.773 -0.1920  0.5088 -0.4837
 9717TIP3    H229116   5.564   6.223   1.809 -0.1144 -0.3243 -1.7281
 9718TIP3   OH229117   3.246   5.860   5.171  0.0018  0.3239  0.2241
 9718TIP3    H129118   3.279   5.823   5.252 -1.7538 -0.7431  0.5035
 9718TIP3    H229119   3.316   5.918   5.140  1.2877 -0.3751  1.7212
 9719TIP3   OH229120   2.951   1.877   2.065  0.0900  0.2508 -0.1259
 9719TIP3    H129121   2.989   1.882   2.153 -1.0155 -0.1942  0.4020
 9719TIP3    H229122   2.860   1.904   2.077 -0.2052 -0.2907 -1.0412
 9720TIP3   OH229123   2.839   0.414   3.773 -0.4130 -0.1298 -0.0702
 9720TIP3    H129124   2.922   0.383   3.810  0.6297  0.7946 -1.5099
 9720TIP3    H229125   2.830   0.364   3.691 -0.2035  1.2387 -0.9527
 9721TIP3   OH229126   0.082   4.369   4.111  0.7144  0.0520  0.6396
 9721TIP3    H129127   0.171   4.365   4.077 -0.1135 -1.8795 -1.5660
 9721TIP3    H229128   0.058   4.461   4.106  1.2083  0.1237 -2.8381
 9722TIP3   OH229129   3.921   0.937   3.283  0.3419  0.1016 -0.1328
 9722TIP3    H129130   3.997   0.924   3.340 -0.6453 -4.5045  0.5019
 9722TIP3    H229131   3.951   0.911   3.196 -0.3735 -1.6463  0.1035
 9723TIP3   OH229132   3.444   0.155   2.674  0.7393  0.1971  0.8462
 9723TIP3    H129133   3.478   0.243   2.661  3.0588 -0.8578 -0.8720
 9723TIP3    H229134   3.499   0.117   2.743  1.7310 -0.7932 -0.4227
 9724TIP3   OH229135   0.971   0.726   2.010  0.0199 -0.1309 -0.4255
 9724TIP3    H129136   0.887   0.682   2.024  1.2171 -2.0045  1.5385
 9724TIP3    H229137   0.966   0.805   2.063 -0.4611 -0.2666 -0.2611
 9725TIP3   OH229138   3.518   2.381   2.880  0.0060  0.3197 -0.2013
 9725TIP3    H129139   3.545   2.458   2.929  0.4176 -0.3231  0.6031
 9725TIP3    H229140   3.600   2.343   2.847 -0.0322 -0.6666  0.7832
 9726TIP3   OH229141   5.979   4.418   1.256  0.1961 -0.9033 -0.3532
 9726TIP3    H129142   6.012   4.337   1.217  0.1421 -0.2466 -1.8274
 9726TIP3    H229143   6.053   4.478   1.254  0.9387 -1.5426  2.8492
 9727TIP3   OH229144   1.358   6.009   4.799  0.4759  0.0549 -0.7304
 9727TIP3    H129145   1.321   5.963   4.874  1.4044 -0.3685 -0.5077
 9727TIP3    H229146   1.439   6.047   4.833  1.4263 -0.9852 -1.7538
 9728TIP3   OH229147   1.617   1.901   1.007 -0.4345 -0.3788 -0.2283
 9728TIP3    H129148   1.649   1.967   1.068 -0.0784 -0.2764 -0.5300
 9728TIP3    H229149   1.526   1.885   1.035 -0.6132  0.4377 -0.3301
 9729TIP3   OH229150   4.241   3.591   0.332  0.1507 -0.4338 -0.4163
 9729TIP3    H129151   4.329   3.564   0.358 -0.3739  0.3847  2.6411
 9729TIP3    H229152   4.229   3.676   0.373 -2.3983 -0.9371  0.0606
 9730TIP3   OH229153   1.530   5.802   5.657 -0.2846  0.0258 -0.3344
 9730TIP3    H129154   1.564   5.888   5.634 -1.1289  0.2351 -0.8638
 9730TIP3    H229155   1.517   5.806   5.752 -0.6092  0.5913 -0.3993
 9731TIP3   OH229156   3.782   1.776   5.339  0.2301 -0.0361  0.6412
 9731TIP3    H129157   3.814   1.832   5.268  1.0424 -0.4165  0.6929
 9731TIP3    H229158   3.825   1.691   5.324  1.6520  0.2869  2.4345
 9732TIP3   OH229159   0.774   4.304   0.684 -0.1901 -0.0412  0.5964
 9732TIP3    H129160   0.765   4.215   0.719 -0.5597 -0.4172 -0.4176
 9732TIP3    H229161   0.684   4.336   0.675 -0.2529 -0.6472 -1.6757
 9733TIP3   OH229162   5.211   5.111   3.905 -0.1977  0.4929 -0.2031
 9733TIP3    H129163   5.184   5.201   3.891  1.1858  1.2045  1.3604
 9733TIP3    H229164   5.231   5.077   3.818 -1.9429  1.2634 -0.9388
 9734TIP3   OH229165   1.246   5.828   2.542 -0.2448 -0.2675 -0.0646
 9734TIP3    H129166   1.271   5.918   2.563  0.1271 -0.0956 -1.1907
 9734TIP3    H229167   1.304   5.774   2.596  0.2907  0.1563 -0.2087
 9735TIP3   OH229168   4.157   4.266   3.316 -1.2688  0.1766 -0.5257
 9735TIP3    H129169   4.219   4.306   3.255 -0.3625 -0.5944 -0.1261
 9735TIP3    H229170   4.152   4.174   3.289  0.1690 -0.5094  1.3292
 9736TIP3   OH229171   3.865   0.578   3.124 -0.0226  0.2768  0.0562
 9736TIP3    H129172   3.831   0.607   3.209  0.2503 -2.1842  1.0936
 9736TIP3    H229173   3.835   0.645   3.063 -2.2238  0.9508  1.7205
 9737TIP3   OH229174   3.154   6.403   2.822  0.4692 -0.1670  0.5173
 9737TIP3    H129175   3.150   6.395   2.727  2.4540  1.9820  0.1468
 9737TIP3    H229176   3.072   6.367   2.853  0.1401 -1.7629 -1.9362
 9738TIP3   OH229177   3.250   0.092   4.770 -0.1355 -0.0768 -0.0724
 9738TIP3    H129178   3.327   0.097   4.826 -0.2396 -1.3829  0.2322
 9738TIP3    H229179   3.188   0.039   4.820 -0.3337 -1.0354 -1.2823
 9739TIP3   OH229180   1.501   4.748   4.189  0.2489 -0.2521 -0.4299
 9739TIP3    H129181   1.551   4.826   4.163  0.1972  0.0989  0.4694
 9739TIP3    H229182   1.559   4.675   4.170  0.0299 -0.0643 -1.9489
 9740TIP3   OH229183   4.541   3.772   5.502  0.1807  0.1009 -0.4437
 9740TIP3    H129184   4.480   3.797   5.571  1.7717  1.7282  0.4310
 9740TIP3    H229185   4.524   3.834   5.431  0.2615  0.0091 -0.5449
 9741TIP3   OH229186   3.611   3.701   1.308 -0.0987  0.0597  0.6510
 9741TIP3    H129187   3.565   3.666   1.385 -1.1279 -0.3433 -0.1344
 9741TIP3    H229188   3.698   3.662   1.312 -0.6477 -1.1772  0.7659
 9742TIP3   OH229189   0.320   1.488   2.041  0.1749 -0.3655  0.1862
 9742TIP3    H129190   0.328   1.428   2.116  1.9827 -0.1205  0.2254
 9742TIP3    H229191   0.286   1.569   2.080 -0.6689 -0.8090  0.4102
 9743TIP3   OH229192   6.843   5.180   3.818  0.2772 -0.1168 -0.2607
 9743TIP3    H129193   6.804   5.194   3.904  1.2802  1.2077 -0.0010
 9743TIP3    H229194   6.931   5.147   3.836  1.8461  3.4407 -0.5759
 9744TIP3   OH229195   3.679   5.518   2.434  0.4567 -0.1694 -0.9107
 9744TIP3    H129196   3.691   5.601   2.481 -0.8900  0.6283 -1.9347
 9744TIP3    H229197   3.729   5.455   2.486 -0.5680  0.7688  1.3440
 9745TIP3   OH229198   0.922   4.646   5.554  0.7942 -0.0451 -0.4260
 9745TIP3    H129199   1.000   4.645   5.610  0.3098  1.7597  0.3545
 9745TIP3    H229200   0.848   4.643   5.614  0.2700  1.1834 -0.9547
 9746TIP3   OH229201   3.945   0.360   4.860 -0.4148  0.0926  0.8993
 9746TIP3    H129202   4.040   0.352   4.863 -0.3765  0.7382  1.6391
 9746TIP3    H229203   3.926   0.447   4.896 -1.2040  0.5669 -0.5800
 9747TIP3   OH229204   6.593   4.306   3.207 -0.6569  0.0382 -0.1963
 9747TIP3    H129205   6.679   4.265   3.193  0.2705  1.1953  1.6445
 9747TIP3    H229206   6.531   4.234   3.195  0.6695 -1.1475 -0.3333
 9748TIP3   OH229207   0.897   6.773   1.356  0.2815  0.1960  0.6135
 9748TIP3    H129208   0.825   6.757   1.296 -0.5942  1.0658  1.3768
 9748TIP3    H229209   0.914   6.688   1.397  1.2764 -0.5368 -1.2184
 9749TIP3   OH229210   4.921   1.364   4.648  0.0190 -0.2544 -0.5459
 9749TIP3    H129211   4.914   1.344   4.742  3.1737 -0.4247 -0.2343
 9749TIP3    H229212   4.873   1.293   4.605 -0.1501 -1.0637  0.9099
   7.21444   6.80185   5.89056   0.00000   0.00000  -2.40481   0.00000  -2.40481  -3.40092
