Title
  120
    1ASP      N    1   2.092   0.927   4.994  0.6870  0.6412  0.7980
    1ASP    HT1    2   2.178   0.873   4.974 -0.1887 -1.1321  1.5862
    1ASP    HT2    3   2.038   0.945   4.907  1.8534 -1.6585 -0.4969
    1ASP    HT3    4   2.025   0.873   5.053  0.2241  0.5272  0.1832
    1ASP     CA    5   2.124   1.056   5.064  0.1267  0.7552 -0.5805
    1ASP     HA    6   2.031   1.107   5.080  0.1850  1.3587 -2.0010
    1ASP     CB    7   2.180   1.022   5.204 -0.2264  0.3147  0.2473
    1ASP    HB1    8   2.209   1.118   5.252  0.1607 -0.6939  2.1277
    1ASP    HB2    9   2.271   0.959   5.195  0.6093  1.5444 -0.2008
    1ASP     CG   10   2.083   0.947   5.293 -0.0437  0.0759 -0.2347
    1ASP    OD1   11   1.963   0.925   5.253 -0.0466  0.2885  0.1917
    1ASP    OD2   12   2.113   0.905   5.405  0.0012 -0.4673  0.3357
    1ASP      C   13   2.212   1.142   4.984  0.1214 -1.2748  0.0062
    1ASP      O   14   2.276   1.100   4.888 -0.4461  0.9967  0.1792
    2ALA      N   15   2.227   1.272   5.013  0.6359 -0.2055  0.5123
    2ALA     HN   16   2.179   1.310   5.092  0.1146  0.2405 -0.0136
    2ALA     CA   17   2.317   1.362   4.942  0.1628  0.0016  0.2130
    2ALA     HA   18   2.315   1.337   4.837  0.2653 -0.4980  0.3256
    2ALA     CB   19   2.279   1.514   4.953  0.0058  0.3666  0.6327
    2ALA    HB1   20   2.172   1.535   4.931 -0.0734 -0.5196  0.1427
    2ALA    HB2   21   2.335   1.571   4.876  1.4063 -2.8890 -0.9516
    2ALA    HB3   22   2.311   1.546   5.054 -0.0804 -0.7792  1.0406
    2ALA      C   23   2.465   1.341   4.985  0.1055 -0.1300  0.9544
    2ALA      O   24   2.493   1.326   5.101 -0.6936  0.2771  0.0285
    3ASP      N   25   2.559   1.342   4.887 -0.1686 -0.2804  0.4562
    3ASP     HN   26   2.533   1.345   4.790 -0.2268 -0.9165  0.4459
    3ASP     CA   27   2.699   1.346   4.910 -0.0955 -0.0675 -0.2385
    3ASP     HA   28   2.720   1.408   4.996 -1.4930  0.6429 -0.3935
    3ASP     CB   29   2.745   1.200   4.943 -0.4075  0.1877 -0.3320
    3ASP    HB1   30   2.695   1.180   5.041 -0.0573 -1.0936 -0.3976
    3ASP    HB2   31   2.856   1.200   4.946 -0.3410 -1.1301 -1.7719
    3ASP     CG   32   2.702   1.088   4.849 -0.0971  0.0206 -0.6545
    3ASP    OD1   33   2.725   1.095   4.727  0.5633  0.1201 -0.5503
    3ASP    OD2   34   2.652   0.983   4.900 -0.2727  0.2621 -0.1315
    3ASP      C   35   2.782   1.398   4.789 -0.5422 -0.0146 -0.3455
    3ASP      O   36   2.734   1.408   4.673 -0.1409 -0.5170 -0.1400
    4GLY      N   37   2.904   1.446   4.824  0.3930  0.3094 -0.4725
    4GLY     HN   38   2.935   1.425   4.916 -0.1017 -0.9543 -0.5747
    4GLY     CA   39   2.984   1.521   4.729 -0.0024 -0.4487  0.3606
    4GLY    HA1   40   2.990   1.461   4.640 -0.7388  2.1711 -1.5873
    4GLY    HA2   41   3.082   1.552   4.764  0.6249 -1.2118 -0.6506
    4GLY      C   42   2.936   1.661   4.681  0.7361 -0.1856 -0.8574
    4GLY      O   43   2.863   1.728   4.755 -0.2598 -0.1634 -0.5391
    5PRO      N   44   2.981   1.703   4.559 -0.8763  0.0899 -0.4244
    5PRO     CD   45   3.081   1.631   4.474 -0.2472  0.5888 -0.4499
    5PRO    HD1   46   3.053   1.524   4.459 -1.2212  0.7070  0.4343
    5PRO    HD2   47   3.182   1.634   4.520 -0.0872  1.1209 -0.8339
    5PRO     CA   48   2.955   1.837   4.512 -0.0706  0.4911  0.0026
    5PRO     HA   49   2.977   1.904   4.594  0.5151  1.1193 -0.6511
    5PRO     CB   50   3.055   1.851   4.389  0.5048 -0.2877 -0.4048
    5PRO    HB1   51   3.151   1.893   4.426  1.2535 -0.9465 -1.5364
    5PRO    HB2   52   3.016   1.914   4.307  0.1063  0.5334  0.3983
    5PRO     CG   53   3.082   1.710   4.342 -0.6603 -0.7265  1.0653
    5PRO    HG1   54   2.996   1.672   4.283  1.0067 -0.8148 -1.4678
    5PRO    HG2   55   3.160   1.706   4.262 -2.3017  1.1115 -0.7460
    5PRO      C   56   2.809   1.852   4.472  0.2366  0.1243  0.0662
    5PRO      O   57   2.740   1.756   4.429 -0.1728 -0.2100  0.0621
    6GLY      N   58   2.757   1.973   4.499  0.4043  0.1702  0.5122
    6GLY     HN   59   2.811   2.047   4.537 -0.1974 -0.2816  2.3767
    6GLY     CA   60   2.616   2.003   4.501 -1.2190  0.0038 -0.3183
    6GLY    HA1   61   2.604   2.084   4.572 -1.4536 -0.4397  0.1578
    6GLY    HA2   62   2.561   1.913   4.522 -0.9803 -0.4318 -1.5133
    6GLY      C   63   2.567   2.056   4.375  0.6206 -0.2864  0.9727
    6GLY      O   64   2.612   2.018   4.264 -0.0021 -0.5989 -0.9470
    7ASP      N   65   2.464   2.148   4.379 -0.6356 -1.0238 -0.2112
    7ASP     HN   66   2.427   2.172   4.468 -0.2407  0.7936 -0.5002
    7ASP     CA   67   2.404   2.212   4.269 -0.2128 -0.2691 -1.2772
    7ASP     HA   68   2.376   2.129   4.206  1.5268 -2.1331  0.2772
    7ASP     CB   69   2.282   2.288   4.316 -0.0088 -0.4900  0.2380
    7ASP    HB1   70   2.235   2.230   4.398  0.5710 -0.0149  0.9201
    7ASP    HB2   71   2.196   2.286   4.245 -1.4195  1.0591  1.8101
    7ASP     CG   72   2.305   2.430   4.358  0.8477  0.2662 -0.4326
    7ASP    OD1   73   2.213   2.513   4.330 -0.6329 -0.5970 -0.0942
    7ASP    OD2   74   2.399   2.461   4.436  0.5485  0.3579  0.3785
    7ASP      C   75   2.501   2.296   4.190 -0.0072 -0.0862  0.1765
    7ASP      O   76   2.592   2.358   4.245 -0.0743  0.8689  0.3288
    8PRO      N   77   2.481   2.310   4.058  0.4001  0.8747  0.2602
    8PRO     CD   78   2.413   2.201   3.976 -0.0075  0.1977 -0.3165
    8PRO    HD1   79   2.303   2.201   3.993  0.1048 -1.4540  0.6222
    8PRO    HD2   80   2.453   2.103   4.009  0.6182  0.7300  0.5616
    8PRO     CA   81   2.524   2.418   3.972  0.7283 -0.6615  0.0842
    8PRO     HA   82   2.632   2.421   3.968  0.7903  1.3664  1.4232
    8PRO     CB   83   2.469   2.392   3.832  0.4336  0.3388  0.1964
    8PRO    HB1   84   2.529   2.421   3.743 -0.4304 -0.4588 -0.6814
    8PRO    HB2   85   2.367   2.434   3.813 -0.2091 -0.1316  2.3968
    8PRO     CG   86   2.460   2.237   3.836  0.7577  0.4642  0.4385
    8PRO    HG1   87   2.376   2.203   3.772 -0.4414 -0.3492  2.3347
    8PRO    HG2   88   2.555   2.191   3.800  0.3601  0.2125 -0.3157
    8PRO      C   89   2.492   2.555   4.033  0.1202  0.5518  0.2088
    8PRO      O   90   2.389   2.571   4.092 -0.0237 -0.2731  0.0746
    9ASP      N   91   2.589   2.652   4.025 -0.4848  0.5931 -0.2335
    9ASP     HN   92   2.679   2.628   3.989  1.4873  3.4449  2.2765
    9ASP     CA   93   2.580   2.784   4.081  0.3208 -0.3604  0.3115
    9ASP     HA   94   2.478   2.803   4.112  0.2910 -1.5108  0.9612
    9ASP     CB   95   2.672   2.792   4.201  0.2866 -0.5330 -0.4221
    9ASP    HB1   96   2.683   2.897   4.236 -0.5710 -0.4990 -0.2357
    9ASP    HB2   97   2.775   2.759   4.177  0.3149 -1.6023  1.0467
    9ASP     CG   98   2.625   2.700   4.312 -0.3198 -0.1266 -0.4348
    9ASP    OD1   99   2.506   2.703   4.353  0.2940  0.1912 -0.0730
    9ASP    OD2  100   2.699   2.608   4.362 -0.1004 -0.3995  0.0897
    9ASP      C  101   2.622   2.896   3.983  0.1246 -0.1805 -0.3792
    9ASP      O  102   2.599   3.015   4.009 -0.0693 -0.6266  0.3389
   10ALA      N  103   2.687   2.867   3.867 -0.4361 -0.2427 -0.4106
   10ALA     HN  104   2.697   2.772   3.837  1.7734 -0.1212 -0.2227
   10ALA     CA  105   2.760   2.959   3.776  0.3287 -0.1524  0.0550
   10ALA     HA  106   2.807   3.036   3.835  0.7726  0.2307 -0.7723
   10ALA     CB  107   2.872   2.878   3.714  0.5696 -0.9052 -0.2551
   10ALA    HB1  108   2.826   2.803   3.646 -1.5066  2.5863 -3.0915
   10ALA    HB2  109   2.942   2.834   3.788  0.0783  0.7519  1.2421
   10ALA    HB3  110   2.929   2.943   3.644  2.5634  0.7856  2.6995
   10ALA      C  111   2.664   3.025   3.680  0.5284  0.8429 -0.1606
   10ALA      O  112   2.573   2.964   3.632  0.2236  0.3518  0.1412
   11GLY      N  113   2.682   3.160   3.651  0.1804  0.1816 -0.1852
   11GLY     HN  114   2.767   3.209   3.669  0.5140  0.6887 -2.8064
   11GLY     CA  115   2.583   3.231   3.580  0.2352 -0.8857 -0.2951
   11GLY    HA1  116   2.626   3.330   3.586 -0.9060 -0.3123 -1.2317
   11GLY    HA2  117   2.487   3.215   3.627  0.3989  0.3020  0.4903
   11GLY      C  118   2.578   3.191   3.430  0.2288 -0.8070 -0.4401
   11GLY    OT1  119   2.467   3.160   3.372  0.2634  0.3391 -0.0951
   11GLY    OT2  120   2.687   3.188   3.374 -0.2697  0.2752 -0.4003
   6.34071   5.97808   5.17717   0.00000   0.00000  -2.11357   0.00000  -2.11357  -2.98904
