Title
46055
    1GLY      N    1   6.451   4.677   3.735 -0.0688  0.3063 -0.6526
    1GLY    HT1    2   6.435   4.708   3.637 -1.6648  0.2662 -0.4089
    1GLY    HT2    3   6.552   4.676   3.759  0.2311  0.3293 -1.8905
    1GLY    HT3    4   6.416   4.742   3.808  1.3914  0.1558  0.1993
    1GLY     CA    5   6.381   4.540   3.751 -1.0141 -0.1477  0.0420
    1GLY    HA1    6   6.402   4.494   3.846 -0.3715  2.2533  1.0963
    1GLY    HA2    7   6.406   4.473   3.670 -1.8375 -0.5642  0.1256
    1GLY      C    8   6.229   4.556   3.726  0.2960 -0.7657  0.5079
    1GLY      O    9   6.185   4.669   3.709  0.2658 -0.1223 -0.2100
    2PRO      N   10   6.156   4.446   3.736 -0.2068 -0.3730  0.3535
    2PRO     CD   11   6.215   4.318   3.777 -0.0244 -0.0049 -1.1469
    2PRO    HD1   12   6.228   4.323   3.888  4.2309  3.1391 -1.6951
    2PRO    HD2   13   6.308   4.284   3.728 -0.4528 -0.3090 -1.7585
    2PRO     CA   14   6.009   4.441   3.737 -0.1104 -0.6462 -0.8591
    2PRO     HA   15   5.984   4.474   3.638 -0.5121 -2.7764 -1.4996
    2PRO     CB   16   5.970   4.294   3.773  0.5516  0.2576 -0.1037
    2PRO    HB1   17   5.890   4.255   3.707  0.2907 -1.5843  1.2546
    2PRO    HB2   18   5.934   4.286   3.878 -0.9861  0.9858 -0.5545
    2PRO     CG   19   6.101   4.220   3.744 -0.2404 -0.1014  0.0130
    2PRO    HG1   20   6.121   4.129   3.804  1.0859  0.2834  0.1577
    2PRO    HG2   21   6.084   4.194   3.637  0.2806  0.3983 -0.1943
    2PRO      C   22   5.939   4.547   3.825 -0.2526 -0.6039 -0.0769
    2PRO      O   23   5.962   4.573   3.944  0.0363  0.6134 -0.1470
    3GLY      N   24   5.837   4.601   3.757 -0.5495 -0.4367  0.3946
    3GLY     HN   25   5.845   4.603   3.658  2.8639 -0.2033  0.6083
    3GLY     CA   26   5.712   4.658   3.810  0.2574  0.4182  0.5925
    3GLY    HA1   27   5.648   4.679   3.725  2.0789  0.9994 -0.6812
    3GLY    HA2   28   5.735   4.743   3.873  0.7341 -1.2804  2.7526
    3GLY      C   29   5.631   4.571   3.898 -0.2204  0.2525 -0.0957
    3GLY      O   30   5.625   4.450   3.880  0.2537 -0.3707 -0.2004
    4ALA      N   31   5.574   4.635   4.004 -0.6145  0.4240  0.6238
    4ALA     HN   32   5.582   4.734   4.006  2.0136  0.3270 -1.5378
    4ALA     CA   33   5.501   4.573   4.113  0.1447  0.3950  0.8662
    4ALA     HA   34   5.557   4.508   4.178 -1.1844 -2.4901 -0.7561
    4ALA     CB   35   5.441   4.693   4.195  0.0294 -0.1208 -0.3361
    4ALA    HB1   36   5.384   4.766   4.135 -0.7180  0.6743  1.3240
    4ALA    HB2   37   5.526   4.752   4.236  0.6374 -0.6372 -0.8375
    4ALA    HB3   38   5.376   4.656   4.277  0.6780  0.0723  0.2711
    4ALA      C   39   5.375   4.491   4.049 -0.3915  0.2420 -0.2830
    4ALA      O   40   5.315   4.534   3.951  0.0815  0.2523  0.0947
    5PRO      N   41   5.340   4.371   4.106  0.6273 -0.8089 -0.6575
    5PRO     CD   42   5.392   4.321   4.233  0.3101 -0.2439 -0.3413
    5PRO    HD1   43   5.406   4.401   4.308 -2.2818 -1.7967  1.8860
    5PRO    HD2   44   5.492   4.276   4.216  0.5702  0.1206  0.2523
    5PRO     CA   45   5.208   4.316   4.071  0.3510  0.1067 -0.3650
    5PRO     HA   46   5.190   4.298   3.967 -1.5147 -2.4949  0.3703
    5PRO     CB   47   5.209   4.183   4.153 -0.7394  0.8854  0.0262
    5PRO    HB1   48   5.254   4.099   4.098  0.8446  1.4982  0.3527
    5PRO    HB2   49   5.107   4.144   4.176 -0.1882 -0.2145  0.6175
    5PRO     CG   50   5.291   4.214   4.274 -0.6319 -0.2648  0.0957
    5PRO    HG1   51   5.230   4.254   4.358 -0.7305  1.0325 -0.5928
    5PRO    HG2   52   5.333   4.120   4.317  1.0700 -0.1776 -1.3223
    5PRO      C   53   5.092   4.406   4.114  0.6645  0.2152  0.7611
    5PRO      O   54   5.097   4.464   4.219  0.6226  0.5280  0.2940
    6GLY      N   55   4.996   4.431   4.025  0.2117  0.1901  0.0257
    6GLY     HN   56   5.012   4.388   3.936 -0.8253 -0.7211  0.2705
    6GLY     CA   57   4.874   4.512   4.039  0.3893 -0.4871 -0.0294
    6GLY    HA1   58   4.816   4.473   3.957 -0.7993 -0.1681  0.6524
    6GLY    HA2   59   4.900   4.616   4.026  0.3169 -0.5864 -0.9670
    6GLY      C   60   4.778   4.494   4.146  0.2407 -0.6838 -0.0779
    6GLY      O   61   4.764   4.383   4.202  0.8155 -0.4896 -0.0193
    7PRO      N   62   4.698   4.595   4.190 -0.5784  0.6794 -0.1420
    7PRO     CD   63   4.678   4.723   4.117  0.5329 -0.5836  0.3040
    7PRO    HD1   64   4.690   4.719   4.006  0.6244  1.0988  0.2394
    7PRO    HD2   65   4.758   4.791   4.153 -1.4682  2.5131 -0.9122
    7PRO     CA   66   4.593   4.577   4.291 -0.4753 -0.4488 -0.6414
    7PRO     HA   67   4.643   4.539   4.379  1.2576  0.6344 -1.1374
    7PRO     CB   68   4.526   4.715   4.297 -0.4987 -0.1726  0.2562
    7PRO    HB1   69   4.566   4.783   4.375 -0.9871 -0.1102  0.4554
    7PRO    HB2   70   4.421   4.696   4.328 -0.6078 -1.4118 -0.8594
    7PRO     CG   71   4.537   4.764   4.154  0.1559 -0.1400 -0.2354
    7PRO    HG1   72   4.467   4.704   4.091  2.2812 -2.6226 -0.3008
    7PRO    HG2   73   4.513   4.872   4.149  0.2439 -0.1856 -2.2157
    7PRO      C   74   4.499   4.460   4.271 -0.2400 -0.0837 -0.2335
    7PRO      O   75   4.466   4.421   4.156  0.1237 -0.0379 -0.1529
    8GLY      N   76   4.454   4.388   4.384  0.2154 -0.3205 -0.3788
    8GLY     HN   77   4.481   4.422   4.474  0.0974  2.5211 -1.3541
    8GLY     CA   78   4.368   4.267   4.379  0.0295 -0.3519 -0.6442
    8GLY    HA1   79   4.356   4.229   4.480  0.1323  0.6627 -0.2394
    8GLY    HA2   80   4.419   4.212   4.302  0.3696  1.9258 -2.0907
    8GLY      C   81   4.229   4.303   4.329  0.1772  0.5930 -0.2054
    8GLY      O   82   4.188   4.417   4.327 -0.9259  0.3631  0.9196
    9ALA      N   83   4.159   4.205   4.270  1.1450 -0.2401  0.8214
    9ALA     HN   84   4.192   4.111   4.267 -1.6341 -1.3883  3.4650
    9ALA     CA   85   4.023   4.223   4.217  0.0306 -0.3947 -0.3575
    9ALA     HA   86   4.028   4.312   4.157  0.9335 -0.8338 -0.9417
    9ALA     CB   87   3.959   4.110   4.127  0.0454 -0.7179  0.2222
    9ALA    HB1   88   3.936   4.014   4.179 -0.0112 -0.9592 -0.2460
    9ALA    HB2   89   4.007   4.098   4.028  0.3121 -0.3202  0.3023
    9ALA    HB3   90   3.857   4.144   4.100  0.4830  0.9960  0.6575
    9ALA      C   91   3.922   4.265   4.333  0.1158 -0.0174 -0.0465
    9ALA      O   92   3.938   4.224   4.447  0.1404  0.1994  0.4985
   10PRO      N   93   3.826   4.353   4.306 -0.3575  0.3759 -0.3237
   10PRO     CD   94   3.818   4.437   4.179  0.1504  0.6084 -0.9523
   10PRO    HD1   95   3.792   4.367   4.097  1.9130  1.8109 -2.5670
   10PRO    HD2   96   3.910   4.492   4.151  1.0004 -1.1516 -1.6717
   10PRO     CA   97   3.714   4.375   4.391  0.5993  0.6070  0.2362
   10PRO     HA   98   3.751   4.425   4.480 -1.5273  1.6078  0.5866
   10PRO     CB   99   3.616   4.450   4.308 -0.0253  0.2399 -0.1595
   10PRO    HB1  100   3.541   4.502   4.371 -1.2289 -1.4868 -0.1579
   10PRO    HB2  101   3.553   4.381   4.247  1.2450 -1.1162  0.0377
   10PRO     CG  102   3.700   4.533   4.210  1.0316 -0.5096  0.5024
   10PRO    HG1  103   3.636   4.550   4.121 -0.5956 -0.0685  1.7289
   10PRO    HG2  104   3.735   4.622   4.267  0.9548 -0.6135  0.7133
   10PRO      C  105   3.647   4.248   4.445  0.3358 -0.2648 -0.0818
   10PRO      O  106   3.623   4.146   4.379  0.0676  0.0620  0.0106
   11GLY      N  107   3.599   4.246   4.566 -0.2246 -0.4864 -0.3762
   11GLY     HN  108   3.606   4.329   4.621  0.2495  0.4218 -1.7973
   11GLY     CA  109   3.541   4.126   4.628 -0.0041  0.4037  0.0691
   11GLY    HA1  110   3.523   4.148   4.732 -0.5383 -1.5691  0.4098
   11GLY    HA2  111   3.615   4.048   4.621  1.8413  2.2357 -1.7785
   11GLY      C  112   3.409   4.092   4.563 -0.1676  0.1664 -0.0756
   11GLY      O  113   3.358   4.179   4.488  0.3405  0.7339 -0.0552
   12PRO      N  114   3.341   3.980   4.586 -0.1408  0.3911  1.0590
   12PRO     CD  115   3.411   3.862   4.641  0.5019 -0.1058 -0.5359
   12PRO    HD1  116   3.433   3.880   4.748  1.8595  2.8047 -1.2542
   12PRO    HD2  117   3.507   3.836   4.592  0.1160 -3.4760  0.4023
   12PRO     CA  118   3.203   3.957   4.580 -0.1616 -0.2929 -0.2949
   12PRO     HA  119   3.185   3.950   4.474  0.3872 -0.9593 -0.3460
   12PRO     CB  120   3.176   3.825   4.654 -0.8615 -0.3961 -0.0198
   12PRO    HB1  121   3.091   3.769   4.608 -2.0494  0.0127  1.6343
   12PRO    HB2  122   3.152   3.844   4.761  0.5153  1.0436  0.0485
   12PRO     CG  123   3.310   3.747   4.635 -1.1746  0.0562 -0.0763
   12PRO    HG1  124   3.329   3.673   4.715  0.5300  1.5616  0.9409
   12PRO    HG2  125   3.316   3.707   4.531 -2.4346 -1.5470  0.4454
   12PRO      C  126   3.108   4.072   4.634  0.1135  0.7806  0.2852
   12PRO      O  127   3.121   4.111   4.749 -0.2644  0.3924 -0.7222
   13GLY      N  128   3.019   4.122   4.537  0.2361 -0.0142 -0.4800
   13GLY     HN  129   3.008   4.065   4.456 -0.2158 -2.1099  0.9856
   13GLY     CA  130   2.916   4.211   4.580 -0.5102 -0.8749  0.1450
   13GLY    HA1  131   2.872   4.254   4.491  0.6622 -1.2996 -0.6582
   13GLY    HA2  132   2.955   4.287   4.646 -2.9712 -0.6223  1.3816
   13GLY      C  133   2.815   4.148   4.669  0.5575  0.1276 -0.2537
   13GLY      O  134   2.814   4.028   4.682 -0.6165  0.0561  0.7642
   14ALA      N  135   2.738   4.232   4.737  0.4913 -0.2587 -0.0291
   14ALA     HN  136   2.751   4.331   4.735 -0.8612 -0.0766 -0.4097
   14ALA     CA  137   2.632   4.185   4.830  0.0298 -0.3098 -0.2294
   14ALA     HA  138   2.690   4.149   4.913  0.4765 -0.6600 -0.6945
   14ALA     CB  139   2.553   4.310   4.886 -0.8135  0.1330  0.0860
   14ALA    HB1  140   2.483   4.355   4.812 -0.6860  1.4632  0.7492
   14ALA    HB2  141   2.615   4.397   4.918 -0.8153 -0.2503  1.1519
   14ALA    HB3  142   2.489   4.281   4.972 -0.0640  2.7836  1.5859
   14ALA      C  143   2.539   4.071   4.784 -0.2104 -0.0527 -0.0925
   14ALA      O  144   2.519   4.063   4.666 -0.4336  0.0523  0.1321
   15PRO      N  145   2.486   3.988   4.867 -0.5465  0.7500  0.0577
   15PRO     CD  146   2.536   3.953   5.003 -0.0066 -1.1573  0.3081
   15PRO    HD1  147   2.486   4.009   5.085  1.0263 -1.4560  1.1577
   15PRO    HD2  148   2.646   3.969   5.014  0.2160  0.1691 -3.1683
   15PRO     CA  149   2.388   3.887   4.831  0.3133 -0.3438  0.6875
   15PRO     HA  150   2.429   3.832   4.748  1.6461 -0.0014  1.1059
   15PRO     CB  151   2.375   3.797   4.957  0.0024  0.1355  0.4725
   15PRO    HB1  152   2.355   3.690   4.935 -2.0483  0.5942  0.0224
   15PRO    HB2  153   2.292   3.821   5.027 -0.9306  1.9460 -1.2149
   15PRO     CG  154   2.507   3.805   5.028 -1.1812  0.3704 -0.3033
   15PRO    HG1  155   2.506   3.760   5.130 -1.7052 -1.1879 -0.9752
   15PRO    HG2  156   2.572   3.743   4.962 -0.2684  1.4446 -0.4235
   15PRO      C  157   2.257   3.948   4.784 -0.0292  0.1132 -0.1750
   15PRO    OT1  158   2.215   4.055   4.830 -0.0601  0.0426 -0.8943
   15PRO    OT2  159   2.185   3.882   4.702 -0.3705 -0.0328  0.0686
   16LIT    LIT  160   4.405   2.452   4.695  0.1610 -0.2849 -0.2972
   17LIT    LIT  161   7.947   7.826   1.080  0.1264  0.2188  0.7822
   18LIT    LIT  162   1.236   2.165   4.498 -0.6059 -0.2665  0.5704
   19LIT    LIT  163   3.226   0.541   3.071 -0.1311 -1.0468 -1.3454
   20LIT    LIT  164   7.782   6.474   2.598 -1.1508  0.6561 -0.6396
   21LIT    LIT  165   5.055   6.306   2.008  0.0683  0.4404  0.2603
   22LIT    LIT  166   8.315   0.692   0.114 -0.5600  0.8582  0.3029
   23LIT    LIT  167   4.903   3.959   3.490 -0.3612  1.1440 -0.3783
   24LIT    LIT  168   2.302   1.446   3.091  0.1101  0.5987  0.9603
   25LIT    LIT  169   8.572   3.241   0.048  1.0757 -0.0548  0.3701
   26LIT    LIT  170   3.622   2.145   1.530  0.0493 -0.2080  0.0206
   27LIT    LIT  171   7.004   4.764   0.860  0.8787 -0.9743  0.5985
   28LIT    LIT  172   4.266   0.201   6.626  0.0561 -0.1558  0.5702
   29LIT    LIT  173   7.950   3.800   4.126  0.3360 -0.9237  0.7404
   30LIT    LIT  174   4.007   1.642   6.300  0.4455  0.8596 -0.2360
   31LIT    LIT  175   5.653   7.879   4.059 -0.0996 -0.1717  0.3736
   32LIT    LIT  176   1.692   3.800   6.723  0.8565 -0.6430 -0.1851
   33LIT    LIT  177   5.394   4.721   2.009  0.3640  0.1814  0.8179
   34LIT    LIT  178   6.825   5.559   5.601 -0.9548  0.2300  0.6969
   35LIT    LIT  179   2.250   0.581   0.020  0.4571  0.6308  0.6171
   36LIT    LIT  180   6.823   3.125   0.858 -0.2153 -0.8566 -0.4863
   37LIT    LIT  181   2.686   1.533   1.225 -0.3255 -0.0340  0.0038
   38LIT    LIT  182   1.454   1.840   4.657 -0.6527  0.3234 -0.9984
   39LIT    LIT  183   0.569   2.011   5.515  1.3420  0.1557 -0.2576
   40LIT    LIT  184   7.995   6.410   5.259 -0.9867  0.1440  0.9510
   41LIT    LIT  185   4.950   5.924   5.127  0.4787 -0.0269 -0.0954
   42LIT    LIT  186   0.160   2.807   6.711  0.7118  0.4753  0.1128
   43LIT    LIT  187   6.538   7.785   4.835  0.6906 -0.1737 -0.7223
   44LIT    LIT  188   7.332   7.026   1.677 -0.0369  1.1281  0.0216
   45LIT    LIT  189   2.595   7.095   0.563  0.4172  0.3997  0.4973
   46LIT    LIT  190   0.584   2.271   2.402 -0.4066 -0.5019  0.7509
   47LIT    LIT  191   4.871   1.184   4.035 -0.5559 -1.2273  0.2637
   48LIT    LIT  192   2.509   6.287   1.064 -1.2365  0.4293 -0.8907
   49LIT    LIT  193   6.514   0.025   1.383 -1.3723 -0.5686 -1.3422
   50LIT    LIT  194   0.634   4.188   2.390 -0.1835 -0.2845  0.3266
   51LIT    LIT  195   1.270   1.160   2.051 -1.1345  0.1643  0.4307
   52LIT    LIT  196   3.918   7.729   6.681 -0.5035 -0.9701  0.9175
   53LIT    LIT  197   1.790   3.183   5.751  0.2439  0.3926 -0.5431
   54LIT    LIT  198   5.342   2.747   3.315  1.2346  0.7408  0.0083
   55LIT    LIT  199   5.811   2.630   1.789 -0.1463  2.0471  0.2369
   56LIT    LIT  200   1.472   1.417   5.520 -0.2844  0.7406 -0.2114
   57LIT    LIT  201   3.897   6.936   5.135 -1.0027 -0.6326 -1.1585
   58LIT    LIT  202   1.555   4.992   2.882  0.5743  0.1389  0.5613
   59CLA    CLA  203   3.150   7.060   0.801  0.0700 -0.1551 -0.4006
   60CLA    CLA  204   0.918   1.225   2.754  0.1598  0.0776  0.3955
   61CLA    CLA  205   0.383   7.947   0.394 -0.1645 -0.2015  0.0933
   62CLA    CLA  206   2.847   1.721   6.491 -0.3281 -0.6526  0.0373
   63CLA    CLA  207   5.969   7.826   6.678  0.0868  0.0131 -0.7019
   64CLA    CLA  208   2.865   0.852   1.835 -0.0344 -0.3887 -0.2143
   65CLA    CLA  209   3.734   1.453   5.982  0.2457 -0.1020 -0.1835
   66CLA    CLA  210   7.302   7.036   1.900 -0.4295 -0.3096 -0.6334
   67CLA    CLA  211   5.075   2.566   1.214  0.1082 -0.2615  0.0650
   68CLA    CLA  212   4.508   6.110   4.966 -0.8064 -0.3469  0.1951
   69CLA    CLA  213   4.989   5.296   1.342  0.4788  0.3189  0.0858
   70CLA    CLA  214   8.103   3.255   1.023  0.0684 -0.0807  0.2597
   71CLA    CLA  215   5.884   1.879   3.721  0.0547 -0.1365 -0.0596
   72CLA    CLA  216   0.150   5.493   3.748  0.2136  0.1983 -0.0687
   73CLA    CLA  217   2.383   2.513   4.161 -0.2025 -0.4885  0.3715
   74CLA    CLA  218   7.477   0.075   2.045 -0.1024  0.0890 -0.1412
   75CLA    CLA  219   6.652   5.723   5.656 -0.3625  0.0865 -0.1859
   76CLA    CLA  220   7.459   3.156   4.323 -0.4136  0.4001  0.0291
   77CLA    CLA  221   3.546   4.602   2.683  0.0729 -0.2789 -0.2798
   78CLA    CLA  222   3.146   6.690   6.127  0.4444  0.0620 -0.1796
   79CLA    CLA  223   7.047   2.568   6.105  0.0246  0.0123  0.3566
   80CLA    CLA  224   5.979   5.929   1.594 -0.1211  0.0401 -0.0694
   81CLA    CLA  225   2.769   0.371   3.828 -0.1378  0.0704  0.1243
   82CLA    CLA  226   3.128   6.209   5.496  0.2399  0.4244 -0.0439
   83CLA    CLA  227   1.014   2.184   4.421  0.2513  0.2316  0.1934
   84CLA    CLA  228   0.266   6.064   6.502 -0.1142 -0.4592 -0.1980
   85CLA    CLA  229   4.583   3.691   6.583 -0.0498  0.2472 -0.1413
   86CLA    CLA  230   0.608   7.487   2.220  0.2023  0.3389 -0.2251
   87CLA    CLA  231   6.585   7.953   4.697 -0.1694 -0.0201 -0.1106
   88CLA    CLA  232   2.870   6.542   2.556 -0.1198 -0.4414  0.0214
   89CLA    CLA  233   8.049   6.254   4.129  0.0242 -0.4501 -0.0345
   90CLA    CLA  234   7.605   7.253   0.529  0.1147  0.4552 -0.2431
   91CLA    CLA  235   0.508   4.772   0.071  0.1627  0.1282 -0.1150
   92CLA    CLA  236   2.220   7.565   0.093 -0.2797 -0.1366 -0.1398
   93CLA    CLA  237   1.822   3.443   1.547 -0.2251  0.0152  0.2398
   94CLA    CLA  238   4.471   5.745   3.638  0.5811  0.0287  0.0297
   95CLA    CLA  239   3.039   7.102   1.623  0.4198  0.3487  0.3209
   96CLA    CLA  240   1.108   2.756   5.999  0.1757 -0.2028  0.0231
   97CLA    CLA  241   7.449   5.384   4.264 -0.3510 -0.0689 -0.4498
   98CLA    CLA  242   3.597   4.804   5.407  0.0735  0.0608 -0.1496
   99CLA    CLA  243   1.263   1.976   4.645  0.0071 -0.2052 -0.1518
  100CLA    CLA  244   6.977   2.983   0.965 -0.3780  0.0388 -0.0295
  101CLA    CLA  245   5.758   7.566   5.250  0.5290  0.1550  0.0149
  102TIP3   OH2  246   3.745   1.520   3.456  0.5413  0.3611 -0.1443
  102TIP3    H1  247   3.772   1.535   3.546  2.9668 -1.1153 -0.5772
  102TIP3    H2  248   3.742   1.424   3.447 -3.1281  0.4383 -0.6813
  103TIP3   OH2  249   7.735   6.405   1.450  0.0736  0.6083  0.0174
  103TIP3    H1  250   7.830   6.419   1.452  0.0986  0.2883  1.7851
  103TIP3    H2  251   7.704   6.462   1.379  1.4581  1.5371  0.1337
  104TIP3   OH2  252   0.429   2.364   4.571 -0.0606  0.1769  0.5964
  104TIP3    H1  253   0.524   2.360   4.578  0.1246  0.8836 -1.1557
  104TIP3    H2  254   0.412   2.449   4.530 -1.4117 -0.1174  0.5211
  105TIP3   OH2  255   3.334   2.157   3.866 -0.6486 -0.0074  0.3549
  105TIP3    H1  256   3.387   2.110   3.931 -0.9353 -0.1157  0.5140
  105TIP3    H2  257   3.271   2.207   3.919 -1.7130 -1.0824  0.1368
  106TIP3   OH2  258   0.430   7.247   2.509  0.4240 -0.2126  0.8214
  106TIP3    H1  259   0.438   7.338   2.539 -0.9596 -0.4789  2.0505
  106TIP3    H2  260   0.489   7.242   2.433 -0.9871  2.2853 -0.5411
  107TIP3   OH2  261   4.197   0.349   2.796  0.3142 -0.4099  0.3324
  107TIP3    H1  262   4.260   0.382   2.732  0.0979  0.1995  0.4267
  107TIP3    H2  263   4.191   0.255   2.779  2.0599 -0.6723  1.0185
  108TIP3   OH2  264   2.771   1.788   3.454  0.4302  0.9186 -0.5621
  108TIP3    H1  265   2.802   1.701   3.429  0.8631  0.7037  0.7004
  108TIP3    H2  266   2.812   1.847   3.391  1.9875  0.4462 -0.0195
  109TIP3   OH2  267   6.270   3.182   6.952 -0.3412 -0.0585  0.1084
  109TIP3    H1  268   6.354   3.205   6.915 -0.3528  0.8081  0.5957
  109TIP3    H2  269   6.289   3.162   7.044 -0.6082 -0.2168  0.1298
  110TIP3   OH2  270   7.195   3.555   6.991 -0.2393  0.3567 -0.6079
  110TIP3    H1  271   7.200   3.633   6.935 -0.2037  0.8008  0.0113
  110TIP3    H2  272   7.267   3.565   7.053 -0.1163 -0.2697 -0.6446
  111TIP3   OH2  273   3.657   0.628   1.250  0.0119 -0.7191  0.5664
  111TIP3    H1  274   3.591   0.566   1.279 -0.1741 -0.5571  0.4875
  111TIP3    H2  275   3.608   0.699   1.210  0.1250  0.3196  2.2094
  112TIP3   OH2  276   0.233   7.832   1.812 -0.4314 -0.1025  0.2764
  112TIP3    H1  277   0.300   7.788   1.864  0.3777 -0.2915 -0.8856
  112TIP3    H2  278   0.152   7.785   1.831 -0.2785  0.2468  1.8421
  113TIP3   OH2  279   0.468   4.568   3.027 -0.1615  0.2298  0.0720
  113TIP3    H1  280   0.534   4.538   3.090 -0.1754 -1.9164 -0.8704
  113TIP3    H2  281   0.409   4.492   3.017 -1.7098  1.4775 -0.4893
  114TIP3   OH2  282   6.103   4.166   6.837  0.6172 -0.1431  0.2362
  114TIP3    H1  283   6.167   4.237   6.843  1.9259 -1.1593 -1.2467
  114TIP3    H2  284   6.085   4.158   6.743 -1.1526 -0.3657  0.5719
  115TIP3   OH2  285   6.366   3.657   6.895  0.0022 -0.1381  0.8704
  115TIP3    H1  286   6.392   3.678   6.985 -1.1724 -1.7232  1.6140
  115TIP3    H2  287   6.271   3.671   6.893 -0.2949 -2.0064  0.4593
  116TIP3   OH2  288   7.248   3.002   6.709  0.1908  0.2557 -0.4148
  116TIP3    H1  289   7.306   3.061   6.661 -1.7485  0.8363 -2.1235
  116TIP3    H2  290   7.165   3.005   6.660 -0.8481 -1.6063  1.1682
  117TIP3   OH2  291   1.568   7.946   1.491 -0.0802  0.5113 -0.0107
  117TIP3    H1  292   1.557   8.031   1.449  0.7469 -0.5118 -2.4441
  117TIP3    H2  293   1.653   7.952   1.535 -0.1989  1.0810  0.1366
  118TIP3   OH2  294   5.623   1.262   0.673 -0.4821 -0.0083 -0.3784
  118TIP3    H1  295   5.533   1.267   0.642 -0.6594 -0.8300 -0.0075
  118TIP3    H2  296   5.668   1.333   0.627 -1.5696  1.1370  0.2842
  119TIP3   OH2  297   1.259   7.108   1.137 -0.3831  0.0380  0.2596
  119TIP3    H1  298   1.295   7.184   1.182 -0.4024  0.5279 -0.5487
  119TIP3    H2  299   1.195   7.072   1.198  0.2326  0.1791  0.9865
  120TIP3   OH2  300   2.062   6.632   2.802 -0.0787 -0.9590 -0.1658
  120TIP3    H1  301   2.147   6.675   2.793  0.1366 -1.1475  0.8829
  120TIP3    H2  302   2.000   6.693   2.762  0.4989 -0.6456 -0.5864
  121TIP3   OH2  303   0.631   6.369   2.263 -0.4959  0.3735 -0.4321
  121TIP3    H1  304   0.709   6.324   2.294 -2.4323 -2.6330  0.2547
  121TIP3    H2  305   0.588   6.400   2.343 -1.0653  0.1569 -0.6498
  122TIP3   OH2  306   6.064   0.201   0.102  0.0953  0.1783  0.1203
  122TIP3    H1  307   6.039   0.165   0.017  0.2276 -1.3024  0.7065
  122TIP3    H2  308   5.984   0.196   0.155  0.3359 -0.0302  0.4669
  123TIP3   OH2  309   2.218   4.428   6.963 -0.3729  0.2068 -0.6629
  123TIP3    H1  310   2.314   4.420   6.958 -0.1427  1.6596  1.0488
  123TIP3    H2  311   2.193   4.470   6.881  0.3046 -1.3340 -1.6921
  124TIP3   OH2  312   4.399   1.826   4.312  0.4958 -0.0654 -0.3379
  124TIP3    H1  313   4.396   1.896   4.247  0.0149 -1.1056 -1.4454
  124TIP3    H2  314   4.438   1.752   4.266 -0.9337 -1.1861  0.2028
  125TIP3   OH2  315   3.651   6.238   1.858  0.0233 -0.6784  0.2697
  125TIP3    H1  316   3.682   6.265   1.771 -0.7810  0.0500  0.2033
  125TIP3    H2  317   3.556   6.233   1.849 -0.1948  0.8650  1.4887
  126TIP3   OH2  318   1.477   7.606   3.041  0.6726 -0.4446  0.2512
  126TIP3    H1  319   1.410   7.638   2.980 -0.3177 -1.5523  0.7353
  126TIP3    H2  320   1.481   7.672   3.110 -1.5286 -1.4242  1.3728
  127TIP3   OH2  321   4.139   1.262   0.613  0.1601  0.0018 -0.0797
  127TIP3    H1  322   4.068   1.282   0.674 -0.3576  0.4663 -0.8317
  127TIP3    H2  323   4.106   1.190   0.560  0.4838 -0.1821 -0.0354
  128TIP3   OH2  324   2.420   7.368   2.835  0.1042 -0.2824  0.0973
  128TIP3    H1  325   2.338   7.407   2.867  0.5734 -0.1218  1.1500
  128TIP3    H2  326   2.488   7.425   2.871  0.7118 -0.9135 -0.0536
  129TIP3   OH2  327   1.219   6.469   0.393 -0.3258 -0.1543 -0.7590
  129TIP3    H1  328   1.237   6.550   0.441 -1.8691 -1.5523  2.3641
  129TIP3    H2  329   1.124   6.469   0.380 -0.7068 -2.5890  1.5493
  130TIP3   OH2  330   3.967   0.378   1.646  0.5178  0.9550 -0.5333
  130TIP3    H1  331   3.960   0.381   1.550  0.1520  1.1961 -0.4987
  130TIP3    H2  332   4.037   0.438   1.667  3.1804 -1.8774 -0.9271
  131TIP3   OH2  333   0.350   7.454   1.230  0.1209 -0.9084 -0.0152
  131TIP3    H1  334   0.368   7.433   1.139 -1.6991 -2.6552 -0.0115
  131TIP3    H2  335   0.429   7.427   1.277  1.3282  0.5957 -1.1000
  132TIP3   OH2  336   1.623   6.655   0.106  0.3880 -0.4403 -0.3784
  132TIP3    H1  337   1.566   6.730   0.121 -0.0464 -1.0401  1.1326
  132TIP3    H2  338   1.587   6.586   0.162  0.1044 -2.1369 -2.5684
  133TIP3   OH2  339   8.529   7.803   2.996  0.2580 -1.0234 -0.2068
  133TIP3    H1  340   8.474   7.815   3.073  1.5570  1.6625  0.3510
  133TIP3    H2  341   8.595   7.740   3.024  1.8196  1.2975  1.5486
  134TIP3   OH2  342   8.181   7.905   1.408 -0.1189 -0.1836 -0.2079
  134TIP3    H1  343   8.258   7.847   1.404 -1.2952 -1.7523 -0.5432
  134TIP3    H2  344   8.161   7.911   1.502  0.1581 -0.1158 -0.1527
  135TIP3   OH2  345   4.577   6.712   3.472  0.2617 -0.1630  0.2867
  135TIP3    H1  346   4.637   6.715   3.398  0.2904  0.3890  0.3245
  135TIP3    H2  347   4.621   6.656   3.536 -1.0475 -2.9894 -1.1942
  136TIP3   OH2  348   1.993   7.761   2.320 -0.4500 -0.6064 -0.0788
  136TIP3    H1  349   2.075   7.807   2.305 -0.8929  0.4996  0.7858
  136TIP3    H2  350   2.017   7.669   2.323  0.5385 -0.4004 -1.2504
  137TIP3   OH2  351   6.580   3.098   6.612  0.5534  0.0880  0.2460
  137TIP3    H1  352   6.643   3.066   6.548 -0.3429 -0.5513 -0.3277
  137TIP3    H2  353   6.542   3.175   6.572  0.1968 -0.1490  0.1247
  138TIP3   OH2  354   2.393   2.020   2.990  0.5910 -0.3442 -0.0302
  138TIP3    H1  355   2.468   1.976   3.030  0.3749 -0.0041  0.7655
  138TIP3    H2  356   2.391   2.106   3.032 -0.7454 -0.6626  0.5701
  139TIP3   OH2  357   3.038   3.067   0.989  0.3512  0.0599  0.4431
  139TIP3    H1  358   2.953   3.044   1.026  0.1756 -0.1220 -0.0809
  139TIP3    H2  359   3.021   3.089   0.898  1.2684 -2.7388 -0.4418
  140TIP3   OH2  360   0.473   7.423   0.916 -0.4535 -0.0424 -0.2326
  140TIP3    H1  361   0.522   7.480   0.976 -1.3679 -1.0483  1.5135
  140TIP3    H2  362   0.540   7.377   0.866  0.3552  0.1381  0.6728
  141TIP3   OH2  363   8.498   7.199   0.623 -0.0000 -0.7374 -0.4786
  141TIP3    H1  364   8.451   7.278   0.596 -0.3150 -1.2541 -1.4752
  141TIP3    H2  365   8.534   7.164   0.542  0.7636 -1.2171  0.0660
  142TIP3   OH2  366   4.095   0.026   0.556  0.0702  0.0209 -0.5380
  142TIP3    H1  367   4.064  -0.024   0.480  2.0122 -0.1693 -1.2403
  142TIP3    H2  368   4.170   0.075   0.522  1.8555 -1.1563  1.5972
  143TIP3   OH2  369   4.214   1.626   2.090  0.3930  1.0246 -0.6154
  143TIP3    H1  370   4.283   1.688   2.112  0.4916  0.8344 -0.3850
  143TIP3    H2  371   4.143   1.680   2.055  0.2872  1.3185  0.0476
  144TIP3   OH2  372   1.593   6.776   2.246  0.3355  0.2121 -0.3739
  144TIP3    H1  373   1.524   6.819   2.196  1.0912  0.2708 -1.3913
  144TIP3    H2  374   1.621   6.703   2.190  0.4171 -0.4094  0.4646
  145TIP3   OH2  375   0.254   6.719   1.422 -1.0212  0.7046  0.3044
  145TIP3    H1  376   0.318   6.760   1.364 -2.1039 -0.4664 -1.7641
  145TIP3    H2  377   0.283   6.628   1.430 -0.7355  0.9135  1.8395
  146TIP3   OH2  378   4.588   2.137   1.380 -0.4532  0.2327  0.0754
  146TIP3    H1  379   4.613   2.111   1.291 -1.3842 -1.4954  0.3178
  146TIP3    H2  380   4.539   2.218   1.368  0.1807  0.4827 -0.9041
  147TIP3   OH2  381   0.150   7.150   1.655 -0.6862 -0.1564 -0.0569
  147TIP3    H1  382   0.099   7.076   1.622 -0.1955 -0.4681 -0.1209
  147TIP3    H2  383   0.240   7.132   1.626 -0.2378 -0.4595  1.4699
  148TIP3   OH2  384   4.384   2.428   5.116 -0.1740  0.0167 -0.5071
  148TIP3    H1  385   4.456   2.369   5.094 -0.2447 -0.0322 -0.6069
  148TIP3    H2  386   4.315   2.371   5.149  0.0032  0.1086  0.0236
  149TIP3   OH2  387   1.176   6.434   0.874 -0.1426 -0.2805 -0.3035
  149TIP3    H1  388   1.196   6.392   0.790 -0.1015 -0.1099 -0.3804
  149TIP3    H2  389   1.159   6.361   0.934  0.2442 -0.4156 -0.3537
  150TIP3   OH2  390   3.429   1.612   2.268  0.3091  0.0475  0.3758
  150TIP3    H1  391   3.412   1.552   2.341  0.1176  0.2544  0.4994
  150TIP3    H2  392   3.487   1.563   2.210  0.2938 -0.1941  0.5654
  151TIP3   OH2  393   1.565   7.201   3.216 -0.2861 -0.0009 -0.1316
  151TIP3    H1  394   1.531   7.117   3.188 -1.0904  0.4477 -0.5078
  151TIP3    H2  395   1.627   7.227   3.147 -0.0576 -0.2646 -0.0267
  152TIP3   OH2  396   8.519   7.313   2.100 -0.0287  0.5132  0.0411
  152TIP3    H1  397   8.559   7.330   2.015 -2.9526 -0.7850 -1.6840
  152TIP3    H2  398   8.472   7.230   2.088  1.8195 -1.2033  3.7872
  153TIP3   OH2  399   0.182   7.016   2.409  0.0158  0.2877 -0.1406
  153TIP3    H1  400   0.208   7.052   2.324  0.8514  0.3393  0.1374
  153TIP3    H2  401   0.255   7.036   2.467 -1.2166  1.6496  0.9736
  154TIP3   OH2  402   0.380   6.784   0.938 -0.3134  0.1431  0.9183
  154TIP3    H1  403   0.307   6.841   0.917 -1.8440 -1.9835  0.3315
  154TIP3    H2  404   0.354   6.740   1.019  0.2482 -0.7153  0.6455
  155TIP3   OH2  405   0.952   7.007   0.991 -0.0549  0.1279 -0.4201
  155TIP3    H1  406   0.946   6.916   0.963  0.3900  0.2283 -0.8514
  155TIP3    H2  407   0.909   7.009   1.077 -0.2016 -0.4528 -0.4782
  156TIP3   OH2  408   2.574   8.063   2.530 -0.2200 -0.5094 -0.2780
  156TIP3    H1  409   2.522   8.101   2.459 -0.2948 -1.0538 -0.5166
  156TIP3    H2  410   2.663   8.093   2.514 -0.7723  2.2348  1.3463
  157TIP3   OH2  411   3.521   0.488   1.697 -0.1766 -0.2537  0.0237
  157TIP3    H1  412   3.547   0.442   1.617  1.1018 -1.2451  0.9971
  157TIP3    H2  413   3.456   0.552   1.667 -0.1381 -0.9932 -1.7217
  158TIP3   OH2  414   2.235   7.288   1.350 -0.1577 -0.0459 -0.1843
  158TIP3    H1  415   2.140   7.295   1.355 -0.1408 -0.1649  0.2920
  158TIP3    H2  416   2.253   7.275   1.257 -0.4337  2.4490 -0.6122
  159TIP3   OH2  417   4.863   1.381   0.249  0.5222 -0.2838  0.0688
  159TIP3    H1  418   4.807   1.344   0.317  2.9013 -1.0558  1.6407
  159TIP3    H2  419   4.908   1.305   0.211  2.2497  0.5587  0.4037
  160TIP3   OH2  420   5.493   0.196   1.675  0.4769 -0.2803 -0.3990
  160TIP3    H1  421   5.569   0.162   1.723  0.7468  0.5080 -0.2416
  160TIP3    H2  422   5.516   0.288   1.658 -0.3498 -0.0957 -0.5402
  161TIP3   OH2  423   5.734   0.596   2.078  0.4550  0.0785  0.4257
  161TIP3    H1  424   5.706   0.543   2.003 -1.2149  1.8534 -0.2849
  161TIP3    H2  425   5.817   0.636   2.049  0.9593 -0.9867  0.3966
  162TIP3   OH2  426   7.776   2.208   6.963 -0.0175 -0.3481  0.3690
  162TIP3    H1  427   7.801   2.126   6.921 -0.0145 -0.8315  1.3073
  162TIP3    H2  428   7.699   2.185   7.016 -0.2678  0.3432  0.3109
  163TIP3   OH2  429   3.002   0.954   2.100  0.2083 -0.0918 -0.3567
  163TIP3    H1  430   2.949   0.933   2.022 -0.6596  0.8565 -0.0262
  163TIP3    H2  431   3.035   1.042   2.084 -0.7488  0.4802  0.7666
  164TIP3   OH2  432   5.939   1.789   1.993 -0.0992 -0.3570 -0.8595
  164TIP3    H1  433   5.945   1.697   1.968  0.9564 -0.4020 -0.4435
  164TIP3    H2  434   5.848   1.812   1.975 -0.2391 -1.3337 -1.4639
  165TIP3   OH2  435   1.732   8.055   0.671 -0.1968  0.2180  0.0347
  165TIP3    H1  436   1.648   8.026   0.636 -0.2343  0.0719  0.2475
  165TIP3    H2  437   1.744   8.143   0.634 -2.0288  1.6070  2.6322
  166TIP3   OH2  438   3.449   3.088   0.240 -0.6499 -0.3256 -0.2829
  166TIP3    H1  439   3.467   3.004   0.283  1.3932 -0.1706 -0.7963
  166TIP3    H2  440   3.355   3.084   0.219 -0.6824 -2.2837  0.1015
  167TIP3   OH2  441   7.474   8.114   2.366 -1.0724  0.1688 -0.2790
  167TIP3    H1  442   7.565   8.128   2.392 -1.1881  0.0525  0.1937
  167TIP3    H2  443   7.432   8.080   2.445 -1.1842 -1.2285 -0.9254
  168TIP3   OH2  444   0.981   7.064   2.026 -0.1692  0.3528  0.1555
  168TIP3    H1  445   1.018   6.978   2.004 -0.4077  0.0916  0.7862
  168TIP3    H2  446   0.888   7.048   2.040  0.2312  0.2516  2.8315
  169TIP3   OH2  447   5.087   2.597   3.092  0.9665  0.0760 -0.2664
  169TIP3    H1  448   5.088   2.643   3.008  1.9011  1.4079  0.4540
  169TIP3    H2  449   5.000   2.615   3.128  1.4279  1.5337  0.1382
  170TIP3   OH2  450   4.411   0.237   0.532  0.1806 -0.1147  0.2294
  170TIP3    H1  451   4.405   0.189   0.450  2.0988  1.4168 -0.8603
  170TIP3    H2  452   4.499   0.217   0.565  0.2562  1.0527  0.7656
  171TIP3   OH2  453   0.520   8.104   2.211  0.5108 -0.1373 -0.0903
  171TIP3    H1  454   0.607   8.102   2.252  0.5757 -1.6836 -0.2822
  171TIP3    H2  455   0.505   8.014   2.183 -0.6694  0.3613 -1.0929
  172TIP3   OH2  456   4.247   0.269   0.795  0.1304 -0.1086 -0.0248
  172TIP3    H1  457   4.233   0.180   0.827 -1.3946  1.3006  3.4431
  172TIP3    H2  458   4.327   0.262   0.743  1.0336 -3.1785  1.5925
  173TIP3   OH2  459   8.531   3.333   5.247  0.3263 -0.6172  0.0008
  173TIP3    H1  460   8.562   3.317   5.158 -0.5683 -0.4965 -0.3371
  173TIP3    H2  461   8.436   3.322   5.242  0.1812  0.1998  0.7620
  174TIP3   OH2  462   1.138   6.237   1.063 -0.2195 -0.2340 -0.1851
  174TIP3    H1  463   1.080   6.201   1.130  1.1311  0.1261  1.2080
  174TIP3    H2  464   1.209   6.173   1.056 -0.2523 -0.1691 -1.1382
  175TIP3   OH2  465   3.695   7.986   1.491 -0.2426  0.2180 -0.7317
  175TIP3    H1  466   3.760   7.979   1.561 -0.1913  1.5511 -0.6389
  175TIP3    H2  467   3.645   7.905   1.497 -0.1780  0.2785  0.7849
  176TIP3   OH2  468   3.338   0.035   2.483 -0.3902 -0.1778 -0.1549
  176TIP3    H1  469   3.257   0.068   2.523 -0.7412 -1.4685  0.2363
  176TIP3    H2  470   3.313   0.016   2.393  0.1680  1.8848 -0.7673
  177TIP3   OH2  471   4.591   1.270   3.101 -0.1642 -0.2107 -0.3651
  177TIP3    H1  472   4.667   1.230   3.059 -1.3728 -0.5063 -2.3272
  177TIP3    H2  473   4.564   1.207   3.168  0.7314 -0.5226 -0.2891
  178TIP3   OH2  474   7.979   4.256   6.446  0.3700 -0.1039  0.9301
  178TIP3    H1  475   8.042   4.253   6.518  0.0006  0.6596  1.2875
  178TIP3    H2  476   7.894   4.239   6.487  0.2215 -0.1711  0.5963
  179TIP3   OH2  477   4.351   2.022   1.375 -0.3079 -0.1718  0.1060
  179TIP3    H1  478   4.438   2.061   1.388 -0.6385  1.1615 -1.5686
  179TIP3    H2  479   4.341   2.015   1.280 -2.7469  1.4021  0.1826
  180TIP3   OH2  480   8.473   3.407   4.887  0.4915  0.3520  0.2899
  180TIP3    H1  481   8.551   3.382   4.936  0.1699  0.5558  0.9066
  180TIP3    H2  482   8.490   3.378   4.797  0.9197 -0.3497  0.5994
  181TIP3   OH2  483   3.595   0.570   0.941  0.8471  0.1197  0.1274
  181TIP3    H1  484   3.584   0.492   0.886 -2.0816 -0.0679  0.8963
  181TIP3    H2  485   3.541   0.553   1.018  1.7460  2.0807  1.2203
  182TIP3   OH2  486   2.047   7.914   1.903 -0.2086  0.3167  0.4372
  182TIP3    H1  487   2.035   7.948   1.992  0.0804 -0.8102  0.9209
  182TIP3    H2  488   2.069   7.822   1.916  1.5028  0.5387 -0.7294
  183TIP3   OH2  489   8.184   0.557   1.721  0.1001 -0.0234 -0.0201
  183TIP3    H1  490   8.115   0.565   1.656  0.0720  0.4633  0.0700
  183TIP3    H2  491   8.175   0.468   1.755  0.8382 -0.6768 -1.5020
  184TIP3   OH2  492   0.174   4.711   5.749  0.1642  0.2416 -0.1419
  184TIP3    H1  493   0.102   4.773   5.759 -0.7839 -0.2163 -3.4492
  184TIP3    H2  494   0.131   4.626   5.737  1.1118  0.1244 -3.2668
  185TIP3   OH2  495   6.431   2.526   2.065  0.2038  0.2425 -0.6522
  185TIP3    H1  496   6.434   2.437   2.030 -0.2905  0.4458 -1.2091
  185TIP3    H2  497   6.339   2.543   2.082  0.3630  0.4071  0.0875
  186TIP3   OH2  498   3.469   7.252   1.769  0.4557 -0.0782  0.0846
  186TIP3    H1  499   3.473   7.164   1.730  2.9454  0.0181  0.0115
  186TIP3    H2  500   3.451   7.235   1.862  0.3362 -0.6437 -0.0361
  187TIP3   OH2  501   4.515   1.293   4.891 -0.3359  0.9888 -0.1579
  187TIP3    H1  502   4.453   1.280   4.962 -0.4580 -1.0185 -0.6019
  187TIP3    H2  503   4.472   1.358   4.834 -1.6532  0.2606 -0.0210
  188TIP3   OH2  504   4.060   1.395   2.393  0.1804  0.0454  0.0649
  188TIP3    H1  505   3.996   1.324   2.396 -0.4602  0.6087 -0.1538
  188TIP3    H2  506   4.128   1.364   2.333 -0.4925 -0.0602 -0.6503
  189TIP3   OH2  507   4.367   0.123   4.111  0.4957  0.1025  0.2087
  189TIP3    H1  508   4.301   0.056   4.127  0.5824 -0.0888 -0.2416
  189TIP3    H2  509   4.319   0.206   4.117  0.3806 -0.0000  0.7205
  190TIP3   OH2  510   2.423   7.746   1.143  0.5246  0.2699  0.2090
  190TIP3    H1  511   2.352   7.684   1.161  0.5551  0.0073 -0.5352
  190TIP3    H2  512   2.385   7.832   1.161 -0.3554  0.2117 -1.2801
  191TIP3   OH2  513   3.935   6.963   2.098  0.0671 -0.6071  0.0702
  191TIP3    H1  514   3.846   6.930   2.113  0.5457 -1.9222  0.0802
  191TIP3    H2  515   3.952   7.022   2.171 -1.3533  0.8454 -0.7288
  192TIP3   OH2  516   3.186   7.597   1.482 -0.1511  0.2629  0.3699
  192TIP3    H1  517   3.221   7.511   1.507 -2.0674 -1.2283 -1.9123
  192TIP3    H2  518   3.167   7.640   1.566  0.7706 -1.5418  1.5509
  193TIP3   OH2  519   4.508   1.975   2.500  0.4782 -0.4375  0.7372
  193TIP3    H1  520   4.453   2.026   2.559  1.4496 -0.8093  1.9662
  193TIP3    H2  521   4.465   1.889   2.495 -0.2566 -0.0400 -0.0561
  194TIP3   OH2  522   6.019   1.991   2.355  0.4773  0.2358 -0.2941
  194TIP3    H1  523   5.938   1.968   2.398 -0.0896 -1.2968 -2.1143
  194TIP3    H2  524   6.087   1.973   2.420 -0.5338  0.5120  0.8588
  195TIP3   OH2  525   5.382   0.331   0.672 -0.2052  0.0845  0.1141
  195TIP3    H1  526   5.385   0.335   0.767  0.8410 -0.0003  0.0869
  195TIP3    H2  527   5.464   0.289   0.647 -1.0641 -1.1449 -0.7580
  196TIP3   OH2  528   3.835   1.017   1.559  0.2031  0.4273  0.4594
  196TIP3    H1  529   3.813   1.083   1.493 -2.4527 -0.3821  0.4602
  196TIP3    H2  530   3.777   1.038   1.633  0.4597 -0.9568  1.0632
  197TIP3   OH2  531   6.193   2.355   5.612  0.2213  0.3487  0.3922
  197TIP3    H1  532   6.285   2.359   5.636  0.1532  0.6760  0.6013
  197TIP3    H2  533   6.191   2.300   5.533  0.0897 -3.6823  3.0445
  198TIP3   OH2  534   3.906   0.916   2.065  0.0879 -0.1404 -0.1986
  198TIP3    H1  535   3.932   0.928   2.156  0.5057 -0.8215 -0.2271
  198TIP3    H2  536   3.977   0.864   2.026  0.6533  1.3731 -1.2770
  199TIP3   OH2  537   4.116   2.030   0.872  0.5068  0.0373  0.3503
  199TIP3    H1  538   4.023   2.011   0.883  0.7518 -1.9915 -0.9192
  199TIP3    H2  539   4.123   2.067   0.784  1.0986 -1.3437 -0.2018
  200TIP3   OH2  540   7.332   1.354   2.433  0.2761 -0.4544 -0.3155
  200TIP3    H1  541   7.418   1.356   2.475  0.0342 -1.1168  0.2392
  200TIP3    H2  542   7.341   1.408   2.355  1.9298 -2.5159 -1.6264
  201TIP3   OH2  543   4.996   1.441   2.210 -0.4507 -0.0109  0.9328
  201TIP3    H1  544   4.989   1.350   2.182  1.3837 -0.6461  2.3859
  201TIP3    H2  545   4.922   1.454   2.269 -0.3223 -0.7699  1.2614
  202TIP3   OH2  546   4.465   0.398   1.037  0.2324 -0.3385  0.4808
  202TIP3    H1  547   4.492   0.406   0.945  1.9675 -1.0906  0.8999
  202TIP3    H2  548   4.417   0.478   1.055 -2.0814 -1.1446 -1.7142
  203TIP3   OH2  549   8.026   5.025   6.708  0.5032  0.1462  0.0013
  203TIP3    H1  550   7.988   4.944   6.742 -0.5794 -0.5298 -2.6964
  203TIP3    H2  551   8.120   5.011   6.709  0.2545 -1.9007 -2.1736
  204TIP3   OH2  552   5.540   1.903   3.097 -0.1313 -0.0295 -0.0790
  204TIP3    H1  553   5.485   1.968   3.140  0.8431  1.6972 -1.3935
  204TIP3    H2  554   5.626   1.944   3.092  1.1502 -2.3778  1.2558
  205TIP3   OH2  555   2.843   7.310   1.196  0.1806  0.8195  0.0325
  205TIP3    H1  556   2.873   7.398   1.170 -0.1490  0.5012 -1.5138
  205TIP3    H2  557   2.918   7.271   1.240  0.5905  1.6110  0.0538
  206TIP3   OH2  558   6.868   7.931   2.935  0.4064  0.4451  0.0641
  206TIP3    H1  559   6.837   7.898   3.019  0.3116 -0.6226 -0.3725
  206TIP3    H2  560   6.956   7.895   2.925  0.3336  0.3775 -0.3857
  207TIP3   OH2  561   1.045   1.050   4.720 -0.4658 -0.2385  0.7079
  207TIP3    H1  562   1.128   1.084   4.688 -0.3377 -0.3477  0.9235
  207TIP3    H2  563   1.058   1.037   4.814 -0.1621 -1.8764  0.4596
  208TIP3   OH2  564   0.926   1.211   0.776 -0.2122 -0.4045  0.3286
  208TIP3    H1  565   0.940   1.279   0.841  2.0067 -0.4809 -0.0417
  208TIP3    H2  566   0.948   1.253   0.693  1.2979 -1.5853  0.1138
  209TIP3   OH2  567   4.355   1.176   4.204 -0.1584  0.7511 -0.3343
  209TIP3    H1  568   4.416   1.239   4.242  0.2558 -0.6159  1.3696
  209TIP3    H2  569   4.378   1.172   4.112 -1.4375  4.4620 -0.8724
  210TIP3   OH2  570   0.679   7.108   0.871 -0.0870 -0.1291 -0.0681
  210TIP3    H1  571   0.765   7.105   0.912  0.1114 -1.2773 -0.5338
  210TIP3    H2  572   0.656   7.016   0.858 -0.0821  0.1756 -2.6247
  211TIP3   OH2  573   3.634   0.190   2.096  0.3043 -0.0591  0.0541
  211TIP3    H1  574   3.540   0.169   2.092  0.0086  1.5411 -1.4722
  211TIP3    H2  575   3.657   0.175   2.188 -1.0146 -2.2691  0.0614
  212TIP3   OH2  576   4.414   5.051   6.898  0.7372  0.3437  0.8159
  212TIP3    H1  577   4.499   5.068   6.858  0.3610 -0.1163 -0.2093
  212TIP3    H2  578   4.351   5.078   6.831  0.0995 -2.0783  0.3922
  213TIP3   OH2  579   5.363   2.759   6.588 -0.1929  0.5391 -0.3773
  213TIP3    H1  580   5.298   2.705   6.633  0.5163 -0.5204 -0.6147
  213TIP3    H2  581   5.358   2.732   6.497 -0.6472  1.7099 -0.7146
  214TIP3   OH2  582   0.169   1.111   3.623  0.1686 -0.0363 -0.5338
  214TIP3    H1  583   0.081   1.073   3.623  1.4483 -3.1536 -1.3788
  214TIP3    H2  584   0.184   1.138   3.714 -1.5289  0.2664 -0.3342
  215TIP3   OH2  585   3.332   2.900   0.950 -0.1222  0.2165 -0.0204
  215TIP3    H1  586   3.257   2.958   0.942 -0.6434  0.0704  3.2392
  215TIP3    H2  587   3.408   2.958   0.945 -0.5170  0.6699 -0.7753
  216TIP3   OH2  588   1.614   2.799   3.551  0.3854  0.2142 -0.0091
  216TIP3    H1  589   1.635   2.819   3.643  0.6322  1.4491 -0.3194
  216TIP3    H2  590   1.677   2.731   3.526  2.2406  1.9137 -0.1023
  217TIP3   OH2  591   0.480   1.294   4.257 -0.7591 -0.0897 -0.2361
  217TIP3    H1  592   0.540   1.269   4.187  2.0075 -0.1023  2.0418
  217TIP3    H2  593   0.461   1.213   4.302 -1.2637  0.1574 -0.0039
  218TIP3   OH2  594   3.347   3.415   3.567 -0.9586 -0.1523 -0.0985
  218TIP3    H1  595   3.396   3.371   3.498 -1.4191 -0.1056 -0.4591
  218TIP3    H2  596   3.320   3.344   3.626  0.7762 -0.0084  0.8832
  219TIP3   OH2  597   3.267   0.792   3.420  0.3551  0.5207 -0.1013
  219TIP3    H1  598   3.241   0.884   3.420  0.5963  0.5872  0.4548
  219TIP3    H2  599   3.228   0.756   3.499  0.1315  0.1063 -0.3987
  220TIP3   OH2  600   1.467   7.783   2.483 -0.6696 -0.2178  0.0383
  220TIP3    H1  601   1.493   7.864   2.438 -0.6605 -0.4033 -0.2919
  220TIP3    H2  602   1.371   7.783   2.480 -0.6882  0.1611  0.7121
  221TIP3   OH2  603   1.308   2.713   0.537 -0.9671  0.0499 -0.1175
  221TIP3    H1  604   1.338   2.801   0.514 -0.5402 -0.4190 -1.4276
  221TIP3    H2  605   1.368   2.684   0.605 -0.4107  0.3515 -0.4721
  222TIP3   OH2  606   1.241   1.932   3.626 -0.1907  0.7228 -0.1083
  222TIP3    H1  607   1.213   2.021   3.648 -1.6544  0.2847 -0.1864
  222TIP3    H2  608   1.337   1.935   3.635 -0.2421  2.2328  0.1341
  223TIP3   OH2  609   3.778   3.869   2.823 -0.0842 -0.2908  0.0684
  223TIP3    H1  610   3.855   3.908   2.863 -0.0077  0.8006 -1.1062
  223TIP3    H2  611   3.786   3.775   2.842  0.6082  0.0388  1.4523
  224TIP3   OH2  612   2.834   2.100   4.321  0.0325  0.4164 -0.0561
  224TIP3    H1  613   2.892   2.156   4.269  0.4691 -0.4016 -0.4523
  224TIP3    H2  614   2.851   2.011   4.290 -1.3281  0.1467 -0.0636
  225TIP3   OH2  615   5.048   6.368   5.083 -0.1002 -0.0047  0.5649
  225TIP3    H1  616   4.956   6.367   5.057 -0.3842 -0.1943  1.5221
  225TIP3    H2  617   5.091   6.307   5.023 -0.5593  0.2511 -0.0278
  226TIP3   OH2  618   6.669   8.056   3.277 -0.4959  0.0727 -0.3925
  226TIP3    H1  619   6.749   8.084   3.321  0.2444 -0.2912 -1.4805
  226TIP3    H2  620   6.608   8.034   3.348  0.7162 -0.6317  0.4404
  227TIP3   OH2  621   3.629   0.621   2.026  0.0278 -0.1626 -0.0827
  227TIP3    H1  622   3.627   0.695   1.965  0.8586  0.5824  0.7826
  227TIP3    H2  623   3.542   0.582   2.018  0.0421  0.0728 -1.5572
  228TIP3   OH2  624   2.412   0.903   2.358  0.4528  0.0581 -0.0922
  228TIP3    H1  625   2.493   0.887   2.310  0.7896  1.1621  0.1082
  228TIP3    H2  626   2.384   0.816   2.387  0.9720 -0.4536 -1.1065
  229TIP3   OH2  627   3.097   0.099   1.492 -0.1230 -0.2663 -0.3232
  229TIP3    H1  628   3.061   0.107   1.581 -1.6597 -2.7640 -0.6746
  229TIP3    H2  629   3.024   0.121   1.434 -0.2654 -2.4200 -1.0032
  230TIP3   OH2  630   0.573   1.383   1.984 -0.1108  0.1009 -0.1667
  230TIP3    H1  631   0.515   1.373   2.059  0.3467 -1.6325 -0.0298
  230TIP3    H2  632   0.642   1.442   2.014 -0.1764 -0.2252  0.6194
  231TIP3   OH2  633   1.947   1.527   2.553 -0.1467  0.0403  0.4665
  231TIP3    H1  634   1.954   1.602   2.613 -2.1492  1.0923 -0.5668
  231TIP3    H2  635   1.854   1.502   2.557 -0.3866  0.3077 -2.3658
  232TIP3   OH2  636   0.113   6.650   0.253 -0.0680  0.0537 -0.5595
  232TIP3    H1  637   0.176   6.621   0.318 -1.2997 -1.1498  0.1058
  232TIP3    H2  638   0.058   6.574   0.235 -3.9535  2.0854  1.9049
  233TIP3   OH2  639   5.832   4.787   6.327 -0.0919  0.6483  0.1618
  233TIP3    H1  640   5.888   4.722   6.285 -1.1362 -0.3572  0.2920
  233TIP3    H2  641   5.818   4.753   6.416 -0.1362  1.3675  0.4347
  234TIP3   OH2  642   1.400   1.521   1.807 -0.0180  0.2978 -0.6094
  234TIP3    H1  643   1.404   1.480   1.720  2.7871 -0.3172 -0.2406
  234TIP3    H2  644   1.417   1.613   1.791 -0.4062  0.3420 -0.7883
  235TIP3   OH2  645   3.466   0.195   1.367 -0.0138  0.0234  0.0173
  235TIP3    H1  646   3.504   0.172   1.282  0.7132  1.3954 -0.0416
  235TIP3    H2  647   3.515   0.142   1.430  0.9550  0.6552 -0.2040
  236TIP3   OH2  648   4.185   5.243   6.908 -0.1508 -0.6546  0.3918
  236TIP3    H1  649   4.187   5.185   6.831 -0.3092  0.7036 -0.6445
  236TIP3    H2  650   4.096   5.232   6.943 -0.9568  0.7138 -1.1742
  237TIP3   OH2  651   1.336   2.599   3.904  0.3963  0.2009 -0.0649
  237TIP3    H1  652   1.346   2.595   3.999 -2.4502  0.4768  0.2908
  237TIP3    H2  653   1.370   2.685   3.879 -0.6345  0.9205  0.9652
  238TIP3   OH2  654   3.377   1.572   3.707 -0.5004  0.4841  0.7374
  238TIP3    H1  655   3.439   1.570   3.780 -1.3275  2.2878  1.5251
  238TIP3    H2  656   3.292   1.556   3.746 -0.8593  0.6905  0.0569
  239TIP3   OH2  657   2.639   2.491   0.872  0.4840 -0.0371  0.5324
  239TIP3    H1  658   2.719   2.535   0.901  1.6302 -2.2025  0.7008
  239TIP3    H2  659   2.665   2.441   0.795 -0.6963 -0.8637  0.6544
  240TIP3   OH2  660   1.235   3.086   3.031  0.4504  0.3443  0.2894
  240TIP3    H1  661   1.212   3.006   2.984  0.1937  1.0663 -0.8429
  240TIP3    H2  662   1.155   3.112   3.076  0.1044  0.7640 -0.5483
  241TIP3   OH2  663   0.109   1.574   2.895  0.0108 -0.0892  0.2117
  241TIP3    H1  664   0.019   1.600   2.879  0.3157  1.4577  0.9657
  241TIP3    H2  665   0.162   1.645   2.859  0.9637 -1.3725 -0.9700
  242TIP3   OH2  666   1.505   1.390   3.105 -0.0042 -0.0697  0.3820
  242TIP3    H1  667   1.422   1.416   3.066 -0.1565  0.4226  1.0370
  242TIP3    H2  668   1.505   1.294   3.101 -0.3141 -0.0441 -0.2079
  243TIP3   OH2  669   0.690   1.225   4.062  0.2577  0.5278 -0.2217
  243TIP3    H1  670   0.605   1.207   4.022  0.5101 -0.2099 -0.4232
  243TIP3    H2  671   0.719   1.306   4.021 -1.1369  1.7179  1.0879
  244TIP3   OH2  672   3.179   1.851   3.173  0.2231  0.1548  0.3867
  244TIP3    H1  673   3.163   1.919   3.237  1.2483  0.3344  0.4598
  244TIP3    H2  674   3.266   1.818   3.194  0.0380 -0.6732 -0.1061
  245TIP3   OH2  675   0.320   7.939   0.736 -0.2181 -0.2128 -0.2099
  245TIP3    H1  676   0.262   7.924   0.661  0.4850  0.2696 -0.8582
  245TIP3    H2  677   0.402   7.896   0.712 -0.8128 -2.3681  1.4246
  246TIP3   OH2  678   4.382   1.400   2.952 -0.2147  0.5184  0.6537
  246TIP3    H1  679   4.299   1.359   2.973 -0.4251 -0.9427 -2.5950
  246TIP3    H2  680   4.443   1.369   3.019 -1.5125 -1.1951  1.0559
  247TIP3   OH2  681   2.765   1.906   2.112 -0.2885  0.1872 -0.0789
  247TIP3    H1  682   2.772   1.954   2.195 -0.5405  0.2594 -0.0984
  247TIP3    H2  683   2.816   1.827   2.126  0.3345  0.5737 -0.1262
  248TIP3   OH2  684   2.546   1.813   1.901  0.3073 -0.4378 -0.3476
  248TIP3    H1  685   2.599   1.890   1.924  1.8868 -1.7924  0.6693
  248TIP3    H2  686   2.457   1.846   1.897  1.1282  1.7831 -1.4547
  249TIP3   OH2  687   2.325   1.711   0.985 -0.2347  0.1787 -0.1807
  249TIP3    H1  688   2.251   1.759   0.948  0.5978  1.3568 -0.3491
  249TIP3    H2  689   2.285   1.635   1.029 -1.5046  0.6237 -0.5445
  250TIP3   OH2  690   3.936   2.888   1.996 -0.3370 -0.9521 -0.1741
  250TIP3    H1  691   3.883   2.809   1.988 -0.2912 -1.0781  0.6471
  250TIP3    H2  692   3.941   2.924   1.908 -1.8841 -0.8771 -0.2335
  251TIP3   OH2  693   0.237   0.795   2.816  0.3813  0.5816  0.7060
  251TIP3    H1  694   0.215   0.888   2.829  1.0660  0.9566 -0.7760
  251TIP3    H2  695   0.192   0.750   2.887  1.0815  2.1964  2.2152
  252TIP3   OH2  696   6.566   3.013   0.484 -0.0984 -0.5115 -0.2815
  252TIP3    H1  697   6.534   2.931   0.447 -0.6708 -0.7483  0.7398
  252TIP3    H2  698   6.492   3.073   0.477  0.7376  0.3484 -2.2951
  253TIP3   OH2  699   0.804   1.208   4.340  0.5473  0.1564  0.5487
  253TIP3    H1  700   0.714   1.195   4.369  1.3392  0.3376  3.1945
  253TIP3    H2  701   0.798   1.208   4.245 -2.2220 -0.0037  0.6722
  254TIP3   OH2  702   0.820   1.268   2.469  0.1704  0.0748 -0.0034
  254TIP3    H1  703   0.799   1.361   2.463 -1.5239 -0.3506 -1.1252
  254TIP3    H2  704   0.838   1.252   2.562 -1.2792  1.1631  0.4702
  255TIP3   OH2  705   2.303   0.338   1.542 -0.5800  0.1801  0.5438
  255TIP3    H1  706   2.276   0.338   1.634 -1.0104  0.1761  0.4221
  255TIP3    H2  707   2.343   0.424   1.529 -1.4875  0.6006  0.4654
  256TIP3   OH2  708   2.339   3.367   3.927 -0.0648  0.1175 -0.5404
  256TIP3    H1  709   2.332   3.322   4.011 -0.7957  1.9365  0.3938
  256TIP3    H2  710   2.252   3.404   3.911 -0.8812 -2.9017 -3.7023
  257TIP3   OH2  711   2.650   3.128   3.405 -0.3965 -0.5239  0.1787
  257TIP3    H1  712   2.675   3.184   3.479  0.6703 -2.8377  1.6312
  257TIP3    H2  713   2.576   3.077   3.438 -1.4590  0.0904 -1.1861
  258TIP3   OH2  714   0.171   7.287   2.607 -0.1585 -0.1062 -0.2028
  258TIP3    H1  715   0.223   7.275   2.528 -3.3729 -0.3354 -2.3679
  258TIP3    H2  716   0.196   7.214   2.664  1.2118 -0.7075 -1.5619
  259TIP3   OH2  717   2.338   1.370   2.918 -0.5997 -0.0143  0.4378
  259TIP3    H1  718   2.303   1.388   2.831 -0.1785  0.0737  0.2883
  259TIP3    H2  719   2.371   1.280   2.913 -0.9045 -0.1404  0.6147
  260TIP3   OH2  720   3.818   1.488   1.419 -0.6340 -0.1539 -0.3086
  260TIP3    H1  721   3.788   1.564   1.468  1.7936  0.1422  0.7546
  260TIP3    H2  722   3.896   1.518   1.372  1.0603 -2.2508  1.0568
  261TIP3   OH2  723   0.811   2.807   2.031 -0.3846  0.3963 -0.3738
  261TIP3    H1  724   0.880   2.752   2.069  1.3660  1.4393 -1.9056
  261TIP3    H2  725   0.805   2.882   2.090  0.2699  0.6156 -0.5781
  262TIP3   OH2  726   0.449   2.782   2.145  0.1649  0.2871 -0.1172
  262TIP3    H1  727   0.428   2.855   2.204 -0.1957  0.2307 -0.1735
  262TIP3    H2  728   0.425   2.704   2.195  0.8111  0.1956  0.0491
  263TIP3   OH2  729   2.645   3.086   0.090  0.0014 -0.6542  0.2147
  263TIP3    H1  730   2.675   3.162   0.139  0.2786 -1.0181  0.6156
  263TIP3    H2  731   2.696   3.013   0.125  0.7117 -0.8109 -1.1151
  264TIP3   OH2  732   8.024   2.771   3.012 -0.3358  0.0900 -0.0241
  264TIP3    H1  733   8.056   2.744   3.099 -0.0879  0.1399 -0.0977
  264TIP3    H2  734   7.938   2.731   3.005  0.2033 -1.0634 -0.3139
  265TIP3   OH2  735   0.372   0.085   0.271 -0.4797 -0.0666  0.6917
  265TIP3    H1  736   0.375  -0.010   0.259  1.4649  0.0613  0.0448
  265TIP3    H2  737   0.354   0.096   0.365  0.5196 -1.0876  1.0179
  266TIP3   OH2  738   8.200   7.718   1.647 -0.3463 -0.1231 -0.1475
  266TIP3    H1  739   8.259   7.706   1.573 -0.3146  1.4703 -0.3921
  266TIP3    H2  740   8.159   7.632   1.659  0.4533 -0.6761 -1.3206
  267TIP3   OH2  741   2.044   1.810   0.997  0.3176 -0.1369  0.4954
  267TIP3    H1  742   2.024   1.776   1.084  0.6656  0.4772  0.8142
  267TIP3    H2  743   1.958   1.821   0.956  0.1358 -0.1119  0.8770
  268TIP3   OH2  744   5.234   2.108   0.143 -0.3239 -0.1144  0.0018
  268TIP3    H1  745   5.158   2.053   0.124  0.5792 -0.8983 -1.3974
  268TIP3    H2  746   5.272   2.128   0.057  0.1102  1.6469  0.5645
  269TIP3   OH2  747   5.961   4.698   6.866 -0.7793  0.3954  0.3788
  269TIP3    H1  748   6.012   4.777   6.846  1.8696 -1.3966 -0.0398
  269TIP3    H2  749   5.980   4.680   6.958 -1.6725  0.4270  0.5742
  270TIP3   OH2  750   4.658   1.570   3.175 -0.1654  0.2697 -0.0214
  270TIP3    H1  751   4.733   1.588   3.119  0.5239  1.2748  1.1864
  270TIP3    H2  752   4.643   1.476   3.167  0.7367  0.1951 -0.8665
  271TIP3   OH2  753   7.396   5.580   6.307 -0.1380 -0.3432 -0.7988
  271TIP3    H1  754   7.336   5.516   6.347  2.0258 -1.4464  0.7930
  271TIP3    H2  755   7.481   5.535   6.306  1.0806  1.9127 -1.1554
  272TIP3   OH2  756   7.079   6.318   5.467  0.0564 -0.4158  0.0224
  272TIP3    H1  757   7.039   6.321   5.380 -0.2965  0.1153  0.2033
  272TIP3    H2  758   7.010   6.285   5.525  0.1872 -0.4494  0.1603
  273TIP3   OH2  759   1.888   0.352   2.570  0.0915  0.4128  0.0008
  273TIP3    H1  760   1.863   0.263   2.596  1.3064  0.0036 -0.1912
  273TIP3    H2  761   1.964   0.373   2.625 -0.4500  1.5126  0.3558
  274TIP3   OH2  762   5.367   2.422   1.553  0.2775 -0.1254  0.2197
  274TIP3    H1  763   5.311   2.369   1.497  0.6588 -1.0894  0.7411
  274TIP3    H2  764   5.456   2.406   1.519  0.1187  2.9397 -1.9055
  275TIP3   OH2  765   5.546   7.113   6.766 -0.3617 -0.8004  0.7928
  275TIP3    H1  766   5.624   7.059   6.756 -0.0758 -0.6039  1.9336
  275TIP3    H2  767   5.568   7.174   6.836 -1.0685  0.1087  0.2275
  276TIP3   OH2  768   7.571   5.671   5.514  0.5661 -0.7981 -0.0114
  276TIP3    H1  769   7.629   5.740   5.482 -0.9910  0.7674  0.4590
  276TIP3    H2  770   7.506   5.659   5.444  1.0885 -2.1228 -0.2892
  277TIP3   OH2  771   4.199   2.204   0.609  0.2343 -0.3050 -0.0904
  277TIP3    H1  772   4.194   2.295   0.580  0.4825  0.5565  2.4398
  277TIP3    H2  773   4.164   2.153   0.536 -0.6591  1.8927 -1.2259
  278TIP3   OH2  774   3.751   0.242   2.331 -0.5537  0.2497 -0.1943
  278TIP3    H1  775   3.841   0.275   2.333 -0.2840 -0.5438  1.7679
  278TIP3    H2  776   3.697   0.319   2.316  0.3750  0.9065 -0.1910
  279TIP3   OH2  777   3.723   2.195   0.047 -0.2746 -0.2390  0.1701
  279TIP3    H1  778   3.690   2.256   0.112  0.0949  1.9384 -1.6529
  279TIP3    H2  779   3.686   2.225  -0.036 -0.1881 -2.5682 -0.7599
  280TIP3   OH2  780   3.183   2.093   1.655  0.5508 -0.2456  0.1658
  280TIP3    H1  781   3.124   2.022   1.680 -0.8194  0.4355 -1.0269
  280TIP3    H2  782   3.226   2.118   1.736 -0.3508 -1.1735  0.9493
  281TIP3   OH2  783   6.877   5.544   6.089 -0.0305  0.2241 -0.5832
  281TIP3    H1  784   6.814   5.485   6.048  0.3161 -2.2032  2.1959
  281TIP3    H2  785   6.824   5.602   6.144 -0.0007 -0.8104  0.5587
  282TIP3   OH2  786   3.990   2.882   3.413 -0.5587 -0.4489  0.1201
  282TIP3    H1  787   3.937   2.944   3.363 -1.2002 -0.5744  0.6242
  282TIP3    H2  788   4.052   2.846   3.350  0.4877  1.4324  0.0429
  283TIP3   OH2  789   0.850   7.875   2.180 -0.8143 -0.8831 -0.4354
  283TIP3    H1  790   0.853   7.925   2.261 -2.0789 -3.2811  1.1274
  283TIP3    H2  791   0.917   7.915   2.125 -0.8397  1.6163  1.2776
  284TIP3   OH2  792   3.724   1.601   0.081 -0.1885  0.0237 -0.0383
  284TIP3    H1  793   3.810   1.560   0.071 -1.0741 -1.6378 -0.9132
  284TIP3    H2  794   3.730   1.681   0.028  0.8119 -0.1048 -0.1255
  285TIP3   OH2  795   4.423   5.676   6.587  0.0862 -0.4573  0.0218
  285TIP3    H1  796   4.457   5.730   6.659 -0.1375 -0.3782  0.0706
  285TIP3    H2  797   4.329   5.671   6.605 -0.1114  0.3056 -0.7596
  286TIP3   OH2  798   7.109   7.181   4.818 -0.4376  0.2945 -0.4793
  286TIP3    H1  799   7.140   7.245   4.754 -0.9388  0.4371 -0.5800
  286TIP3    H2  800   7.013   7.183   4.810 -0.5101  0.4092  0.3712
  287TIP3   OH2  801   2.540   1.169   3.063 -1.0065 -0.1547  0.6837
  287TIP3    H1  802   2.635   1.160   3.067 -0.9957 -0.5200 -0.1277
  287TIP3    H2  803   2.507   1.079   3.062 -1.2009 -0.1080 -1.8907
  288TIP3   OH2  804   2.850   2.801   1.294 -0.3535 -0.6746 -0.1190
  288TIP3    H1  805   2.814   2.759   1.216  0.9757 -2.0622 -0.0032
  288TIP3    H2  806   2.933   2.755   1.310 -0.0086  0.4333  1.3803
  289TIP3   OH2  807   1.352   8.087   1.978 -0.3668  0.7495  0.5086
  289TIP3    H1  808   1.420   8.046   1.925 -2.0378  0.4255 -1.4402
  289TIP3    H2  809   1.322   8.162   1.926 -0.6858  1.6088  1.8826
  290TIP3   OH2  810   1.180   7.113   0.898  0.1194  0.1568  0.1148
  290TIP3    H1  811   1.099   7.063   0.910  0.2613 -0.0076  0.3878
  290TIP3    H2  812   1.217   7.121   0.986  0.6894 -0.2639 -0.0787
  291TIP3   OH2  813   4.395   0.677   1.212 -0.0831  0.4573  0.6231
  291TIP3    H1  814   4.323   0.738   1.195  0.4883  0.9960  0.1271
  291TIP3    H2  815   4.363   0.623   1.285 -0.7233  1.1361  0.8585
  292TIP3   OH2  816   4.641   0.728   2.559 -0.6768  0.1611 -0.5305
  292TIP3    H1  817   4.651   0.743   2.465 -4.5482 -1.2974 -1.2483
  292TIP3    H2  818   4.547   0.729   2.574 -0.1244  2.0411  3.6648
  293TIP3   OH2  819   6.039   1.165   1.337  0.2490 -0.0452 -0.2921
  293TIP3    H1  820   6.065   1.072   1.339  2.2124  0.5076  1.8367
  293TIP3    H2  821   5.960   1.166   1.283  0.5735 -2.8650 -0.9299
  294TIP3   OH2  822   3.834   1.769   2.222  0.1765 -0.0182  0.2502
  294TIP3    H1  823   3.840   1.676   2.199  0.1414  0.1727 -0.5318
  294TIP3    H2  824   3.770   1.772   2.293  0.0850 -0.5784  0.1929
  295TIP3   OH2  825   1.349   7.222   0.695 -0.4695  0.0955 -0.1354
  295TIP3    H1  826   1.297   7.284   0.644  0.2034  0.0115 -0.9263
  295TIP3    H2  827   1.286   7.183   0.756 -1.9343 -2.0049 -2.8791
  296TIP3   OH2  828   6.078   1.062   0.770 -0.6820 -0.0535  0.2388
  296TIP3    H1  829   6.015   1.106   0.714 -1.1781 -0.3779  0.5372
  296TIP3    H2  830   6.157   1.055   0.717 -1.3255 -0.8625 -0.6147
  297TIP3   OH2  831   0.926   6.848   6.389 -0.4505  0.1794  0.4213
  297TIP3    H1  832   0.926   6.768   6.336 -0.9881  0.2262  0.3451
  297TIP3    H2  833   0.993   6.903   6.349  1.3271 -1.0203  1.6740
  298TIP3   OH2  834   5.342   2.133   2.173  0.5926  0.1075 -0.0733
  298TIP3    H1  835   5.427   2.175   2.155  0.4174  0.1607 -0.8053
  298TIP3    H2  836   5.326   2.080   2.095  0.1836 -0.2851  0.2816
  299TIP3   OH2  837   5.647   0.903  -0.005  0.2270 -0.2541  0.1248
  299TIP3    H1  838   5.649   0.865   0.083  0.4632 -0.7737 -0.1036
  299TIP3    H2  839   5.579   0.852  -0.050 -0.9280  0.9806  0.4465
  300TIP3   OH2  840   3.723   1.604   1.808  0.4390  0.5892 -0.4618
  300TIP3    H1  841   3.791   1.544   1.836  1.1398  1.7753  0.3977
  300TIP3    H2  842   3.643   1.552   1.809  1.1006 -0.4253 -0.1143
  301TIP3   OH2  843   3.437   1.912   1.056 -0.3994 -0.0340 -0.9941
  301TIP3    H1  844   3.424   1.921   0.961 -0.8603 -0.6427 -0.9930
  301TIP3    H2  845   3.436   2.002   1.089  0.9289  0.2601 -1.7100
  302TIP3   OH2  846   7.104   7.268   6.553 -0.1339  0.3315  0.0259
  302TIP3    H1  847   7.177   7.255   6.493 -0.5313 -0.5782 -0.2725
  302TIP3    H2  848   7.026   7.257   6.499 -0.4982 -0.9454  0.7872
  303TIP3   OH2  849   2.773   2.350   2.303  0.0518 -0.1404 -0.1006
  303TIP3    H1  850   2.782   2.416   2.234 -1.2438  0.7269  0.5342
  303TIP3    H2  851   2.863   2.323   2.322  0.5372  0.7986 -0.9883
  304TIP3   OH2  852   4.039   4.664   0.760  0.1430 -0.0279 -0.1601
  304TIP3    H1  853   3.995   4.586   0.728 -2.6393  0.2023  2.8667
  304TIP3    H2  854   4.104   4.630   0.822 -0.7785 -0.0110  0.8363
  305TIP3   OH2  855   2.603   1.363   2.158  0.0367  0.4775 -0.1341
  305TIP3    H1  856   2.580   1.323   2.241  0.6576  0.6315  0.1095
  305TIP3    H2  857   2.520   1.399   2.126 -0.3861 -0.3528 -0.0139
  306TIP3   OH2  858   1.648   7.728   0.139 -0.4385  0.3888  0.2401
  306TIP3    H1  859   1.737   7.714   0.106 -0.6654 -1.2677  0.2771
  306TIP3    H2  860   1.661   7.764   0.227  0.1895  0.3234  0.1784
  307TIP3   OH2  861   3.889   0.252   0.401 -0.0915  0.7169 -0.2539
  307TIP3    H1  862   3.823   0.185   0.383 -0.7473  1.3646 -0.2823
  307TIP3    H2  863   3.915   0.237   0.492 -2.4834  2.3536  0.7317
  308TIP3   OH2  864   3.438   3.936   0.055  0.5446  0.1865 -0.5053
  308TIP3    H1  865   3.476   3.994   0.120  2.4731  0.5585 -1.9294
  308TIP3    H2  866   3.433   3.851   0.099 -1.0556  1.0908  1.1310
  309TIP3   OH2  867   3.511   1.150   3.217  0.4008  0.3193 -0.2822
  309TIP3    H1  868   3.451   1.112   3.152  0.1906 -1.4708  0.9459
  309TIP3    H2  869   3.473   1.236   3.236 -2.1289 -1.0042  0.9036
  310TIP3   OH2  870   3.608   2.753   2.177 -0.4506  0.3459 -0.0193
  310TIP3    H1  871   3.686   2.707   2.204  0.4745  2.3290  0.7857
  310TIP3    H2  872   3.555   2.761   2.257 -0.6945  0.5213 -0.1957
  311TIP3   OH2  873   6.076   3.722   2.750 -0.5120 -0.0865 -0.3949
  311TIP3    H1  874   6.015   3.762   2.812 -1.3345 -0.1845 -1.1136
  311TIP3    H2  875   6.020   3.667   2.695 -0.0531  1.3049 -2.3010
  312TIP3   OH2  876   4.839   3.125   2.136 -0.2015 -0.2162  0.1226
  312TIP3    H1  877   4.835   3.049   2.078 -0.8559  0.8090 -1.1969
  312TIP3    H2  878   4.861   3.198   2.078  3.3862  0.1602  1.7879
  313TIP3   OH2  879   2.979   1.073   1.647  0.0090 -0.3087 -0.0380
  313TIP3    H1  880   2.956   0.989   1.687 -1.9353 -0.4074 -1.3257
  313TIP3    H2  881   2.932   1.138   1.698 -0.0086 -0.1608 -0.2435
  314TIP3   OH2  882   6.402   5.770   6.620  0.2880  0.0263 -0.0260
  314TIP3    H1  883   6.461   5.840   6.593  2.0316 -1.3035  0.2499
  314TIP3    H2  884   6.410   5.704   6.552 -0.5186 -0.3806  0.2659
  315TIP3   OH2  885   5.648   0.521   0.870  0.3013  0.4873 -0.7547
  315TIP3    H1  886   5.621   0.568   0.791 -1.0820  3.1384  1.2142
  315TIP3    H2  887   5.743   0.528   0.871  0.4342 -0.6007 -2.7691
  316TIP3   OH2  888   7.070   6.190   6.364  0.0330  0.7089 -0.0906
  316TIP3    H1  889   7.141   6.185   6.300  0.8858  0.1235  0.8751
  316TIP3    H2  890   7.009   6.255   6.329  0.3432  0.1755 -1.6259
  317TIP3   OH2  891   3.955   0.289   0.690 -0.5570 -0.7812 -0.0246
  317TIP3    H1  892   3.959   0.334   0.774  2.2860 -0.5895 -0.2121
  317TIP3    H2  893   3.996   0.204   0.705 -1.0098 -1.1797 -0.9655
  318TIP3   OH2  894   3.970   2.645   2.858  0.6216  0.1886  0.3220
  318TIP3    H1  895   3.940   2.659   2.948  0.8404 -2.7348  0.9014
  318TIP3    H2  896   3.963   2.731   2.817 -0.1459  1.4312  2.9305
  319TIP3   OH2  897   1.915   0.421   3.503 -0.0402 -0.3233  0.4233
  319TIP3    H1  898   1.977   0.381   3.565 -0.2415 -1.4716 -0.1012
  319TIP3    H2  899   1.901   0.509   3.537 -0.1113 -0.9274  1.9893
  320TIP3   OH2  900   2.290   1.104   3.166  0.1540  0.4568 -0.1512
  320TIP3    H1  901   2.251   1.145   3.244  1.1735  1.7531 -0.3090
  320TIP3    H2  902   2.370   1.155   3.150  1.0140 -1.1003 -0.8359
  321TIP3   OH2  903   4.535   2.123   2.236 -0.8769  0.3905  0.6102
  321TIP3    H1  904   4.524   2.081   2.321 -1.0874  0.5604  0.6683
  321TIP3    H2  905   4.510   2.055   2.173  1.4228 -0.4745  0.5753
  322TIP3   OH2  906   7.057   5.013   6.855  0.1800  0.0447  0.4768
  322TIP3    H1  907   7.109   4.939   6.884  0.5843  0.1983  0.1471
  322TIP3    H2  908   6.970   4.977   6.840  0.3578 -0.3472  0.3825
  323TIP3   OH2  909   3.749   3.822   0.051  0.0150  0.0592  0.5121
  323TIP3    H1  910   3.842   3.847   0.055  0.1515 -0.5770  1.3934
  323TIP3    H2  911   3.730   3.789   0.138 -0.7882 -0.7442  0.0358
  324TIP3   OH2  912   0.403   7.971   1.444 -0.2877  0.0431 -0.4122
  324TIP3    H1  913   0.432   7.926   1.523  0.1764  1.1061  0.0315
  324TIP3    H2  914   0.351   8.045   1.476 -1.9715 -0.7900 -1.1546
  325TIP3   OH2  915   4.766   0.695   2.319  0.7202  0.2848 -0.2702
  325TIP3    H1  916   4.827   0.641   2.269  0.6979  0.2783 -0.2897
  325TIP3    H2  917   4.809   0.780   2.324  0.8388  0.2153 -0.0872
  326TIP3   OH2  918   3.047   2.864   0.363 -0.0654  0.5265 -0.1830
  326TIP3    H1  919   3.009   2.949   0.342 -1.1734 -0.1914 -1.1520
  326TIP3    H2  920   3.092   2.878   0.446  0.0984  2.1488 -0.5327
  327TIP3   OH2  921   5.246   0.794   0.017 -0.6479  0.1583 -0.3105
  327TIP3    H1  922   5.247   0.774   0.110  0.8374  1.7121  0.0165
  327TIP3    H2  923   5.224   0.711  -0.025 -1.7522 -0.4611  1.4265
  328TIP3   OH2  924   8.475   7.502   1.678  0.2770  0.1184 -0.2271
  328TIP3    H1  925   8.412   7.528   1.745  0.8639 -0.8383  0.7166
  328TIP3    H2  926   8.439   7.422   1.640  0.5554 -0.0387 -0.1696
  329TIP3   OH2  927   4.511   2.083   3.745  0.0782  0.5702  0.0206
  329TIP3    H1  928   4.497   2.003   3.794 -2.1611  0.3677 -0.8984
  329TIP3    H2  929   4.538   2.054   3.658 -2.0182  0.7385 -0.7183
  330TIP3   OH2  930   0.607   6.765   1.907 -0.0310 -0.6055  0.3949
  330TIP3    H1  931   0.586   6.755   2.000 -0.0161 -0.1834  0.4433
  330TIP3    H2  932   0.602   6.859   1.891  2.9789 -0.3344  0.6909
  331TIP3   OH2  933   3.358   0.992   1.954 -0.4222 -0.0147 -0.2485
  331TIP3    H1  934   3.306   0.971   1.877 -0.7193 -2.3165  0.5355
  331TIP3    H2  935   3.443   0.950   1.938 -0.0765  0.5251  0.1382
  332TIP3   OH2  936   5.000   3.300   2.894 -0.0261 -0.3675 -0.4975
  332TIP3    H1  937   4.960   3.229   2.944  0.1566  0.5020  0.8961
  332TIP3    H2  938   4.970   3.286   2.804 -2.0651 -0.7217  0.2301
  333TIP3   OH2  939   3.801   2.841   0.642 -0.2080  0.5701  0.6017
  333TIP3    H1  940   3.737   2.852   0.712 -0.4261  0.0315  0.4869
  333TIP3    H2  941   3.866   2.780   0.678 -0.2604  0.3794  0.3770
  334TIP3   OH2  942   2.976   1.856   1.180  0.5494 -0.1704 -0.0191
  334TIP3    H1  943   3.016   1.772   1.159  1.8804  0.1603  1.1114
  334TIP3    H2  944   3.006   1.916   1.112  0.6169 -0.3082 -0.1096
  335TIP3   OH2  945   2.867   1.519   3.193 -0.2967  0.1127 -0.3611
  335TIP3    H1  946   2.882   1.613   3.205 -0.9131  0.1727 -0.0361
  335TIP3    H2  947   2.945   1.488   3.147  1.4647  0.1645  2.4792
  336TIP3   OH2  948   3.979   5.470   6.769 -0.0488 -0.3614  0.8480
  336TIP3    H1  949   3.922   5.398   6.743 -0.4582 -0.3511  1.7002
  336TIP3    H2  950   3.931   5.514   6.840 -1.0080  2.3129 -1.3499
  337TIP3   OH2  951   6.719   2.276   0.202 -0.5704 -0.4045 -0.0529
  337TIP3    H1  952   6.639   2.282   0.254 -1.4150 -0.9288 -1.2958
  337TIP3    H2  953   6.691   2.292   0.112  0.3699 -2.6645 -0.7801
  338TIP3   OH2  954   3.628   2.813   2.680 -0.0794 -0.5426  0.1718
  338TIP3    H1  955   3.652   2.895   2.724  0.5374 -0.2095 -0.7756
  338TIP3    H2  956   3.602   2.755   2.752 -0.2705  0.3916  0.8745
  339TIP3   OH2  957   3.985   2.016   1.521 -0.5596 -0.4738 -0.5056
  339TIP3    H1  958   4.015   1.941   1.573  1.8518  0.7288 -0.0980
  339TIP3    H2  959   3.996   1.987   1.430  2.7137  0.2066 -0.3867
  340TIP3   OH2  960   4.772   0.169   0.844  0.2752  0.4244  0.0059
  340TIP3    H1  961   4.700   0.127   0.892  0.2778  0.5571  0.1276
  340TIP3    H2  962   4.811   0.229   0.908  0.6112  0.2198 -0.0058
  341TIP3   OH2  963   7.650   6.834   6.520  0.1402  0.0037 -0.1649
  341TIP3    H1  964   7.562   6.796   6.509  0.2874 -0.0634 -1.2397
  341TIP3    H2  965   7.698   6.769   6.570 -0.2453 -0.2446 -0.1103
  342TIP3   OH2  966   1.602   1.539   1.046 -1.0027  0.6946  0.0564
  342TIP3    H1  967   1.568   1.451   1.064 -0.5766  0.0086 -2.3153
  342TIP3    H2  968   1.523   1.593   1.038 -1.3387  0.2011 -0.0164
  343TIP3   OH2  969   4.418   1.027   1.780 -0.0482  0.1101 -0.1516
  343TIP3    H1  970   4.421   0.984   1.695 -0.7614 -1.5436  0.6179
  343TIP3    H2  971   4.388   1.116   1.763 -2.3687 -0.8941 -1.3707
  344TIP3   OH2  972   8.236   7.830   6.956 -0.4651 -0.4695 -0.2670
  344TIP3    H1  973   8.146   7.808   6.932 -1.2153  2.1164 -0.0367
  344TIP3    H2  974   8.258   7.905   6.901  1.3309 -0.6804  0.1200
  345TIP3   OH2  975   7.013   5.516   6.486 -0.0258  0.0796  0.2735
  345TIP3    H1  976   6.922   5.493   6.500 -0.0685  0.1322  0.0897
  345TIP3    H2  977   7.056   5.500   6.570 -0.1731 -0.0928  0.3143
  346TIP3   OH2  978   5.406   2.571   2.948  0.2361 -0.4109  0.2317
  346TIP3    H1  979   5.355   2.491   2.960  2.2992 -2.1254 -1.8938
  346TIP3    H2  980   5.382   2.602   2.861 -0.6884  1.4105  1.1268
  347TIP3   OH2  981   7.225   7.577   6.519 -0.2134  0.4405 -0.4627
  347TIP3    H1  982   7.181   7.514   6.463  1.5286 -1.0965 -0.1454
  347TIP3    H2  983   7.316   7.577   6.490 -0.0190  2.2308  0.0606
  348TIP3   OH2  984   4.897   0.550   2.125 -0.0629 -0.4885 -0.2022
  348TIP3    H1  985   4.870   0.545   2.033  1.0164 -2.3725 -0.4309
  348TIP3    H2  986   4.993   0.554   2.121  0.0709 -2.2023  0.8889
  349TIP3   OH2  987   1.464   2.081   1.146  0.0805  0.1601  0.6903
  349TIP3    H1  988   1.372   2.056   1.151 -0.3804  1.0974 -2.0965
  349TIP3    H2  989   1.507   2.009   1.100  1.2937 -1.5119  4.3264
  350TIP3   OH2  990   3.239   2.559   0.077  0.5986 -0.1135 -0.2602
  350TIP3    H1  991   3.275   2.473   0.099  1.3038  0.1814 -0.2574
  350TIP3    H2  992   3.198   2.546  -0.009  0.1278 -0.6118  0.0331
  351TIP3   OH2  993   1.219   7.779   0.729  0.0330  0.4852  0.2408
  351TIP3    H1  994   1.174   7.770   0.645 -2.1116 -0.3424  1.4337
  351TIP3    H2  995   1.154   7.818   0.787  1.1675  0.1439  1.7795
  352TIP3   OH2  996   6.843   6.259   5.632 -0.0131 -0.2177 -0.1035
  352TIP3    H1  997   6.768   6.318   5.638 -0.7669 -1.1271 -0.5394
  352TIP3    H2  998   6.847   6.216   5.717 -0.7558 -1.1058 -0.5232
  353TIP3   OH2  999   5.812   0.802   3.172  0.2489 -0.4706 -0.3201
  353TIP3    H1 1000   5.840   0.734   3.233  0.3270  0.1072  0.2828
  353TIP3    H2 1001   5.891   0.829   3.126  0.4643  0.2413  0.4658
  354TIP3   OH2 1002   6.475   6.366   5.976 -0.5414 -0.3628 -0.7100
  354TIP3    H1 1003   6.413   6.409   6.035 -1.1935 -0.9568 -0.9571
  354TIP3    H2 1004   6.422   6.339   5.901  0.0821 -0.5711 -1.0780
  355TIP3   OH2 1005   7.992   7.861   6.826 -0.9171 -0.1628 -0.1458
  355TIP3    H1 1006   7.959   7.933   6.773 -0.3429  0.1640 -0.0540
  355TIP3    H2 1007   7.920   7.798   6.827 -2.2841  1.3636  1.6004
  356TIP3   OH2 1008   5.580   6.206   7.028  0.3815  0.6344 -0.0479
  356TIP3    H1 1009   5.560   6.117   6.998  1.2844 -0.1657  1.6417
  356TIP3    H2 1010   5.498   6.254   7.018 -0.5376 -0.7996  0.4599
  357TIP3   OH2 1011   3.833   0.884   1.321  0.3591  0.4711 -0.8686
  357TIP3    H1 1012   3.786   0.946   1.265  3.1569  2.0776 -1.4856
  357TIP3    H2 1013   3.834   0.925   1.407 -1.1653 -0.5430 -0.3473
  358TIP3   OH2 1014   3.868   1.971   0.350 -0.0519 -0.1866  0.0737
  358TIP3    H1 1015   3.874   2.067   0.346 -0.6962 -0.1447  0.0433
  358TIP3    H2 1016   3.939   1.945   0.408  1.9101  0.0934 -2.1384
  359TIP3   OH2 1017   1.677   0.785   0.382  0.2976 -0.5995  0.1500
  359TIP3    H1 1018   1.690   0.821   0.470  0.8759  1.6189 -0.7928
  359TIP3    H2 1019   1.718   0.849   0.324 -0.1440 -1.9875 -1.7565
  360TIP3   OH2 1020   1.925   0.535   1.157  0.1605  0.6635  0.3379
  360TIP3    H1 1021   1.929   0.548   1.252  0.4925  0.9309  0.2858
  360TIP3    H2 1022   2.006   0.488   1.136  0.2825  0.9742  0.1241
  361TIP3   OH2 1023   5.713   0.714   1.778  0.8284  0.0028  0.6065
  361TIP3    H1 1024   5.741   0.711   1.686 -1.2903  2.6378 -0.2122
  361TIP3    H2 1025   5.630   0.666   1.780  0.2532  0.9863  0.8663
  362TIP3   OH2 1026   0.824   7.513   1.256 -0.6062 -0.0228  0.0310
  362TIP3    H1 1027   0.911   7.481   1.278 -0.9460  0.0634  1.5753
  362TIP3    H2 1028   0.820   7.600   1.297 -2.1959 -0.9324  1.8767
  363TIP3   OH2 1029   2.088   1.587   1.892 -0.5568 -0.6382 -0.1710
  363TIP3    H1 1030   2.021   1.637   1.845  0.4369 -0.6589 -1.6541
  363TIP3    H2 1031   2.039   1.538   1.959 -1.7211  1.1759  0.3509
  364TIP3   OH2 1032   1.364   7.872   0.376  0.0695  0.3965  0.1723
  364TIP3    H1 1033   1.272   7.896   0.386 -0.5937 -1.9244 -0.0399
  364TIP3    H2 1034   1.384   7.891   0.285 -0.1848  1.0020  0.2442
  365TIP3   OH2 1035   4.135   1.062   1.769  0.0444 -0.8802 -0.0508
  365TIP3    H1 1036   4.122   1.115   1.690 -0.0170 -0.1909  0.4164
  365TIP3    H2 1037   4.219   1.018   1.755  0.0510 -0.7280 -0.4851
  366TIP3   OH2 1038   6.540   4.663   6.021 -1.0793 -0.0477 -0.3631
  366TIP3    H1 1039   6.549   4.742   5.968 -1.2540 -0.3830 -0.9013
  366TIP3    H2 1040   6.535   4.592   5.956 -2.7102 -0.3290  0.0758
  367TIP3   OH2 1041   3.073   2.352   0.591 -0.2478  0.0578  0.0752
  367TIP3    H1 1042   3.043   2.262   0.583 -0.9941  0.4880 -2.4548
  367TIP3    H2 1043   2.995   2.402   0.614 -0.0577  0.2097  0.3941
  368TIP3   OH2 1044   2.704   0.867   0.072 -0.2108  0.1669  0.6702
  368TIP3    H1 1045   2.694   0.834  -0.017 -0.2588 -0.3686  0.8689
  368TIP3    H2 1046   2.706   0.962   0.063 -3.2261  0.2398  0.3903
  369TIP3   OH2 1047   4.155   2.144   0.336 -0.2918 -0.4066  0.3683
  369TIP3    H1 1048   4.094   2.088   0.289 -1.5537 -0.2392  1.7763
  369TIP3    H2 1049   4.240   2.101   0.325 -0.7716 -1.0088 -1.0121
  370TIP3   OH2 1050   2.699   2.326   0.630  0.1872  0.3266  0.2017
  370TIP3    H1 1051   2.716   2.404   0.576  0.1630 -0.2273 -0.6212
  370TIP3    H2 1052   2.748   2.256   0.586 -0.7609 -0.3782  0.2528
  371TIP3   OH2 1053   2.881   2.220   1.768 -0.4733 -0.2103  0.9203
  371TIP3    H1 1054   2.908   2.205   1.859 -1.5896  0.1005  1.3100
  371TIP3    H2 1055   2.864   2.133   1.733  1.0289 -0.4178  0.6595
  372TIP3   OH2 1056   4.973   1.832   2.919 -0.4924  0.2774 -0.7502
  372TIP3    H1 1057   4.955   1.924   2.899  2.0325  0.9334 -0.1963
  372TIP3    H2 1058   5.061   1.817   2.883 -0.4068 -1.5770  0.2215
  373TIP3   OH2 1059   5.660   5.959   3.988  0.0117 -0.3633 -0.1783
  373TIP3    H1 1060   5.655   6.020   4.061  1.6744 -0.0968 -0.2683
  373TIP3    H2 1061   5.742   5.912   4.001 -0.0695 -0.8832 -1.4284
  374TIP3   OH2 1062   3.365   2.417   1.981 -0.3021 -0.4306  0.4570
  374TIP3    H1 1063   3.358   2.449   2.071 -1.8296  1.4841 -0.3120
  374TIP3    H2 1064   3.324   2.485   1.928  0.3551 -1.6533 -1.6743
  375TIP3   OH2 1065   2.463   2.747   0.243 -0.2145  0.0352 -0.5424
  375TIP3    H1 1066   2.417   2.724   0.162 -1.1113 -2.4050  0.5938
  375TIP3    H2 1067   2.395   2.783   0.300 -0.3699 -1.6137  0.3757
  376TIP3   OH2 1068   4.333   1.053   0.994  0.3928  0.6392 -0.3632
  376TIP3    H1 1069   4.307   1.103   0.917  2.3524  1.6479 -0.4159
  376TIP3    H2 1070   4.325   0.961   0.968 -0.5864  0.9670 -1.1984
  377TIP3   OH2 1071   2.892   0.797   1.384  0.8880 -0.1255 -1.0697
  377TIP3    H1 1072   2.909   0.891   1.376  1.8496 -0.0602  1.3051
  377TIP3    H2 1073   2.797   0.789   1.386  0.8146  0.8987 -0.3229
  378TIP3   OH2 1074   7.164   1.893   0.567 -0.6851  0.1650 -0.3220
  378TIP3    H1 1075   7.222   1.820   0.589  1.8280  2.0752 -0.4124
  378TIP3    H2 1076   7.111   1.906   0.646  3.1193  2.1351  2.0801
  379TIP3   OH2 1077   4.577   1.435   2.739  0.4732 -0.3628 -0.2605
  379TIP3    H1 1078   4.530   1.407   2.661 -0.7967  0.3444  0.2200
  379TIP3    H2 1079   4.525   1.402   2.812 -0.0524  1.5906  0.2994
  380TIP3   OH2 1080   0.568   7.410   1.574 -0.6080  0.1292  0.0273
  380TIP3    H1 1081   0.625   7.349   1.620 -0.7356 -1.4706 -1.8466
  380TIP3    H2 1082   0.483   7.401   1.616 -0.5315 -0.7156 -0.0007
  381TIP3   OH2 1083   5.642   0.357   2.199  0.4685  0.2495  0.0225
  381TIP3    H1 1084   5.681   0.438   2.165  0.4859  0.7000  1.1014
  381TIP3    H2 1085   5.594   0.320   2.125  0.7140  1.0901 -0.5595
  382TIP3   OH2 1086   1.881   1.609   0.834 -0.3503  0.5615 -0.2110
  382TIP3    H1 1087   1.862   1.613   0.740  2.2318  0.7147 -0.7763
  382TIP3    H2 1088   1.824   1.674   0.873 -0.9092  1.0346 -1.7891
  383TIP3   OH2 1089   1.174   7.481   0.778  0.1635 -0.1452 -0.1533
  383TIP3    H1 1090   1.194   7.572   0.757  1.9995 -0.4170  0.3022
  383TIP3    H2 1091   1.189   7.475   0.873 -2.2054 -0.3685  0.2239
  384TIP3   OH2 1092   5.325   3.256   2.205 -0.2632 -0.6537  0.6707
  384TIP3    H1 1093   5.317   3.333   2.148  1.6017 -0.0851  1.1603
  384TIP3    H2 1094   5.237   3.220   2.207 -0.7870  0.4389 -1.0193
  385TIP3   OH2 1095   5.274   6.025   5.587  0.3779  0.2750  0.1892
  385TIP3    H1 1096   5.317   5.944   5.613 -0.5927 -0.0117  0.9270
  385TIP3    H2 1097   5.279   6.081   5.665  0.2727  0.5979 -0.0348
  386TIP3   OH2 1098   5.263   0.147   1.417  0.4682  0.2329 -0.7393
  386TIP3    H1 1099   5.307   0.093   1.483 -1.6901  0.9421  1.3489
  386TIP3    H2 1100   5.249   0.087   1.344  0.9652 -1.1755  0.2719
  387TIP3   OH2 1101   4.820   2.394   1.250 -0.5292  0.4749  0.0988
  387TIP3    H1 1102   4.906   2.435   1.235 -0.9006  0.7132 -1.4409
  387TIP3    H2 1103   4.829   2.306   1.214 -1.0802  0.6607 -0.4964
  388TIP3   OH2 1104   2.599   7.220   3.081 -0.4880  0.2996 -0.5185
  388TIP3    H1 1105   2.655   7.143   3.074 -0.1864  0.3530  1.2368
  388TIP3    H2 1106   2.526   7.202   3.021 -0.7851 -1.6733  0.4201
  389TIP3   OH2 1107   6.820   7.431   6.621 -0.3449 -0.3220  0.4402
  389TIP3    H1 1108   6.858   7.351   6.657 -1.2490 -1.2231 -0.5823
  389TIP3    H2 1109   6.754   7.457   6.685 -0.6857 -0.9108  0.3286
  390TIP3   OH2 1110   1.377   7.834   1.847  0.2622  0.5162  0.6033
  390TIP3    H1 1111   1.341   7.794   1.926 -1.0709 -1.5427 -0.9949
  390TIP3    H2 1112   1.300   7.868   1.799  0.9707  1.0048 -0.2151
  391TIP3   OH2 1113   4.927   1.854   4.129  0.4726  0.2256 -0.2697
  391TIP3    H1 1114   4.971   1.873   4.046 -1.4498  1.0517 -1.1316
  391TIP3    H2 1115   4.835   1.876   4.112 -0.2982 -1.6125  1.4294
  392TIP3   OH2 1116   7.193   5.063   6.611  0.1669  0.8956 -0.1385
  392TIP3    H1 1117   7.140   5.049   6.689  0.8675  1.9654  0.5431
  392TIP3    H2 1118   7.270   5.009   6.624 -0.8971 -0.9450 -1.2972
  393TIP3   OH2 1119   3.870   0.512   0.971 -0.1646  0.2348  0.2377
  393TIP3    H1 1120   3.885   0.546   0.882 -1.1277 -2.0180 -0.8222
  393TIP3    H2 1121   3.775   0.510   0.980 -0.0759  0.1262  1.2051
  394TIP3   OH2 1122   4.281   2.774   0.470 -0.1244  0.1451 -0.5225
  394TIP3    H1 1123   4.253   2.745   0.383  0.0578  0.1396 -0.5809
  394TIP3    H2 1124   4.307   2.865   0.458  1.6530 -0.3839 -0.8809
  395TIP3   OH2 1125   1.137   0.784   1.172  0.6844 -0.4883  0.0878
  395TIP3    H1 1126   1.232   0.794   1.172  0.6357  0.0076 -0.5366
  395TIP3    H2 1127   1.112   0.789   1.264  1.0615  1.3541  0.1156
  396TIP3   OH2 1128   3.192   1.599   1.712  0.3053 -0.2534  0.5765
  396TIP3    H1 1129   3.240   1.546   1.776  0.1220 -0.1841  0.7725
  396TIP3    H2 1130   3.104   1.560   1.711  0.7519 -1.2612 -0.8087
  397TIP3   OH2 1131   3.593   0.863   1.859 -0.0307 -0.2366 -0.0735
  397TIP3    H1 1132   3.664   0.822   1.811  0.8002  0.7044  0.3259
  397TIP3    H2 1133   3.560   0.931   1.800  1.1461  1.0792  0.7285
  398TIP3   OH2 1134   8.513   7.853   0.998 -0.0740  0.5423 -0.0362
  398TIP3    H1 1135   8.571   7.837   0.923  1.4369  0.9589  1.0312
  398TIP3    H2 1136   8.553   7.927   1.044 -1.1886  0.5142  0.9880
  399TIP3   OH2 1137   4.777   0.208   1.428  0.1254  0.3090  0.3513
  399TIP3    H1 1138   4.698   0.237   1.383  1.2871  1.0970 -1.2264
  399TIP3    H2 1139   4.830   0.167   1.359  1.0864 -0.2027  1.3872
  400TIP3   OH2 1140   5.145   4.268   0.791 -0.0933 -0.4106 -0.4952
  400TIP3    H1 1141   5.202   4.191   0.789  0.2427 -0.1560 -0.8498
  400TIP3    H2 1142   5.192   4.333   0.739 -2.0413 -1.1410 -3.2568
  401TIP3   OH2 1143   3.141   2.628   0.536  0.5579 -0.3571  0.2044
  401TIP3    H1 1144   3.051   2.600   0.551  1.0173 -1.0604  1.8151
  401TIP3    H2 1145   3.194   2.552   0.561  1.6330  0.4660  0.4531
  402TIP3   OH2 1146   6.827   5.785   6.848 -0.4990  0.4407  0.1784
  402TIP3    H1 1147   6.889   5.858   6.855 -1.2033  0.9706  0.8757
  402TIP3    H2 1148   6.776   5.804   6.770  0.6955 -0.3765 -0.8279
  403TIP3   OH2 1149   7.582   6.449   5.259  0.3674  0.1928 -0.7827
  403TIP3    H1 1150   7.546   6.361   5.245  3.0211 -1.5936  2.7468
  403TIP3    H2 1151   7.512   6.496   5.304  0.1673 -1.2647  0.4784
  404TIP3   OH2 1152   4.985   2.692   1.502 -0.4155 -0.1261  0.6002
  404TIP3    H1 1153   5.011   2.641   1.426 -3.4150  0.2314 -0.7604
  404TIP3    H2 1154   4.978   2.782   1.469 -3.0396 -0.1815  0.8872
  405TIP3   OH2 1155   2.715   2.818   0.230  0.4510 -0.3132  0.1349
  405TIP3    H1 1156   2.624   2.792   0.223  0.8989 -1.5186 -1.5552
  405TIP3    H2 1157   2.756   2.784   0.150  2.0258  1.6406  0.0568
  406TIP3   OH2 1158   6.543   4.079   1.225  0.3447 -0.0574 -0.1931
  406TIP3    H1 1159   6.577   4.038   1.146  3.2201 -0.1884  1.0262
  406TIP3    H2 1160   6.551   4.173   1.209  1.4980 -0.0854  0.1225
  407TIP3   OH2 1161   8.098   4.581   6.938 -0.0572 -0.0002  0.6144
  407TIP3    H1 1162   8.069   4.493   6.915  0.4596 -0.2164  0.7790
  407TIP3    H2 1163   8.182   4.568   6.983  0.4095  0.6348 -0.0616
  408TIP3   OH2 1164   2.161   1.276   0.289  0.6149 -0.2918 -0.0669
  408TIP3    H1 1165   2.219   1.217   0.242 -0.3846 -1.3985  0.0609
  408TIP3    H2 1166   2.088   1.292   0.229  0.9602  0.9739 -0.1732
  409TIP3   OH2 1167   0.165   1.317   0.752 -0.6175 -0.7130  0.0680
  409TIP3    H1 1168   0.244   1.263   0.750 -0.9055 -1.1158 -2.5953
  409TIP3    H2 1169   0.197   1.407   0.745 -0.3779 -0.9336 -2.2900
  410TIP3   OH2 1170   6.086   1.780   4.063 -0.8904  0.2714 -0.3807
  410TIP3    H1 1171   6.036   1.789   3.982 -1.0087 -0.8068 -0.4346
  410TIP3    H2 1172   6.054   1.699   4.102 -2.1699  1.6990  1.6759
  411TIP3   OH2 1173   6.916   6.417   6.668  0.8260  0.2762  0.1102
  411TIP3    H1 1174   6.929   6.408   6.762  0.7665  0.7988  0.1678
  411TIP3    H2 1175   6.823   6.439   6.659  0.2818 -2.0512 -0.2108
  412TIP3   OH2 1176   3.601   2.821   0.063 -0.3365  0.1991  0.4323
  412TIP3    H1 1177   3.535   2.863   0.008  0.2842 -0.0953 -0.5590
  412TIP3    H2 1178   3.683   2.831   0.014  0.2005 -0.1945  1.2363
  413TIP3   OH2 1179   5.719   2.416   5.055  0.5981 -0.3807 -0.3005
  413TIP3    H1 1180   5.719   2.343   4.992 -0.6765 -0.6913  0.0581
  413TIP3    H2 1181   5.812   2.428   5.077  0.8265 -1.9049 -0.3570
  414TIP3   OH2 1182   6.666   2.243   0.585  0.2780  0.1952 -0.2807
  414TIP3    H1 1183   6.718   2.207   0.658 -0.4681 -0.6478 -0.1640
  414TIP3    H2 1184   6.585   2.192   0.586  0.1828  0.3137 -1.5890
  415TIP3   OH2 1185   0.149   7.220   0.751  0.2982  0.8904 -0.1322
  415TIP3    H1 1186   0.109   7.276   0.817  0.8542  1.5102 -0.3151
  415TIP3    H2 1187   0.080   7.205   0.686 -0.2839  0.1768  0.6440
  416TIP3   OH2 1188   4.393   2.248   1.747  0.5731  0.7374  0.1181
  416TIP3    H1 1189   4.331   2.287   1.686  1.0837 -0.5180 -1.2516
  416TIP3    H2 1190   4.446   2.321   1.779  0.2304  1.4194 -0.8789
  417TIP3   OH2 1191   1.310   6.038   1.009 -0.1335  0.4002  0.4050
  417TIP3    H1 1192   1.383   6.070   0.955  0.8404 -0.9422  0.8881
  417TIP3    H2 1193   1.352   5.992   1.081 -1.4494 -2.3341 -0.4887
  418TIP3   OH2 1194   0.212   7.940   2.540  0.3258 -0.2786  0.0193
  418TIP3    H1 1195   0.220   8.018   2.595 -1.0404 -0.5130  0.5560
  418TIP3    H2 1196   0.149   7.965   2.472  1.8051 -0.0735 -1.3091
  419TIP3   OH2 1197   2.703   2.080   2.373  0.0714  0.4981  0.0824
  419TIP3    H1 1198   2.722   2.100   2.464 -0.3234 -1.1993  0.5444
  419TIP3    H2 1199   2.726   2.160   2.325  0.5199  1.2943  1.6279
  420TIP3   OH2 1200   6.955   7.330   5.386  0.3834 -0.2340  0.1062
  420TIP3    H1 1201   6.939   7.339   5.480 -1.1874 -0.6627 -0.1213
  420TIP3    H2 1202   6.880   7.282   5.352  0.6432  0.4347 -1.4816
  421TIP3   OH2 1203   7.477   7.795   2.721 -0.5091  0.7721  0.5013
  421TIP3    H1 1204   7.465   7.724   2.784 -2.0527  1.9942  1.6555
  421TIP3    H2 1205   7.561   7.777   2.680  0.9707  0.3735  3.5278
  422TIP3   OH2 1206   2.736   3.272   4.218  0.0846  0.1545  0.1190
  422TIP3    H1 1207   2.679   3.195   4.214  0.8590 -0.3522 -1.2271
  422TIP3    H2 1208   2.728   3.302   4.309  0.7605 -2.2696  1.0338
  423TIP3   OH2 1209   2.854   2.895   1.559 -0.2286  0.3977  0.6943
  423TIP3    H1 1210   2.846   2.894   1.464  1.3052 -0.8332  0.5611
  423TIP3    H2 1211   2.824   2.808   1.587 -1.3187  0.9892  1.4038
  424TIP3   OH2 1212   2.387   0.796   0.634 -0.2515  0.3009 -0.2915
  424TIP3    H1 1213   2.370   0.816   0.726 -0.2554  0.1784 -0.2664
  424TIP3    H2 1214   2.432   0.874   0.601 -2.3130  1.3229 -0.7802
  425TIP3   OH2 1215   4.420   3.173   0.036  0.3927 -0.0422 -0.0437
  425TIP3    H1 1216   4.371   3.212   0.109  0.6865  1.0886 -0.4353
  425TIP3    H2 1217   4.353   3.152  -0.029  0.4895  2.4663 -1.0179
  426TIP3   OH2 1218   2.746   3.773   2.195 -0.0266  0.2355  0.5322
  426TIP3    H1 1219   2.702   3.779   2.110  0.7092  0.5702  0.1671
  426TIP3    H2 1220   2.839   3.759   2.173  0.1659  0.3069  1.2784
  427TIP3   OH2 1221   3.190   3.028   0.157 -0.1377  0.0279  0.7389
  427TIP3    H1 1222   3.247   2.955   0.184  0.5841  0.3106 -0.0134
  427TIP3    H2 1223   3.109   3.014   0.206 -0.4357 -1.9426 -0.2626
  428TIP3   OH2 1224   1.894   2.812   2.982 -0.7249  0.0831 -0.3504
  428TIP3    H1 1225   1.923   2.882   2.923 -2.5233  1.0792 -0.0897
  428TIP3    H2 1226   1.868   2.857   3.062  1.9535 -1.2852  1.3554
  429TIP3   OH2 1227   5.354   3.285   0.246  0.1892 -0.4292  0.0249
  429TIP3    H1 1228   5.293   3.356   0.225 -0.5117 -1.3133 -0.9702
  429TIP3    H2 1229   5.392   3.261   0.162  1.7552 -0.0569  0.6023
  430TIP3   OH2 1230   3.057   1.578   0.249 -0.1173 -0.2356  0.1918
  430TIP3    H1 1231   3.027   1.588   0.159 -1.9341 -0.6446  0.7202
  430TIP3    H2 1232   3.043   1.486   0.269 -2.2697  0.3674  1.7163
  431TIP3   OH2 1233   2.786   2.690   0.975 -0.3008  0.3832  0.1007
  431TIP3    H1 1234   2.875   2.686   1.009 -0.7166  0.0370  1.1531
  431TIP3    H2 1235   2.796   2.732   0.889  1.1340 -1.5671 -0.7271
  432TIP3   OH2 1236   6.516   7.487   5.731 -0.1792 -0.5237  0.1234
  432TIP3    H1 1237   6.533   7.559   5.670 -0.8035 -1.0091 -0.6266
  432TIP3    H2 1238   6.583   7.497   5.800  1.5206 -0.8841 -1.4414
  433TIP3   OH2 1239   2.822   2.849   0.727 -0.6258 -0.2515 -0.1132
  433TIP3    H1 1240   2.758   2.868   0.659 -1.9671  0.4385  1.3078
  433TIP3    H2 1241   2.845   2.935   0.763  1.2030 -0.4838 -0.6962
  434TIP3   OH2 1242   4.999   1.427   1.805  0.2855 -0.7580 -0.2396
  434TIP3    H1 1243   4.964   1.392   1.723 -1.0026  1.6413 -0.7611
  434TIP3    H2 1244   4.922   1.448   1.857  1.0429  0.1609  0.5361
  435TIP3   OH2 1245   3.900   1.634   3.265  0.3006  0.1290  0.1005
  435TIP3    H1 1246   3.924   1.720   3.300  0.5297  0.1286 -0.0544
  435TIP3    H2 1247   3.832   1.602   3.325  1.6385 -0.4577  1.3410
  436TIP3   OH2 1248   3.900   1.071   0.962  0.0711  0.1391 -0.1758
  436TIP3    H1 1249   3.837   1.046   1.029 -2.1780  0.7269 -2.0292
  436TIP3    H2 1250   3.850   1.075   0.881  2.8670 -1.2213 -2.0654
  437TIP3   OH2 1251   4.530   3.122   1.085 -0.4603 -0.2405 -0.1736
  437TIP3    H1 1252   4.555   3.079   1.166 -1.1961 -0.1694  0.0871
  437TIP3    H2 1253   4.456   3.178   1.108 -1.1314 -0.7629 -1.0395
  438TIP3   OH2 1254   1.765   6.961   1.500 -0.0554  0.1863 -0.3944
  438TIP3    H1 1255   1.801   7.046   1.478  1.2076 -0.1215  0.4370
  438TIP3    H2 1256   1.838   6.900   1.492 -0.7069 -0.6679 -0.0252
  439TIP3   OH2 1257   6.832   6.325   6.281  0.1343  0.0055  0.6521
  439TIP3    H1 1258   6.842   6.409   6.325 -0.1302  0.6193 -0.4421
  439TIP3    H2 1259   6.738   6.309   6.281  0.2364 -0.5996  1.4268
  440TIP3   OH2 1260   4.804   5.176   6.669  0.0020 -0.3201 -0.0144
  440TIP3    H1 1261   4.730   5.192   6.610 -0.0398  0.1204  0.1562
  440TIP3    H2 1262   4.769   5.116   6.735 -0.6170  0.9805  0.8635
  441TIP3   OH2 1263   4.273   3.191   2.986  0.0625  0.0786 -0.3127
  441TIP3    H1 1264   4.232   3.265   2.941 -3.6860 -0.9884  1.0828
  441TIP3    H2 1265   4.360   3.222   3.011 -0.4460  3.0692 -2.0527
  442TIP3   OH2 1266   2.105   1.532   2.259 -0.3459 -0.0296  0.1395
  442TIP3    H1 1267   2.193   1.550   2.293  0.0602 -0.5178 -0.6438
  442TIP3    H2 1268   2.067   1.619   2.243 -0.9565  0.2685  2.8185
  443TIP3   OH2 1269   3.378   0.521   0.502 -0.0165  0.4279 -0.1543
  443TIP3    H1 1270   3.293   0.497   0.539  0.8806  0.5490  2.0502
  443TIP3    H2 1271   3.392   0.611   0.532  0.9714  0.3477 -0.3799
  444TIP3   OH2 1272   3.080   1.221   2.055  0.1219 -0.3381 -0.2680
  444TIP3    H1 1273   3.016   1.282   2.091  0.5199  1.2379 -2.1765
  444TIP3    H2 1274   3.164   1.248   2.093  0.3277  0.4289 -1.2653
  445TIP3   OH2 1275   4.628   2.780   0.311 -0.5247  0.4304  0.2862
  445TIP3    H1 1276   4.586   2.813   0.391 -0.1075 -0.3773  0.8467
  445TIP3    H2 1277   4.693   2.717   0.343  0.0383  0.5319 -0.6626
  446TIP3   OH2 1278   7.007   3.534   2.958 -0.3357  0.1803 -0.1300
  446TIP3    H1 1279   7.097   3.499   2.957 -0.3766  0.0690 -0.0520
  446TIP3    H2 1280   6.991   3.562   2.868  0.1187  1.0884  0.0725
  447TIP3   OH2 1281   3.164   1.172   1.489  0.1851  0.7445 -0.3024
  447TIP3    H1 1282   3.202   1.089   1.459 -1.4891  0.1651 -0.8966
  447TIP3    H2 1283   3.100   1.146   1.555  0.9934  1.7279  0.8821
  448TIP3   OH2 1284   0.757   6.165   6.537  0.5132  0.1776  0.3432
  448TIP3    H1 1285   0.716   6.137   6.619 -0.0286 -0.4759 -0.1423
  448TIP3    H2 1286   0.686   6.208   6.489  0.3489 -1.0361 -0.5366
  449TIP3   OH2 1287   7.436   6.022   6.012  0.2867  0.7480  0.0170
  449TIP3    H1 1288   7.370   6.008   5.944  1.2237  0.4881 -0.8496
  449TIP3    H2 1289   7.435   5.941   6.063 -0.2235  0.8357  0.1525
  450TIP3   OH2 1290   5.082   1.946   1.330  0.0089 -0.0628 -0.0626
  450TIP3    H1 1291   4.998   1.952   1.285 -0.0970 -0.1804  0.1179
  450TIP3    H2 1292   5.070   1.996   1.411  0.1872  0.1185 -0.1498
  451TIP3   OH2 1293   6.920   6.951   6.624 -0.3233 -0.0505 -0.4588
  451TIP3    H1 1294   6.848   6.958   6.561 -0.0046 -1.5030 -0.9837
  451TIP3    H2 1295   6.898   6.876   6.679  0.3107  0.0846 -0.0072
  452TIP3   OH2 1296   5.012   1.057   1.347 -0.1415 -0.2515 -0.1591
  452TIP3    H1 1297   4.925   1.071   1.309 -0.0754  0.5774 -0.0238
  452TIP3    H2 1298   5.043   1.145   1.368 -0.7634 -0.7346  3.1535
  453TIP3   OH2 1299   3.879   2.520   0.093  0.1888  0.0582 -0.0167
  453TIP3    H1 1300   3.915   2.591   0.040 -0.3992  0.7150  0.4662
  453TIP3    H2 1301   3.954   2.488   0.144  0.8743 -0.9110 -1.6012
  454TIP3   OH2 1302   4.509   1.302   0.350 -0.2429  0.0969 -0.0773
  454TIP3    H1 1303   4.463   1.297   0.266 -0.3961 -0.6493  0.0547
  454TIP3    H2 1304   4.534   1.394   0.357  0.9416 -0.1073 -1.5616
  455TIP3   OH2 1305   6.277   2.889   0.411 -0.0229  0.9867 -0.6117
  455TIP3    H1 1306   6.219   2.832   0.461  1.2260 -0.7189 -1.0662
  455TIP3    H2 1307   6.236   2.894   0.324  1.3860 -1.6668 -1.4820
  456TIP3   OH2 1308   7.842   5.910   6.465 -0.1961 -0.4402  0.3956
  456TIP3    H1 1309   7.843   5.885   6.557  0.2052 -0.6940  0.3240
  456TIP3    H2 1310   7.852   5.828   6.417  0.9821 -0.1682  0.1545
  457TIP3   OH2 1311   8.480   2.504   0.240  0.3403 -0.4358  0.3720
  457TIP3    H1 1312   8.435   2.467   0.316  1.8454  1.2081  2.1155
  457TIP3    H2 1313   8.412   2.549   0.191 -0.8447 -2.4327  0.1386
  458TIP3   OH2 1314   4.777   1.488   0.782  0.3404  0.0954 -0.3765
  458TIP3    H1 1315   4.684   1.513   0.783  0.0978 -0.5603 -3.0410
  458TIP3    H2 1316   4.824   1.569   0.800 -0.6909  0.7442 -0.6050
  459TIP3   OH2 1317   7.566   6.501   4.967  0.0408  0.4879  0.0604
  459TIP3    H1 1318   7.523   6.482   5.050 -0.7413  0.0310 -0.4467
  459TIP3    H2 1319   7.583   6.415   4.928  1.4993  0.6609  0.2975
  460TIP3   OH2 1320   4.082   1.866   2.157 -0.5560  0.1177  0.2262
  460TIP3    H1 1321   3.999   1.824   2.178  0.2794 -0.9796  1.4212
  460TIP3    H2 1322   4.124   1.881   2.242  1.7812 -2.1015 -0.4656
  461TIP3   OH2 1323   4.413   1.824   0.516  0.0716  0.0553  0.2421
  461TIP3    H1 1324   4.446   1.877   0.588  0.6990  1.2966 -0.9194
  461TIP3    H2 1325   4.451   1.864   0.438 -1.5166 -0.5375 -0.8609
  462TIP3   OH2 1326   4.232   3.297   1.717 -0.0376 -0.4146 -0.0051
  462TIP3    H1 1327   4.247   3.322   1.626 -1.5908  0.0229 -0.1567
  462TIP3    H2 1328   4.197   3.376   1.758 -0.1746 -0.8680  0.7598
  463TIP3   OH2 1329   6.752   1.322   1.689  0.1271  0.0697 -0.1751
  463TIP3    H1 1330   6.772   1.268   1.765  3.1966 -0.1668 -1.0689
  463TIP3    H2 1331   6.789   1.274   1.615 -2.7689  0.3248 -1.8312
  464TIP3   OH2 1332   6.023   2.405   0.653  0.4709 -0.0442  0.5571
  464TIP3    H1 1333   6.118   2.411   0.667  1.0264 -0.8598 -2.5323
  464TIP3    H2 1334   6.007   2.312   0.640 -0.8502  0.0512  1.4281
  465TIP3   OH2 1335   1.927   0.421   6.931  0.1051  0.0370  0.4951
  465TIP3    H1 1336   1.959   0.485   6.867  0.3411 -1.6669 -1.1479
  465TIP3    H2 1337   2.006   0.386   6.972 -0.0073  0.5485  1.1546
  466TIP3   OH2 1338   7.797   3.188   0.754 -0.4484 -0.0494 -0.6673
  466TIP3    H1 1339   7.873   3.132   0.740 -0.2004  0.0245  0.3444
  466TIP3    H2 1340   7.773   3.173   0.845 -1.9276 -0.4226 -1.1073
  467TIP3   OH2 1341   3.730   1.728   1.549  0.1690  0.5963  0.5917
  467TIP3    H1 1342   3.820   1.751   1.526  0.1804 -0.9517 -1.0552
  467TIP3    H2 1343   3.734   1.703   1.641  1.6993 -0.7162  0.1942
  468TIP3   OH2 1344   5.828   0.844   0.865  0.0706  0.2545  0.0586
  468TIP3    H1 1345   5.854   0.751   0.869 -0.5892  0.0929  0.7054
  468TIP3    H2 1346   5.908   0.890   0.838  0.4774 -0.4708  0.0105
  469TIP3   OH2 1347   6.255   3.002   1.175 -0.5865 -0.6610  0.1595
  469TIP3    H1 1348   6.182   2.941   1.188 -0.3170 -1.4501 -1.8094
  469TIP3    H2 1349   6.214   3.088   1.175 -1.2831 -0.9798  0.7128
  470TIP3   OH2 1350   3.859   1.942   0.925  0.7710  0.0455  0.0405
  470TIP3    H1 1351   3.866   2.002   1.000  1.7359  0.1399 -0.1132
  470TIP3    H2 1352   3.769   1.910   0.928  1.0510 -0.6497  1.7767
  471TIP3   OH2 1353   6.475   3.110   2.587  0.6419 -0.2655  0.4175
  471TIP3    H1 1354   6.430   3.127   2.504  1.7281  1.5563  0.1854
  471TIP3    H2 1355   6.459   3.017   2.604  0.4952 -0.6987 -1.8914
  472TIP3   OH2 1356   3.879   3.089   3.271 -0.2138  0.3656 -0.3301
  472TIP3    H1 1357   3.849   3.168   3.317  1.2373  0.5083  0.4084
  472TIP3    H2 1358   3.917   3.122   3.189 -0.2170  0.3798 -0.3259
  473TIP3   OH2 1359   3.299   2.347   0.430 -0.1414 -0.5089 -0.3496
  473TIP3    H1 1360   3.235   2.349   0.359 -0.6050 -0.0830  0.0804
  473TIP3    H2 1361   3.247   2.348   0.510  0.3923 -0.5295  0.0047
  474TIP3   OH2 1362   7.213   2.255   1.864  0.5252 -0.3575 -0.5721
  474TIP3    H1 1363   7.274   2.190   1.902  0.7175  0.6045  0.8287
  474TIP3    H2 1364   7.262   2.337   1.868 -0.2511  0.1211 -1.0163
  475TIP3   OH2 1365   5.841   4.661   5.379  0.2095  0.3454 -0.2285
  475TIP3    H1 1366   5.935   4.659   5.362  0.0216  0.9840 -1.3806
  475TIP3    H2 1367   5.834   4.648   5.474  1.4668  0.5676 -0.0921
  476TIP3   OH2 1368   3.198   2.884   0.612 -0.2913  0.1565 -0.8300
  476TIP3    H1 1369   3.133   2.890   0.682  2.0879 -1.2972  1.6331
  476TIP3    H2 1370   3.202   2.791   0.591  1.2504  0.1681 -0.6502
  477TIP3   OH2 1371   4.044   1.377   0.334  0.0451 -0.0412 -0.4983
  477TIP3    H1 1372   4.033   1.469   0.357 -1.7976  0.2526 -2.4151
  477TIP3    H2 1373   3.979   1.331   0.388  1.3898 -0.3293  0.9227
  478TIP3   OH2 1374   6.061   2.915   1.517 -0.3516  0.4589  0.5208
  478TIP3    H1 1375   6.123   2.988   1.509  0.5084 -0.1577  1.3547
  478TIP3    H2 1376   6.056   2.899   1.611  0.8030 -1.6784  0.2368
  479TIP3   OH2 1377   4.367   0.820   2.231 -0.3254  0.3146 -0.3960
  479TIP3    H1 1378   4.393   0.903   2.270  1.4850 -0.5937  0.3849
  479TIP3    H2 1379   4.373   0.835   2.136 -0.1797  1.1245 -0.2615
  480TIP3   OH2 1380   7.459   3.274   0.962  0.0969  0.4043  0.5862
  480TIP3    H1 1381   7.403   3.219   1.017 -2.2384  1.7354 -0.3646
  480TIP3    H2 1382   7.451   3.237   0.874 -2.1984  2.6647 -0.2434
  481TIP3   OH2 1383   4.569   3.472   1.308 -0.3914  0.2327  0.7829
  481TIP3    H1 1384   4.651   3.423   1.312 -1.4495 -1.5362  1.4360
  481TIP3    H2 1385   4.584   3.548   1.364  0.6551 -0.2984  1.2354
  482TIP3   OH2 1386   6.470   1.325   1.648 -0.1900 -0.3331  0.9120
  482TIP3    H1 1387   6.393   1.377   1.670  0.2295 -0.5629  3.0383
  482TIP3    H2 1388   6.536   1.352   1.712  0.7008 -1.9108  0.6823
  483TIP3   OH2 1389   5.624   2.613   0.231  0.4996 -0.2210 -0.0205
  483TIP3    H1 1390   5.632   2.536   0.174 -2.1202  0.8200 -1.8908
  483TIP3    H2 1391   5.556   2.591   0.294  0.8086  0.0035  0.3960
  484TIP3   OH2 1392   6.245   4.733   1.208  0.5421 -0.1257  0.0083
  484TIP3    H1 1393   6.262   4.655   1.262  3.0630  0.2075 -0.2181
  484TIP3    H2 1394   6.150   4.744   1.210  0.4990 -0.5073  3.8465
  485TIP3   OH2 1395   6.456   5.685   5.908  0.4911 -0.3834  0.2965
  485TIP3    H1 1396   6.507   5.699   5.828  1.0498  0.2629  0.7572
  485TIP3    H2 1397   6.454   5.590   5.919  0.7464 -0.4542 -0.2722
  486TIP3   OH2 1398   4.810   1.504   1.446  0.1997  0.2254  0.3074
  486TIP3    H1 1399   4.872   1.458   1.502 -0.2262 -1.0104 -0.2163
  486TIP3    H2 1400   4.863   1.568   1.399  0.9035 -0.1260  0.6128
  487TIP3   OH2 1401   4.702   2.017   1.587  0.1858 -0.3353  0.0049
  487TIP3    H1 1402   4.638   2.032   1.657  2.2649  0.5122  1.7620
  487TIP3    H2 1403   4.666   2.064   1.512  0.3237  2.8841  1.8779
  488TIP3   OH2 1404   5.045   1.603   0.209 -0.0686 -0.0284 -0.5572
  488TIP3    H1 1405   4.972   1.549   0.240  0.2881  0.2382  0.7864
  488TIP3    H2 1406   5.031   1.688   0.250  1.3402 -0.1620  0.2484
  489TIP3   OH2 1407   5.057   2.744   1.769 -0.5123  0.1975  0.2594
  489TIP3    H1 1408   5.019   2.731   1.683  0.9053  0.4196 -0.4193
  489TIP3    H2 1409   5.067   2.656   1.805  1.9989 -0.1636 -1.1964
  490TIP3   OH2 1410   4.863   2.159   1.037  0.4533  0.0957  0.3865
  490TIP3    H1 1411   4.808   2.190   0.965 -0.7540  0.8631  1.6080
  490TIP3    H2 1412   4.939   2.218   1.037 -1.4195  2.6045  2.1661
  491TIP3   OH2 1413   6.124   5.146   3.572 -0.4981  0.2269  0.4961
  491TIP3    H1 1414   6.036   5.184   3.568 -0.5818  0.0878  0.9823
  491TIP3    H2 1415   6.175   5.198   3.510 -1.0166  0.0540 -0.0791
  492TIP3   OH2 1416   0.147   3.988   6.602 -0.5896  0.1166 -0.0615
  492TIP3    H1 1417   0.140   3.922   6.671 -0.7489 -1.1344 -1.2596
  492TIP3    H2 1418   0.116   4.069   6.644 -4.0756 -1.3190  0.3742
  493TIP3   OH2 1419   7.040   5.979   6.825 -0.2425 -0.1122  0.2279
  493TIP3    H1 1420   6.982   5.998   6.898  0.1051  1.2427  0.1736
  493TIP3    H2 1421   7.074   6.065   6.798  0.3988 -0.6911 -0.8804
  494TIP3   OH2 1422   7.526   6.333   6.364  0.0301  0.2616  0.1622
  494TIP3    H1 1423   7.578   6.371   6.293  0.9757 -0.8589  0.2413
  494TIP3    H2 1424   7.482   6.408   6.404 -0.5368  0.9038 -1.6179
  495TIP3   OH2 1425   4.154   3.031   0.745  0.0911  0.1560 -0.0590
  495TIP3    H1 1426   4.243   3.052   0.772 -0.5860  0.0646  2.2772
  495TIP3    H2 1427   4.118   3.114   0.713 -0.4008  1.1914  3.0546
  496TIP3   OH2 1428   5.224   2.496   0.128 -0.1275  0.0122 -0.1489
  496TIP3    H1 1429   5.129   2.485   0.139 -0.4265  1.6039 -0.9027
  496TIP3    H2 1430   5.243   2.461   0.041 -0.0852  0.0401 -0.1510
  497TIP3   OH2 1431   4.306   1.782   1.799  0.7824 -0.1362  0.1862
  497TIP3    H1 1432   4.231   1.820   1.844  0.6016 -2.4902  1.9604
  497TIP3    H2 1433   4.339   1.852   1.743 -2.6392  1.0012 -0.5044
  498TIP3   OH2 1434   4.959   2.356   1.600 -0.0833  0.1534 -0.5291
  498TIP3    H1 1435   4.941   2.429   1.659  3.8550  0.1692  0.7823
  498TIP3    H2 1436   5.022   2.391   1.537 -0.0161 -1.4443 -1.3689
  499TIP3   OH2 1437   5.392   3.006   1.058  0.1726  0.4670 -0.1582
  499TIP3    H1 1438   5.363   2.916   1.068  1.3889  0.1258  0.3950
  499TIP3    H2 1439   5.371   3.029   0.967 -1.7098  0.2166  0.1949
  500TIP3   OH2 1440   4.748   1.069   1.808  0.6192 -0.4296  0.2194
  500TIP3    H1 1441   4.827   1.014   1.809  2.0953  1.6227  0.4575
  500TIP3    H2 1442   4.756   1.120   1.728  0.1408  0.6353  0.8431
  501TIP3   OH2 1443   0.125   2.395   0.172 -0.0913 -0.6948 -0.5724
  501TIP3    H1 1444   0.038   2.433   0.185  0.3973  0.2044  0.1717
  501TIP3    H2 1445   0.133   2.328   0.239 -0.5982 -1.4921 -1.2964
  502TIP3   OH2 1446   4.457   1.876   2.779  0.2523  0.2133 -0.1497
  502TIP3    H1 1447   4.526   1.825   2.738 -1.2221 -0.9910 -1.2122
  502TIP3    H2 1448   4.395   1.810   2.812 -0.9305  1.2624 -0.2272
  503TIP3   OH2 1449   1.385   6.495   6.076 -0.6039  0.1885  0.2976
  503TIP3    H1 1450   1.415   6.444   6.001  0.7838 -1.1962  1.7681
  503TIP3    H2 1451   1.302   6.534   6.047 -1.1205 -1.9940 -1.2433
  504TIP3   OH2 1452   4.044   2.658   1.027 -0.2217  0.2178 -0.4198
  504TIP3    H1 1453   4.122   2.654   1.082 -2.4615 -2.8696  2.7662
  504TIP3    H2 1454   4.005   2.743   1.048  0.5892  0.3862  0.4394
  505TIP3   OH2 1455   7.044   3.984   0.870  0.8006 -0.6520 -0.6474
  505TIP3    H1 1456   7.025   3.959   0.961  3.0003 -1.1804 -0.2933
  505TIP3    H2 1457   7.093   4.065   0.877 -0.1656  0.0136 -1.4558
  506TIP3   OH2 1458   6.956   3.682   2.119 -0.1256  0.1633  0.3842
  506TIP3    H1 1459   6.868   3.685   2.083 -0.1710  0.1073  0.4912
  506TIP3    H2 1460   6.965   3.593   2.152 -0.1814  0.2994  0.7618
  507TIP3   OH2 1461   7.092   2.880   2.470 -0.1748 -1.0344 -0.1425
  507TIP3    H1 1462   7.022   2.862   2.532 -0.5981  0.3902 -0.1970
  507TIP3    H2 1463   7.048   2.915   2.392  0.4194 -2.0563 -0.9663
  508TIP3   OH2 1464   3.221   2.147   0.830 -0.3700 -0.4019 -0.0551
  508TIP3    H1 1465   3.275   2.167   0.906  1.6112 -0.7894 -1.3220
  508TIP3    H2 1466   3.227   2.225   0.775  0.6338 -1.2316 -1.1631
  509TIP3   OH2 1467   6.443   2.354   0.300  0.2209 -0.1849  0.2122
  509TIP3    H1 1468   6.410   2.267   0.323 -0.0321 -0.5104 -1.3198
  509TIP3    H2 1469   6.375   2.391   0.244  0.6733  0.7194  0.2540
  510TIP3   OH2 1470   0.633   0.260   1.614 -0.3548  0.0593 -0.3422
  510TIP3    H1 1471   0.542   0.234   1.628 -0.6677  1.3765  0.1759
  510TIP3    H2 1472   0.678   0.235   1.695 -0.7445  1.4763  0.3321
  511TIP3   OH2 1473   4.839   0.656   1.362 -0.6275 -0.1126  0.2708
  511TIP3    H1 1474   4.876   0.600   1.293  0.7728  0.7802  0.2640
  511TIP3    H2 1475   4.833   0.600   1.439  1.0628 -0.2206  0.3525
  512TIP3   OH2 1476   5.471   2.069   0.451 -0.5618 -0.4221  0.5481
  512TIP3    H1 1477   5.496   1.995   0.396 -1.1858 -0.6371  0.5515
  512TIP3    H2 1478   5.542   2.077   0.515  1.6177  1.6159 -2.0110
  513TIP3   OH2 1479   4.720   0.942   0.096  0.1877 -0.2565  0.2469
  513TIP3    H1 1480   4.716   0.846   0.094  0.4257 -0.2738  0.5263
  513TIP3    H2 1481   4.809   0.963   0.066  0.3769 -0.1510  0.8720
  514TIP3   OH2 1482   6.067   4.377   1.461  0.2798  0.1981  0.2124
  514TIP3    H1 1483   6.138   4.340   1.512  0.4740  0.7913  0.3717
  514TIP3    H2 1484   6.053   4.464   1.498  0.1178  0.4552 -0.4450
  515TIP3   OH2 1485   6.299   2.745   1.750  0.0597  0.3389 -0.5125
  515TIP3    H1 1486   6.323   2.805   1.821  0.6963  0.1571 -0.5665
  515TIP3    H2 1487   6.291   2.802   1.673  0.4613  0.3915 -0.5204
  516TIP3   OH2 1488   6.872   7.099   6.135  0.5256  0.2357  0.1529
  516TIP3    H1 1489   6.831   7.046   6.067 -0.9711  0.4620  0.8653
  516TIP3    H2 1490   6.801   7.151   6.172  1.9394  2.7145 -0.4748
  517TIP3   OH2 1491   7.307   2.163   0.186 -0.2792  0.3993  0.2626
  517TIP3    H1 1492   7.284   2.197   0.100  1.0186 -2.3458 -1.2544
  517TIP3    H2 1493   7.234   2.107   0.210  0.2676 -0.4447 -0.0098
  518TIP3   OH2 1494   6.776   2.826   1.164  0.0731 -0.0842 -0.0170
  518TIP3    H1 1495   6.831   2.871   1.100  0.1575  1.8286  1.3725
  518TIP3    H2 1496   6.834   2.810   1.238 -0.8761  0.7000  0.9081
  519TIP3   OH2 1497   4.907   0.895   2.200 -0.1245 -0.4693  0.0798
  519TIP3    H1 1498   4.966   0.856   2.135 -2.1101 -0.1316 -2.0106
  519TIP3    H2 1499   4.926   0.989   2.195  0.5853 -0.5692  0.8865
  520TIP3   OH2 1500   5.725   2.545   0.525  0.1912 -1.0047 -0.7273
  520TIP3    H1 1501   5.797   2.596   0.487 -0.0624 -2.0514 -2.7043
  520TIP3    H2 1502   5.769   2.471   0.567  0.3904 -0.6704 -0.3477
  521TIP3   OH2 1503   4.602   2.948   0.512 -0.7453  0.3355 -0.4604
  521TIP3    H1 1504   4.692   2.981   0.510 -0.1093 -1.3910 -0.7764
  521TIP3    H2 1505   4.565   2.986   0.592  0.4687  0.5451  0.0153
  522TIP3   OH2 1506   3.950   2.325   1.543  0.4381  0.5232 -0.1672
  522TIP3    H1 1507   4.012   2.313   1.472  1.5507 -0.0727  0.8926
  522TIP3    H2 1508   3.987   2.276   1.616 -2.0868 -1.1943  0.0265
  523TIP3   OH2 1509   4.104   1.316   6.753  0.6303 -0.6093 -0.0841
  523TIP3    H1 1510   4.187   1.271   6.765  0.4207 -0.4580  2.0820
  523TIP3    H2 1511   4.091   1.365   6.834 -1.9933 -1.3364 -0.0085
  524TIP3   OH2 1512   6.515   1.977   1.532 -0.1909  0.3732 -0.0929
  524TIP3    H1 1513   6.516   1.910   1.601 -0.1190  1.3093  0.8250
  524TIP3    H2 1514   6.422   1.992   1.515 -0.2103  0.2592 -0.0900
  525TIP3   OH2 1515   7.519   7.613   6.805  0.3679  0.6852  0.3201
  525TIP3    H1 1516   7.427   7.589   6.814  0.0075  1.9514  0.0357
  525TIP3    H2 1517   7.565   7.529   6.796 -0.6781  0.0205  1.0967
  526TIP3   OH2 1518   7.604   6.481   6.997  0.2982  0.2792 -0.3757
  526TIP3    H1 1519   7.520   6.474   7.042  1.2552  0.6709  1.5040
  526TIP3    H2 1520   7.648   6.398   7.013  0.7989  0.5628 -0.2623
  527TIP3   OH2 1521   8.410   3.504   2.838 -0.4722  0.1717 -0.1399
  527TIP3    H1 1522   8.383   3.426   2.887 -0.0787  0.7386  0.9752
  527TIP3    H2 1523   8.491   3.477   2.793  0.0159  0.1370  0.7593
  528TIP3   OH2 1524   5.712   3.562   0.959  0.0010 -0.4425  0.2227
  528TIP3    H1 1525   5.733   3.469   0.957 -2.0191 -0.9361  0.4551
  528TIP3    H2 1526   5.686   3.583   0.869 -1.4292 -0.5870  0.5866
  529TIP3   OH2 1527   0.515   5.439   6.728  0.2450  0.0530 -0.0254
  529TIP3    H1 1528   0.437   5.493   6.712 -0.3485 -1.5634 -3.0681
  529TIP3    H2 1529   0.482   5.349   6.730  1.9838 -0.6340 -1.1536
  530TIP3   OH2 1530   4.883   2.754   0.529 -0.1957 -0.4106 -0.1508
  530TIP3    H1 1531   4.843   2.746   0.615 -1.0384 -2.4303 -0.7179
  530TIP3    H2 1532   4.882   2.666   0.493  2.0278  0.0246 -1.4081
  531TIP3   OH2 1533   3.380   1.166   0.162  0.6918  0.1121  0.5878
  531TIP3    H1 1534   3.448   1.206   0.216  0.3535 -0.3647  1.3697
  531TIP3    H2 1535   3.376   1.221   0.083  0.7369  1.1824  1.3321
  532TIP3   OH2 1536   5.872   3.806   0.467  0.1148 -0.4546 -0.1810
  532TIP3    H1 1537   5.784   3.798   0.504  1.0428  1.5963  2.6280
  532TIP3    H2 1538   5.859   3.852   0.384 -1.3437  0.9031  0.7769
  533TIP3   OH2 1539   6.470   3.738   2.393  0.3793 -0.1346  0.3178
  533TIP3    H1 1540   6.383   3.772   2.371  0.5742 -0.0213 -0.2880
  533TIP3    H2 1541   6.531   3.807   2.366  0.7574 -0.8304 -0.6680
  534TIP3   OH2 1542   5.426   0.716   1.716  0.2057 -0.3603 -0.0100
  534TIP3    H1 1543   5.415   0.729   1.622 -2.4114 -0.0184  0.3095
  534TIP3    H2 1544   5.377   0.636   1.736 -0.1738  0.1573  1.2197
  535TIP3   OH2 1545   6.327   3.851   1.075  0.0662 -0.2358  0.2038
  535TIP3    H1 1546   6.418   3.823   1.074 -0.0519 -0.7663 -3.4903
  535TIP3    H2 1547   6.280   3.777   1.114  0.7564 -1.7920 -1.7854
  536TIP3   OH2 1548   6.460   2.026   2.625  0.2531  0.6330 -0.8743
  536TIP3    H1 1549   6.549   2.000   2.647 -0.1231  1.8300  2.3630
  536TIP3    H2 1550   6.469   2.077   2.544  2.0230 -2.1279 -2.4984
  537TIP3   OH2 1551   4.947   2.131   1.952 -0.1574  0.1890  0.0490
  537TIP3    H1 1552   4.960   2.129   2.046 -2.2854  0.2449  0.3746
  537TIP3    H2 1553   4.853   2.147   1.941 -1.0151 -5.0900 -1.9814
  538TIP3   OH2 1554   4.378   1.311   1.694 -0.2582  0.1639 -0.2723
  538TIP3    H1 1555   4.418   1.328   1.609  1.4525  0.8604  0.6557
  538TIP3    H2 1556   4.435   1.353   1.758 -1.6319 -0.1527  1.2311
  539TIP3   OH2 1557   0.547   6.621   6.473 -0.9265 -0.1946  0.4119
  539TIP3    H1 1558   0.619   6.587   6.420 -0.1365  2.2894 -0.1761
  539TIP3    H2 1559   0.470   6.614   6.416 -0.6613 -0.4416  0.0832
  540TIP3   OH2 1560   5.732   1.020   1.502  0.3639  0.1872  0.7639
  540TIP3    H1 1561   5.776   1.040   1.585  1.0173 -1.8145  0.9205
  540TIP3    H2 1562   5.738   0.925   1.494 -2.9960 -0.0174  0.2254
  541TIP3   OH2 1563   7.572   3.751   0.852 -0.3804 -0.0926 -0.0739
  541TIP3    H1 1564   7.587   3.671   0.904 -1.8739 -1.3571 -1.5478
  541TIP3    H2 1565   7.660   3.781   0.829  0.2105 -1.1342  0.7623
  542TIP3   OH2 1566   3.388   2.184   1.052 -0.0205 -0.0459 -0.2252
  542TIP3    H1 1567   3.347   2.227   1.127  1.0174 -2.5037  1.8616
  542TIP3    H2 1568   3.467   2.235   1.035 -0.3780  0.6597  0.1963
  543TIP3   OH2 1569   7.480   1.192   0.250 -0.9548  0.0054 -0.2620
  543TIP3    H1 1570   7.452   1.270   0.202 -2.1668  0.4831  1.1942
  543TIP3    H2 1571   7.546   1.225   0.312 -2.6289  0.1830  1.4719
  544TIP3   OH2 1572   2.480   7.082   0.390  0.1084  0.4259 -0.1184
  544TIP3    H1 1573   2.453   7.150   0.328  0.8303  1.3657  0.5737
  544TIP3    H2 1574   2.405   7.072   0.449  0.5113  1.6442  0.6293
  545TIP3   OH2 1575   7.005   2.282   0.659  0.2721 -0.0668 -0.0099
  545TIP3    H1 1576   7.044   2.236   0.585 -1.2849 -1.2409 -0.1316
  545TIP3    H2 1577   6.920   2.241   0.670  0.1964  0.5826  1.9904
  546TIP3   OH2 1578   4.414   2.009   1.641 -0.5754  0.1231 -0.0922
  546TIP3    H1 1579   4.384   2.089   1.685 -2.3075 -1.2147  1.2830
  546TIP3    H2 1580   4.381   2.017   1.552 -2.1301  0.2527  0.4698
  547TIP3   OH2 1581   3.694   7.947   0.250 -0.1558 -0.1734 -0.2770
  547TIP3    H1 1582   3.638   7.997   0.192 -1.9887 -1.1634  0.6087
  547TIP3    H2 1583   3.734   8.012   0.308  0.0833  0.5869 -1.2916
  548TIP3   OH2 1584   3.692   1.114   2.120 -0.4688  0.6756  0.1469
  548TIP3    H1 1585   3.749   1.098   2.045 -0.4027 -1.0064  0.5268
  548TIP3    H2 1586   3.657   1.028   2.142 -1.6667  1.3891  1.1143
  549TIP3   OH2 1587   1.150   7.952   2.098  0.2584  0.4562 -0.1821
  549TIP3    H1 1588   1.207   8.003   2.041  0.1927 -0.9217 -1.5092
  549TIP3    H2 1589   1.165   7.861   2.073 -1.8538  0.0067  0.0454
  550TIP3   OH2 1590   5.130   0.412   2.302  0.0904  0.1703  0.0709
  550TIP3    H1 1591   5.133   0.486   2.363  0.4674  0.1769  0.0427
  550TIP3    H2 1592   5.175   0.444   2.224  1.5179 -0.5731  0.5760
  551TIP3   OH2 1593   5.610   1.715   1.438 -0.2599  0.2562 -0.4241
  551TIP3    H1 1594   5.619   1.695   1.531 -1.5514  0.0915 -0.3240
  551TIP3    H2 1595   5.597   1.629   1.396 -2.2916  0.5493 -0.4276
  552TIP3   OH2 1596   1.677   4.441   6.962 -0.1486 -0.2459  0.2016
  552TIP3    H1 1597   1.643   4.530   6.953  1.3338  0.1500 -1.9064
  552TIP3    H2 1598   1.718   4.440   7.049  1.6619  1.8338 -0.5732
  553TIP3   OH2 1599   7.388   0.416   2.322 -0.1480 -0.2424 -0.4122
  553TIP3    H1 1600   7.416   0.505   2.303  0.3940 -0.2063  0.5324
  553TIP3    H2 1601   7.464   0.375   2.364  0.1659 -1.6458 -2.3024
  554TIP3   OH2 1602   4.675   1.757   1.422 -0.2645  0.0845 -0.4907
  554TIP3    H1 1603   4.690   1.851   1.432  1.7300 -0.3006  0.3925
  554TIP3    H2 1604   4.689   1.721   1.510 -0.9959 -1.0427 -0.8278
  555TIP3   OH2 1605   5.110   1.320   1.336  0.1805  0.3943  0.1782
  555TIP3    H1 1606   5.074   1.396   1.382 -0.6950 -0.6239  1.2200
  555TIP3    H2 1607   5.174   1.356   1.275 -0.6785  2.0110  0.2202
  556TIP3   OH2 1608   6.515   2.127   2.347  0.2865  0.0628 -0.2493
  556TIP3    H1 1609   6.429   2.169   2.346 -0.6061 -1.5579  2.9535
  556TIP3    H2 1610   6.575   2.195   2.319 -1.7168  1.9971  0.0014
  557TIP3   OH2 1611   6.881   6.588   6.349 -0.1861 -0.3939  0.0206
  557TIP3    H1 1612   6.938   6.664   6.336 -0.9039 -0.0604 -1.2147
  557TIP3    H2 1613   6.803   6.624   6.391 -0.9646 -0.2705 -1.5132
  558TIP3   OH2 1614   0.133   3.260   1.684 -0.4435 -0.3903 -0.0135
  558TIP3    H1 1615   0.208   3.287   1.737 -0.3126 -1.6782  0.4864
  558TIP3    H2 1616   0.060   3.310   1.719  0.1369  0.7569 -0.3987
  559TIP3   OH2 1617   3.753   3.554   0.750  0.2308  0.3940  0.2365
  559TIP3    H1 1618   3.769   3.593   0.664 -2.0913 -0.4090 -0.5954
  559TIP3    H2 1619   3.704   3.474   0.731 -1.0355  0.6301  2.3758
  560TIP3   OH2 1620   6.023   3.355   0.543 -0.2588  0.4400  0.6511
  560TIP3    H1 1621   5.929   3.352   0.559 -0.5045  1.7897 -0.4192
  560TIP3    H2 1622   6.060   3.286   0.599 -1.8406  0.1091  1.2979
  561TIP3   OH2 1623   7.121   6.511   6.202  0.0239  0.2036 -0.0488
  561TIP3    H1 1624   7.144   6.488   6.292 -0.8159 -0.4866  0.0042
  561TIP3    H2 1625   7.066   6.589   6.210 -0.1667  0.0592  0.0493
  562TIP3   OH2 1626   1.449   7.875   6.670  0.1797  0.0281  0.5731
  562TIP3    H1 1627   1.416   7.926   6.596 -0.3795  0.1787  0.9211
  562TIP3    H2 1628   1.420   7.785   6.651  1.3541 -0.2101 -0.1493
  563TIP3   OH2 1629   6.205   2.523   1.460  0.1847  0.8167  0.5745
  563TIP3    H1 1630   6.212   2.445   1.404  1.1879  1.0010  0.4245
  563TIP3    H2 1631   6.233   2.493   1.546  2.5146  1.4498  0.0829
  564TIP3   OH2 1632   4.652   1.643   1.176  0.0829  0.1909  0.1405
  564TIP3    H1 1633   4.743   1.617   1.186 -0.0616 -0.1559  0.5680
  564TIP3    H2 1634   4.628   1.678   1.262 -0.7434 -1.4558  0.6031
  565TIP3   OH2 1635   4.853   2.838   0.088 -0.3416  0.4229 -0.0440
  565TIP3    H1 1636   4.839   2.869  -0.001 -0.1070  1.4683  0.2823
  565TIP3    H2 1637   4.778   2.870   0.138 -0.3661  0.0225  0.1818
  566TIP3   OH2 1638   5.011   1.279   1.021 -0.6943  0.0344 -0.1629
  566TIP3    H1 1639   4.926   1.266   0.979 -0.2964 -0.5183 -0.8088
  566TIP3    H2 1640   5.005   1.230   1.103 -1.1184  0.2788 -0.0463
  567TIP3   OH2 1641   4.354   0.196   2.996 -0.0933  0.7457 -0.1055
  567TIP3    H1 1642   4.405   0.162   2.923  0.9394  0.9401  0.5217
  567TIP3    H2 1643   4.419   0.226   3.059 -0.9792  0.9092  0.7409
  568TIP3   OH2 1644   6.687   2.282   3.618  0.6848  0.1960 -0.1082
  568TIP3    H1 1645   6.645   2.344   3.678  0.5997 -0.5224  0.5833
  568TIP3    H2 1646   6.695   2.330   3.536 -2.0127  0.1698 -0.4219
  569TIP3   OH2 1647   6.578   3.197   1.275 -0.0804 -0.5407 -0.1230
  569TIP3    H1 1648   6.642   3.267   1.281 -1.8691  1.1370  0.0012
  569TIP3    H2 1649   6.628   3.121   1.246  1.4150  1.5473 -3.3364
  570TIP3   OH2 1650   7.708   1.327   2.315 -0.7227 -0.3402  0.0781
  570TIP3    H1 1651   7.741   1.404   2.270  0.4637  0.5360  2.3796
  570TIP3    H2 1652   7.645   1.289   2.254 -1.0066  2.1951 -1.2727
  571TIP3   OH2 1653   2.860   1.354   2.645  0.2207 -0.0350 -0.6325
  571TIP3    H1 1654   2.775   1.398   2.638 -1.2268 -2.5819  0.3917
  571TIP3    H2 1655   2.846   1.268   2.606  1.7244 -1.2548  1.3891
  572TIP3   OH2 1656   6.491   2.460   0.954 -0.0511  0.3563 -0.1192
  572TIP3    H1 1657   6.493   2.384   1.013 -0.2026  1.4847  1.3464
  572TIP3    H2 1658   6.577   2.500   0.962  0.2703 -0.0527 -1.4307
  573TIP3   OH2 1659   6.400   4.341   0.889 -0.4124  0.3184 -0.2511
  573TIP3    H1 1660   6.329   4.282   0.861 -0.6853  0.9838 -0.9593
  573TIP3    H2 1661   6.452   4.355   0.810  0.0013  0.5555  0.0613
  574TIP3   OH2 1662   5.009   2.731   0.979  0.5484 -0.4661  0.3304
  574TIP3    H1 1663   4.977   2.803   1.032 -2.3693 -2.0397  0.8012
  574TIP3    H2 1664   5.051   2.672   1.041 -1.9709 -1.8134  0.8254
  575TIP3   OH2 1665   3.614   2.399   0.203  0.6178 -0.0872  0.0175
  575TIP3    H1 1666   3.585   2.464   0.267  0.1198  0.8266 -1.1317
  575TIP3    H2 1667   3.684   2.442   0.155 -0.4499  0.0037 -1.4766
  576TIP3   OH2 1668   4.808   2.461   0.681 -0.0966  0.2834  0.4807
  576TIP3    H1 1669   4.816   2.544   0.727  0.2923  0.9172 -0.6979
  576TIP3    H2 1670   4.889   2.453   0.631 -1.1321  0.3506 -1.2557
  577TIP3   OH2 1671   8.005   4.270   2.020  0.1480 -0.2630 -0.2980
  577TIP3    H1 1672   7.921   4.262   2.064  0.8931 -1.1617  1.0136
  577TIP3    H2 1673   7.984   4.285   1.928 -1.4202 -1.1507 -0.0843
  578TIP3   OH2 1674   2.599   1.221   2.721 -0.1240  0.1673 -0.0517
  578TIP3    H1 1675   2.523   1.185   2.766  1.2181 -1.6007  0.8530
  578TIP3    H2 1676   2.670   1.214   2.784  1.3750 -0.5996 -1.7851
  579TIP3   OH2 1677   5.785   0.690   3.819 -0.2314 -0.3523  0.0640
  579TIP3    H1 1678   5.712   0.742   3.786  0.5780  0.1878 -0.8787
  579TIP3    H2 1679   5.860   0.717   3.767  1.3891  1.4789  3.1754
  580TIP3   OH2 1680   6.009   3.896   0.799 -0.3545  0.4424  0.2509
  580TIP3    H1 1681   5.930   3.868   0.844 -0.2913  0.6585  0.4962
  580TIP3    H2 1682   6.080   3.880   0.861 -0.2273  0.4266  0.1031
  581TIP3   OH2 1683   4.545   1.596   0.390 -0.0636  0.4402 -0.1818
  581TIP3    H1 1684   4.630   1.640   0.387  0.2066  0.1042  2.1208
  581TIP3    H2 1685   4.485   1.662   0.425 -0.7561  0.6561 -1.7426
  582TIP3   OH2 1686   4.288   1.766   1.014  0.4988  0.0102  0.7978
  582TIP3    H1 1687   4.245   1.732   0.935 -1.3364  0.6483  1.4940
  582TIP3    H2 1688   4.294   1.690   1.072 -0.0098 -0.0134  0.8253
  583TIP3   OH2 1689   5.627   4.211   2.999  0.5414  0.4095 -0.4940
  583TIP3    H1 1690   5.595   4.228   2.910  1.1554  0.8981 -0.6318
  583TIP3    H2 1691   5.650   4.298   3.032 -0.4020  0.3103  0.4257
  584TIP3   OH2 1692   4.551   3.012   1.336  0.3276  0.3188  0.2266
  584TIP3    H1 1693   4.558   3.035   1.429  0.4098 -1.0707  0.5830
  584TIP3    H2 1694   4.585   2.923   1.332 -0.8621 -0.0826 -0.9397
  585TIP3   OH2 1695   4.935   2.705   2.109 -0.4429  0.1955  0.3091
  585TIP3    H1 1696   4.859   2.691   2.166 -0.7778  0.1265 -0.1444
  585TIP3    H2 1697   4.897   2.715   2.022  0.0557  0.4319  0.1196
  586TIP3   OH2 1698   3.910   1.411   1.870 -0.0100 -0.4659  0.2544
  586TIP3    H1 1699   3.925   1.317   1.877  2.2251 -0.1042  0.7580
  586TIP3    H2 1700   3.987   1.444   1.824 -0.7549  1.1227  0.1210
  587TIP3   OH2 1701   5.258   1.505   1.840  0.4148 -0.0138 -0.1273
  587TIP3    H1 1702   5.301   1.567   1.780 -1.0174  0.0832 -1.0860
  587TIP3    H2 1703   5.173   1.489   1.800 -1.0143  0.8809  2.4731
  588TIP3   OH2 1704   6.302   1.037   2.058  0.4781  0.1811 -0.0679
  588TIP3    H1 1705   6.314   1.116   2.111 -0.2907  0.4126 -0.2334
  588TIP3    H2 1706   6.391   1.006   2.041  0.8143  1.4258 -0.6316
  589TIP3   OH2 1707   5.532   2.803   1.793 -0.3611 -0.1187  0.0540
  589TIP3    H1 1708   5.606   2.844   1.837 -0.2482 -0.5420  0.2604
  589TIP3    H2 1709   5.455   2.842   1.835 -0.2539 -0.2396  0.3689
  590TIP3   OH2 1710   5.838   5.654   5.636 -0.1076  0.2620  0.1121
  590TIP3    H1 1711   5.825   5.566   5.671  0.4258  0.0790 -0.1505
  590TIP3    H2 1712   5.930   5.657   5.610 -0.1805  0.8200 -0.0947
  591TIP3   OH2 1713   4.517   1.501   1.471 -0.3086  0.5352 -0.3060
  591TIP3    H1 1714   4.509   1.525   1.563 -0.9700  0.7932 -0.4275
  591TIP3    H2 1715   4.609   1.516   1.451 -0.2548  0.9134  0.1972
  592TIP3   OH2 1716   7.333   0.123   2.488  0.4517 -0.0684 -0.5066
  592TIP3    H1 1717   7.361   0.076   2.409  0.1354  2.2198 -2.0353
  592TIP3    H2 1718   7.244   0.152   2.468  0.3663  0.5186  0.6868
  593TIP3   OH2 1719   4.442   4.823   1.772 -0.0674 -0.2040  0.1449
  593TIP3    H1 1720   4.488   4.901   1.740 -0.8383  0.6119  1.0097
  593TIP3    H2 1721   4.388   4.795   1.698 -1.7027  1.5696  0.6276
  594TIP3   OH2 1722   4.788   0.652   1.665 -0.0184 -0.2781 -0.3456
  594TIP3    H1 1723   4.815   0.568   1.627  0.9162 -0.4382  0.6301
  594TIP3    H2 1724   4.857   0.672   1.728  0.6401  2.0376 -1.7529
  595TIP3   OH2 1725   6.778   1.828   0.946 -0.3898 -0.7901 -0.2877
  595TIP3    H1 1726   6.770   1.874   1.030 -2.1659 -0.8339 -0.4176
  595TIP3    H2 1727   6.850   1.873   0.902  0.1267 -0.3325  0.9738
  596TIP3   OH2 1728   8.235   1.903   0.085 -0.4733 -0.0087 -0.4871
  596TIP3    H1 1729   8.152   1.919   0.130 -0.4232  0.3440 -0.5154
  596TIP3    H2 1730   8.232   1.962   0.009  0.1196  0.5423 -0.0818
  597TIP3   OH2 1731   3.286   2.107   5.919 -0.0893 -0.0889 -0.2659
  597TIP3    H1 1732   3.294   2.053   5.840  0.0257  0.6389 -0.7528
  597TIP3    H2 1733   3.214   2.066   5.968  0.1381 -0.8115 -0.5290
  598TIP3   OH2 1734   6.834   2.045   0.338  0.4792 -0.3473 -0.0879
  598TIP3    H1 1735   6.815   2.137   0.319  1.1919 -0.3362 -0.7800
  598TIP3    H2 1736   6.752   2.000   0.322  0.2416  0.1107 -0.1721
  599TIP3   OH2 1737   1.610   6.783   7.008 -0.3032  0.3623  0.5177
  599TIP3    H1 1738   1.602   6.791   6.913  0.8721  0.4834  0.4102
  599TIP3    H2 1739   1.535   6.831   7.043  0.5336  2.3520 -0.3243
  600TIP3   OH2 1740   4.129   2.626   1.454 -0.1686  0.0755 -0.0871
  600TIP3    H1 1741   4.094   2.652   1.539  0.4578 -2.2229  0.9201
  600TIP3    H2 1742   4.072   2.669   1.391 -3.5260 -1.7855  1.4976
  601TIP3   OH2 1743   7.687   0.664   3.107  0.3295 -0.7861 -0.5150
  601TIP3    H1 1744   7.742   0.617   3.169  1.1671  0.3288 -0.3820
  601TIP3    H2 1745   7.729   0.750   3.099 -1.4525  0.1184 -0.3409
  602TIP3   OH2 1746   7.205   2.245   0.833  0.3758 -0.3224 -0.3093
  602TIP3    H1 1747   7.146   2.269   0.762  0.5853  1.6356  0.1362
  602TIP3    H2 1748   7.279   2.203   0.790  0.1652  0.1861 -1.1820
  603TIP3   OH2 1749   7.329   2.728   1.341  0.2076  0.2767  0.6926
  603TIP3    H1 1750   7.252   2.765   1.298  0.9791  0.4324 -0.5914
  603TIP3    H2 1751   7.384   2.804   1.362  0.1567  0.1418  1.3147
  604TIP3   OH2 1752   6.236   6.151   1.062  0.1677 -0.4613 -0.1619
  604TIP3    H1 1753   6.185   6.097   1.122 -1.6994  1.2512 -0.1610
  604TIP3    H2 1754   6.176   6.169   0.989  1.7426 -0.8434 -1.5839
  605TIP3   OH2 1755   7.104   0.883   5.919 -0.3654  0.2287 -0.0829
  605TIP3    H1 1756   7.102   0.862   6.013  2.9849  0.2990  0.0692
  605TIP3    H2 1757   7.196   0.871   5.894 -1.2773 -0.1354 -3.4531
  606TIP3   OH2 1758   7.206   4.584   1.270  0.0003  0.8736  0.6474
  606TIP3    H1 1759   7.231   4.603   1.360 -0.8154 -0.3049  1.1391
  606TIP3    H2 1760   7.278   4.530   1.236 -0.4574 -0.0306  1.1110
  607TIP3   OH2 1761   5.757   2.658   1.600 -0.0254 -0.4941 -0.2347
  607TIP3    H1 1762   5.702   2.717   1.549 -0.3738 -1.0556 -0.5171
  607TIP3    H2 1763   5.810   2.613   1.535  0.5816 -0.1443  0.0187
  608TIP3   OH2 1764   7.922   5.059   2.620  0.1232  0.3948 -0.2248
  608TIP3    H1 1765   7.855   5.103   2.568  2.0207  1.6414 -1.6751
  608TIP3    H2 1766   8.004   5.097   2.591  1.7567 -3.1456 -0.5271
  609TIP3   OH2 1767   7.775   4.918   2.347  0.0601 -0.3804 -0.2916
  609TIP3    H1 1768   7.846   4.939   2.286  0.4380 -0.3615  0.1589
  609TIP3    H2 1769   7.759   4.999   2.395 -2.0348  0.4054 -2.1741
  610TIP3   OH2 1770   7.074   4.166   0.391 -0.1626  0.5376  0.0862
  610TIP3    H1 1771   7.130   4.090   0.377  0.3240  0.8202  0.4503
  610TIP3    H2 1772   7.094   4.194   0.481  0.1517  1.4801 -0.2648
  611TIP3   OH2 1773   1.443   7.636   6.406  0.0276 -0.4035  0.4347
  611TIP3    H1 1774   1.477   7.554   6.442  0.7185  0.5364  1.9651
  611TIP3    H2 1775   1.356   7.646   6.445  0.0080 -0.3361  0.3743
  612TIP3   OH2 1776   0.151   3.798   0.480  0.4353  0.3596  0.2030
  612TIP3    H1 1777   0.107   3.874   0.441  0.8867  1.4207  1.6893
  612TIP3    H2 1778   0.082   3.734   0.494 -0.2123  1.0771  0.3042
  613TIP3   OH2 1779   1.560   7.160   6.983  0.4149 -0.5576 -0.1509
  613TIP3    H1 1780   1.508   7.224   6.935  1.0669 -1.8896 -2.7707
  613TIP3    H2 1781   1.650   7.175   6.953  0.7967 -1.5799  0.4461
  614TIP3   OH2 1782   5.946   1.654   6.152 -0.3656  0.2849 -0.6297
  614TIP3    H1 1783   5.870   1.597   6.139 -1.3074  1.2983  0.2408
  614TIP3    H2 1784   6.004   1.605   6.209 -0.4241 -0.4580 -1.2053
  615TIP3   OH2 1785   5.236   0.975   6.771 -0.1833  0.0201  0.5786
  615TIP3    H1 1786   5.313   0.950   6.720 -0.2792  0.2025  0.3449
  615TIP3    H2 1787   5.167   0.988   6.706  0.4178  3.0313  0.4461
  616TIP3   OH2 1788   7.739   2.848   0.536  0.4744  0.1154 -0.0716
  616TIP3    H1 1789   7.665   2.878   0.588 -1.3012  0.0023 -2.4866
  616TIP3    H2 1790   7.815   2.860   0.594 -1.4206 -0.0491  2.5473
  617TIP3   OH2 1791   7.006   1.952   1.761  0.1576  0.1788  0.5427
  617TIP3    H1 1792   6.933   1.959   1.822  0.8630  2.3581  1.1706
  617TIP3    H2 1793   7.068   1.893   1.805  0.2281  0.9507  1.4931
  618TIP3   OH2 1794   1.412   2.337   1.055 -0.2004  0.0229  0.1908
  618TIP3    H1 1795   1.499   2.378   1.047 -0.4836  0.8568  1.2913
  618TIP3    H2 1796   1.430   2.249   1.086  0.3415 -0.3127 -1.0298
  619TIP3   OH2 1797   7.012   2.213   1.687  0.0535  0.4274 -0.3573
  619TIP3    H1 1798   6.995   2.120   1.702  1.7443  0.0983 -0.3808
  619TIP3    H2 1799   7.069   2.239   1.759 -1.1843  1.6923  0.1864
  620TIP3   OH2 1800   7.609   2.594   1.970 -0.3811  0.1617  0.3988
  620TIP3    H1 1801   7.605   2.585   1.875 -0.1596  0.4463  0.3623
  620TIP3    H2 1802   7.522   2.627   1.995 -1.1046 -1.7678  0.5025
  621TIP3   OH2 1803   5.751   1.954   2.394 -0.2628 -0.1022 -0.0953
  621TIP3    H1 1804   5.709   2.040   2.395 -0.4198 -0.1781 -0.0762
  621TIP3    H2 1805   5.706   1.905   2.463  0.7051  0.2136  0.7828
  622TIP3   OH2 1806   0.894   5.927   6.808 -0.0084  0.4326 -0.6824
  622TIP3    H1 1807   0.827   5.870   6.770  0.5130  1.3643 -3.0488
  622TIP3    H2 1808   0.851   6.012   6.815  0.4610  0.6727 -0.7642
  623TIP3   OH2 1809   4.367   7.669   0.683 -0.7478 -0.4100  0.4934
  623TIP3    H1 1810   4.427   7.732   0.724 -0.3688 -0.8791  0.6584
  623TIP3    H2 1811   4.399   7.584   0.710 -0.3599 -0.7431 -0.9514
  624TIP3   OH2 1812   4.468   0.320   6.955 -0.0616  0.1740 -0.6737
  624TIP3    H1 1813   4.428   0.241   6.993  2.1033  0.4283  2.3402
  624TIP3    H2 1814   4.562   0.303   6.959  0.3457  2.0550 -1.9702
  625TIP3   OH2 1815   4.704   1.803   0.962  0.4915 -0.3042 -0.1041
  625TIP3    H1 1816   4.692   1.738   1.031  1.1867  0.9905  1.2692
  625TIP3    H2 1817   4.780   1.772   0.913  0.1224 -1.1237 -0.1649
  626TIP3   OH2 1818   7.349   1.046   2.410 -0.3032  0.4190  0.1072
  626TIP3    H1 1819   7.370   0.959   2.376  0.6153  0.8544 -0.4446
  626TIP3    H2 1820   7.414   1.061   2.479 -0.2921  0.7764  0.0186
  627TIP3   OH2 1821   8.057   1.667   1.830 -0.0405 -0.2903  0.3836
  627TIP3    H1 1822   8.128   1.729   1.813 -0.8302  1.2625  2.5472
  627TIP3    H2 1823   7.994   1.684   1.760  0.4426  0.2672  0.0757
  628TIP3   OH2 1824   1.711   8.093   6.485 -0.1320  0.1400 -0.2430
  628TIP3    H1 1825   1.667   8.020   6.443 -0.5901 -0.0279  0.5286
  628TIP3    H2 1826   1.801   8.088   6.454 -0.3741 -0.2109 -0.8957
  629TIP3   OH2 1827   0.024   2.208   1.142  0.0081 -0.5484  0.1628
  629TIP3    H1 1828   0.016   2.301   1.117 -0.0968 -0.5432  0.2132
  629TIP3    H2 1829   0.113   2.184   1.117 -0.3195 -0.7266 -0.8175
  630TIP3   OH2 1830   7.144   5.742   1.418 -0.1164 -0.0500  0.2287
  630TIP3    H1 1831   7.143   5.647   1.400 -0.7536  0.2657 -1.5823
  630TIP3    H2 1832   7.237   5.764   1.421  0.0388 -0.7186  0.4861
  631TIP3   OH2 1833   6.954   6.597   5.877  0.0988 -0.2032  0.1536
  631TIP3    H1 1834   7.007   6.652   5.934 -0.1841  0.4482 -0.2048
  631TIP3    H2 1835   6.921   6.527   5.934  0.9458 -0.3406  0.4744
  632TIP3   OH2 1836   4.635   2.032   1.136  0.1008  0.1749  0.6357
  632TIP3    H1 1837   4.722   2.047   1.097  0.1834 -0.5810  0.5248
  632TIP3    H2 1838   4.602   1.954   1.091  0.7321 -1.4973  2.9890
  633TIP3   OH2 1839   4.968   1.246   6.543  0.0187  0.6174 -0.2015
  633TIP3    H1 1840   4.903   1.288   6.600 -0.0251  0.6677 -0.2888
  633TIP3    H2 1841   5.049   1.247   6.594 -0.0495  0.5519 -0.0913
  634TIP3   OH2 1842   7.863   4.209   0.410  0.2798  0.6888  0.0602
  634TIP3    H1 1843   7.831   4.292   0.374  0.9906  0.5743 -0.8540
  634TIP3    H2 1844   7.884   4.229   0.502 -2.5771  0.7043  0.7373
  635TIP3   OH2 1845   6.522   3.665   0.207 -0.4483 -0.3816 -0.2762
  635TIP3    H1 1846   6.471   3.720   0.148 -0.4963 -0.6296 -0.4667
  635TIP3    H2 1847   6.609   3.661   0.167 -0.8471 -1.6402 -1.0398
  636TIP3   OH2 1848   0.042   2.291   2.290  0.2978 -0.1326  0.0515
  636TIP3    H1 1849   0.035   2.198   2.265 -0.0462 -0.2761  0.6908
  636TIP3    H2 1850   0.108   2.326   2.230  2.2962 -1.3662  1.4488
  637TIP3   OH2 1851   1.147   2.044   2.749  0.6476 -0.7157 -0.3200
  637TIP3    H1 1852   1.137   1.982   2.822  0.1248  1.2890  1.3371
  637TIP3    H2 1853   1.057   2.060   2.720  0.6927  0.1093 -0.0117
  638TIP3   OH2 1854   1.537   2.544   1.578 -0.3015  0.1988  0.0373
  638TIP3    H1 1855   1.608   2.492   1.540  0.5909  1.3434  0.1102
  638TIP3    H2 1856   1.519   2.611   1.512 -0.0481  1.0369  0.8093
  639TIP3   OH2 1857   1.919   3.436   3.860  0.4514 -0.2887 -0.4286
  639TIP3    H1 1858   1.985   3.504   3.850  0.9457 -0.6611  0.2710
  639TIP3    H2 1859   1.945   3.368   3.798  1.6103 -1.1115  0.9168
  640TIP3   OH2 1860   8.561   3.735   1.726 -0.3009  0.3771 -0.5112
  640TIP3    H1 1861   8.553   3.733   1.631  1.3340  0.8849 -0.6819
  640TIP3    H2 1862   8.651   3.708   1.743  0.0377  2.2265  0.7822
  641TIP3   OH2 1863   8.419   2.495   1.169 -0.4602  0.1060  0.2671
  641TIP3    H1 1864   8.465   2.561   1.220  2.9553 -1.4214 -0.6787
  641TIP3    H2 1865   8.459   2.501   1.082 -1.7875 -1.5589 -0.4729
  642TIP3   OH2 1866   0.921   4.801   2.546  0.7168 -0.1421  0.1319
  642TIP3    H1 1867   0.993   4.777   2.488  1.3226  1.6713  0.0819
  642TIP3    H2 1868   0.845   4.809   2.488  0.6377 -1.3151  0.0672
  643TIP3   OH2 1869   1.527   0.997   1.131  0.6913 -0.3977  0.2466
  643TIP3    H1 1870   1.576   1.029   1.207 -0.0136  0.2347  0.4372
  643TIP3    H2 1871   1.594   0.959   1.074  1.1660 -1.4190  1.4378
  644TIP3   OH2 1872   0.414   0.350   1.923  0.1644  0.2982 -0.6640
  644TIP3    H1 1873   0.502   0.327   1.953 -0.1528  0.3135  0.3118
  644TIP3    H2 1874   0.370   0.266   1.913 -0.9271  0.4029  2.6913
  645TIP3   OH2 1875   0.482   3.076   3.061 -0.3535  1.2979  0.1193
  645TIP3    H1 1876   0.520   3.015   3.124  0.4113  1.4028 -0.2457
  645TIP3    H2 1877   0.556   3.120   3.021 -0.8197  1.0272 -1.0637
  646TIP3   OH2 1878   1.337   4.447   2.438 -0.2564 -0.2574 -0.7399
  646TIP3    H1 1879   1.360   4.366   2.393 -0.7673 -1.0911  0.4575
  646TIP3    H2 1880   1.370   4.435   2.528  2.7577  2.2821 -1.4042
  647TIP3   OH2 1881   2.064   4.299   1.419 -0.3737 -0.3401 -0.2530
  647TIP3    H1 1882   2.077   4.387   1.383 -0.8218 -0.5984 -1.0673
  647TIP3    H2 1883   2.152   4.264   1.430 -0.2067  0.0631 -0.3024
  648TIP3   OH2 1884   5.744   3.294   1.551  0.1004  0.0811  0.2606
  648TIP3    H1 1885   5.762   3.299   1.645  1.0524  0.9580  0.0405
  648TIP3    H2 1886   5.729   3.201   1.534  2.7529 -0.4962  0.7908
  649TIP3   OH2 1887   7.155   3.380   0.679 -0.0082 -0.4097  0.9153
  649TIP3    H1 1888   7.174   3.348   0.591  0.7542 -0.2587  1.0188
  649TIP3    H2 1889   7.200   3.465   0.684 -1.0591  0.1590  1.0350
  650TIP3   OH2 1890   2.258   4.976   0.987 -0.2981 -0.0451 -0.3765
  650TIP3    H1 1891   2.294   4.944   0.904 -0.4363 -0.1632 -0.3913
  650TIP3    H2 1892   2.169   4.942   0.989 -0.0114 -0.7718  0.2183
  651TIP3   OH2 1893   0.905   2.787   3.709 -0.0096 -0.0397 -0.1597
  651TIP3    H1 1894   0.973   2.776   3.775 -0.0256 -0.6232 -0.2460
  651TIP3    H2 1895   0.824   2.767   3.754  0.0213 -0.8910 -0.4784
  652TIP3   OH2 1896   8.377   4.848   2.656  0.2349 -0.4025  0.6010
  652TIP3    H1 1897   8.390   4.762   2.616 -0.6924 -0.4254  0.3331
  652TIP3    H2 1898   8.299   4.837   2.711 -2.2606  1.3000 -2.4737
  653TIP3   OH2 1899   1.237   0.494   1.952  0.2679 -0.1648  0.0366
  653TIP3    H1 1900   1.250   0.473   1.859  1.2791  0.3123  0.0635
  653TIP3    H2 1901   1.192   0.578   1.951  1.7555  0.6489 -0.0185
  654TIP3   OH2 1902   3.052   4.027   1.941  0.0312  0.2139 -0.1181
  654TIP3    H1 1903   3.067   3.935   1.920  2.9606  0.2114  1.6978
  654TIP3    H2 1904   3.007   4.025   2.025  1.4875  0.4237  0.6880
  655TIP3   OH2 1905   7.948   2.600   3.838  0.4177 -0.3291  0.4040
  655TIP3    H1 1906   7.920   2.509   3.842  1.5728 -0.6778  0.5389
  655TIP3    H2 1907   7.873   2.649   3.872 -0.3448 -1.1911 -0.0075
  656TIP3   OH2 1908   3.939   3.290   2.103 -0.1934 -0.3526  0.2500
  656TIP3    H1 1909   3.900   3.230   2.039  0.0882 -1.7937  1.3890
  656TIP3    H2 1910   4.023   3.249   2.126  0.2325  0.7436  0.6640
  657TIP3   OH2 1911   8.185   3.924   2.653  1.1478  0.2367  0.0001
  657TIP3    H1 1912   8.252   3.927   2.722  2.3835  0.0712 -1.1625
  657TIP3    H2 1913   8.175   4.015   2.627  2.1158  0.0820 -0.9387
  658TIP3   OH2 1914   7.945   2.853   1.660  0.3342  0.4631  0.2741
  658TIP3    H1 1915   8.032   2.847   1.621  0.7227 -0.2360  1.2449
  658TIP3    H2 1916   7.901   2.773   1.630  0.8171 -0.3475  1.7119
  659TIP3   OH2 1917   1.039   1.386   2.991 -0.2404  0.6837  0.1981
  659TIP3    H1 1918   1.032   1.341   3.075  0.8617 -3.5790 -1.8408
  659TIP3    H2 1919   0.976   1.340   2.935 -0.4101  2.9630 -1.5120
  660TIP3   OH2 1920   0.172   3.591   4.271  0.3423  0.4849  0.6044
  660TIP3    H1 1921   0.230   3.518   4.292  1.9410  1.8595  1.0660
  660TIP3    H2 1922   0.087   3.550   4.258  1.7017 -1.7885 -1.7069
  661TIP3   OH2 1923   1.947   2.393   2.405 -0.2227  0.5896 -0.3253
  661TIP3    H1 1924   2.038   2.420   2.400 -0.5905  2.7031  3.1581
  661TIP3    H2 1925   1.949   2.308   2.449 -0.0253  1.3486  1.1442
  662TIP3   OH2 1926   0.238   2.373   4.786 -0.3640  0.1737  0.7701
  662TIP3    H1 1927   0.258   2.290   4.828 -0.1794  0.2514  0.8415
  662TIP3    H2 1928   0.279   2.367   4.700 -1.7710 -0.4509  0.1357
  663TIP3   OH2 1929   0.837   2.651   4.167  0.4968  0.4457  0.4434
  663TIP3    H1 1930   0.898   2.578   4.180  1.2757  0.9680 -0.2552
  663TIP3    H2 1931   0.885   2.728   4.196  0.6705  1.0429 -1.3525
  664TIP3   OH2 1932   4.446   3.490   2.509  0.4673 -0.0338 -0.0483
  664TIP3    H1 1933   4.365   3.471   2.463  0.0645 -0.7659  0.9349
  664TIP3    H2 1934   4.425   3.565   2.564  0.8232  0.5720 -0.7389
  665TIP3   OH2 1935   6.746   3.389   2.696  0.4958 -0.5465  0.1785
  665TIP3    H1 1936   6.677   3.454   2.680  0.9657 -0.2800 -0.8035
  665TIP3    H2 1937   6.827   3.439   2.694  0.5988 -0.4340  3.7922
  666TIP3   OH2 1938   7.459   1.911   1.605 -0.6326  0.4781 -0.0332
  666TIP3    H1 1939   7.460   1.851   1.679 -0.7738  1.0689  0.4538
  666TIP3    H2 1940   7.369   1.944   1.603 -1.4688 -1.8014 -2.3198
  667TIP3   OH2 1941   1.678   3.184   0.500 -0.3099 -0.7868  0.7751
  667TIP3    H1 1942   1.624   3.179   0.421 -1.6635  0.3631  1.6119
  667TIP3    H2 1943   1.762   3.147   0.473 -0.5325  0.1874 -1.3887
  668TIP3   OH2 1944   0.654   2.594   0.337 -0.3558 -0.2113 -0.3150
  668TIP3    H1 1945   0.712   2.647   0.282 -0.2152  0.5234  0.5201
  668TIP3    H2 1946   0.586   2.655   0.366 -1.1945 -0.9191 -0.7793
  669TIP3   OH2 1947   1.856   0.504   3.072 -0.5375 -0.4493 -0.5065
  669TIP3    H1 1948   1.849   0.434   3.136  1.6069 -0.6139 -0.3984
  669TIP3    H2 1949   1.803   0.475   2.998 -1.1445 -1.3347  0.2672
  670TIP3   OH2 1950   0.481   2.510   1.706 -0.5135  0.4491  0.1277
  670TIP3    H1 1951   0.479   2.580   1.642 -0.1387  1.4031  1.1440
  670TIP3    H2 1952   0.574   2.502   1.730 -0.2789 -1.5896 -1.2607
  671TIP3   OH2 1953   2.453   3.091   2.806  0.1623 -0.2683  0.2233
  671TIP3    H1 1954   2.452   3.181   2.837 -0.5584 -0.1169 -0.2013
  671TIP3    H2 1955   2.375   3.051   2.846 -0.0996 -0.4058 -0.4109
  672TIP3   OH2 1956   3.381   1.840   3.735  1.0780 -0.1155  0.5494
  672TIP3    H1 1957   3.322   1.906   3.699 -0.9915 -0.3166  3.4050
  672TIP3    H2 1958   3.345   1.757   3.704  1.2912 -0.1210  0.3132
  673TIP3   OH2 1959   1.620   3.031   3.410  0.0772  0.1198 -0.0420
  673TIP3    H1 1960   1.618   2.949   3.460  1.8659 -0.4168 -0.7999
  673TIP3    H2 1961   1.529   3.049   3.389 -0.5510 -0.4616  2.1009
  674TIP3   OH2 1962   3.116   3.839   0.716  0.1726 -0.3337 -0.0525
  674TIP3    H1 1963   3.197   3.838   0.767 -1.3947  0.9183  2.5464
  674TIP3    H2 1964   3.122   3.919   0.664  0.7191 -0.3948 -0.0906
  675TIP3   OH2 1965   1.470   1.989   2.850  0.3659 -0.1617 -1.1363
  675TIP3    H1 1966   1.566   1.992   2.854  0.3920  0.7170 -2.1033
  675TIP3    H2 1967   1.451   1.931   2.776  0.2124  1.8122 -2.7107
  676TIP3   OH2 1968   3.262   4.646   1.180  0.1776 -0.1475  0.2965
  676TIP3    H1 1969   3.286   4.722   1.126 -0.3491  0.6364  1.1570
  676TIP3    H2 1970   3.167   4.642   1.175  0.2410 -1.2163 -0.3476
  677TIP3   OH2 1971   1.835   2.981   2.078 -0.4363 -0.1122 -0.1221
  677TIP3    H1 1972   1.868   3.033   2.152 -1.0110 -2.5189  1.9072
  677TIP3    H2 1973   1.851   3.035   2.001 -0.6580  2.8946  1.8530
  678TIP3   OH2 1974   6.250   2.704   6.799  0.1582 -0.3023  0.1395
  678TIP3    H1 1975   6.325   2.652   6.828  0.9335  0.3647 -0.6281
  678TIP3    H2 1976   6.194   2.711   6.876  1.2469 -0.1636  0.9312
  679TIP3   OH2 1977   3.803   4.198   2.572  0.5415 -0.1702 -0.3881
  679TIP3    H1 1978   3.760   4.128   2.523 -1.7455  0.3913  0.7966
  679TIP3    H2 1979   3.777   4.278   2.527  0.7961  0.1315  0.0009
  680TIP3   OH2 1980   1.417   3.375   1.687 -0.1473 -0.1490  0.7678
  680TIP3    H1 1981   1.454   3.387   1.774 -0.3646  0.4840  0.7730
  680TIP3    H2 1982   1.461   3.297   1.653  2.7270  1.7259 -0.0502
  681TIP3   OH2 1983   6.012   5.025   6.579 -0.0212 -0.0391  0.4527
  681TIP3    H1 1984   5.938   5.024   6.640 -0.1730  0.9155  0.2816
  681TIP3    H2 1985   6.001   5.106   6.529  0.3223 -0.6176 -0.5751
  682TIP3   OH2 1986   1.818   3.001   3.200 -0.2018 -0.3190  0.4252
  682TIP3    H1 1987   1.822   3.083   3.151  2.0520 -0.5221  0.2265
  682TIP3    H2 1988   1.760   3.021   3.274  2.6577  2.3911  2.0713
  683TIP3   OH2 1989   3.009   3.289   4.197  0.2483  0.0985 -0.1256
  683TIP3    H1 1990   3.032   3.343   4.122 -0.4203  1.2772  0.5069
  683TIP3    H2 1991   2.914   3.284   4.195  0.1100  1.5726  1.6081
  684TIP3   OH2 1992   3.478   3.445   0.487  0.4641 -0.6045 -0.4849
  684TIP3    H1 1993   3.417   3.413   0.421  0.8884  0.7109 -1.5282
  684TIP3    H2 1994   3.486   3.538   0.470  0.3705 -0.1841  1.6131
  685TIP3   OH2 1995   0.831   2.957   2.278  0.2105  0.4732 -0.5088
  685TIP3    H1 1996   0.912   2.990   2.238  1.9603 -1.7956  1.0608
  685TIP3    H2 1997   0.825   3.001   2.362  1.0783 -1.1251  0.3958
  686TIP3   OH2 1998   1.269   1.430   0.865  0.4069 -0.2795 -0.1045
  686TIP3    H1 1999   1.286   1.373   0.790 -1.1704  0.2550 -0.8785
  686TIP3    H2 2000   1.346   1.486   0.871  0.0376  0.4597 -2.0589
  687TIP3   OH2 2001   8.213   4.203   2.495  0.2246 -0.3496  0.4379
  687TIP3    H1 2002   8.197   4.279   2.551  1.4313  0.5549 -0.4269
  687TIP3    H2 2003   8.174   4.226   2.411  0.7018 -0.6247  0.1388
  688TIP3   OH2 2004   1.763   1.987   1.594  0.5156  0.0170 -0.3480
  688TIP3    H1 2005   1.708   1.963   1.668  0.4768 -2.8056 -1.2499
  688TIP3    H2 2006   1.703   2.026   1.530  0.4840  2.0355  0.8711
  689TIP3   OH2 2007   7.192   6.492   6.905 -0.2904  0.0205  0.0699
  689TIP3    H1 2008   7.236   6.508   6.822 -1.3889  0.6302 -0.4146
  689TIP3    H2 2009   7.219   6.564   6.962  0.6423 -0.5224  0.3172
  690TIP3   OH2 2010   1.177   2.923   1.616  0.0990 -0.1747 -0.0868
  690TIP3    H1 2011   1.227   2.845   1.592  3.2350  1.2375  1.6384
  690TIP3    H2 2012   1.195   2.985   1.545  0.9847  0.4093  0.6430
  691TIP3   OH2 2013   2.863   1.971   1.658  0.2589  0.2741 -0.1207
  691TIP3    H1 2014   2.790   1.925   1.616  0.0269 -0.3025  0.8845
  691TIP3    H2 2015   2.919   1.900   1.692  0.7078  0.7214  0.0770
  692TIP3   OH2 2016   1.712   3.199   1.675 -0.2000 -0.3515  0.5741
  692TIP3    H1 2017   1.786   3.175   1.731 -0.2141 -2.0032 -0.0827
  692TIP3    H2 2018   1.740   3.279   1.631  0.7404 -0.3426  1.1755
  693TIP3   OH2 2019   2.135   2.752   1.434 -0.3095 -0.2170 -0.2152
  693TIP3    H1 2020   2.173   2.722   1.352 -0.9572 -0.2700 -0.5016
  693TIP3    H2 2021   2.060   2.806   1.407 -1.2387 -1.2103  0.3675
  694TIP3   OH2 2022   8.587   2.024   2.288  0.0651  0.1169 -0.0545
  694TIP3    H1 2023   8.587   1.930   2.270  0.9722 -0.0411  0.6924
  694TIP3    H2 2024   8.534   2.033   2.367  1.8360 -0.0741  1.2072
  695TIP3   OH2 2025   1.789   1.013   3.503 -0.2908 -0.3054  0.8308
  695TIP3    H1 2026   1.761   0.929   3.538 -0.4742 -0.3278  0.6316
  695TIP3    H2 2027   1.780   1.074   3.577  2.0707 -0.9086  1.6401
  696TIP3   OH2 2028   0.119   2.351   1.684 -0.0513 -1.0387 -0.4121
  696TIP3    H1 2029   0.091   2.320   1.597  1.3464 -2.2177 -0.4686
  696TIP3    H2 2030   0.143   2.442   1.670 -0.1518 -1.1261 -1.1947
  697TIP3   OH2 2031   0.956   2.474   2.479 -0.2699 -0.4103 -0.0422
  697TIP3    H1 2032   1.038   2.439   2.444 -0.3266 -1.2898  0.6614
  697TIP3    H2 2033   0.958   2.567   2.457  0.3676 -0.6605 -1.0669
  698TIP3   OH2 2034   3.908   3.470   0.225  0.6522  0.1682  0.0839
  698TIP3    H1 2035   3.935   3.380   0.206 -0.4926 -0.0149 -0.7075
  698TIP3    H2 2036   3.814   3.471   0.209  0.6523  1.5087  0.1166
  699TIP3   OH2 2037   1.702   4.433   3.461 -0.1113  0.5775  0.1492
  699TIP3    H1 2038   1.706   4.513   3.513 -0.4099  0.5487  0.2167
  699TIP3    H2 2039   1.609   4.409   3.459 -0.0102  0.1667  0.2285
  700TIP3   OH2 2040   1.100   1.195   3.861 -0.5588  0.0296 -0.1954
  700TIP3    H1 2041   1.099   1.272   3.918 -2.6086  0.3487 -0.6106
  700TIP3    H2 2042   1.186   1.155   3.875 -0.0526  1.5526  1.1529
  701TIP3   OH2 2043   8.338   1.038   0.594  0.0901  0.1981  0.3246
  701TIP3    H1 2044   8.263   1.082   0.554 -0.4993 -0.6772  0.4439
  701TIP3    H2 2045   8.408   1.103   0.592 -0.5307  0.8590 -0.2382
  702TIP3   OH2 2046   1.376   4.073   1.376  0.2962  0.4994 -0.0963
  702TIP3    H1 2047   1.452   4.120   1.412  0.1111 -0.8930  2.2796
  702TIP3    H2 2048   1.414   3.999   1.329  0.4421  0.1281  0.5976
  703TIP3   OH2 2049   7.092   5.801   5.213  0.1616 -0.0098 -0.3178
  703TIP3    H1 2050   7.034   5.856   5.266  0.1903  0.0689 -0.3680
  703TIP3    H2 2051   7.063   5.815   5.123 -0.0316 -0.3164 -0.3049
  704TIP3   OH2 2052   7.638   2.481   3.506 -0.8653 -0.2945 -0.3090
  704TIP3    H1 2053   7.642   2.541   3.581  1.8498 -2.0698  1.0288
  704TIP3    H2 2054   7.608   2.537   3.433 -0.1126  2.2726  1.2718
  705TIP3   OH2 2055   0.796   3.244   0.028 -0.2011 -0.0569  0.2076
  705TIP3    H1 2056   0.862   3.175   0.023 -0.5772 -0.4761  1.0453
  705TIP3    H2 2057   0.714   3.202   0.001 -0.0107  0.6511 -1.5739
  706TIP3   OH2 2058   0.465   2.026   0.688 -0.1474  0.7874 -0.5069
  706TIP3    H1 2059   0.550   2.045   0.649 -0.9258  1.8276 -1.7267
  706TIP3    H2 2060   0.462   2.078   0.768  1.4906 -1.4133  1.0567
  707TIP3   OH2 2061   5.632   5.968   6.456 -0.5337 -0.2076 -0.3683
  707TIP3    H1 2062   5.667   6.044   6.502  0.6243 -0.1232 -1.3354
  707TIP3    H2 2063   5.687   5.962   6.377 -1.6843 -1.0594 -1.1098
  708TIP3   OH2 2064   3.834   3.162   2.378 -0.3108 -0.2192 -0.0621
  708TIP3    H1 2065   3.832   3.091   2.443 -2.0718  0.5386  0.7627
  708TIP3    H2 2066   3.789   3.125   2.302  0.0585 -0.4746 -0.1562
  709TIP3   OH2 2067   7.628   2.922   1.781  0.1815 -0.0198  0.9501
  709TIP3    H1 2068   7.594   2.991   1.725 -0.8554 -1.0331  0.3225
  709TIP3    H2 2069   7.552   2.891   1.830  0.6784 -0.6057  1.3626
  710TIP3   OH2 2070   7.041   7.312   6.147 -1.0849 -0.3596  0.4617
  710TIP3    H1 2071   6.992   7.360   6.213 -1.7187  0.6286 -0.7215
  710TIP3    H2 2072   7.004   7.223   6.149 -1.4577 -0.1920  1.0544
  711TIP3   OH2 2073   1.105   3.365   2.205 -0.6243  0.8869 -0.3555
  711TIP3    H1 2074   1.111   3.289   2.147 -0.0447 -0.4294  1.3647
  711TIP3    H2 2075   1.165   3.429   2.168 -0.9082  0.3950 -1.6814
  712TIP3   OH2 2076   6.450   7.857   1.304  0.1171  0.2347  0.5865
  712TIP3    H1 2077   6.402   7.849   1.386  0.7167 -0.6898  0.8519
  712TIP3    H2 2078   6.532   7.901   1.329  0.4331 -0.3250  0.5385
  713TIP3   OH2 2079   7.602   3.720   2.512 -0.4768 -0.4392 -0.6344
  713TIP3    H1 2080   7.682   3.703   2.463 -1.2764 -0.8792 -1.8049
  713TIP3    H2 2081   7.550   3.640   2.503 -0.3997 -0.7336  1.4069
  714TIP3   OH2 2082   2.823   1.192   3.202  0.1528 -0.2562 -0.3269
  714TIP3    H1 2083   2.850   1.283   3.191  0.3777 -0.2238  0.4377
  714TIP3    H2 2084   2.776   1.191   3.286  3.5553 -1.5735  1.6754
  715TIP3   OH2 2085   8.448   2.471   3.297 -0.2424 -0.2663 -0.3956
  715TIP3    H1 2086   8.460   2.515   3.212  0.2306 -0.2198 -0.3067
  715TIP3    H2 2087   8.398   2.534   3.349  0.3081  0.1137 -0.3180
  716TIP3   OH2 2088   1.221   2.391   3.214  0.1970 -0.1698 -0.4874
  716TIP3    H1 2089   1.268   2.341   3.281  0.3504 -0.0784 -0.5255
  716TIP3    H2 2090   1.235   2.482   3.238 -1.2700 -0.1604  0.3873
  717TIP3   OH2 2091   2.073   1.907   3.294 -0.1764 -0.0860  0.8145
  717TIP3    H1 2092   2.042   1.964   3.364 -0.7473  0.7980 -0.1369
  717TIP3    H2 2093   2.082   1.965   3.218  0.1182 -1.0872  0.0702
  718TIP3   OH2 2094   1.898   3.644   1.276 -0.5265  0.1460 -0.8921
  718TIP3    H1 2095   1.806   3.672   1.283 -0.4878  0.0953 -0.1775
  718TIP3    H2 2096   1.904   3.570   1.336  0.0205  0.2214 -0.8607
  719TIP3   OH2 2097   0.291   1.918   3.054  0.1787 -0.3790  0.3944
  719TIP3    H1 2098   0.356   1.857   3.089  1.2873  1.0506  0.9046
  719TIP3    H2 2099   0.249   1.956   3.132 -0.4039 -0.3871  0.0869
  720TIP3   OH2 2100   2.547   1.004   0.618 -0.2398  0.0504  0.7704
  720TIP3    H1 2101   2.500   1.088   0.621  0.4548  0.4925 -0.1937
  720TIP3    H2 2102   2.632   1.026   0.578 -0.1194 -1.1502  0.3460
  721TIP3   OH2 2103   2.426   2.675   1.897 -0.0656 -0.5061  0.7940
  721TIP3    H1 2104   2.417   2.770   1.907 -0.5527 -0.6730  2.1238
  721TIP3    H2 2105   2.375   2.654   1.820  3.2502  0.8161 -1.8849
  722TIP3   OH2 2106   2.315   2.937   1.820  0.4489  0.5256 -0.6832
  722TIP3    H1 2107   2.284   3.000   1.754  0.4824  0.6935 -0.5392
  722TIP3    H2 2108   2.265   2.958   1.898  1.2706  1.1147 -0.3110
  723TIP3   OH2 2109   0.398   3.058   1.524 -0.1654 -0.3124  0.1732
  723TIP3    H1 2110   0.453   3.015   1.459  1.0733  1.1397  0.2124
  723TIP3    H2 2111   0.323   3.090   1.474  0.3642  0.0543 -0.4047
  724TIP3   OH2 2112   2.571   1.454   2.584  0.0245  0.4065  0.0929
  724TIP3    H1 2113   2.576   1.368   2.627  0.2468  0.1239 -0.4799
  724TIP3    H2 2114   2.556   1.516   2.655 -0.9007 -0.1923  0.4284
  725TIP3   OH2 2115   0.691   1.669   2.689  0.4172 -0.0209 -0.1449
  725TIP3    H1 2116   0.694   1.615   2.768 -0.2590 -0.4361 -0.3927
  725TIP3    H2 2117   0.625   1.735   2.708  0.2620 -0.1147 -0.3522
  726TIP3   OH2 2118   6.128   4.201   0.197  0.4580 -0.1605  0.4191
  726TIP3    H1 2119   6.071   4.250   0.257  0.2951  0.2926 -0.1076
  726TIP3    H2 2120   6.092   4.112   0.199  0.1720 -0.0440  0.6495
  727TIP3   OH2 2121   4.584   3.061   1.595 -0.3984  0.6191  0.8394
  727TIP3    H1 2122   4.501   3.025   1.627 -0.1662  1.0673  1.9529
  727TIP3    H2 2123   4.627   3.096   1.673  0.8274  0.4157  0.2641
  728TIP3   OH2 2124   2.835   0.439   0.363  0.4368  0.4597 -0.4938
  728TIP3    H1 2125   2.828   0.425   0.457  1.1279  1.0781 -0.3496
  728TIP3    H2 2126   2.929   0.435   0.345  0.3511  0.9956 -1.0557
  729TIP3   OH2 2127   0.717   3.281   3.248 -0.0877  0.2591  0.5072
  729TIP3    H1 2128   0.650   3.349   3.254 -1.9651 -1.6420  1.8116
  729TIP3    H2 2129   0.781   3.304   3.315  0.5067  1.9701 -0.6021
  730TIP3   OH2 2130   0.581   1.367   1.503  0.3508 -0.3201 -0.6588
  730TIP3    H1 2131   0.592   1.274   1.483 -0.7215 -1.0011  1.6627
  730TIP3    H2 2132   0.580   1.371   1.599 -1.0657  1.9017 -0.7179
  731TIP3   OH2 2133   3.301   2.163   1.879 -1.0916  0.2263 -0.5305
  731TIP3    H1 2134   3.314   2.258   1.882  0.6573 -0.0608  2.8255
  731TIP3    H2 2135   3.237   2.145   1.949 -1.7812 -1.0492 -1.4573
  732TIP3   OH2 2136   2.657   0.724   1.537  0.6805  0.1352 -0.6237
  732TIP3    H1 2137   2.673   0.795   1.599  0.6744 -0.3469 -0.0689
  732TIP3    H2 2138   2.726   0.660   1.555 -0.3442 -0.7928  0.0601
  733TIP3   OH2 2139   2.589   3.822   1.974 -0.3716  0.3330 -0.0910
  733TIP3    H1 2140   2.596   3.728   1.958  2.3394  0.1440  1.9078
  733TIP3    H2 2141   2.523   3.830   2.043  0.0305 -0.2014  0.3599
  734TIP3   OH2 2142   6.936   0.874   6.665  0.3824 -0.1101 -0.6470
  734TIP3    H1 2143   6.953   0.886   6.759  0.9801 -0.0288 -0.7628
  734TIP3    H2 2144   6.880   0.796   6.661  0.9166 -0.5189 -0.2712
  735TIP3   OH2 2145   3.523   3.275   2.146 -0.2926 -0.1237  0.2696
  735TIP3    H1 2146   3.507   3.354   2.094  2.3397  1.0471  1.1319
  735TIP3    H2 2147   3.605   3.239   2.111 -0.9109 -1.8770  0.5801
  736TIP3   OH2 2148   1.428   0.810   1.543  0.2054  0.0472  0.5202
  736TIP3    H1 2149   1.346   0.859   1.540  0.4151  0.3533 -0.6152
  736TIP3    H2 2150   1.496   0.876   1.558  0.5199  0.1894 -1.3159
  737TIP3   OH2 2151   0.452   2.808   0.440  0.6057 -0.6061  0.4251
  737TIP3    H1 2152   0.510   2.881   0.461  0.5510 -0.5618  0.4203
  737TIP3    H2 2153   0.399   2.839   0.367  1.4476 -1.0969 -0.4141
  738TIP3   OH2 2154   2.359   4.994   2.314 -0.1692  0.0318  0.3724
  738TIP3    H1 2155   2.368   5.015   2.221  1.6130 -0.8479  0.3171
  738TIP3    H2 2156   2.293   4.924   2.317  2.0546 -2.2110 -0.6173
  739TIP3   OH2 2157   2.518   3.812   0.149  0.2005  0.1010 -0.6313
  739TIP3    H1 2158   2.574   3.856   0.213  0.0200 -0.1617 -0.2927
  739TIP3    H2 2159   2.449   3.875   0.129  0.6425  0.4487 -1.0921
  740TIP3   OH2 2160   3.549   2.551   3.929  0.4142 -0.0971  0.1734
  740TIP3    H1 2161   3.497   2.620   3.887 -0.7494 -0.7857  0.4647
  740TIP3    H2 2162   3.637   2.562   3.893  0.3051  1.7172  0.4301
  741TIP3   OH2 2163   5.187   6.701   6.725  0.5806 -0.0690  0.1782
  741TIP3    H1 2164   5.177   6.631   6.660 -0.2706  0.1162  0.1123
  741TIP3    H2 2165   5.213   6.778   6.675 -1.2063  0.3656 -0.0807
  742TIP3   OH2 2166   0.999   3.431   0.886 -0.8782  0.3050 -0.4883
  742TIP3    H1 2167   1.032   3.371   0.819  2.7614  1.1441  0.4463
  742TIP3    H2 2168   0.986   3.514   0.841  0.6977  0.6261 -0.3665
  743TIP3   OH2 2169   2.598   1.357   1.173 -0.2361 -0.4304  0.0141
  743TIP3    H1 2170   2.621   1.281   1.226  0.2194 -0.9946 -0.9863
  743TIP3    H2 2171   2.569   1.320   1.089 -0.0066  0.4940 -0.4774
  744TIP3   OH2 2172   6.479   7.353   6.483  0.1639 -0.0177 -0.3570
  744TIP3    H1 2173   6.471   7.434   6.533  1.1387 -0.8678  1.2166
  744TIP3    H2 2174   6.431   7.370   6.402 -0.9698  1.5896  0.6176
  745TIP3   OH2 2175   0.820   2.901   3.430  0.2365 -0.0283  0.5925
  745TIP3    H1 2176   0.854   2.991   3.432 -2.1449  0.9114  0.7412
  745TIP3    H2 2177   0.809   2.878   3.522 -1.4423  0.4427  0.5158
  746TIP3   OH2 2178   1.363   4.816   3.307 -0.0108  0.0401  0.6088
  746TIP3    H1 2179   1.320   4.770   3.235 -0.8538  0.7230  0.6689
  746TIP3    H2 2180   1.321   4.782   3.386 -0.5733  0.8377  0.6589
  747TIP3   OH2 2181   8.214   1.541   2.928  0.1576 -0.2327  0.0586
  747TIP3    H1 2182   8.147   1.569   2.991  1.4419  0.1528  1.2688
  747TIP3    H2 2183   8.250   1.623   2.894 -0.1328 -0.4413 -0.7456
  748TIP3   OH2 2184   2.905   0.292   2.103  0.3676 -0.4451  0.3674
  748TIP3    H1 2185   2.848   0.220   2.132  0.1052  0.3570  1.8799
  748TIP3    H2 2186   2.858   0.331   2.029  0.2748 -1.5053 -0.1504
  749TIP3   OH2 2187   4.922   7.702   5.967  0.4569  0.1074 -0.0680
  749TIP3    H1 2188   4.894   7.788   5.997 -1.2571 -0.0244 -1.2244
  749TIP3    H2 2189   4.919   7.707   5.871 -2.0523 -1.9445 -0.1716
  750TIP3   OH2 2190   4.893   6.392   5.454 -0.1009  0.5102 -0.0623
  750TIP3    H1 2191   4.800   6.382   5.473  0.0778  2.0759  1.7982
  750TIP3    H2 2192   4.905   6.349   5.369 -2.3568 -0.3766  0.0360
  751TIP3   OH2 2193   2.959   2.701   4.979 -0.4584  0.5541  0.6257
  751TIP3    H1 2194   3.015   2.777   4.961  0.7687 -0.3371  0.6069
  751TIP3    H2 2195   2.914   2.685   4.897  0.9403 -0.0717 -0.0454
  752TIP3   OH2 2196   8.024   3.729   2.581 -0.3264 -0.3721 -0.2297
  752TIP3    H1 2197   8.080   3.803   2.605  0.7793 -0.9093 -1.1180
  752TIP3    H2 2198   8.080   3.652   2.591 -1.1391 -0.9940 -0.4051
  753TIP3   OH2 2199   3.727   4.061   3.198 -0.3274  0.0991  0.3482
  753TIP3    H1 2200   3.699   4.105   3.278  0.1179  1.1503 -0.0591
  753TIP3    H2 2201   3.652   4.068   3.139  0.0214  1.0143  0.0087
  754TIP3   OH2 2202   2.489   7.403   5.635  0.2865  0.4347 -0.9402
  754TIP3    H1 2203   2.465   7.475   5.577  0.5975 -0.1603 -1.8252
  754TIP3    H2 2204   2.567   7.434   5.681  0.1675  0.8297 -1.0019
  755TIP3   OH2 2205   2.503   4.016   2.865  0.4653 -0.3436  0.1423
  755TIP3    H1 2206   2.483   3.978   2.951  1.5670 -1.4596 -0.0853
  755TIP3    H2 2207   2.531   4.106   2.886  0.4334 -0.5053  0.9245
  756TIP3   OH2 2208   3.266   1.923   2.857 -0.2257  0.1453 -0.0899
  756TIP3    H1 2209   3.287   1.952   2.946 -1.2821  0.6461  0.0040
  756TIP3    H2 2210   3.280   2.001   2.803  0.1629 -0.0869 -0.3252
  757TIP3   OH2 2211   5.247   6.723   6.987  0.1586 -0.4998 -0.7151
  757TIP3    H1 2212   5.252   6.702   6.893  1.6247  0.6652 -0.9215
  757TIP3    H2 2213   5.316   6.788   7.000 -1.0586  0.4796  0.8864
  758TIP3   OH2 2214   6.523   0.475   4.293  0.4433  0.2550  0.5141
  758TIP3    H1 2215   6.584   0.413   4.253 -0.6932 -0.3272 -0.3161
  758TIP3    H2 2216   6.476   0.424   4.359 -0.9911  0.0498 -0.6597
  759TIP3   OH2 2217   0.559   2.851   3.347 -0.1998  0.1841 -0.5209
  759TIP3    H1 2218   0.651   2.868   3.366 -0.8435  0.4910  2.5264
  759TIP3    H2 2219   0.521   2.937   3.332 -0.2985  0.1865 -0.2626
  760TIP3   OH2 2220   2.222   2.696   3.933  0.4200 -0.1046 -0.3605
  760TIP3    H1 2221   2.232   2.784   3.968 -0.4000  0.2434 -0.9857
  760TIP3    H2 2222   2.264   2.639   3.998  1.6958  0.8165 -0.3669
  761TIP3   OH2 2223   0.796   0.765   2.419 -0.2575 -0.4653  0.4331
  761TIP3    H1 2224   0.705   0.735   2.413 -0.5776  0.4814  0.5499
  761TIP3    H2 2225   0.803   0.803   2.507 -0.0611  0.4836  0.0099
  762TIP3   OH2 2226   6.570   3.044   2.112  0.0208 -0.2343  0.1122
  762TIP3    H1 2227   6.624   2.982   2.064 -0.2334 -0.1653 -0.2587
  762TIP3    H2 2228   6.624   3.069   2.187  0.5227 -0.1291 -0.2826
  763TIP3   OH2 2229   1.574   4.122   3.150 -0.3791  0.1942 -0.2213
  763TIP3    H1 2230   1.608   4.049   3.201  0.5486  0.7935  0.0204
  763TIP3    H2 2231   1.482   4.128   3.175 -0.4313 -0.8135 -0.1591
  764TIP3   OH2 2232   0.964   0.644   1.928 -0.7482  0.6126  0.2896
  764TIP3    H1 2233   0.947   0.681   2.015 -1.7736 -2.2881  1.3904
  764TIP3    H2 2234   0.878   0.617   1.896 -0.7015  3.6368 -2.6519
  765TIP3   OH2 2235   2.073   0.121   3.175  0.3721  0.0505 -0.6132
  765TIP3    H1 2236   2.128   0.095   3.102  0.4420 -1.3947 -0.0603
  765TIP3    H2 2237   2.079   0.048   3.237  0.5916  1.3958  0.9791
  766TIP3   OH2 2238   2.001   3.576   2.769 -0.0759 -0.0462  0.4415
  766TIP3    H1 2239   1.994   3.500   2.710 -0.9200 -1.7077  2.6083
  766TIP3    H2 2240   2.078   3.624   2.737  0.5087 -1.8497 -0.9461
  767TIP3   OH2 2241   0.492   1.738   3.126  0.2791  0.0352  0.1106
  767TIP3    H1 2242   0.581   1.763   3.103  0.1941  1.7113  1.5265
  767TIP3    H2 2243   0.494   1.721   3.220 -0.8910  0.0204  0.1522
  768TIP3   OH2 2244   2.436   2.406   2.570  0.3727 -0.5341  0.0458
  768TIP3    H1 2245   2.518   2.454   2.559 -0.7448  1.3037 -0.4346
  768TIP3    H2 2246   2.440   2.370   2.658  1.9107 -0.8835 -0.1572
  769TIP3   OH2 2247   1.709   1.396   2.634  0.2393 -0.4557  0.1931
  769TIP3    H1 2248   1.744   1.364   2.717  0.1347 -0.6389  0.1666
  769TIP3    H2 2249   1.670   1.319   2.593 -2.3332  0.1790  1.2886
  770TIP3   OH2 2250   2.937   0.884   2.641  0.3794 -0.3267 -0.4341
  770TIP3    H1 2251   2.948   0.885   2.546  0.2688 -1.4999 -0.4699
  770TIP3    H2 2252   2.876   0.811   2.657 -0.2694  0.3999  0.4686
  771TIP3   OH2 2253   1.360   0.977   3.356 -0.4375  0.6466  0.1746
  771TIP3    H1 2254   1.344   1.060   3.401  1.8094 -1.0597  4.2868
  771TIP3    H2 2255   1.279   0.927   3.369 -0.5760  0.9497  0.4942
  772TIP3   OH2 2256   0.944   1.853   1.616 -0.2061  0.0202  0.3585
  772TIP3    H1 2257   0.866   1.885   1.570  0.0712 -0.5684 -0.5159
  772TIP3    H2 2258   0.926   1.761   1.634 -0.1745  0.1646  1.1349
  773TIP3   OH2 2259   4.028   2.233   2.722  0.1561 -0.9288 -0.1510
  773TIP3    H1 2260   4.050   2.311   2.774 -1.3878 -1.7052  1.7630
  773TIP3    H2 2261   4.108   2.212   2.675  2.0288 -0.9220  2.9088
  774TIP3   OH2 2262   3.020   3.721   2.221  0.1645 -0.1512  0.0095
  774TIP3    H1 2263   2.990   3.648   2.275  3.1407 -0.6101  1.1889
  774TIP3    H2 2264   3.077   3.772   2.280 -0.7778  2.3521 -1.1857
  775TIP3   OH2 2265   3.923   2.754   0.364 -0.3625  0.0193  0.4594
  775TIP3    H1 2266   3.969   2.818   0.418 -0.9044  2.7209 -2.1911
  775TIP3    H2 2267   3.831   2.781   0.367 -0.6613 -0.8813 -0.3442
  776TIP3   OH2 2268   5.774   6.718   5.774 -0.6624  0.6180 -0.0972
  776TIP3    H1 2269   5.679   6.713   5.761 -0.3518 -3.5688 -1.5516
  776TIP3    H2 2270   5.791   6.669   5.854  0.3518  0.6578 -0.2726
  777TIP3   OH2 2271   2.348   1.501   1.947 -0.0054 -0.4104  0.3562
  777TIP3    H1 2272   2.260   1.536   1.931  0.9651  0.9059 -2.3706
  777TIP3    H2 2273   2.397   1.575   1.982  0.1343 -1.0401  1.5067
  778TIP3   OH2 2274   0.215   0.765   6.892  0.0028  0.0935  0.2802
  778TIP3    H1 2275   0.174   0.795   6.811  0.0199  1.2381  0.6850
  778TIP3    H2 2276   0.309   0.771   6.874  0.0142  1.1634  0.6695
  779TIP3   OH2 2277   5.700   6.922   6.143 -0.2452  0.0479 -0.0562
  779TIP3    H1 2278   5.629   6.878   6.097 -0.3680 -0.4462  0.5994
  779TIP3    H2 2279   5.691   7.015   6.119 -1.4791  0.0817  0.5098
  780TIP3   OH2 2280   2.526   2.411   2.860  0.2793 -0.0364 -0.6947
  780TIP3    H1 2281   2.613   2.441   2.834  0.5238 -1.0729 -1.0858
  780TIP3    H2 2282   2.541   2.327   2.902 -0.5251 -0.1609 -0.6528
  781TIP3   OH2 2283   1.099   1.141   2.149  0.2631 -0.8165  0.0990
  781TIP3    H1 2284   1.017   1.189   2.139  0.4163 -0.6923 -0.6403
  781TIP3    H2 2285   1.083   1.081   2.222  0.4434  1.0931  1.7446
  782TIP3   OH2 2286   6.025   6.933   6.910  0.0919 -0.0994 -0.7065
  782TIP3    H1 2287   6.068   6.963   6.829 -0.0575  0.5251 -0.5555
  782TIP3    H2 2288   6.082   6.965   6.980 -1.2108  1.7592 -0.4495
  783TIP3   OH2 2289   0.391   0.814   6.247 -0.5275  0.0922 -0.0782
  783TIP3    H1 2290   0.339   0.790   6.171  0.5394  0.2973 -0.8814
  783TIP3    H2 2291   0.401   0.909   6.241 -0.9285  0.1807  0.6303
  784TIP3   OH2 2292   2.116   2.325   2.733 -0.1926 -0.4328  0.1667
  784TIP3    H1 2293   2.102   2.298   2.642 -1.1954  0.0878  0.1581
  784TIP3    H2 2294   2.170   2.404   2.726  1.9959 -1.9040  0.1527
  785TIP3   OH2 2295   2.237   1.792   2.610  0.1932 -0.2307  0.3955
  785TIP3    H1 2296   2.314   1.840   2.579 -0.9597  1.7894  0.5327
  785TIP3    H2 2297   2.227   1.720   2.549 -0.4923  2.1543 -2.4097
  786TIP3   OH2 2298   3.188   1.608   1.423  0.0634 -0.0108  0.3869
  786TIP3    H1 2299   3.257   1.668   1.394  1.8365 -2.1039  0.1517
  786TIP3    H2 2300   3.193   1.611   1.518  0.0850  0.2471  0.3800
  787TIP3   OH2 2301   1.656   0.382   6.574  0.6558  0.0994 -0.5885
  787TIP3    H1 2302   1.617   0.302   6.539 -1.6334  0.4706  0.9803
  787TIP3    H2 2303   1.667   0.439   6.498 -0.8540 -0.4336 -1.2207
  788TIP3   OH2 2304   0.844   3.285   3.828 -0.2722  0.1610 -0.3457
  788TIP3    H1 2305   0.813   3.292   3.737 -0.5748  0.5837 -0.2120
  788TIP3    H2 2306   0.909   3.215   3.825 -1.6537 -1.1420 -0.5188
  789TIP3   OH2 2307   7.579   1.376   2.564  0.7163 -0.5799  0.0865
  789TIP3    H1 2308   7.632   1.437   2.615  0.9605 -0.2970 -0.4990
  789TIP3    H2 2309   7.634   1.353   2.490 -0.4047  0.5937 -1.1316
  790TIP3   OH2 2310   2.932   3.073   0.282  0.6197  0.7002  0.5024
  790TIP3    H1 2311   2.955   3.157   0.242 -2.9451  2.3957  1.8072
  790TIP3    H2 2312   2.851   3.090   0.330  0.6468 -3.1240  2.1271
  791TIP3   OH2 2313   2.292   1.868   1.848 -0.0541  0.3225 -0.2027
  791TIP3    H1 2314   2.202   1.891   1.874 -0.3548 -0.9525 -0.0711
  791TIP3    H2 2315   2.283   1.830   1.761  0.0629 -1.8760  0.7202
  792TIP3   OH2 2316   2.871   1.514   1.222 -0.1372  0.5067 -0.7347
  792TIP3    H1 2317   2.939   1.580   1.207 -0.5039  1.3618  1.1904
  792TIP3    H2 2318   2.920   1.435   1.246  0.2134  0.8927 -0.1630
  793TIP3   OH2 2319   1.957   5.799   0.246  0.1969 -0.4075  0.2316
  793TIP3    H1 2320   1.908   5.723   0.277  0.0409 -0.2586  0.3528
  793TIP3    H2 2321   1.921   5.873   0.295 -0.4176 -0.0883 -0.6976
  794TIP3   OH2 2322   1.296   3.639   2.373 -0.2918 -0.3441 -0.2833
  794TIP3    H1 2323   1.350   3.573   2.329 -1.6547 -1.5618 -0.1613
  794TIP3    H2 2324   1.347   3.664   2.450 -0.1411 -1.9097  0.1546
  795TIP3   OH2 2325   0.914   3.994   0.565 -0.6097 -0.5399  0.1105
  795TIP3    H1 2326   0.981   3.932   0.596  0.6162  1.1122  0.8327
  795TIP3    H2 2327   0.926   3.997   0.470  0.2963 -0.3108  0.2261
  796TIP3   OH2 2328   1.800   2.143   3.238  1.2112 -0.4185 -0.0389
  796TIP3    H1 2329   1.859   2.103   3.301  0.7265  0.6774  1.1370
  796TIP3    H2 2330   1.724   2.085   3.236  1.0272 -0.2042  0.7443
  797TIP3   OH2 2331   4.655   5.687   0.509 -0.2980  0.1810  0.0458
  797TIP3    H1 2332   4.727   5.626   0.522 -0.7507 -0.8735 -2.1809
  797TIP3    H2 2333   4.696   5.773   0.510  0.9175 -0.3756 -0.6015
  798TIP3   OH2 2334   2.447   2.830   1.583 -0.6857  0.0986 -0.5067
  798TIP3    H1 2335   2.393   2.828   1.662 -0.2459  1.0656 -0.1699
  798TIP3    H2 2336   2.502   2.752   1.590 -0.7755  0.0836  0.0471
  799TIP3   OH2 2337   0.219   3.353   1.225  0.1366  0.6352  0.5523
  799TIP3    H1 2338   0.198   3.405   1.303  2.0026 -0.3621  1.7651
  799TIP3    H2 2339   0.231   3.264   1.259  1.7616  0.3480 -0.7539
  800TIP3   OH2 2340   0.521   3.266   2.357  0.1181 -0.2699 -0.7148
  800TIP3    H1 2341   0.506   3.171   2.360  0.9650 -0.3646  1.7328
  800TIP3    H2 2342   0.436   3.303   2.336 -1.0570 -1.4098  1.8156
  801TIP3   OH2 2343   2.586   2.450   3.151  0.1252  0.2530 -0.2602
  801TIP3    H1 2344   2.587   2.538   3.113 -0.3878  0.4902  0.2761
  801TIP3    H2 2345   2.670   2.413   3.125 -0.0906  0.5207 -1.3771
  802TIP3   OH2 2346   3.805   4.771   0.923  0.5902 -0.3361  0.7300
  802TIP3    H1 2347   3.843   4.716   0.855  1.7786 -0.1587  1.2509
  802TIP3    H2 2348   3.799   4.715   1.000 -1.5325 -0.7872  0.2824
  803TIP3   OH2 2349   1.723   3.725   1.639  0.6298  0.0652 -0.4445
  803TIP3    H1 2350   1.760   3.641   1.609  1.1803  0.3880 -0.6736
  803TIP3    H2 2351   1.634   3.725   1.605  0.5574 -0.5299 -0.2569
  804TIP3   OH2 2352   1.009   1.188   1.673 -0.2261 -0.1726  0.4054
  804TIP3    H1 2353   0.961   1.237   1.739 -0.2165 -0.2209  0.4484
  804TIP3    H2 2354   1.023   1.251   1.602 -1.3636 -0.4819 -0.1041
  805TIP3   OH2 2355   2.170   5.520   0.444 -0.2061  0.0496  0.3549
  805TIP3    H1 2356   2.149   5.583   0.513 -1.8478 -0.9653  0.8090
  805TIP3    H2 2357   2.254   5.482   0.470 -0.5769  0.0279  1.5306
  806TIP3   OH2 2358   2.756   4.135   1.620  0.1457 -0.3152 -0.0540
  806TIP3    H1 2359   2.792   4.098   1.701 -1.5617 -1.9865 -0.0187
  806TIP3    H2 2360   2.832   4.151   1.565  1.3084  0.6053  1.7888
  807TIP3   OH2 2361   1.551   2.306   1.915  0.2963 -0.6057  0.0727
  807TIP3    H1 2362   1.525   2.326   2.005 -0.1639  0.2564 -0.2415
  807TIP3    H2 2363   1.626   2.364   1.899  0.8983 -1.3470  0.1683
  808TIP3   OH2 2364   1.033   1.793   2.297 -0.2850 -0.1521  0.4818
  808TIP3    H1 2365   1.047   1.831   2.384 -1.3695 -0.3991  0.7715
  808TIP3    H2 2366   1.102   1.832   2.243 -1.7232  2.7504  0.6076
  809TIP3   OH2 2367   1.949   2.127   0.374  0.1241 -0.0820 -0.1873
  809TIP3    H1 2368   2.020   2.165   0.425 -1.3937  2.5298  0.0655
  809TIP3    H2 2369   1.964   2.158   0.285 -0.3914 -0.0013 -0.2444
  810TIP3   OH2 2370   0.468   1.301   0.395  0.5208  0.0824 -0.5419
  810TIP3    H1 2371   0.500   1.228   0.449 -1.3480  0.0039  0.5228
  810TIP3    H2 2372   0.547   1.343   0.361  1.6980 -0.5901  1.3104
  811TIP3   OH2 2373   0.167   4.877   0.344 -0.0411 -0.3512 -0.2761
  811TIP3    H1 2374   0.216   4.798   0.365  1.3861  0.4376 -0.5723
  811TIP3    H2 2375   0.091   4.846   0.295 -0.2103 -1.6512  0.7646
  812TIP3   OH2 2376   5.563   6.167   4.302 -0.2376 -0.0421  0.3420
  812TIP3    H1 2377   5.472   6.157   4.275 -0.2929 -0.7354  0.7809
  812TIP3    H2 2378   5.585   6.085   4.346  0.4574  0.3006  0.6510
  813TIP3   OH2 2379   3.392   6.208   6.613  0.0440  0.2428  0.3197
  813TIP3    H1 2380   3.481   6.206   6.578 -0.2381  1.7638 -0.5159
  813TIP3    H2 2381   3.385   6.292   6.657 -1.1519  0.3858 -0.1076
  814TIP3   OH2 2382   3.625   2.512   2.472 -0.2971 -0.1488  0.8847
  814TIP3    H1 2383   3.701   2.458   2.498 -0.6445 -0.4845  1.2066
  814TIP3    H2 2384   3.660   2.601   2.467  0.5353 -0.5364 -0.6887
  815TIP3   OH2 2385   3.091   2.248   3.744  0.8081 -0.3526 -0.0849
  815TIP3    H1 2386   3.182   2.263   3.717  0.7834  1.4490  0.7355
  815TIP3    H2 2387   3.075   2.316   3.809 -1.0180 -0.9060  0.0505
  816TIP3   OH2 2388   2.483   3.301   1.738  0.2638  0.1962 -0.3264
  816TIP3    H1 2389   2.552   3.255   1.691  0.8159  0.8136 -0.1342
  816TIP3    H2 2390   2.477   3.255   1.822 -1.1188 -1.2620 -1.2005
  817TIP3   OH2 2391   1.223   0.627   6.091 -0.2737 -0.2300  0.5004
  817TIP3    H1 2392   1.231   0.566   6.018  0.2529 -1.2391  1.3910
  817TIP3    H2 2393   1.279   0.701   6.066 -0.1907 -0.5099 -0.1639
  818TIP3   OH2 2394   3.734   4.692   0.599 -0.1613  1.0319 -0.4002
  818TIP3    H1 2395   3.784   4.613   0.580  0.2569  1.3070 -0.4372
  818TIP3    H2 2396   3.670   4.664   0.665  0.4141  0.8176  0.0690
  819TIP3   OH2 2397   2.557   2.372   0.016  0.2416 -0.2425 -0.4362
  819TIP3    H1 2398   2.481   2.430   0.011  1.0438  0.6402 -2.9271
  819TIP3    H2 2399   2.624   2.424   0.060 -0.1157 -0.5348  0.4817
  820TIP3   OH2 2400   7.693   5.620   4.578  0.1557  0.2197  0.0227
  820TIP3    H1 2401   7.777   5.575   4.580  0.1609  0.1544 -1.3213
  820TIP3    H2 2402   7.630   5.555   4.610  0.3624 -0.3122 -0.6356
  821TIP3   OH2 2403   2.671   2.633   1.617 -0.2586 -0.2441  0.0449
  821TIP3    H1 2404   2.637   2.583   1.691 -1.2195 -0.7544 -0.7324
  821TIP3    H2 2405   2.668   2.573   1.543  2.1565 -0.2299 -0.1044
  822TIP3   OH2 2406   2.097   2.333   1.018 -0.0257  0.0953 -0.3003
  822TIP3    H1 2407   2.172   2.367   0.970 -0.3858  0.3684 -0.6735
  822TIP3    H2 2408   2.081   2.399   1.086 -0.6431  0.6143 -0.9428
  823TIP3   OH2 2409   2.656   1.515   1.422 -0.2306  0.4639  0.0816
  823TIP3    H1 2410   2.728   1.482   1.476 -0.3289 -2.2386 -1.4009
  823TIP3    H2 2411   2.581   1.519   1.482  0.5436  1.0442  1.0318
  824TIP3   OH2 2412   6.246   4.327   0.434  0.7781  0.3132 -0.4509
  824TIP3    H1 2413   6.157   4.358   0.454  0.5801 -0.4794 -0.1072
  824TIP3    H2 2414   6.233   4.242   0.393  1.4048 -0.0021  0.0056
  825TIP3   OH2 2415   6.102   7.283   5.893 -0.1292 -0.4076 -0.2086
  825TIP3    H1 2416   6.028   7.315   5.841  0.6667  0.3144 -0.9196
  825TIP3    H2 2417   6.068   7.206   5.939 -1.5648  0.4281  0.1398
  826TIP3   OH2 2418   6.357   7.644   5.354  0.0645  0.0583 -0.4021
  826TIP3    H1 2419   6.431   7.585   5.368  0.6232  0.4865 -1.5271
  826TIP3    H2 2420   6.286   7.605   5.405  0.8713 -0.7182  0.1478
  827TIP3   OH2 2421   5.987   3.355   0.271 -0.4316 -0.3125 -0.6588
  827TIP3    H1 2422   6.028   3.329   0.354 -2.0497  1.0271  0.6153
  827TIP3    H2 2423   6.049   3.415   0.231 -0.5985  0.8093  0.7032
  828TIP3   OH2 2424   6.520   7.767   6.813  0.1352 -0.0546  0.4089
  828TIP3    H1 2425   6.600   7.812   6.786 -0.2765  0.8929  0.7665
  828TIP3    H2 2426   6.500   7.803   6.900 -2.1326  1.6601 -0.7677
  829TIP3   OH2 2427   5.691   7.424   6.288 -0.0163 -0.6690 -0.0913
  829TIP3    H1 2428   5.747   7.488   6.330 -0.8541 -1.1559  1.8148
  829TIP3    H2 2429   5.679   7.457   6.199  1.3029  0.6808  0.2195
  830TIP3   OH2 2430   2.206   3.117   1.632 -0.4654 -0.0024 -0.4766
  830TIP3    H1 2431   2.128   3.159   1.595  0.1038  1.0764 -0.4873
  830TIP3    H2 2432   2.278   3.174   1.604  0.1119  0.0913  1.1792
  831TIP3   OH2 2433   6.857   7.721   5.552 -0.1590  0.0649 -0.7276
  831TIP3    H1 2434   6.773   7.767   5.549 -0.5310 -0.5302  0.2152
  831TIP3    H2 2435   6.909   7.770   5.617  0.2569  0.4932 -1.3837
  832TIP3   OH2 2436   2.088   3.278   0.433 -0.4684 -0.0997  0.2719
  832TIP3    H1 2437   2.024   3.284   0.504 -1.1607 -0.9015 -0.2739
  832TIP3    H2 2438   2.116   3.369   0.418  0.0336  0.0282  1.8720
  833TIP3   OH2 2439   5.478   7.536   4.246 -0.6882  0.7099 -0.1539
  833TIP3    H1 2440   5.436   7.463   4.202 -2.2417  1.5233 -0.0525
  833TIP3    H2 2441   5.546   7.496   4.301 -0.5136 -0.5098 -1.2494
  834TIP3   OH2 2442   4.495   6.214   6.051 -0.4095 -0.3517  0.5748
  834TIP3    H1 2443   4.565   6.275   6.077 -0.4298  0.0051 -0.2023
  834TIP3    H2 2444   4.497   6.146   6.118  0.2597 -0.0015  0.9171
  835TIP3   OH2 2445   1.029   0.040   6.755 -0.2230 -0.1849  0.3138
  835TIP3    H1 2446   0.975   0.053   6.834 -1.6523  0.9957 -0.8301
  835TIP3    H2 2447   1.034  -0.055   6.746 -3.2985 -0.3422 -0.3063
  836TIP3   OH2 2448   2.384   2.919   1.328 -0.2903 -0.0319  0.0965
  836TIP3    H1 2449   2.374   2.886   1.417  0.2456  0.4391  0.3348
  836TIP3    H2 2450   2.478   2.936   1.319 -0.2454 -0.7345 -0.7895
  837TIP3   OH2 2451   5.706   5.290   6.672  0.0172  0.0004 -0.3760
  837TIP3    H1 2452   5.684   5.269   6.581  0.2481  2.9198 -1.1484
  837TIP3    H2 2453   5.783   5.347   6.666  1.4933 -1.6692  1.7951
  838TIP3   OH2 2454   2.140   4.194   0.288 -0.5992 -0.4918  0.2813
  838TIP3    H1 2455   2.210   4.201   0.352 -1.6093 -0.0582  1.3635
  838TIP3    H2 2456   2.073   4.141   0.331 -1.6540  0.5167 -0.0593
  839TIP3   OH2 2457   1.590   0.937   6.541 -0.5207  0.2979  0.2537
  839TIP3    H1 2458   1.681   0.964   6.551 -0.8661  1.6961 -0.3072
  839TIP3    H2 2459   1.540   1.002   6.591 -1.1190 -1.2674  1.7364
  840TIP3   OH2 2460   6.954   6.862   6.276  1.0077 -0.6736  0.6665
  840TIP3    H1 2461   6.932   6.937   6.221 -1.8293 -1.2563  0.9575
  840TIP3    H2 2462   6.895   6.868   6.351  2.2638 -1.9745  1.7943
  841TIP3   OH2 2463   3.269   2.125   1.400  0.0230  0.1453  0.2407
  841TIP3    H1 2464   3.263   2.221   1.398 -0.8066  0.0908 -0.3860
  841TIP3    H2 2465   3.244   2.102   1.490 -0.0990  0.5025  0.3018
  842TIP3   OH2 2466   3.416   1.430   2.462 -0.2817 -0.5919  0.4589
  842TIP3    H1 2467   3.496   1.378   2.466  0.1091  0.1560  2.9462
  842TIP3    H2 2468   3.347   1.366   2.446  0.8758 -1.1178 -2.9061
  843TIP3   OH2 2469   4.699   3.558   0.887  0.0138  0.5153  0.5312
  843TIP3    H1 2470   4.644   3.586   0.815  1.1975  1.6881  0.0574
  843TIP3    H2 2471   4.789   3.575   0.857  0.5950 -0.4725  1.6470
  844TIP3   OH2 2472   3.969   3.907   0.703 -0.4221 -0.1497 -0.1258
  844TIP3    H1 2473   4.022   3.862   0.637 -0.1911 -0.2135  0.1029
  844TIP3    H2 2474   3.887   3.927   0.658 -0.5251 -0.7906 -0.2310
  845TIP3   OH2 2475   5.750   3.314   0.543  0.0390  0.4772 -0.2149
  845TIP3    H1 2476   5.681   3.373   0.574  0.1701  0.3933  0.2494
  845TIP3    H2 2477   5.714   3.274   0.463 -1.6569 -1.7600  1.5647
  846TIP3   OH2 2478   6.426   3.307   0.034  0.6216  0.2458  0.2383
  846TIP3    H1 2479   6.509   3.267   0.009  0.9688  1.1162 -0.0234
  846TIP3    H2 2480   6.365   3.280  -0.034  1.0485  0.8145 -0.3800
  847TIP3   OH2 2481   3.019   3.170   1.331  0.4415  0.3742  0.4609
  847TIP3    H1 2482   3.031   3.091   1.384  1.2432  0.7458  0.8364
  847TIP3    H2 2483   2.924   3.186   1.333  0.5863  1.0720  2.7834
  848TIP3   OH2 2484   4.476   2.808   0.096 -0.7395 -0.4707 -0.3678
  848TIP3    H1 2485   4.551   2.793   0.153 -1.5362 -0.2799  0.7629
  848TIP3    H2 2486   4.486   2.744   0.026  1.4340  0.7487 -1.2175
  849TIP3   OH2 2487   6.175   3.585   1.954  0.2393 -0.1280 -0.4028
  849TIP3    H1 2488   6.095   3.637   1.955  0.2872 -0.0564  0.2902
  849TIP3    H2 2489   6.148   3.498   1.927 -0.0217 -0.0227 -0.4810
  850TIP3   OH2 2490   6.140   6.845   6.284 -0.4649 -0.3261  0.1778
  850TIP3    H1 2491   6.137   6.835   6.379 -0.4001  2.0166  0.4592
  850TIP3    H2 2492   6.121   6.758   6.250 -1.6821 -0.9333  2.3296
  851TIP3   OH2 2493   1.890   5.215   0.324  0.5566  0.0231  0.6615
  851TIP3    H1 2494   1.931   5.128   0.333  1.2391  0.3974  1.1936
  851TIP3    H2 2495   1.889   5.250   0.413 -1.4321 -0.1922  0.7609
  852TIP3   OH2 2496   2.751   4.037   0.615  0.1381 -0.2769  0.1995
  852TIP3    H1 2497   2.721   4.127   0.629 -2.9791 -1.1479 -0.5576
  852TIP3    H2 2498   2.718   3.989   0.691  0.7901 -1.0222  0.0131
  853TIP3   OH2 2499   5.520   5.839   6.676  0.2106 -0.2357 -0.0741
  853TIP3    H1 2500   5.550   5.889   6.599 -1.3631 -0.4747 -0.8719
  853TIP3    H2 2501   5.457   5.897   6.718  0.3993 -0.4729  0.5268
  854TIP3   OH2 2502   3.607   5.953   0.929 -0.4140 -0.5903 -0.0529
  854TIP3    H1 2503   3.632   5.994   0.847 -0.4872 -1.0834 -0.3238
  854TIP3    H2 2504   3.518   5.922   0.915 -0.7263  0.0428  0.4868
  855TIP3   OH2 2505   4.304   5.411   5.367 -0.6105 -0.1836  0.4402
  855TIP3    H1 2506   4.289   5.325   5.329 -1.7060  0.2258 -0.0765
  855TIP3    H2 2507   4.262   5.407   5.453  0.6977 -0.6690  1.0662
  856TIP3   OH2 2508   1.227   7.699   2.031 -0.4325 -0.4462 -0.2538
  856TIP3    H1 2509   1.256   7.661   2.114 -0.2765 -0.0790 -0.1369
  856TIP3    H2 2510   1.195   7.625   1.981  3.2884 -1.3417 -1.4754
  857TIP3   OH2 2511   6.402   5.795   6.152  0.1647  0.4179  0.7030
  857TIP3    H1 2512   6.340   5.733   6.190 -1.1774  0.6429 -1.0782
  857TIP3    H2 2513   6.419   5.762   6.064  0.9910  1.4992  0.4372
  858TIP3   OH2 2514   1.337   4.558   1.749 -0.5468 -0.2348 -0.0748
  858TIP3    H1 2515   1.421   4.526   1.782 -0.9632  0.8477  2.0950
  858TIP3    H2 2516   1.305   4.487   1.693  0.3525 -1.9518  1.5352
  859TIP3   OH2 2517   1.188   0.261   4.495  0.6594 -0.5486 -0.0918
  859TIP3    H1 2518   1.273   0.219   4.511  0.9537  0.6442  1.7174
  859TIP3    H2 2519   1.182   0.329   4.563 -0.9335  0.6034 -1.3366
  860TIP3   OH2 2520   2.417   2.634   0.962  0.0680  0.3484  0.0190
  860TIP3    H1 2521   2.378   2.674   0.885 -0.2571 -0.8500 -0.4544
  860TIP3    H2 2522   2.496   2.591   0.929 -0.6556 -1.0991  0.1463
  861TIP3   OH2 2523   1.243   1.606   2.109  0.1766  0.3805 -0.4508
  861TIP3    H1 2524   1.323   1.570   2.071  0.4973  1.3778 -0.7148
  861TIP3    H2 2525   1.273   1.655   2.185 -0.3406 -0.5466  0.3708
  862TIP3   OH2 2526   5.768   4.303   1.634 -0.0437  0.0096  0.1249
  862TIP3    H1 2527   5.846   4.288   1.580  0.2646  0.0876  0.5415
  862TIP3    H2 2528   5.785   4.388   1.677  0.3395 -0.6889  1.3976
  863TIP3   OH2 2529   2.712   2.698   2.174 -0.1311 -0.0623  0.0983
  863TIP3    H1 2530   2.789   2.641   2.177  0.0292  0.2432  3.5441
  863TIP3    H2 2531   2.640   2.644   2.206 -0.4566  0.9445  1.1014
  864TIP3   OH2 2532   2.639   3.507   1.599 -0.5977  0.1924  0.2195
  864TIP3    H1 2533   2.586   3.546   1.530 -2.0485 -0.1629  1.1125
  864TIP3    H2 2534   2.580   3.446   1.643  1.0457 -1.5121  0.1370
  865TIP3   OH2 2535   5.194   3.106   1.253 -0.5952  0.3391  0.2116
  865TIP3    H1 2536   5.260   3.073   1.191 -1.6181  0.6181 -1.0505
  865TIP3    H2 2537   5.178   3.196   1.225 -0.6681  0.6533  1.2431
  866TIP3   OH2 2538   5.147   5.691   5.545  0.2332 -0.2455  0.1410
  866TIP3    H1 2539   5.068   5.743   5.532 -0.0300 -0.3333  1.3668
  866TIP3    H2 2540   5.116   5.600   5.544 -0.1812 -0.2186  3.6867
  867TIP3   OH2 2541   6.556   8.125   6.951 -0.0053  0.0436  0.0973
  867TIP3    H1 2542   6.565   8.033   6.977 -0.2487  0.3592  1.3413
  867TIP3    H2 2543   6.462   8.140   6.947  0.0276 -0.1022 -1.3823
  868TIP3   OH2 2544   7.258   7.546   6.875  0.0188 -0.1099  0.1579
  868TIP3    H1 2545   7.204   7.527   6.799  1.8450  1.0823 -1.4761
  868TIP3    H2 2546   7.197   7.543   6.949 -1.7517 -1.4056 -1.3200
  869TIP3   OH2 2547   3.015   5.793   1.309  0.0860  0.0941  0.0710
  869TIP3    H1 2548   3.098   5.839   1.302  0.6377 -1.0832 -1.3712
  869TIP3    H2 2549   2.993   5.798   1.402  0.3761  2.7577  0.0262
  870TIP3   OH2 2550   3.913   1.634   0.941  0.2990  0.2063  0.0472
  870TIP3    H1 2551   3.911   1.723   0.907 -2.0907 -0.1215 -0.7186
  870TIP3    H2 2552   3.854   1.635   1.016  1.3044 -0.4177  0.8646
  871TIP3   OH2 2553   4.741   3.311   1.073  0.3206 -0.2642 -0.5501
  871TIP3    H1 2554   4.664   3.258   1.091 -0.4402  0.4591 -1.6554
  871TIP3    H2 2555   4.708   3.388   1.027  1.3545  1.3356  1.2608
  872TIP3   OH2 2556   1.677   2.264   0.930 -0.4993 -0.4166  0.8304
  872TIP3    H1 2557   1.606   2.243   0.869 -0.0280 -1.7274  0.7122
  872TIP3    H2 2558   1.715   2.345   0.896 -0.9391 -0.5559 -0.0066
  873TIP3   OH2 2559   5.377   7.895   5.733 -0.5812  0.5120 -0.3067
  873TIP3    H1 2560   5.290   7.904   5.696 -0.5293  2.9827  0.0785
  873TIP3    H2 2561   5.436   7.898   5.658 -0.5715  3.8715 -0.2293
  874TIP3   OH2 2562   8.282   0.070   6.741  0.5419 -0.0219  0.6764
  874TIP3    H1 2563   8.202   0.062   6.689  0.8621 -0.4855  0.2445
  874TIP3    H2 2564   8.254   0.113   6.822 -0.1255 -0.0849  0.4838
  875TIP3   OH2 2565   4.260   3.022   1.273  0.5438 -0.7727  0.2622
  875TIP3    H1 2566   4.208   3.042   1.350  0.0705  0.5001 -0.3809
  875TIP3    H2 2567   4.347   3.057   1.293  0.8523 -1.8622  0.8603
  876TIP3   OH2 2568   3.591   4.851   0.053  0.7150  0.2243  0.4661
  876TIP3    H1 2569   3.659   4.797   0.013  0.4403  0.0405  0.2443
  876TIP3    H2 2570   3.638   4.907   0.115  1.1324  0.4728 -0.0745
  877TIP3   OH2 2571   2.558   1.192   2.361 -0.1195  0.3902  0.1883
  877TIP3    H1 2572   2.639   1.180   2.411  0.4654  2.0722 -0.3359
  877TIP3    H2 2573   2.501   1.121   2.391  0.6709  0.6271  2.3459
  878TIP3   OH2 2574   3.544   1.386   1.803  0.3819 -0.4182 -0.5548
  878TIP3    H1 2575   3.610   1.320   1.781  0.2223 -0.5923 -0.5118
  878TIP3    H2 2576   3.461   1.348   1.772  0.0690 -0.9158  0.8460
  879TIP3   OH2 2577   4.878   4.726   3.259  0.1098  0.1132 -0.2504
  879TIP3    H1 2578   4.841   4.660   3.200  0.9366  0.8201 -1.5825
  879TIP3    H2 2579   4.890   4.804   3.204  2.7276  0.1783  0.3498
  880TIP3   OH2 2580   3.302   1.492   0.271 -0.6318  0.3647 -0.1096
  880TIP3    H1 2581   3.234   1.556   0.290  1.3046  2.3769  0.2631
  880TIP3    H2 2582   3.286   1.466   0.180 -0.8194  2.1792 -0.6151
  881TIP3   OH2 2583   2.913   1.873   0.555  0.2595  0.5359 -0.8235
  881TIP3    H1 2584   2.895   1.835   0.641 -0.5807  0.5689 -0.9731
  881TIP3    H2 2585   2.990   1.928   0.568  0.5168  0.0423 -0.2371
  882TIP3   OH2 2586   4.836   5.948   6.640  0.2301 -0.5754  0.3004
  882TIP3    H1 2587   4.851   5.854   6.645 -1.1370 -0.8705 -0.8219
  882TIP3    H2 2588   4.832   5.967   6.547  1.0109  0.6927  0.5165
  883TIP3   OH2 2589   1.353   3.792   1.680 -0.0367 -0.9827 -0.0632
  883TIP3    H1 2590   1.289   3.862   1.693  0.7382  0.1123 -1.8585
  883TIP3    H2 2591   1.302   3.719   1.645 -0.5280 -0.5779 -0.2014
  884TIP3   OH2 2592   3.409   4.416   1.183 -0.0682  0.0228 -0.2636
  884TIP3    H1 2593   3.490   4.466   1.188 -0.2102  0.2986 -0.7836
  884TIP3    H2 2594   3.341   4.479   1.205  0.0334 -0.7270  2.4870
  885TIP3   OH2 2595   6.848   6.111   5.868  1.0417  0.0025 -0.5252
  885TIP3    H1 2596   6.923   6.140   5.921 -0.3036  0.6071  1.0853
  885TIP3    H2 2597   6.775   6.108   5.929  0.1916 -2.6756 -1.6176
  886TIP3   OH2 2598   7.239   8.101   5.223  0.2921 -0.2472  0.0328
  886TIP3    H1 2599   7.274   8.012   5.231 -1.0402 -0.6667  1.4817
  886TIP3    H2 2600   7.211   8.123   5.312  0.5868  1.6234 -0.3260
  887TIP3   OH2 2601   5.877   7.942   6.389  0.0844  0.1317 -0.0034
  887TIP3    H1 2602   5.801   7.999   6.387  0.6436  0.8814 -0.2545
  887TIP3    H2 2603   5.902   7.938   6.481 -0.5726 -0.5431  0.1473
  888TIP3   OH2 2604   2.225   1.990   0.144 -0.2713 -0.3074  0.2011
  888TIP3    H1 2605   2.251   1.916   0.198 -1.4940 -1.8194 -1.2098
  888TIP3    H2 2606   2.299   2.051   0.148  1.7871 -2.6841 -0.5328
  889TIP3   OH2 2607   3.686   6.329  -0.000  0.3960 -0.2912 -0.5168
  889TIP3    H1 2608   3.653   6.239   0.001 -0.9387  0.1820 -0.4041
  889TIP3    H2 2609   3.637   6.373   0.069  2.3908  0.0702  0.6966
  890TIP3   OH2 2610   1.766   1.589   1.480  0.6468 -0.1591  0.9716
  890TIP3    H1 2611   1.715   1.564   1.557  0.3035 -0.1606  0.7425
  890TIP3    H2 2612   1.701   1.621   1.417  0.7455 -1.8434  0.0051
  891TIP3   OH2 2613   2.435   0.357   2.590  1.5096 -0.3447 -0.3406
  891TIP3    H1 2614   2.367   0.384   2.528  2.0306 -0.7390 -1.0813
  891TIP3    H2 2615   2.479   0.283   2.548  0.5447 -1.9605  1.3545
  892TIP3   OH2 2616   6.405   7.751   6.332 -0.6533 -0.4976  0.2507
  892TIP3    H1 2617   6.467   7.778   6.400 -0.2555  0.4857 -0.4928
  892TIP3    H2 2618   6.363   7.673   6.368  2.7605 -2.6837 -0.2841
  893TIP3   OH2 2619   3.537   2.807   1.592 -0.2581 -0.2468  0.4297
  893TIP3    H1 2620   3.546   2.843   1.680  2.5320  1.5209 -0.5131
  893TIP3    H2 2621   3.537   2.884   1.535 -2.1863 -1.3644 -1.1462
  894TIP3   OH2 2622   6.177   6.078   6.715 -0.0175 -0.2144 -0.4567
  894TIP3    H1 2623   6.102   6.018   6.710  0.9866 -1.6566  1.0869
  894TIP3    H2 2624   6.175   6.111   6.805  0.3714  0.8362 -0.8300
  895TIP3   OH2 2625   6.712   6.939   6.424  0.2501  0.1362  0.5111
  895TIP3    H1 2626   6.659   7.009   6.462 -2.1289 -1.6942  0.6647
  895TIP3    H2 2627   6.677   6.927   6.336 -1.3548 -2.7731  1.4687
  896TIP3   OH2 2628   7.698   7.270   6.546  0.3807  0.8813 -0.3502
  896TIP3    H1 2629   7.743   7.194   6.583 -0.9985 -0.3229 -1.1021
  896TIP3    H2 2630   7.611   7.237   6.521 -0.3949  2.8076 -0.2855
  897TIP3   OH2 2631  -0.023   0.151   7.028 -0.4391  0.0028 -0.1661
  897TIP3    H1 2632   0.020   0.220   7.079  0.8586 -0.2885 -0.8294
  897TIP3    H2 2633   0.030   0.144   6.948 -0.6480 -1.6641 -0.1705
  898TIP3   OH2 2634   6.325   7.403   6.866 -0.3252 -0.0257  0.2679
  898TIP3    H1 2635   6.297   7.490   6.837 -0.1413 -0.6495 -1.9055
  898TIP3    H2 2636   6.258   7.344   6.831  1.1123 -1.0432 -0.8258
  899TIP3   OH2 2637   5.534   6.944   5.458  0.4244  1.0174 -0.2524
  899TIP3    H1 2638   5.439   6.929   5.458  0.4058  1.0294 -1.7968
  899TIP3    H2 2639   5.549   6.999   5.534 -0.4669 -1.0311  1.4748
  900TIP3   OH2 2640   5.963   6.102   4.985 -0.0052  0.2997  0.1807
  900TIP3    H1 2641   5.895   6.127   5.047  1.6971  0.0754  2.1857
  900TIP3    H2 2642   6.042   6.144   5.017  1.2306 -1.0737 -0.9786
  901TIP3   OH2 2643   6.709   6.203   6.567 -0.2411  0.5646  0.2979
  901TIP3    H1 2644   6.656   6.281   6.579 -0.1167  0.2834  3.0583
  901TIP3    H2 2645   6.799   6.236   6.559 -0.3424  0.7781  0.0298
  902TIP3   OH2 2646   4.106   1.907   0.506  0.1132  0.3729  0.0156
  902TIP3    H1 2647   4.191   1.868   0.528 -0.3044  0.0831  1.1549
  902TIP3    H2 2648   4.079   1.951   0.587 -1.0793  0.0044 -0.1797
  903TIP3   OH2 2649   6.240   3.483   0.200 -0.3583  0.5902  0.2511
  903TIP3    H1 2650   6.306   3.426   0.159 -0.9818 -0.4710  0.7038
  903TIP3    H2 2651   6.225   3.552   0.136  1.3894  0.9911  0.2481
  904TIP3   OH2 2652   6.441   7.629   6.582  0.1207 -0.4308  0.1640
  904TIP3    H1 2653   6.359   7.619   6.629 -0.9665 -1.7549 -1.9477
  904TIP3    H2 2654   6.504   7.658   6.648 -1.2188 -2.7208  2.5089
  905TIP3   OH2 2655   5.895   5.132   3.244 -0.1851  0.2139 -0.0636
  905TIP3    H1 2656   5.809   5.163   3.273 -0.3601  0.2026 -0.5637
  905TIP3    H2 2657   5.882   5.107   3.153  0.7786  1.9016 -0.6863
  906TIP3   OH2 2658   3.891   4.008   0.409 -0.2566  0.5696  0.0113
  906TIP3    H1 2659   3.842   4.053   0.340 -0.6289 -0.3385 -0.3211
  906TIP3    H2 2660   3.888   3.915   0.385  3.4560  0.6667 -1.1885
  907TIP3   OH2 2661   1.080   0.898   6.948  0.0071 -0.1574 -0.0076
  907TIP3    H1 2662   1.031   0.840   6.890  3.2450 -1.3842 -1.6591
  907TIP3    H2 2663   1.074   0.984   6.907  0.4364 -0.5923 -1.0021
  908TIP3   OH2 2664   8.372   0.534   6.241  0.0021 -0.1007 -0.3767
  908TIP3    H1 2665   8.300   0.472   6.230  1.4448 -1.7489 -0.7806
  908TIP3    H2 2666   8.404   0.518   6.329 -1.4115  2.0810  0.5797
  909TIP3   OH2 2667   3.019   3.139   0.723 -0.0294  0.1916  0.4330
  909TIP3    H1 2668   3.089   3.173   0.668 -1.3755 -0.2369 -1.5722
  909TIP3    H2 2669   2.964   3.216   0.741 -0.6075 -0.0299 -0.3729
  910TIP3   OH2 2670   4.480   6.693   6.712 -0.3114 -0.7803 -0.0662
  910TIP3    H1 2671   4.505   6.601   6.716 -0.5594 -0.7941  1.3793
  910TIP3    H2 2672   4.384   6.691   6.705 -0.3039 -0.6380 -0.2118
  911TIP3   OH2 2673   3.594   3.321   0.680 -0.2267  0.1223  0.2499
  911TIP3    H1 2674   3.542   3.373   0.619 -0.0565  1.0495  0.8860
  911TIP3    H2 2675   3.536   3.307   0.755 -0.0722 -0.1112  0.3255
  912TIP3   OH2 2676   4.622   4.904   1.273  0.6043 -0.1288 -0.5160
  912TIP3    H1 2677   4.667   4.870   1.350 -0.0629 -0.4512 -0.2584
  912TIP3    H2 2678   4.587   4.988   1.301 -0.9663 -0.9457  0.0298
  913TIP3   OH2 2679   6.818   6.114   6.975  0.0942  0.4138  0.2270
  913TIP3    H1 2680   6.749   6.134   7.039  0.9400 -2.4531  2.1577
  913TIP3    H2 2681   6.889   6.174   6.997 -0.6402  1.3205  0.1754
  914TIP3   OH2 2682   6.510   5.506   6.700  0.5609  0.6410  0.2620
  914TIP3    H1 2683   6.493   5.514   6.606 -0.7488 -1.6166  0.2860
  914TIP3    H2 2684   6.428   5.533   6.741  0.0915 -1.3661  0.6591
  915TIP3   OH2 2685   4.280   5.330   0.679  0.1995  0.1609 -0.0211
  915TIP3    H1 2686   4.224   5.356   0.751  0.5317  0.0348  0.2861
  915TIP3    H2 2687   4.325   5.410   0.652 -1.2887  0.5924 -1.3090
  916TIP3   OH2 2688   0.575   1.486   7.016 -0.6082 -0.2874  0.1974
  916TIP3    H1 2689   0.481   1.473   7.004 -0.5240  0.4143 -1.3790
  916TIP3    H2 2690   0.609   1.496   6.927  1.2898 -2.6161  0.6372
  917TIP3   OH2 2691   6.051   6.597   6.270 -0.1629  0.3535 -0.2602
  917TIP3    H1 2692   5.959   6.609   6.296 -0.1534  0.4454 -0.2686
  917TIP3    H2 2693   6.071   6.507   6.294  0.3619  0.9580  1.5993
  918TIP3   OH2 2694   4.471   4.751   0.508  0.1070 -0.1991  0.4388
  918TIP3    H1 2695   4.377   4.753   0.491  0.2978 -0.6202 -0.7303
  918TIP3    H2 2696   4.500   4.670   0.467  0.9369 -0.2008  1.0342
  919TIP3   OH2 2697   3.195   3.490   0.826 -0.4249 -0.2254  0.5863
  919TIP3    H1 2698   3.266   3.427   0.840  0.5771  0.7203 -0.1823
  919TIP3    H2 2699   3.215   3.563   0.884 -0.1966  0.5098 -0.4052
  920TIP3   OH2 2700   4.554   4.259   0.078 -0.4466  0.1994 -0.4658
  920TIP3    H1 2701   4.544   4.167   0.053  0.2601 -0.3925  1.2820
  920TIP3    H2 2702   4.543   4.308  -0.003 -0.5155 -1.4568 -1.4794
  921TIP3   OH2 2703   1.150   2.797   1.108 -0.1330  0.3232 -0.4654
  921TIP3    H1 2704   1.181   2.887   1.115  0.7019  0.0833 -0.9366
  921TIP3    H2 2705   1.113   2.777   1.194  3.1529 -0.1282  0.9039
  922TIP3   OH2 2706   2.362   4.099   3.733 -0.4548 -0.2566  0.6143
  922TIP3    H1 2707   2.309   4.176   3.753  1.7087  1.4837 -0.0385
  922TIP3    H2 2708   2.365   4.096   3.638  0.2809 -0.5352  0.6385
  923TIP3   OH2 2709   2.323   1.443   0.460 -0.9653  0.2757  0.0734
  923TIP3    H1 2710   2.277   1.519   0.495 -0.8381  0.2299  0.3377
  923TIP3    H2 2711   2.258   1.397   0.408 -1.0596  0.5345 -0.0387
  924TIP3   OH2 2712   3.516   3.824   0.388 -0.1590  0.1599  0.3711
  924TIP3    H1 2713   3.488   3.906   0.348 -0.5641 -0.6267 -0.9873
  924TIP3    H2 2714   3.453   3.808   0.458 -0.9951  0.2354 -0.3580
  925TIP3   OH2 2715   4.820   6.101   4.882  0.0442 -0.2079  0.5609
  925TIP3    H1 2716   4.802   6.098   4.788  0.6868  0.2891  0.4120
  925TIP3    H2 2717   4.735   6.113   4.923  0.1153  3.8975 -0.2143
  926TIP3   OH2 2718   3.393   4.601   0.756 -0.3698 -0.5400 -0.0113
  926TIP3    H1 2719   3.480   4.565   0.772  0.4508  0.5754 -1.7384
  926TIP3    H2 2720   3.404   4.696   0.763 -0.9810 -0.2711 -2.1859
  927TIP3   OH2 2721   5.883   7.741   6.133  0.2783 -0.3020 -0.2958
  927TIP3    H1 2722   5.977   7.747   6.114 -0.0931  2.8051 -1.4178
  927TIP3    H2 2723   5.879   7.733   6.229  1.6752  0.0488 -0.1896
  928TIP3   OH2 2724   5.301   7.004   5.259  0.0726  0.1241  0.5157
  928TIP3    H1 2725   5.316   7.018   5.352  1.1127 -1.2276  0.5678
  928TIP3    H2 2726   5.208   6.981   5.252  0.2066 -0.6675  1.3280
  929TIP3   OH2 2727   5.702   7.690   6.791  0.6217  0.3350 -0.1237
  929TIP3    H1 2728   5.711   7.601   6.758  0.6619 -0.1786  1.2272
  929TIP3    H2 2729   5.785   7.732   6.771  0.1107  0.4891 -1.9708
  930TIP3   OH2 2730   5.780   6.312   6.232 -0.6258  0.1665 -0.7248
  930TIP3    H1 2731   5.736   6.242   6.184  1.9927 -2.1359  0.0974
  930TIP3    H2 2732   5.709   6.366   6.266 -2.7162 -1.8465 -1.7383
  931TIP3   OH2 2733   5.421   3.043   0.788 -0.1584 -0.6651 -0.1900
  931TIP3    H1 2734   5.483   3.115   0.783  0.0265 -0.6892  1.3557
  931TIP3    H2 2735   5.355   3.063   0.722  1.2090 -0.3749 -1.4894
  932TIP3   OH2 2736   3.286   3.467   0.285  0.3510  0.0068 -0.8652
  932TIP3    H1 2737   3.220   3.466   0.355  1.0980 -0.0331 -0.1512
  932TIP3    H2 2738   3.235   3.472   0.204 -0.5058  2.3305 -0.2516
  933TIP3   OH2 2739   0.756   3.348   0.702 -0.2610 -0.1449  0.0374
  933TIP3    H1 2740   0.755   3.387   0.789 -0.2157 -0.8024  0.3383
  933TIP3    H2 2741   0.847   3.319   0.690 -0.2053  0.1727 -0.3339
  934TIP3   OH2 2742   7.237   6.530   4.383  0.5721  0.2401  0.2409
  934TIP3    H1 2743   7.309   6.476   4.415  1.7588  1.6361  0.0012
  934TIP3    H2 2744   7.269   6.567   4.301 -1.9018 -2.1714 -1.8947
  935TIP3   OH2 2745   4.169   0.588   1.634  0.3351  0.3547 -0.3161
  935TIP3    H1 2746   4.113   0.664   1.648  1.0494  0.8479 -0.1495
  935TIP3    H2 2747   4.249   0.606   1.683  0.8726 -0.0993 -1.0016
  936TIP3   OH2 2748   0.180   0.425   5.645  0.0622  0.4570  0.1980
  936TIP3    H1 2749   0.253   0.484   5.630  0.6796  0.1099  1.7607
  936TIP3    H2 2750   0.104   0.482   5.657  0.1621  0.8312 -0.9355
  937TIP3   OH2 2751   3.560   4.181   2.987  0.3618 -0.0480  0.0864
  937TIP3    H1 2752   3.558   4.246   3.057  0.5327 -0.0677  0.1075
  937TIP3    H2 2753   3.576   4.232   2.908  0.3801 -0.0503  0.0882
  938TIP3   OH2 2754   6.155   7.303   6.632 -0.4524 -0.4905 -0.6198
  938TIP3    H1 2755   6.106   7.385   6.625  1.1141  0.4223 -1.1544
  938TIP3    H2 2756   6.113   7.245   6.570 -1.4737 -0.0385 -0.3643
  939TIP3   OH2 2757   6.684   6.871   4.498 -0.7716  0.2749 -0.2453
  939TIP3    H1 2758   6.706   6.803   4.562 -1.4353  0.8081  0.5620
  939TIP3    H2 2759   6.768   6.895   4.458 -0.1797  0.7775  1.2759
  940TIP3   OH2 2760   4.713   6.500   0.076  0.0563  0.5719 -0.2557
  940TIP3    H1 2761   4.726   6.502   0.171 -1.4599  1.7762 -0.0586
  940TIP3    H2 2762   4.792   6.457   0.042  0.1633 -0.7599  1.6123
  941TIP3   OH2 2763   1.463   3.279   0.654  0.0078 -0.4230  0.2479
  941TIP3    H1 2764   1.470   3.250   0.745  2.2202 -0.1483  0.1874
  941TIP3    H2 2765   1.527   3.226   0.607  0.3892  0.9171 -0.7621
  942TIP3   OH2 2766   6.078   6.564   6.824 -0.7323  0.2370 -0.0032
  942TIP3    H1 2767   5.996   6.535   6.784 -0.7311 -1.0442  0.9021
  942TIP3    H2 2768   6.145   6.534   6.763 -0.7788 -1.1152  0.5750
  943TIP3   OH2 2769   4.031   4.616   1.636  0.4728 -0.0197  0.5100
  943TIP3    H1 2770   3.991   4.690   1.682 -0.4382 -0.8254  1.0369
  943TIP3    H2 2771   3.991   4.618   1.549 -0.6263 -0.7166  0.9792
  944TIP3   OH2 2772   5.309   7.041   6.281  0.3274 -0.0063 -0.0610
  944TIP3    H1 2773   5.403   7.037   6.298  0.4573 -1.7749 -0.9770
  944TIP3    H2 2774   5.284   7.130   6.302  2.0451  0.2278  1.0697
  945TIP3   OH2 2775   5.455   4.548   2.091 -0.2496  0.5047 -0.1299
  945TIP3    H1 2776   5.549   4.532   2.091 -0.7204 -2.5302 -0.1101
  945TIP3    H2 2777   5.428   4.536   2.182 -0.7410  0.9381 -0.2137
  946TIP3   OH2 2778   4.771   1.577   1.939 -0.4301  0.3448  0.6918
  946TIP3    H1 2779   4.694   1.552   1.990  0.4464  2.0105  2.9408
  946TIP3    H2 2780   4.829   1.619   2.003  1.4775  0.9020 -1.3527
  947TIP3   OH2 2781   3.568   3.091   1.224  1.0392  0.0239  0.4973
  947TIP3    H1 2782   3.557   3.185   1.211  0.1565 -0.0106  0.9438
  947TIP3    H2 2783   3.552   3.077   1.317  0.0685 -0.7105  0.2294
  948TIP3   OH2 2784   4.259   4.240   1.649  0.0019 -0.0304 -0.0670
  948TIP3    H1 2785   4.182   4.279   1.690 -1.3567 -2.3865 -0.2793
  948TIP3    H2 2786   4.331   4.262   1.707 -0.9904  1.3448  0.6762
  949TIP3   OH2 2787   6.675   7.898   6.002  0.1142  0.8201  0.0899
  949TIP3    H1 2788   6.715   7.850   5.929 -1.2150  0.2562 -0.2889
  949TIP3    H2 2789   6.679   7.990   5.976 -0.4654  0.6112 -0.7596
  950TIP3   OH2 2790   1.338   1.376   5.676  0.3052  0.0308  0.3393
  950TIP3    H1 2791   1.244   1.356   5.671  0.7706 -2.0117 -0.8328
  950TIP3    H2 2792   1.365   1.344   5.762 -0.0926  0.7038  0.7151
  951TIP3   OH2 2793   2.041   1.780   2.195  0.1774  0.0700  0.1465
  951TIP3    H1 2794   2.111   1.840   2.223  1.9130 -1.4918 -0.6802
  951TIP3    H2 2795   2.021   1.808   2.105  2.4546 -1.7934 -1.0123
  952TIP3   OH2 2796   2.081   2.886   2.277  0.4055  0.1428  0.2594
  952TIP3    H1 2797   2.058   2.926   2.361  0.2370  0.4368  0.0759
  952TIP3    H2 2798   2.005   2.834   2.253  0.5191 -0.0729  0.3690
  953TIP3   OH2 2799   0.788   0.928   6.010  0.0241  0.5185 -0.2276
  953TIP3    H1 2800   0.862   0.880   6.049 -2.2595 -2.1419  1.0370
  953TIP3    H2 2801   0.733   0.950   6.085 -1.3109  0.9514 -1.3298
  954TIP3   OH2 2802   7.622   6.476   6.159  0.0636 -0.3920 -0.3994
  954TIP3    H1 2803   7.555   6.543   6.146 -0.1708 -0.2651  1.3893
  954TIP3    H2 2804   7.618   6.423   6.079 -0.5480  1.0075 -1.3212
  955TIP3   OH2 2805   4.110   2.507   1.864  0.5383  0.1740 -0.4023
  955TIP3    H1 2806   4.029   2.459   1.846 -0.3965  1.5555  0.0547
  955TIP3    H2 2807   4.142   2.470   1.947 -0.0079  0.1171 -0.2133
  956TIP3   OH2 2808   2.209   2.182   0.444 -0.0122 -0.1157 -0.4476
  956TIP3    H1 2809   2.246   2.102   0.406  0.4137 -0.6112  0.9864
  956TIP3    H2 2810   2.284   2.240   0.455  0.0961 -0.4980  0.9201
  957TIP3   OH2 2811   4.665   7.090   6.987 -0.0365 -0.0313 -0.2007
  957TIP3    H1 2812   4.664   7.023   7.056  0.6851  1.1144  0.9337
  957TIP3    H2 2813   4.597   7.152   7.011  1.4546  1.3708  0.5119
  958TIP3   OH2 2814   1.719   3.185   2.737 -0.1841 -0.4816 -0.2450
  958TIP3    H1 2815   1.654   3.159   2.671  0.0782  0.4847 -0.8961
  958TIP3    H2 2816   1.757   3.265   2.702 -0.7505  0.5936  1.5652
  959TIP3   OH2 2817   4.517   2.393   3.126 -0.0360  0.4562  0.1215
  959TIP3    H1 2818   4.553   2.454   3.062  1.4969 -1.5804 -1.0126
  959TIP3    H2 2819   4.513   2.443   3.207  0.3158  2.3317 -0.9831
  960TIP3   OH2 2820   5.540   2.919   0.335  0.7925 -0.0464  0.4954
  960TIP3    H1 2821   5.470   2.857   0.313 -0.3098  0.9598  1.1156
  960TIP3    H2 2822   5.581   2.883   0.413  0.4033 -0.1935  0.6338
  961TIP3   OH2 2823   3.729   1.858   2.752 -0.2940  0.4908 -0.6178
  961TIP3    H1 2824   3.725   1.764   2.768  0.1793  0.6313  0.3534
  961TIP3    H2 2825   3.786   1.892   2.821 -0.9779  1.5784 -0.5735
  962TIP3   OH2 2826   4.018   4.549   0.279  0.2607 -0.1773  0.2097
  962TIP3    H1 2827   4.013   4.454   0.287 -1.7893 -0.2002 -1.0573
  962TIP3    H2 2828   4.040   4.564   0.187 -0.8478  0.5874  0.0564
  963TIP3   OH2 2829   6.762   3.853   1.582 -0.1011 -0.2402 -0.1517
  963TIP3    H1 2830   6.716   3.828   1.662  1.2703 -0.4824  0.5671
  963TIP3    H2 2831   6.701   3.911   1.537 -0.7315  0.2159  1.2596
  964TIP3   OH2 2832   6.177   6.641   5.747 -0.4761  0.1113 -0.6163
  964TIP3    H1 2833   6.148   6.561   5.790  2.1249 -1.1592 -1.1252
  964TIP3    H2 2834   6.132   6.641   5.662 -0.4288 -0.8437 -0.6447
  965TIP3   OH2 2835   5.632   6.382   5.870  0.5062  0.8049  0.2507
  965TIP3    H1 2836   5.591   6.468   5.883  0.2196  0.5580  1.0174
  965TIP3    H2 2837   5.724   6.403   5.850  0.3459  1.3055  0.0319
  966TIP3   OH2 2838   1.811   2.928   0.496  0.8161 -0.1815  0.2145
  966TIP3    H1 2839   1.886   2.886   0.452  0.0561 -1.7251  0.3461
  966TIP3    H2 2840   1.792   2.871   0.570 -0.8213 -0.1063 -0.1252
  967TIP3   OH2 2841   3.131   4.744   1.498  0.4003 -0.5050 -0.2655
  967TIP3    H1 2842   3.176   4.788   1.570  0.3068  1.6739 -1.4907
  967TIP3    H2 2843   3.155   4.652   1.507 -0.4058 -0.4235  3.1121
  968TIP3   OH2 2844   3.672   3.444   1.594 -0.6223 -0.1486  0.2254
  968TIP3    H1 2845   3.628   3.526   1.620  1.6424  0.9552  0.6827
  968TIP3    H2 2846   3.659   3.439   1.500  0.3089  1.4410 -0.0131
  969TIP3   OH2 2847   4.181   6.834   1.471  0.1516  0.3871  0.0912
  969TIP3    H1 2848   4.130   6.890   1.413  0.4549  1.0115  0.4299
  969TIP3    H2 2849   4.270   6.870   1.469  0.3135  0.0216  0.4396
  970TIP3   OH2 2850   5.041   3.300   0.357 -0.2813  0.3131  0.2579
  970TIP3    H1 2851   5.053   3.352   0.278  0.7154  0.7448  0.6955
  970TIP3    H2 2852   5.100   3.339   0.421 -1.1232 -0.0025  1.2355
  971TIP3   OH2 2853   4.780   3.774   0.096 -0.0758  0.2512 -0.1979
  971TIP3    H1 2854   4.703   3.815   0.134 -1.1057  0.6606 -2.6169
  971TIP3    H2 2855   4.832   3.847   0.061  1.3486 -0.0328  1.2763
  972TIP3   OH2 2856   4.724   2.220   0.811 -0.3570  0.0943  0.0705
  972TIP3    H1 2857   4.637   2.248   0.782 -0.9702 -0.6566  1.1288
  972TIP3    H2 2858   4.785   2.269   0.756 -1.4476  0.8932 -0.4454
  973TIP3   OH2 2859   1.028   2.612   0.931 -0.0826  0.1057  0.2434
  973TIP3    H1 2860   1.021   2.690   0.986  0.9673 -0.1825  0.8188
  973TIP3    H2 2861   1.038   2.540   0.994 -0.6111 -0.4364 -0.2894
  974TIP3   OH2 2862   2.251   1.177   1.720  0.1958  0.2497 -0.1423
  974TIP3    H1 2863   2.242   1.272   1.718 -0.0426  0.2176 -1.6512
  974TIP3    H2 2864   2.272   1.156   1.811 -4.0793  1.3249  1.2098
  975TIP3   OH2 2865   1.705   0.157   6.114 -0.4302  0.3665 -0.3238
  975TIP3    H1 2866   1.772   0.172   6.180  1.3220 -0.0566 -1.9723
  975TIP3    H2 2867   1.707   0.063   6.098 -0.5622  0.5186 -1.2681
  976TIP3   OH2 2868   6.091   6.147   6.004 -0.0716  0.0547 -0.1591
  976TIP3    H1 2869   6.098   6.113   6.093  1.1029 -0.5008 -0.4618
  976TIP3    H2 2870   6.146   6.089   5.952  1.3136  1.9184 -0.8094
  977TIP3   OH2 2871   6.229   7.031   6.698 -0.3786  0.5111 -0.3295
  977TIP3    H1 2872   6.199   7.121   6.687  0.3660  0.9142  0.8036
  977TIP3    H2 2873   6.297   7.037   6.766  0.2308 -0.7860 -0.8188
  978TIP3   OH2 2874   2.667   1.743   0.312  0.2611  0.0179 -0.5632
  978TIP3    H1 2875   2.748   1.778   0.276 -0.1239  1.0196 -0.4812
  978TIP3    H2 2876   2.693   1.700   0.393  0.6149  0.9467 -0.1821
  979TIP3   OH2 2877   3.397   3.686   0.624 -0.0037 -0.4849  0.4306
  979TIP3    H1 2878   3.441   3.686   0.709 -1.4751 -1.1788  1.2115
  979TIP3    H2 2879   3.328   3.620   0.633 -1.6968  1.1058 -0.5061
  980TIP3   OH2 2880   3.113   3.466   0.081  0.3222 -0.6159  0.3429
  980TIP3    H1 2881   3.072   3.389   0.040  0.5577  0.0494 -1.1595
  980TIP3    H2 2882   3.067   3.541   0.043  0.8604  0.0306  0.9578
  981TIP3   OH2 2883   7.150   5.479   6.719  0.1696  0.7887 -0.6281
  981TIP3    H1 2884   7.235   5.437   6.730 -0.2921 -0.2956 -1.0546
  981TIP3    H2 2885   7.164   5.570   6.745  2.1433  1.3047 -3.2840
  982TIP3   OH2 2886   0.548   1.587   6.500  0.3314 -0.4449  0.0159
  982TIP3    H1 2887   0.471   1.545   6.463  0.5423 -0.1440 -0.7747
  982TIP3    H2 2888   0.537   1.680   6.481  0.9824 -0.4221 -0.2787
  983TIP3   OH2 2889   4.804   4.735   0.908 -0.1171 -0.4783  0.4021
  983TIP3    H1 2890   4.875   4.748   0.971 -0.2249  1.9261  0.0676
  983TIP3    H2 2891   4.725   4.761   0.956 -0.0927  2.2761 -0.9819
  984TIP3   OH2 2892   5.890   6.020   6.862 -0.5615 -0.0361 -0.7537
  984TIP3    H1 2893   5.853   6.106   6.843  0.2306  0.6056  0.5584
  984TIP3    H2 2894   5.964   6.038   6.921 -1.2139 -1.7031  0.6266
  985TIP3   OH2 2895   1.712   2.697   4.153  0.9787 -0.5396  0.6203
  985TIP3    H1 2896   1.770   2.622   4.142  2.4931  0.7935 -0.7565
  985TIP3    H2 2897   1.770   2.773   4.145 -0.4517  0.7891  2.3907
  986TIP3   OH2 2898   4.586   4.684   1.133  0.2854 -0.8285 -0.0563
  986TIP3    H1 2899   4.558   4.635   1.210  2.5742 -0.4408  1.0645
  986TIP3    H2 2900   4.622   4.765   1.168  2.1272 -1.0107 -1.4417
  987TIP3   OH2 2901   6.809   6.839   5.985 -0.4114 -0.5694 -0.1520
  987TIP3    H1 2902   6.793   6.745   5.975  0.1532 -0.6662 -0.1226
  987TIP3    H2 2903   6.815   6.872   5.895 -0.7274 -0.5401 -0.1628
  988TIP3   OH2 2904   6.155   7.850   5.224  0.0144 -0.0098  0.0400
  988TIP3    H1 2905   6.210   7.794   5.279  1.9660  1.3589 -0.4330
  988TIP3    H2 2906   6.080   7.796   5.202  0.6816 -1.6062  1.5626
  989TIP3   OH2 2907   4.600   2.737   1.303 -0.1557  0.5496 -0.2595
  989TIP3    H1 2908   4.646   2.700   1.379  0.3769 -0.9772 -1.2924
  989TIP3    H2 2909   4.641   2.695   1.228 -1.7886  0.7977 -1.3168
  990TIP3   OH2 2910   3.130   3.032   1.540 -0.4902 -0.2932  0.1182
  990TIP3    H1 2911   3.204   3.062   1.593  0.4336 -0.4116 -1.0819
  990TIP3    H2 2912   3.095   2.957   1.589 -0.5361  0.4634  1.2667
  991TIP3   OH2 2913   6.467   5.981   5.048  0.7279  0.4566 -0.2738
  991TIP3    H1 2914   6.514   6.041   4.990  2.9450 -2.1128 -1.2549
  991TIP3    H2 2915   6.500   6.002   5.135 -0.0527  2.0352 -0.3476
  992TIP3   OH2 2916   8.478   0.817   1.221  0.3731 -0.1365  0.1186
  992TIP3    H1 2917   8.548   0.758   1.249  0.8287  0.4870  0.3149
  992TIP3    H2 2918   8.474   0.884   1.289  0.4579  0.5364 -0.5249
  993TIP3   OH2 2919   7.734   8.059   6.985 -0.2804  0.5521  0.3107
  993TIP3    H1 2920   7.790   8.128   7.021 -0.8561  0.9055  0.5449
  993TIP3    H2 2921   7.760   8.052   6.893  0.8443  0.0015  0.6587
  994TIP3   OH2 2922   4.767   2.077   2.527  0.0341  0.3806  0.1697
  994TIP3    H1 2923   4.696   2.012   2.529 -1.0520  1.5614  1.4173
  994TIP3    H2 2924   4.746   2.132   2.451  0.8644 -0.6008 -0.7895
  995TIP3   OH2 2925   4.412   3.300   2.083  0.2854  0.3635 -0.4391
  995TIP3    H1 2926   4.464   3.261   2.154 -0.1108 -0.8147 -0.7932
  995TIP3    H2 2927   4.455   3.272   2.003 -0.3025  0.2380 -0.7125
  996TIP3   OH2 2928   4.240   4.120   2.023  0.3406  0.6350  0.1055
  996TIP3    H1 2929   4.160   4.086   1.982  0.8262  2.8329 -2.8266
  996TIP3    H2 2930   4.209   4.174   2.096 -0.8301  0.7855 -0.4920
  997TIP3   OH2 2931   5.657   3.562   1.575 -0.2424  0.1773 -0.8360
  997TIP3    H1 2932   5.737   3.612   1.594  0.4051 -1.7427  1.9157
  997TIP3    H2 2933   5.688   3.484   1.529 -0.1036 -1.8603  2.5261
  998TIP3   OH2 2934   4.823   3.297   1.915  0.3827  0.9274 -0.4101
  998TIP3    H1 2935   4.738   3.335   1.891  0.7766  1.7529 -0.5179
  998TIP3    H2 2936   4.874   3.298   1.834  0.2261 -0.3291 -0.5421
  999TIP3   OH2 2937   0.576   0.046   5.942  0.1714 -0.5608 -0.2701
  999TIP3    H1 2938   0.621  -0.020   5.994 -0.2433 -1.2457 -0.7633
  999TIP3    H2 2939   0.514   0.087   6.002 -0.2829 -1.3244 -0.1997
 1000TIP3   OH2 2940   2.542   4.258   2.985  0.2131  0.0296 -0.2273
 1000TIP3    H1 2941   2.637   4.260   2.968  0.6423  1.4409  2.0346
 1000TIP3    H2 2942   2.515   4.349   2.980 -0.9390 -0.3137 -0.3594
 1001TIP3   OH2 2943   0.312   4.331   0.827  0.0343  0.0862 -0.7104
 1001TIP3    H1 2944   0.277   4.243   0.812  1.6445 -0.5119 -1.0688
 1001TIP3    H2 2945   0.368   4.348   0.751 -0.0881  1.3319 -0.5294
 1002TIP3   OH2 2946   4.020   3.259   0.953  0.0713  0.0212 -0.1689
 1002TIP3    H1 2947   4.022   3.163   0.958 -1.1956 -0.0926 -1.5084
 1002TIP3    H2 2948   4.110   3.283   0.931  0.0428 -0.9975 -1.5468
 1003TIP3   OH2 2949   5.430   4.189   0.697 -0.0210 -0.5007  0.2506
 1003TIP3    H1 2950   5.516   4.183   0.739 -0.5615 -0.8670  1.3461
 1003TIP3    H2 2951   5.440   4.256   0.630  1.8116 -2.3730 -1.3781
 1004TIP3   OH2 2952   3.716   4.144   0.217  0.1266  0.0813 -0.3044
 1004TIP3    H1 2953   3.747   4.136   0.127 -1.2556 -1.3635 -0.6699
 1004TIP3    H2 2954   3.623   4.122   0.213 -0.0976  0.6340  1.3742
 1005TIP3   OH2 2955   7.131   7.656   6.057  0.3067 -0.5230 -0.4701
 1005TIP3    H1 2956   7.212   7.654   6.108  0.4521 -0.1955 -0.6843
 1005TIP3    H2 2957   7.147   7.596   5.984 -0.3976 -2.0296  0.6004
 1006TIP3   OH2 2958   4.226   4.378   2.759 -0.1879 -0.6422 -0.2256
 1006TIP3    H1 2959   4.163   4.306   2.751 -0.5020 -0.5874  1.6532
 1006TIP3    H2 2960   4.185   4.450   2.711 -1.4559 -0.6891  0.7502
 1007TIP3   OH2 2961   1.148   0.993   6.542  0.2293  0.1808  0.0591
 1007TIP3    H1 2962   1.194   1.054   6.485  0.8608  0.9732  1.4040
 1007TIP3    H2 2963   1.147   1.035   6.628 -0.2783 -1.2131  0.7602
 1008TIP3   OH2 2964   1.396   1.156   2.187 -0.1908 -0.4877  0.2726
 1008TIP3    H1 2965   1.386   1.081   2.246  0.8349  0.0563  1.1609
 1008TIP3    H2 2966   1.425   1.227   2.243  1.0904 -0.0306 -0.9295
 1009TIP3   OH2 2967   4.880   1.856   1.928  0.0675 -0.0623 -0.0213
 1009TIP3    H1 2968   4.894   1.951   1.929  0.2497 -0.0707  3.4575
 1009TIP3    H2 2969   4.957   1.820   1.972 -1.4597 -1.5723  1.5024
 1010TIP3   OH2 2970   2.661   3.192   0.397 -0.5452 -0.0884 -0.4048
 1010TIP3    H1 2971   2.683   3.265   0.454  0.0630  0.8220 -1.7849
 1010TIP3    H2 2972   2.574   3.213   0.363 -1.0504 -0.7921  0.4378
 1011TIP3   OH2 2973   5.182   7.427   6.589 -0.4104 -0.1543 -0.0212
 1011TIP3    H1 2974   5.166   7.344   6.633  0.0639  0.2853  0.9748
 1011TIP3    H2 2975   5.229   7.481   6.652 -0.3368  0.7329 -0.8033
 1012TIP3   OH2 2976   0.788   6.547   2.421  0.3005 -0.0195  0.4512
 1012TIP3    H1 2977   0.739   6.549   2.503 -0.3092  2.2296  0.0738
 1012TIP3    H2 2978   0.775   6.634   2.383  0.8778 -0.8992 -1.8610
 1013TIP3   OH2 2979   3.958   1.010   0.302 -0.1505 -0.1980 -0.0058
 1013TIP3    H1 2980   3.997   0.922   0.297 -1.8974 -1.0753  1.0168
 1013TIP3    H2 2981   3.995   1.057   0.228 -0.0200 -2.1575 -1.2290
 1014TIP3   OH2 2982   2.237   2.075   1.495  0.3564 -0.1260  0.0358
 1014TIP3    H1 2983   2.155   2.028   1.477  0.8115 -1.8097  2.1061
 1014TIP3    H2 2984   2.305   2.015   1.467  0.9201  0.4303  0.2104
 1015TIP3   OH2 2985   5.523   7.379   6.934 -0.9527  0.1722  0.2619
 1015TIP3    H1 2986   5.489   7.468   6.943 -0.0098  0.7041 -1.1284
 1015TIP3    H2 2987   5.445   7.323   6.936 -1.4667  0.9157  2.2343
 1016TIP3   OH2 2988   6.120   5.743   5.832  0.0650 -0.0972 -0.0215
 1016TIP3    H1 2989   6.151   5.652   5.825 -0.2816 -0.2271  0.1545
 1016TIP3    H2 2990   6.092   5.765   5.743 -0.3284 -0.3332  0.0423
 1017TIP3   OH2 2991   4.263   4.080   0.110  0.0638 -0.0059  0.0805
 1017TIP3    H1 2992   4.337   4.121   0.157 -0.4187  1.7944 -0.6714
 1017TIP3    H2 2993   4.302   4.047   0.029  0.3435 -0.4861  0.4088
 1018TIP3   OH2 2994   5.762   5.776   6.805  0.5140 -0.4896  0.1781
 1018TIP3    H1 2995   5.671   5.792   6.780  0.3774  0.6366  1.3865
 1018TIP3    H2 2996   5.804   5.862   6.801  1.1673 -0.7621  1.0602
 1019TIP3   OH2 2997   0.852   1.793   5.680  0.3599 -0.1271  0.1540
 1019TIP3    H1 2998   0.836   1.873   5.730 -1.1095  0.2402 -0.8869
 1019TIP3    H2 2999   0.900   1.821   5.603 -0.3415 -0.2059 -0.3193
 1020TIP3   OH2 3000   0.912   2.153   0.786 -0.0159 -0.5720  0.1879
 1020TIP3    H1 3001   0.897   2.247   0.800 -1.9185 -0.8805  0.3380
 1020TIP3    H2 3002   1.007   2.144   0.785  0.2003  1.5008 -0.7836
 1021TIP3   OH2 3003   2.592   1.671   1.118  0.3207 -0.0333 -0.0627
 1021TIP3    H1 3004   2.628   1.750   1.077 -0.5817 -0.9889 -2.7430
 1021TIP3    H2 3005   2.500   1.671   1.093 -0.0451 -1.1218  1.2336
 1022TIP3   OH2 3006   7.075   7.860   6.248 -0.2946  0.4281  0.1887
 1022TIP3    H1 3007   7.086   7.770   6.216  0.3641  0.5433  0.0794
 1022TIP3    H2 3008   6.982   7.867   6.268 -0.4435 -0.1202 -0.2839
 1023TIP3   OH2 3009   2.452   2.357   0.463 -0.5251  0.3595 -0.5750
 1023TIP3    H1 3010   2.427   2.439   0.505  1.9209  1.7774 -1.8301
 1023TIP3    H2 3011   2.528   2.327   0.513 -1.9566 -1.6960  0.4856
 1024TIP3   OH2 3012   6.359   3.318   0.518 -0.0493 -0.1187  0.1801
 1024TIP3    H1 3013   6.325   3.408   0.526  0.7111  0.0506  1.5157
 1024TIP3    H2 3014   6.342   3.295   0.426  1.3689  2.0547 -0.6822
 1025TIP3   OH2 3015   5.305   2.668   0.510  0.7060 -0.3324 -0.2717
 1025TIP3    H1 3016   5.325   2.682   0.417 -0.4441  0.2608 -0.4500
 1025TIP3    H2 3017   5.267   2.751   0.538  4.4657  0.8208  1.7150
 1026TIP3   OH2 3018   0.329   7.479   6.971 -0.6145 -0.1201  0.2504
 1026TIP3    H1 3019   0.364   7.564   6.945 -0.2274 -1.7317 -5.0262
 1026TIP3    H2 3020   0.236   7.496   6.990  0.1076  1.9140  2.2608
 1027TIP3   OH2 3021   0.777   0.236   6.690  0.5236 -0.2141  0.4644
 1027TIP3    H1 3022   0.816   0.255   6.604  1.2476 -0.4778  0.7351
 1027TIP3    H2 3023   0.772   0.141   6.693 -1.0126 -0.1607  0.0457
 1028TIP3   OH2 3024   6.677   3.224   0.285  0.2717  0.1187 -0.2702
 1028TIP3    H1 3025   6.697   3.139   0.246  2.3800  0.6768 -0.4919
 1028TIP3    H2 3026   6.582   3.224   0.296 -0.0664 -1.1362 -2.8583
 1029TIP3   OH2 3027   6.670   7.914   5.566  0.5462  0.3989  0.5053
 1029TIP3    H1 3028   6.652   8.004   5.594 -0.6761  0.1821  0.4607
 1029TIP3    H2 3029   6.605   7.896   5.498  0.8185 -0.4964  0.4664
 1030TIP3   OH2 3030   6.298   5.093   0.629 -0.0585 -0.5261 -0.5813
 1030TIP3    H1 3031   6.276   5.129   0.543  0.0568  0.7829 -0.0753
 1030TIP3    H2 3032   6.218   5.103   0.680  0.3768  0.2561 -0.0406
 1031TIP3   OH2 3033   8.051   5.049   0.426  0.3139  0.3218  0.1893
 1031TIP3    H1 3034   8.024   4.963   0.458  1.5540 -0.0389  0.2709
 1031TIP3    H2 3035   8.020   5.111   0.493  0.9018 -0.2137  0.9506
 1032TIP3   OH2 3036   3.899   0.731   6.382  0.3849 -0.0469 -0.5343
 1032TIP3    H1 3037   3.803   0.731   6.382  0.3626 -2.1920 -1.8259
 1032TIP3    H2 3038   3.923   0.706   6.471 -0.2453 -0.3831 -0.4551
 1033TIP3   OH2 3039   3.682   1.455   1.108  0.1566  0.5189 -0.1033
 1033TIP3    H1 3040   3.620   1.476   1.038  1.0881  2.0450 -0.4860
 1033TIP3    H2 3041   3.696   1.538   1.154 -1.3621 -0.6816  2.6797
 1034TIP3   OH2 3042   0.257   6.359   6.552 -0.2699 -0.1916 -0.4299
 1034TIP3    H1 3043   0.333   6.382   6.605 -1.4296  0.8660  0.8072
 1034TIP3    H2 3044   0.268   6.266   6.533 -0.9025 -1.1468  3.5098
 1035TIP3   OH2 3045   7.402   6.701   6.515 -0.2180 -0.3402 -0.0156
 1035TIP3    H1 3046   7.363   6.709   6.428 -3.6104  0.2795  1.4869
 1035TIP3    H2 3047   7.367   6.618   6.549  0.2042 -0.0362  1.1863
 1036TIP3   OH2 3048   6.700   2.940   3.328 -0.0519 -0.1514  0.3536
 1036TIP3    H1 3049   6.729   2.929   3.237  1.2501  0.3355  0.6958
 1036TIP3    H2 3050   6.728   3.029   3.351 -1.0696  0.0056  0.9769
 1037TIP3   OH2 3051   3.088   6.796   6.880  0.4199  0.8675  0.5462
 1037TIP3    H1 3052   3.178   6.778   6.853 -0.0924 -0.2392 -0.4650
 1037TIP3    H2 3053   3.040   6.716   6.859 -0.7156  1.2929  1.4731
 1038TIP3   OH2 3054   7.137   6.385   5.836 -0.4930 -0.8158  0.0905
 1038TIP3    H1 3055   7.060   6.441   5.849  1.0806  1.3461  0.3870
 1038TIP3    H2 3056   7.158   6.393   5.743  0.2910 -0.1324  0.3158
 1039TIP3   OH2 3057   5.027   5.110   1.054  0.2328 -0.4720  0.1368
 1039TIP3    H1 3058   4.952   5.058   1.025  0.5064 -0.8083  0.0347
 1039TIP3    H2 3059   5.004   5.138   1.142  0.2602 -1.1077  0.3511
 1040TIP3   OH2 3060   6.084   3.422   1.740 -0.2245 -0.4113 -0.2281
 1040TIP3    H1 3061   6.073   3.452   1.649  0.1325 -0.9351 -0.4467
 1040TIP3    H2 3062   5.995   3.407   1.771 -0.3329 -0.6097 -0.6257
 1041TIP3   OH2 3063   4.389   4.496   0.395  0.2542  0.6434  0.4218
 1041TIP3    H1 3064   4.389   4.478   0.301  0.4444 -0.9081  0.7107
 1041TIP3    H2 3065   4.299   4.524   0.414 -0.5679 -1.7981  0.2756
 1042TIP3   OH2 3066   4.038   3.863   0.043 -0.0919 -0.0661  0.0158
 1042TIP3    H1 3067   4.104   3.804   0.079 -1.5997 -1.0070  1.2880
 1042TIP3    H2 3068   4.076   3.950   0.055  0.5341 -0.5305  1.6196
 1043TIP3   OH2 3069   2.753   3.908   1.108  0.1052 -0.4406  0.1141
 1043TIP3    H1 3070   2.791   3.917   1.196  1.3776 -0.4203 -0.4195
 1043TIP3    H2 3071   2.731   3.815   1.101  0.7604 -0.6072  0.1693
 1044TIP3   OH2 3072   1.666   2.910   5.014 -0.1273 -0.1291 -0.0176
 1044TIP3    H1 3073   1.627   2.986   4.971 -0.7804 -0.0432  0.7178
 1044TIP3    H2 3074   1.759   2.915   4.991 -0.0996  1.0972  0.3195
 1045TIP3   OH2 3075   5.314   2.215   2.455  0.2019  0.2272 -0.6589
 1045TIP3    H1 3076   5.248   2.156   2.490 -0.0569  0.8095 -0.1568
 1045TIP3    H2 3077   5.322   2.190   2.363  1.0929 -1.5035 -0.1261
 1046TIP3   OH2 3078   4.285   2.418   0.869 -0.2349 -0.1589  0.3255
 1046TIP3    H1 3079   4.257   2.501   0.830 -0.0470 -0.7288 -1.0795
 1046TIP3    H2 3080   4.275   2.354   0.798  3.0666 -0.6536  0.2280
 1047TIP3   OH2 3081   3.450   0.916   6.635  0.4535 -0.1831 -0.1376
 1047TIP3    H1 3082   3.472   0.920   6.542  0.1363  3.1650 -0.1510
 1047TIP3    H2 3083   3.522   0.962   6.679 -0.3871  0.0299  1.0553
 1048TIP3   OH2 3084   2.956   7.601   6.783 -0.5068 -0.5283 -0.5899
 1048TIP3    H1 3085   3.033   7.648   6.814 -0.7029 -0.7559  0.2549
 1048TIP3    H2 3086   2.883   7.638   6.832 -0.8125 -0.9495 -0.7172
 1049TIP3   OH2 3087   1.782   7.705   6.180  0.0569  0.2076 -0.0318
 1049TIP3    H1 3088   1.842   7.638   6.213  1.0049 -0.4616 -2.9991
 1049TIP3    H2 3089   1.699   7.659   6.167  0.0871  0.1419  0.0094
 1050TIP3   OH2 3090   7.429   3.771   0.283  0.0667  0.3200 -0.1805
 1050TIP3    H1 3091   7.430   3.675   0.288 -0.5348  0.3024 -0.3473
 1050TIP3    H2 3092   7.442   3.800   0.374  2.4603  0.1026 -0.4269
 1051TIP3   OH2 3093   7.500   7.890   6.345  0.1258  0.4560 -0.2339
 1051TIP3    H1 3094   7.472   7.956   6.408  0.6667  2.3660 -1.9357
 1051TIP3    H2 3095   7.591   7.871   6.370 -0.5396 -0.8397  1.2316
 1052TIP3   OH2 3096   4.407   3.774   2.065 -0.0412 -0.3397 -0.3718
 1052TIP3    H1 3097   4.436   3.850   2.015 -0.5828  0.4330  0.4597
 1052TIP3    H2 3098   4.418   3.801   2.157 -0.1648 -1.2855 -0.0789
 1053TIP3   OH2 3099   5.944   3.790   1.587 -0.2254  0.6294 -0.0604
 1053TIP3    H1 3100   5.999   3.817   1.660 -1.3502  0.5569  0.8385
 1053TIP3    H2 3101   5.855   3.814   1.614 -0.6487  0.6267 -1.4156
 1054TIP3   OH2 3102   4.821   2.527   0.348  0.3553 -0.1054 -0.1587
 1054TIP3    H1 3103   4.848   2.438   0.370 -0.0399 -0.1935 -0.0144
 1054TIP3    H2 3104   4.854   2.541   0.259 -0.5724 -0.8211 -0.6360
 1055TIP3   OH2 3105   6.078   7.299   6.180  0.4418 -0.1457 -0.2587
 1055TIP3    H1 3106   6.165   7.276   6.149 -0.1592  0.6569 -2.6162
 1055TIP3    H2 3107   6.085   7.392   6.205  0.4648 -0.3026  0.3296
 1056TIP3   OH2 3108   3.307   4.804   1.972 -0.8863 -0.7106  0.2361
 1056TIP3    H1 3109   3.308   4.884   2.024 -0.8261 -0.7227  0.2540
 1056TIP3    H2 3110   3.302   4.734   2.037  2.2047 -0.8651  0.3865
 1057TIP3   OH2 3111   5.481   3.762   0.188 -0.1140 -0.6688 -0.2606
 1057TIP3    H1 3112   5.441   3.781   0.103 -1.1555  0.2579  0.4267
 1057TIP3    H2 3113   5.493   3.667   0.187 -1.2452 -0.8215 -0.9565
 1058TIP3   OH2 3114   4.467   3.936   0.918 -0.0745 -0.7695 -0.5511
 1058TIP3    H1 3115   4.524   3.905   0.989  1.9554  0.6449 -1.5157
 1058TIP3    H2 3116   4.386   3.961   0.962 -0.0477 -3.0014  0.8350
 1059TIP3   OH2 3117   4.437   3.656   0.388  0.2430  1.0879 -0.1729
 1059TIP3    H1 3118   4.429   3.746   0.419  0.1853  1.2027 -0.5150
 1059TIP3    H2 3119   4.530   3.645   0.369  0.1708  1.2407 -0.6207
 1060TIP3   OH2 3120   3.691   3.250   0.230 -0.3960  0.0788 -0.2151
 1060TIP3    H1 3121   3.605   3.209   0.232 -0.3358  0.0077  1.0072
 1060TIP3    H2 3122   3.751   3.179   0.205 -0.5685 -0.0727 -0.1953
 1061TIP3   OH2 3123   4.037   3.258   0.609  0.1575  0.5852 -0.1914
 1061TIP3    H1 3124   4.103   3.298   0.552  1.4385 -0.4883  0.5179
 1061TIP3    H2 3125   3.954   3.277   0.565  1.0101  1.0058 -1.6731
 1062TIP3   OH2 3126   4.907   7.726   5.690  0.6728  0.8130 -0.0748
 1062TIP3    H1 3127   4.912   7.634   5.668 -1.1300  0.9153 -0.9824
 1062TIP3    H2 3128   4.983   7.766   5.647  1.0063 -0.1136 -0.3395
 1063TIP3   OH2 3129   7.473   4.511   1.293 -0.4848  0.1958  0.5176
 1063TIP3    H1 3130   7.478   4.603   1.267 -0.9631  0.4415  1.2623
 1063TIP3    H2 3131   7.492   4.462   1.214 -1.3013  0.9290 -0.1424
 1064TIP3   OH2 3132   5.615   3.181   0.345  0.1335 -0.3539  0.4085
 1064TIP3    H1 3133   5.538   3.231   0.316  0.0579  0.0210  1.2565
 1064TIP3    H2 3134   5.590   3.090   0.332 -0.8057 -0.2682  1.5279
 1065TIP3   OH2 3135   5.164   3.456   0.554 -0.0551 -0.7889 -0.1716
 1065TIP3    H1 3136   5.253   3.490   0.553  0.1500 -1.1562  2.0653
 1065TIP3    H2 3137   5.108   3.533   0.542  0.5222 -0.3708 -0.1768
 1066TIP3   OH2 3138   5.464   1.854   1.265 -0.2263  0.0429 -0.1502
 1066TIP3    H1 3139   5.477   1.908   1.343  1.4116 -0.2166 -0.2122
 1066TIP3    H2 3140   5.526   1.781   1.277 -1.8080 -1.3883 -0.4569
 1067TIP3   OH2 3141   6.286   3.958   1.502  1.0862  0.3964  0.8960
 1067TIP3    H1 3142   6.334   3.880   1.473  0.3150 -0.1861  1.1778
 1067TIP3    H2 3143   6.201   3.952   1.459  1.3638  1.6016  0.1397
 1068TIP3   OH2 3144   7.404   6.622   5.596  0.0551 -0.1169  0.1056
 1068TIP3    H1 3145   7.428   6.625   5.503  0.2415  2.2802  0.2187
 1068TIP3    H2 3146   7.308   6.622   5.596  0.0514  0.7127 -0.0764
 1069TIP3   OH2 3147   1.683   0.376   6.847 -0.6219 -0.0914  0.0227
 1069TIP3    H1 3148   1.678   0.397   6.754 -1.2269 -0.7327 -0.0950
 1069TIP3    H2 3149   1.770   0.404   6.874 -0.0356 -0.9129 -0.9878
 1070TIP3   OH2 3150   2.018   3.428   2.257  0.5004  0.3278 -0.1664
 1070TIP3    H1 3151   2.057   3.461   2.338  0.9208  0.7473 -0.5348
 1070TIP3    H2 3152   2.084   3.369   2.221  1.2414  1.8223 -1.3054
 1071TIP3   OH2 3153   2.479   6.559   6.646 -0.5942  0.2231 -0.3342
 1071TIP3    H1 3154   2.555   6.559   6.704 -0.7838 -2.0504 -0.0528
 1071TIP3    H2 3155   2.411   6.603   6.695 -0.6238 -1.2940  1.0025
 1072TIP3   OH2 3156   6.910   2.783   0.405 -0.0974 -0.0974  0.2019
 1072TIP3    H1 3157   6.951   2.732   0.335  0.6203  0.5617  0.1330
 1072TIP3    H2 3158   6.906   2.722   0.480 -0.3281 -0.6172 -0.2276
 1073TIP3   OH2 3159   3.253   0.814   0.604  0.2163 -0.5055 -0.0398
 1073TIP3    H1 3160   3.205   0.793   0.524  2.0240 -2.0339 -0.7437
 1073TIP3    H2 3161   3.258   0.910   0.604 -3.6497 -0.2088  0.5716
 1074TIP3   OH2 3162   7.332   8.100   6.884 -0.5927  0.1864  0.0654
 1074TIP3    H1 3163   7.343   8.004   6.886  1.4726  0.3916 -0.1478
 1074TIP3    H2 3164   7.272   8.116   6.812 -2.0529 -1.0430  0.9746
 1075TIP3   OH2 3165   7.040   5.224   2.519 -0.4528  0.3417 -0.1605
 1075TIP3    H1 3166   6.959   5.182   2.548 -1.1763  1.4520 -0.5349
 1075TIP3    H2 3167   7.023   5.318   2.528 -0.4303  0.7039 -3.4223
 1076TIP3   OH2 3168   7.801   4.455   0.323 -0.4912  0.8235  0.5946
 1076TIP3    H1 3169   7.777   4.503   0.402  0.5991  0.5541  1.0965
 1076TIP3    H2 3170   7.852   4.517   0.271  1.3468  0.0969  1.4692
 1077TIP3   OH2 3171   5.838   5.058   1.221 -0.1540  0.5501  0.5422
 1077TIP3    H1 3172   5.895   5.120   1.268  1.9349 -1.4859  0.7537
 1077TIP3    H2 3173   5.750   5.089   1.241  0.7544  1.7483  3.0626
 1078TIP3   OH2 3174   3.060   1.350   5.539 -0.5603 -0.2104  0.3649
 1078TIP3    H1 3175   2.993   1.311   5.483 -1.0344  0.2189  0.6329
 1078TIP3    H2 3176   3.083   1.432   5.497  0.2872 -0.6670 -0.0840
 1079TIP3   OH2 3177   5.970   2.513   1.770 -0.1300  0.2860  0.0481
 1079TIP3    H1 3178   5.976   2.423   1.802 -2.7167  0.4439  1.1128
 1079TIP3    H2 3179   6.060   2.546   1.774  0.7212 -1.9839  0.4062
 1080TIP3   OH2 3180   5.090   2.970   1.451  0.3747 -0.0910 -0.5625
 1080TIP3    H1 3181   5.077   3.041   1.388 -0.1237 -0.5883 -1.0246
 1080TIP3    H2 3182   5.169   2.925   1.421  0.8953  0.4725 -0.0666
 1081TIP3   OH2 3183   4.969   5.800   0.903 -0.0308  0.1301  0.1495
 1081TIP3    H1 3184   4.877   5.784   0.879  0.2212 -0.3147 -0.5074
 1081TIP3    H2 3185   5.006   5.713   0.915  0.6268  0.2770 -0.7917
 1082TIP3   OH2 3186   4.386   2.659   0.704 -0.3406 -0.1887 -0.2094
 1082TIP3    H1 3187   4.452   2.606   0.660 -0.3971  0.1250 -0.6697
 1082TIP3    H2 3188   4.335   2.698   0.634 -1.1680 -0.6139  0.1478
 1083TIP3   OH2 3189   6.096   0.410   1.848 -0.5586 -0.1096 -0.0559
 1083TIP3    H1 3190   6.102   0.315   1.850  0.7509 -0.1084 -2.7399
 1083TIP3    H2 3191   6.176   0.440   1.891 -1.3049 -0.1734  1.4389
 1084TIP3   OH2 3192   5.762   5.568   1.416 -0.1131  0.1431  0.2359
 1084TIP3    H1 3193   5.736   5.660   1.409  0.3254  0.3797  1.6190
 1084TIP3    H2 3194   5.853   5.567   1.387  0.4491  0.4599  1.9294
 1085TIP3   OH2 3195   5.861   0.190   6.392  0.1898  0.0499 -0.3474
 1085TIP3    H1 3196   5.893   0.273   6.427  0.2806 -0.2645  0.3247
 1085TIP3    H2 3197   5.906   0.180   6.308  1.4506 -0.1226  0.3364
 1086TIP3   OH2 3198   4.231   3.691   1.318 -0.0966 -0.1838  0.3133
 1086TIP3    H1 3199   4.167   3.760   1.300 -0.2059 -0.7071 -1.4562
 1086TIP3    H2 3200   4.314   3.736   1.323 -0.2859  0.1954  0.0548
 1087TIP3   OH2 3201   5.739   4.201   1.083 -0.0692  0.4802  0.1111
 1087TIP3    H1 3202   5.665   4.152   1.119  0.0408  1.1503  1.2781
 1087TIP3    H2 3203   5.801   4.206   1.156  0.9050  0.3612 -0.7052
 1088TIP3   OH2 3204   3.557   4.667   1.216 -0.3793 -0.0022 -0.6395
 1088TIP3    H1 3205   3.604   4.745   1.245 -0.6562 -0.1149  0.1371
 1088TIP3    H2 3206   3.468   4.697   1.199 -0.3577 -0.0506 -0.8408
 1089TIP3   OH2 3207   5.561   4.296   0.151 -0.0807  0.7900 -0.4715
 1089TIP3    H1 3208   5.639   4.336   0.189  1.1534  0.0899 -2.1819
 1089TIP3    H2 3209   5.592   4.212   0.118 -2.0575 -0.4296  0.7366
 1090TIP3   OH2 3210   6.836   4.703   0.759 -0.2163  0.0488 -0.5505
 1090TIP3    H1 3211   6.840   4.618   0.714 -0.2562 -0.1861 -0.1174
 1090TIP3    H2 3212   6.765   4.693   0.822  0.1366  0.2208 -0.1209
 1091TIP3   OH2 3213   4.565   1.267   5.933  0.4596  0.2790  0.4504
 1091TIP3    H1 3214   4.515   1.196   5.974 -0.2432  0.9541  0.7777
 1091TIP3    H2 3215   4.500   1.317   5.883  0.4960  2.0781  2.1245
 1092TIP3   OH2 3216   3.703   2.427   1.203 -0.1804 -0.0246 -0.6717
 1092TIP3    H1 3217   3.665   2.508   1.237 -0.2180 -0.3953  0.1974
 1092TIP3    H2 3218   3.650   2.406   1.126 -1.2140 -0.0781  0.0279
 1093TIP3   OH2 3219   3.153   5.002   0.808 -0.4179  0.8514 -0.1788
 1093TIP3    H1 3220   3.194   4.937   0.751  0.5736 -0.0206  1.4651
 1093TIP3    H2 3221   3.191   5.086   0.781  1.7318  0.1721  0.6313
 1094TIP3   OH2 3222   3.347   1.601   0.709  0.1933  0.6660  0.0946
 1094TIP3    H1 3223   3.288   1.637   0.642 -0.0779  1.6723  0.8684
 1094TIP3    H2 3224   3.429   1.586   0.662 -0.3538  0.2315 -0.7469
 1095TIP3   OH2 3225   7.026   4.404   1.014  0.5242  0.2384 -0.3621
 1095TIP3    H1 3226   6.957   4.365   0.961  1.8928 -1.0678 -1.2426
 1095TIP3    H2 3227   7.022   4.358   1.097  0.0318  0.4919 -0.2450
 1096TIP3   OH2 3228   6.244   7.917   6.808  0.0919  0.0280 -0.2044
 1096TIP3    H1 3229   6.149   7.903   6.815 -0.0924  1.3076 -0.0402
 1096TIP3    H2 3230   6.272   7.931   6.899  0.4303 -0.2551 -0.2636
 1097TIP3   OH2 3231   6.792   6.710   6.770 -0.2893 -0.2317  0.2380
 1097TIP3    H1 3232   6.718   6.764   6.797 -0.7295 -0.7445  0.0632
 1097TIP3    H2 3233   6.854   6.718   6.842 -0.4676  0.2779  0.3415
 1098TIP3   OH2 3234   4.023   2.027   6.174 -0.1338 -0.4570 -0.3158
 1098TIP3    H1 3235   4.031   2.112   6.130 -1.4670 -0.8276 -1.3177
 1098TIP3    H2 3236   3.944   2.035   6.227  0.5556 -0.5815  0.7536
 1099TIP3   OH2 3237   4.027   0.622   6.600 -0.2546 -0.5219 -0.5792
 1099TIP3    H1 3238   4.087   0.560   6.558 -0.1384  0.6531 -2.1603
 1099TIP3    H2 3239   4.009   0.583   6.686  1.9574 -1.4011 -0.4870
 1100TIP3   OH2 3240   6.109   2.766   1.271  0.2726 -0.1396 -0.4658
 1100TIP3    H1 3241   6.160   2.689   1.295  1.7276  0.6836 -0.8915
 1100TIP3    H2 3242   6.099   2.815   1.353 -0.1019 -0.4458 -0.3248
 1101TIP3   OH2 3243   5.203   1.703   1.216  0.3340  0.0869 -0.3605
 1101TIP3    H1 3244   5.254   1.749   1.149  1.5502  0.6395  0.9228
 1101TIP3    H2 3245   5.198   1.765   1.289 -1.0268 -0.4843  0.0361
 1102TIP3   OH2 3246   7.040   2.406   2.634  0.4323  0.0767  0.0368
 1102TIP3    H1 3247   6.991   2.489   2.640  2.6951  1.5615 -1.6016
 1102TIP3    H2 3248   7.003   2.362   2.557  1.9067  1.3905 -1.4549
 1103TIP3   OH2 3249   4.572   6.626   0.551  0.0474 -0.4916  0.3387
 1103TIP3    H1 3250   4.559   6.564   0.623 -0.7905 -2.7443 -1.6761
 1103TIP3    H2 3251   4.497   6.685   0.556  0.3104 -0.2545  1.6565
 1104TIP3   OH2 3252   7.846   7.620   6.954  0.1371  0.0024  0.4075
 1104TIP3    H1 3253   7.809   7.546   6.905  2.6166 -0.5324 -0.7974
 1104TIP3    H2 3254   7.771   7.671   6.983 -1.5479 -1.9339 -0.4529
 1105TIP3   OH2 3255   6.379   3.196   0.279 -0.1649 -0.5925  0.1025
 1105TIP3    H1 3256   6.316   3.125   0.264  0.5613 -0.9883 -1.1477
 1105TIP3    H2 3257   6.401   3.228   0.192  0.5655  0.2581  0.5851
 1106TIP3   OH2 3258   4.538   3.650   0.676  0.3310  0.1305 -0.1436
 1106TIP3    H1 3259   4.499   3.632   0.590 -0.6417  0.1972  0.2683
 1106TIP3    H2 3260   4.597   3.724   0.661 -0.5662  0.7702 -0.5804
 1107TIP3   OH2 3261   4.399   2.683   2.297 -0.0769 -0.2921 -0.1599
 1107TIP3    H1 3262   4.328   2.651   2.241  2.8700 -1.3413 -3.4903
 1107TIP3    H2 3263   4.428   2.606   2.345 -0.5340 -0.0698  0.4803
 1108TIP3   OH2 3264   5.456   2.499   0.681 -0.2771 -0.5616 -0.2015
 1108TIP3    H1 3265   5.411   2.548   0.613  0.2045  1.2951  0.7864
 1108TIP3    H2 3266   5.539   2.472   0.641 -1.0111 -1.5322 -1.0937
 1109TIP3   OH2 3267   8.140   6.476   6.887 -0.0726  0.4997 -0.0182
 1109TIP3    H1 3268   8.059   6.424   6.887  0.2712 -0.0432  0.8061
 1109TIP3    H2 3269   8.147   6.508   6.797  0.1026 -1.5196 -0.7673
 1110TIP3   OH2 3270   7.485   5.663   6.760 -0.0766  0.4527 -0.2940
 1110TIP3    H1 3271   7.462   5.629   6.847  0.5966  0.5892 -0.0636
 1110TIP3    H2 3272   7.401   5.692   6.723 -0.2878  0.8691  0.5087
 1111TIP3   OH2 3273   4.145   4.101   0.479 -0.4182  0.6801 -0.2354
 1111TIP3    H1 3274   4.172   4.111   0.388  0.1398 -1.5398 -0.3394
 1111TIP3    H2 3275   4.053   4.076   0.474 -0.5923  1.2977 -0.1549
 1112TIP3   OH2 3276   4.302   2.319   1.122 -0.1918 -0.3556  0.0094
 1112TIP3    H1 3277   4.294   2.224   1.124 -1.9388 -0.2581 -1.0141
 1112TIP3    H2 3278   4.293   2.341   1.029  2.3406  0.6526 -0.0259
 1113TIP3   OH2 3279   6.304   5.220   2.708  0.2685  0.3108 -0.4126
 1113TIP3    H1 3280   6.232   5.231   2.646 -0.3351 -1.5740 -0.0901
 1113TIP3    H2 3281   6.291   5.289   2.773 -0.8220  0.4491 -0.7744
 1114TIP3   OH2 3282   4.676   3.013   1.933  0.5214  0.8886 -0.0205
 1114TIP3    H1 3283   4.705   3.101   1.911 -0.4638  1.0451 -0.7398
 1114TIP3    H2 3284   4.580   3.018   1.930  0.4562 -0.5495 -1.4956
 1115TIP3   OH2 3285   1.304   0.476   6.851  0.2951  0.3712  0.0735
 1115TIP3    H1 3286   1.213   0.491   6.824  0.6841  1.4871 -0.6200
 1115TIP3    H2 3287   1.356   0.524   6.788  1.3673  0.0637  0.7160
 1116TIP3   OH2 3288   5.895   2.325   3.046  0.3435  0.4994 -0.4356
 1116TIP3    H1 3289   5.989   2.335   3.030  0.4555 -1.6134 -1.2924
 1116TIP3    H2 3290   5.890   2.290   3.135  0.3603  0.5283 -0.4233
 1117TIP3   OH2 3291   0.204   4.587   0.906  0.0070 -0.2286 -0.1535
 1117TIP3    H1 3292   0.262   4.518   0.873  1.1820  0.8374 -0.3661
 1117TIP3    H2 3293   0.191   4.646   0.832 -2.0875 -0.9030 -0.3673
 1118TIP3   OH2 3294   7.417   6.009   1.474  0.6296  0.0466 -0.2238
 1118TIP3    H1 3295   7.483   6.075   1.451 -0.7348  1.2554 -0.7134
 1118TIP3    H2 3296   7.334   6.046   1.445 -0.1010 -2.1870 -1.1319
 1119TIP3   OH2 3297   6.116   2.757   0.591  0.0233 -0.3951  0.7567
 1119TIP3    H1 3298   6.068   2.735   0.511 -0.1865  1.6719  0.2910
 1119TIP3    H2 3299   6.057   2.814   0.640  0.8576 -0.1794  1.5244
 1120TIP3   OH2 3300   6.476   5.485   2.157 -0.6051  0.1566  0.4217
 1120TIP3    H1 3301   6.508   5.572   2.180 -1.5675  0.6060  0.0940
 1120TIP3    H2 3302   6.548   5.445   2.107  0.5045  0.1099  2.0156
 1121TIP3   OH2 3303   6.921   2.636   0.657  0.1728 -0.4274  0.0919
 1121TIP3    H1 3304   6.875   2.678   0.730  0.4210  1.7001 -0.9440
 1121TIP3    H2 3305   6.859   2.573   0.622 -1.5438  1.5276 -0.4976
 1122TIP3   OH2 3306   6.624   2.335   2.581  0.2537  0.0305  0.0307
 1122TIP3    H1 3307   6.562   2.342   2.654 -0.5554 -1.7499 -0.4536
 1122TIP3    H2 3308   6.584   2.387   2.511  0.0623  0.1208  0.2057
 1123TIP3   OH2 3309   3.587   2.331   0.671 -0.0675  0.5461 -0.0772
 1123TIP3    H1 3310   3.628   2.416   0.658  1.5576  0.1537  2.0674
 1123TIP3    H2 3311   3.593   2.287   0.586 -2.5607  3.2038 -1.7000
 1124TIP3   OH2 3312   7.817   4.619   1.882  0.0663 -0.4088  0.2858
 1124TIP3    H1 3313   7.751   4.669   1.929  0.3828 -0.1761  0.4893
 1124TIP3    H2 3314   7.852   4.557   1.947 -1.0284 -1.5925 -0.2322
 1125TIP3   OH2 3315   5.567   4.478   1.493 -0.4068 -0.3525  0.0607
 1125TIP3    H1 3316   5.652   4.477   1.449 -0.7185  0.5129 -0.5724
 1125TIP3    H2 3317   5.574   4.409   1.560  0.4901 -0.8576 -0.5392
 1126TIP3   OH2 3318   7.180   2.758   3.386  0.0943 -0.7550 -0.3224
 1126TIP3    H1 3319   7.136   2.842   3.403  0.4970 -0.2240 -1.8068
 1126TIP3    H2 3320   7.121   2.692   3.423 -0.0382  0.1996  1.2043
 1127TIP3   OH2 3321   7.084   6.205   6.656  0.2361 -0.0436 -0.2318
 1127TIP3    H1 3322   7.024   6.279   6.657  0.4797  0.1806 -1.6051
 1127TIP3    H2 3323   7.113   6.198   6.565 -0.2234 -2.1679 -0.2504
 1128TIP3   OH2 3324   6.101   4.376   3.398  0.0967  0.1647 -0.0027
 1128TIP3    H1 3325   6.067   4.365   3.310  0.8065  0.6985 -0.3504
 1128TIP3    H2 3326   6.159   4.301   3.412 -0.5520 -0.2894  0.2720
 1129TIP3   OH2 3327   4.451   1.806   3.802  0.3209  0.6187 -0.0577
 1129TIP3    H1 3328   4.470   1.715   3.778  0.2326  0.0598  1.9091
 1129TIP3    H2 3329   4.383   1.799   3.868 -1.3040  2.2491 -1.5198
 1130TIP3   OH2 3330   3.738   2.226   1.392  0.1413  0.1009  0.2070
 1130TIP3    H1 3331   3.732   2.280   1.313  3.0052 -0.4183 -0.4399
 1130TIP3    H2 3332   3.804   2.270   1.446  1.1414 -1.6901  0.4977
 1131TIP3   OH2 3333   5.241   3.495   2.816 -0.0216  0.3207  0.1717
 1131TIP3    H1 3334   5.308   3.449   2.866 -0.5608 -0.7375 -0.0710
 1131TIP3    H2 3335   5.159   3.454   2.843 -0.5769  1.5959  0.4584
 1132TIP3   OH2 3336   4.741   1.795   3.831  0.2431  0.1918 -0.0557
 1132TIP3    H1 3337   4.647   1.780   3.840  0.5418 -0.1890  3.0884
 1132TIP3    H2 3338   4.752   1.888   3.853  0.4545  0.6210 -1.8957
 1133TIP3   OH2 3339   4.692   1.978   0.579 -0.0764 -0.1193 -0.1703
 1133TIP3    H1 3340   4.787   1.988   0.573  0.0739 -1.7566 -0.6898
 1133TIP3    H2 3341   4.667   2.029   0.656  1.3638 -0.6519  0.6512
 1134TIP3   OH2 3342   1.379   0.059   4.958 -0.7001  0.7497  0.1986
 1134TIP3    H1 3343   1.295   0.014   4.958  0.1897 -0.9451 -0.7207
 1134TIP3    H2 3344   1.420   0.035   5.041 -0.6306  0.6655  0.1393
 1135TIP3   OH2 3345   6.535   6.915   6.797  0.1252 -0.5675  0.3919
 1135TIP3    H1 3346   6.598   6.961   6.853 -0.9879 -0.6581  1.7560
 1135TIP3    H2 3347   6.550   6.951   6.710  0.2371  1.4074  1.1778
 1136TIP3   OH2 3348   2.877   1.339   6.485 -0.0660 -0.2480  0.3194
 1136TIP3    H1 3349   2.814   1.393   6.438 -0.5979  1.9235  3.3767
 1136TIP3    H2 3350   2.844   1.250   6.476 -0.7609  0.2506 -2.3846
 1137TIP3   OH2 3351   5.771   3.551   0.178  0.0524  0.4306 -0.2417
 1137TIP3    H1 3352   5.696   3.499   0.150 -0.3864  1.2609 -0.6419
 1137TIP3    H2 3353   5.835   3.487   0.210 -0.3696 -0.3608 -0.9707
 1138TIP3   OH2 3354   1.214   1.264   6.034 -0.1040  0.3063  0.2016
 1138TIP3    H1 3355   1.136   1.248   5.981  0.0938  1.5629 -0.4886
 1138TIP3    H2 3356   1.215   1.193   6.098 -3.2639  1.7757  1.9638
 1139TIP3   OH2 3357   3.179   3.344   0.545  0.0093  0.3720 -0.3162
 1139TIP3    H1 3358   3.199   3.407   0.614 -1.5247  1.1570 -0.5680
 1139TIP3    H2 3359   3.235   3.269   0.565 -0.5626  0.5007  1.8949
 1140TIP3   OH2 3360   6.463   5.503   0.901  0.0414 -0.2638 -0.2469
 1140TIP3    H1 3361   6.463   5.519   0.995  0.0202 -0.9099 -0.1327
 1140TIP3    H2 3362   6.524   5.430   0.890  0.6627  0.3378 -0.8261
 1141TIP3   OH2 3363   6.370   4.119   2.323  0.1195 -0.0777 -0.0267
 1141TIP3    H1 3364   6.346   4.145   2.234 -0.2943 -2.1757 -0.5438
 1141TIP3    H2 3365   6.410   4.198   2.360 -0.5454  1.1099 -1.7449
 1142TIP3   OH2 3366   5.735   3.284   0.944 -0.1948  0.3107 -0.1233
 1142TIP3    H1 3367   5.718   3.242   1.029 -0.0006 -1.0813 -0.7685
 1142TIP3    H2 3368   5.705   3.221   0.879 -0.2546  1.3352 -1.1053
 1143TIP3   OH2 3369   6.831   3.290   1.210  0.0981 -0.2516 -0.9485
 1143TIP3    H1 3370   6.919   3.268   1.240  0.2732 -0.0721 -1.3323
 1143TIP3    H2 3371   6.843   3.364   1.151 -0.1836 -0.9314 -1.8797
 1144TIP3   OH2 3372   3.027   2.437   1.632  0.4084 -0.2269  0.0072
 1144TIP3    H1 3373   3.018   2.426   1.537 -0.8938 -1.0201  0.2189
 1144TIP3    H2 3374   3.000   2.353   1.669 -0.1712  0.4566  1.1420
 1145TIP3   OH2 3375   0.133   3.350   0.961 -0.5033  0.0661  0.4922
 1145TIP3    H1 3376   0.040   3.331   0.962 -0.3951 -0.4873  0.1514
 1145TIP3    H2 3377   0.160   3.344   1.053 -1.0840  1.6514  0.7700
 1146TIP3   OH2 3378   7.492   6.789   6.864 -0.1438 -0.1997 -0.0995
 1146TIP3    H1 3379   7.576   6.836   6.871  1.1896 -2.6362  0.6972
 1146TIP3    H2 3380   7.513   6.708   6.818 -1.9033 -1.2302  0.8548
 1147TIP3   OH2 3381   4.424   0.844   0.363 -0.1762 -0.5986 -0.1976
 1147TIP3    H1 3382   4.366   0.891   0.303  0.6782 -1.3476 -1.6433
 1147TIP3    H2 3383   4.507   0.892   0.358  0.4005 -1.6497 -0.9273
 1148TIP3   OH2 3384   3.771   2.112   1.662 -0.0824  0.6210 -0.3021
 1148TIP3    H1 3385   3.847   2.091   1.608 -0.9077 -0.3778 -1.0929
 1148TIP3    H2 3386   3.797   2.088   1.750  0.9714  1.4621 -0.3730
 1149TIP3   OH2 3387   4.511   4.523   1.355  0.0449  0.3079  0.3810
 1149TIP3    H1 3388   4.518   4.430   1.331  1.5747  0.5149 -0.0409
 1149TIP3    H2 3389   4.435   4.527   1.414 -0.3643 -1.1162 -0.0309
 1150TIP3   OH2 3390   4.716   3.593   1.893 -0.4359 -0.5400 -0.0764
 1150TIP3    H1 3391   4.808   3.610   1.870 -0.0861 -1.2578  0.7875
 1150TIP3    H2 3392   4.709   3.618   1.985 -0.5215 -2.6955  0.5142
 1151TIP3   OH2 3393   5.992   4.954   0.655  0.1022 -0.1805  0.3611
 1151TIP3    H1 3394   5.902   4.987   0.651  0.0040 -0.5201 -0.3371
 1151TIP3    H2 3395   6.011   4.927   0.565  2.0123  2.9057 -0.2499
 1152TIP3   OH2 3396   1.589   1.013   5.517  0.4268  0.4357 -0.1363
 1152TIP3    H1 3397   1.665   0.955   5.526  0.4486  0.4330 -0.3284
 1152TIP3    H2 3398   1.580   1.053   5.603  1.1610  1.0707 -0.3476
 1153TIP3   OH2 3399   7.614   4.815   0.094  0.1182  0.0794 -0.1888
 1153TIP3    H1 3400   7.628   4.894   0.042 -1.7595 -0.3821 -1.4340
 1153TIP3    H2 3401   7.524   4.789   0.076  0.0462 -1.2070  1.8004
 1154TIP3   OH2 3402   2.366   1.058   6.610 -0.2765 -0.3038  0.2018
 1154TIP3    H1 3403   2.445   1.038   6.660  0.0075  3.4506  1.4250
 1154TIP3    H2 3404   2.308   1.100   6.673 -2.5627 -1.4119 -1.1122
 1155TIP3   OH2 3405   8.040   5.946   1.669 -0.8740  0.5243  0.1603
 1155TIP3    H1 3406   8.092   6.004   1.614 -2.2028  0.6685 -0.9643
 1155TIP3    H2 3407   8.101   5.916   1.736  0.9317 -0.0760 -1.6893
 1156TIP3   OH2 3408   0.037   1.220   6.153 -0.1743  0.3487  0.3354
 1156TIP3    H1 3409  -0.048   1.246   6.116 -0.0661  1.5863  0.9168
 1156TIP3    H2 3410   0.071   1.301   6.192  1.6525  0.0593 -0.6165
 1157TIP3   OH2 3411   5.290   3.921   0.637  0.0359 -0.2104 -0.8355
 1157TIP3    H1 3412   5.315   3.893   0.549 -0.3169 -0.7276 -0.7686
 1157TIP3    H2 3413   5.359   3.983   0.662 -0.2395  0.4794 -1.7453
 1158TIP3   OH2 3414   6.933   6.760   7.003  0.2399  0.0410  0.2669
 1158TIP3    H1 3415   6.974   6.809   7.075 -0.5374 -0.2149  0.9000
 1158TIP3    H2 3416   6.996   6.764   6.932  2.0245 -1.5805  1.6957
 1159TIP3   OH2 3417   1.083   0.299   6.659 -0.2104 -0.8347  0.4951
 1159TIP3    H1 3418   1.051   0.295   6.569  3.3020 -1.2442 -0.7940
 1159TIP3    H2 3419   1.054   0.217   6.699 -0.6578 -1.2244 -0.6248
 1160TIP3   OH2 3420   5.758   6.192   0.367  0.5774 -0.2586 -0.0815
 1160TIP3    H1 3421   5.763   6.216   0.459  1.8838 -1.9010  0.2808
 1160TIP3    H2 3422   5.779   6.273   0.320  0.5260  0.4213  1.0624
 1161TIP3   OH2 3423   3.240   5.655   1.051  0.1728 -0.6145  0.4323
 1161TIP3    H1 3424   3.310   5.677   1.112 -0.2875  1.0657  0.3579
 1161TIP3    H2 3425   3.283   5.649   0.965  0.1226  1.0422  0.2857
 1162TIP3   OH2 3426   4.578   1.166   2.019 -0.2576  0.2633 -0.3624
 1162TIP3    H1 3427   4.499   1.206   1.983 -0.0262  1.7639  0.7434
 1162TIP3    H2 3428   4.619   1.122   1.944 -1.8420 -0.0639 -1.0586
 1163TIP3   OH2 3429   6.722   3.907   0.402  0.5169 -0.2033  0.4772
 1163TIP3    H1 3430   6.741   3.997   0.430  0.8186 -0.3710  0.7992
 1163TIP3    H2 3431   6.779   3.852   0.455  1.4411 -0.4908 -0.8061
 1164TIP3   OH2 3432   5.827   4.574   0.581  0.1286  0.2202 -0.0125
 1164TIP3    H1 3433   5.808   4.576   0.675 -0.6833 -0.0738 -0.1636
 1164TIP3    H2 3434   5.830   4.666   0.555 -0.6456  0.2885  0.1137
 1165TIP3   OH2 3435   6.219   4.087   0.990 -0.4640 -0.1370  0.3315
 1165TIP3    H1 3436   6.199   4.116   1.079  0.0853 -0.8518  0.6901
 1165TIP3    H2 3437   6.273   4.009   1.002  0.8780  0.6277 -0.6221
 1166TIP3   OH2 3438   6.950   4.053   1.611  0.0118 -0.0793  0.0932
 1166TIP3    H1 3439   6.916   4.115   1.675  0.9961 -0.0978  0.6566
 1166TIP3    H2 3440   6.911   4.079   1.528 -0.8445  0.2913  0.6111
 1167TIP3   OH2 3441   7.204   7.926   6.652  0.2663  0.7369  0.5204
 1167TIP3    H1 3442   7.173   8.005   6.696 -0.8410  1.4895 -1.5063
 1167TIP3    H2 3443   7.125   7.872   6.643  0.7770 -0.0619  0.8053
 1168TIP3   OH2 3444   0.869   6.196   5.654 -0.0405  0.2813 -0.2355
 1168TIP3    H1 3445   0.931   6.231   5.590 -0.0785  1.5033  0.3830
 1168TIP3    H2 3446   0.889   6.243   5.735 -0.6930 -0.4917  0.3784
 1169TIP3   OH2 3447   6.784   7.883   6.816 -0.1312  0.4402 -0.5203
 1169TIP3    H1 3448   6.813   7.922   6.898 -1.2520 -1.2833  0.7468
 1169TIP3    H2 3449   6.857   7.827   6.789 -0.0242  0.5049 -0.3650
 1170TIP3   OH2 3450   7.014   1.955   0.775  0.2837 -0.2970 -0.1576
 1170TIP3    H1 3451   7.049   2.041   0.802  0.6782 -0.6778  0.5537
 1170TIP3    H2 3452   6.937   1.976   0.722 -0.1628  0.4726  0.7956
 1171TIP3   OH2 3453   4.803   3.908   0.427 -0.2954 -0.0376 -0.1355
 1171TIP3    H1 3454   4.743   3.961   0.480 -1.2027 -1.0600 -0.1285
 1171TIP3    H2 3455   4.888   3.921   0.469 -0.6562  0.7616  0.3658
 1172TIP3   OH2 3456   5.411   3.194   1.497  0.2782  0.3821 -0.0284
 1172TIP3    H1 3457   5.457   3.113   1.477  1.4969  0.5910  1.8047
 1172TIP3    H2 3458   5.422   3.249   1.419  2.7453  0.2582  0.2174
 1173TIP3   OH2 3459   5.907   2.505   1.119 -0.3388 -0.2026  0.7472
 1173TIP3    H1 3460   5.968   2.496   1.046  1.3006 -0.1122  2.0804
 1173TIP3    H2 3461   5.845   2.572   1.090  0.5263  0.1134 -0.4053
 1174TIP3   OH2 3462   6.057   7.523   1.649 -0.0135 -0.2843  0.3958
 1174TIP3    H1 3463   6.001   7.446   1.651  2.1010 -1.8450  0.2585
 1174TIP3    H2 3464   6.100   7.524   1.735  0.1833  0.6098  0.2956
 1175TIP3   OH2 3465   7.350   3.281   3.160 -0.4106 -0.0968  0.2766
 1175TIP3    H1 3466   7.311   3.193   3.165  0.9415 -0.6777  0.8489
 1175TIP3    H2 3467   7.350   3.301   3.066 -0.4871 -0.8142  0.1163
 1176TIP3   OH2 3468   4.961   5.217   0.439 -0.2450 -0.1156 -0.2484
 1176TIP3    H1 3469   4.979   5.286   0.375 -0.6919 -0.1388 -0.4008
 1176TIP3    H2 3470   4.981   5.135   0.393  1.2348 -0.0577  0.2472
 1177TIP3   OH2 3471   3.341   0.115   6.928 -0.1262  0.3697 -0.1763
 1177TIP3    H1 3472   3.316   0.184   6.989  0.9871 -1.6982  2.6948
 1177TIP3    H2 3473   3.314   0.034   6.970  2.2156 -1.2404 -1.6339
 1178TIP3   OH2 3474   7.548   5.798   1.599  0.4406 -0.1124 -0.1031
 1178TIP3    H1 3475   7.633   5.841   1.598 -0.6829  2.2190  1.0789
 1178TIP3    H2 3476   7.487   5.864   1.565 -1.5344 -0.1985  3.0010
 1179TIP3   OH2 3477   7.479   3.888   1.729 -0.6812 -0.2767 -0.3997
 1179TIP3    H1 3478   7.487   3.861   1.821 -0.0775 -1.0602 -0.6748
 1179TIP3    H2 3479   7.519   3.816   1.680 -2.5401 -0.6610 -1.3888
 1180TIP3   OH2 3480   5.709   5.395   1.117 -0.0206  0.0777 -0.6831
 1180TIP3    H1 3481   5.678   5.484   1.102 -0.4040  0.1318  0.4030
 1180TIP3    H2 3482   5.630   5.346   1.140 -0.1613 -1.0366 -3.3174
 1181TIP3   OH2 3483   7.792   4.994   0.710 -0.5420  0.0922  0.2839
 1181TIP3    H1 3484   7.718   4.979   0.652  0.4969 -0.1361 -1.0177
 1181TIP3    H2 3485   7.795   4.917   0.767 -0.3663 -0.6355 -0.6992
 1182TIP3   OH2 3486   3.534   6.835   6.610  0.0315  0.1181 -0.1808
 1182TIP3    H1 3487   3.524   6.835   6.515  1.8901 -0.5419 -0.4038
 1182TIP3    H2 3488   3.549   6.927   6.632 -1.1751  0.3804 -0.4297
 1183TIP3   OH2 3489   2.823   7.948   6.394 -0.7202  0.3216 -0.4464
 1183TIP3    H1 3490   2.905   7.969   6.349 -0.3650 -0.3278 -0.1025
 1183TIP3    H2 3491   2.832   7.989   6.480  0.5793 -2.4193  0.7609
 1184TIP3   OH2 3492   5.849   2.455   6.619  0.3102 -0.1686  0.0958
 1184TIP3    H1 3493   5.809   2.497   6.696 -0.9706  0.6926 -1.0195
 1184TIP3    H2 3494   5.807   2.497   6.544  0.7737 -1.7616 -1.0786
 1185TIP3   OH2 3495   4.819   1.063   5.935  0.7503  0.1461 -0.0358
 1185TIP3    H1 3496   4.737   1.113   5.942  1.2180  0.9691 -0.4209
 1185TIP3    H2 3497   4.826   1.041   5.842  1.9713  1.8028 -0.3604
 1186TIP3   OH2 3498   0.706   1.486   0.575 -0.5577  0.0743  0.1503
 1186TIP3    H1 3499   0.645   1.560   0.574 -0.8600 -0.1706  0.1876
 1186TIP3    H2 3500   0.726   1.469   0.483 -2.4831 -1.4115 -0.0361
 1187TIP3   OH2 3501   7.886   4.627   1.101 -0.0305  0.6379  0.2543
 1187TIP3    H1 3502   7.965   4.584   1.069 -0.0285  0.9197 -0.1221
 1187TIP3    H2 3503   7.918   4.689   1.167  0.1479  1.3785 -0.5311
 1188TIP3   OH2 3504   6.675   4.062   1.961  0.3786 -0.4797  0.0233
 1188TIP3    H1 3505   6.764   4.083   1.931 -0.3593  0.5509 -1.4900
 1188TIP3    H2 3506   6.652   3.982   1.914 -0.1078  0.1708 -0.8734
 1189TIP3   OH2 3507   5.453   3.571   1.392 -0.3356  0.0031  0.5647
 1189TIP3    H1 3508   5.495   3.596   1.311 -0.6107 -0.3939  0.2951
 1189TIP3    H2 3509   5.523   3.570   1.457 -0.2788  1.2226  0.5350
 1190TIP3   OH2 3510   4.433   0.093   6.703  0.2995 -0.9964 -0.1095
 1190TIP3    H1 3511   4.483   0.068   6.781  1.3106  1.7519  0.1489
 1190TIP3    H2 3512   4.471   0.040   6.632 -0.3982 -3.2547  1.1624
 1191TIP3   OH2 3513   7.181   3.711   1.815 -0.3153  0.6116 -0.1500
 1191TIP3    H1 3514   7.087   3.730   1.815 -0.2197  1.3080 -3.4440
 1191TIP3    H2 3515   7.217   3.770   1.881 -1.9000  1.8338 -0.3529
 1192TIP3   OH2 3516   7.273   3.513   2.000  0.4659 -0.2045 -0.5262
 1192TIP3    H1 3517   7.243   3.586   1.946  0.8367 -0.4905 -1.1159
 1192TIP3    H2 3518   7.363   3.534   2.021  0.5511 -0.4604 -0.6359
 1193TIP3   OH2 3519   6.898   5.825   1.335  0.1596 -0.0936 -0.6772
 1193TIP3    H1 3520   6.844   5.832   1.414  0.6494  4.0109 -0.5870
 1193TIP3    H2 3521   6.978   5.780   1.364 -1.4045 -2.4186  0.1402
 1194TIP3   OH2 3522   8.060   4.344   0.099 -0.0536 -0.1810 -0.0563
 1194TIP3    H1 3523   8.065   4.309   0.188  0.0614 -1.2324 -0.4776
 1194TIP3    H2 3524   8.116   4.422   0.101 -0.8821  0.4016  1.0729
 1195TIP3   OH2 3525   4.422   1.201   5.687  0.5995  0.2167 -0.3387
 1195TIP3    H1 3526   4.394   1.120   5.729  0.4165  0.9996  1.0735
 1195TIP3    H2 3527   4.341   1.247   5.665  0.7170  0.6232  0.0685
 1196TIP3   OH2 3528   1.593   4.380   0.865 -0.4639  0.1339  0.0027
 1196TIP3    H1 3529   1.666   4.343   0.914  2.0290  1.4579 -2.5676
 1196TIP3    H2 3530   1.570   4.312   0.801  0.0433  0.6125 -0.6910
 1197TIP3   OH2 3531   8.157   1.164   0.352 -0.1764  0.0749 -0.2283
 1197TIP3    H1 3532   8.091   1.232   0.340 -1.2269 -0.9937 -0.5440
 1197TIP3    H2 3533   8.111   1.082   0.336  1.2777 -0.6780 -0.6737
 1198TIP3   OH2 3534   3.561   6.884   5.502 -0.2254 -0.0201  0.7283
 1198TIP3    H1 3535   3.480   6.855   5.544 -0.2885 -2.0953 -0.7270
 1198TIP3    H2 3536   3.538   6.893   5.410  1.0558 -0.0692  0.3929
 1199TIP3   OH2 3537   6.717   5.028   1.563  0.1779  0.1221 -1.1948
 1199TIP3    H1 3538   6.812   5.023   1.575 -0.0468  0.2221  0.7531
 1199TIP3    H2 3539   6.688   4.937   1.560  0.2707  0.0921 -1.1924
 1200TIP3   OH2 3540   8.344   4.950   0.078 -0.1768  0.6859 -0.7540
 1200TIP3    H1 3541   8.434   4.939   0.109  0.5407 -2.8835 -3.7918
 1200TIP3    H2 3542   8.353   4.978  -0.013 -2.1581  1.4814 -0.7282
 1201TIP3   OH2 3543   7.516   3.586   2.110  0.5916  0.5093 -0.0937
 1201TIP3    H1 3544   7.573   3.529   2.058  0.6858  0.1361  0.4058
 1201TIP3    H2 3545   7.539   3.565   2.201 -0.5790  0.1261  0.1135
 1202TIP3   OH2 3546   0.914   3.413   1.452  0.6312 -0.1653  0.2869
 1202TIP3    H1 3547   0.837   3.465   1.427  1.3170  0.2928 -0.9671
 1202TIP3    H2 3548   0.882   3.353   1.519 -1.6001 -2.1101 -2.3673
 1203TIP3   OH2 3549   0.152   4.183   2.707 -0.0152  0.0327 -0.1009
 1203TIP3    H1 3550   0.177   4.271   2.732  1.2167 -0.1913 -0.5219
 1203TIP3    H2 3551   0.191   4.170   2.620 -2.3827  0.0165 -1.2041
 1204TIP3   OH2 3552   3.526   0.962   4.727  0.7848  0.1495  0.4389
 1204TIP3    H1 3553   3.529   0.958   4.631 -0.4232 -2.1564  0.4652
 1204TIP3    H2 3554   3.566   0.880   4.755  1.0914  0.7960  1.9194
 1205TIP3   OH2 3555   6.900   3.268   0.763 -0.3146  0.7550 -0.2733
 1205TIP3    H1 3556   6.921   3.351   0.804 -0.1745  0.1109  0.9745
 1205TIP3    H2 3557   6.969   3.256   0.697  0.9110  0.6097  1.0117
 1206TIP3   OH2 3558   4.256   2.016   1.118 -0.7416 -0.5295 -0.3866
 1206TIP3    H1 3559   4.286   1.931   1.086  1.1878 -0.1971  0.4439
 1206TIP3    H2 3560   4.223   2.061   1.040  1.4516 -0.7219 -1.4774
 1207TIP3   OH2 3561   6.555   2.696   1.204 -0.0437  0.1493 -0.3570
 1207TIP3    H1 3562   6.502   2.713   1.126 -1.3516  2.2971  0.9745
 1207TIP3    H2 3563   6.634   2.749   1.191 -1.2520  2.2634  0.7929
 1208TIP3   OH2 3564   5.942   1.103   6.815  0.4159  0.3565  0.3222
 1208TIP3    H1 3565   5.865   1.126   6.867  0.1750 -0.8801  0.5299
 1208TIP3    H2 3566   5.906   1.079   6.729  0.7125  1.2859 -0.0670
 1209TIP3   OH2 3567   5.601   3.157   1.147  0.2065  0.6210  0.4855
 1209TIP3    H1 3568   5.539   3.214   1.192 -1.3824  1.8533 -3.1235
 1209TIP3    H2 3569   5.547   3.092   1.101  1.7579 -0.6147  0.3509
 1210TIP3   OH2 3570   8.442   3.849   2.096  0.4351 -0.2898 -0.7021
 1210TIP3    H1 3571   8.496   3.800   2.158 -0.7179 -1.1136 -0.3413
 1210TIP3    H2 3572   8.505   3.898   2.043  1.4080  1.3679  1.8977
 1211TIP3   OH2 3573   2.796   2.781   6.290 -0.5172  0.2578 -0.0764
 1211TIP3    H1 3574   2.873   2.727   6.271  0.0843  0.7958  0.7825
 1211TIP3    H2 3575   2.788   2.840   6.216 -0.2939 -0.0111 -0.3146
 1212TIP3   OH2 3576   7.357   7.817   6.953 -1.0698 -0.2144 -0.9738
 1212TIP3    H1 3577   7.332   7.733   6.915 -2.2286  0.2425 -1.2677
 1212TIP3    H2 3578   7.436   7.799   7.003 -1.1335 -1.4126 -1.2951
 1213TIP3   OH2 3579   0.562   2.689   0.864  0.4390  0.4586  0.3889
 1213TIP3    H1 3580   0.476   2.709   0.827  0.2718  1.1591  1.1408
 1213TIP3    H2 3581   0.624   2.726   0.802  0.2155 -0.5177 -0.4330
 1214TIP3   OH2 3582   7.991   4.308   1.735 -0.2532  0.2833  0.7263
 1214TIP3    H1 3583   7.903   4.273   1.718  0.0660 -0.1710 -0.0305
 1214TIP3    H2 3584   7.999   4.384   1.677 -0.1737  0.3648  0.8434
 1215TIP3   OH2 3585   1.553   2.845   2.470 -0.1795  0.2891 -0.2762
 1215TIP3    H1 3586   1.639   2.806   2.487 -0.1176  0.2689 -0.6268
 1215TIP3    H2 3587   1.555   2.866   2.377 -0.3261  0.8545 -0.1538
 1216TIP3   OH2 3588   1.012   2.805   1.331  0.5801 -0.5858 -0.0075
 1216TIP3    H1 3589   1.065   2.748   1.386  2.6510  0.3427 -0.9803
 1216TIP3    H2 3590   0.960   2.857   1.393  1.0536 -1.2740  0.9713
 1217TIP3   OH2 3591   1.174   3.490   4.262  0.0094 -0.6037 -0.2547
 1217TIP3    H1 3592   1.120   3.470   4.338 -0.1849  0.3682 -0.1271
 1217TIP3    H2 3593   1.226   3.566   4.288  0.9965 -1.1513 -0.5911
 1218TIP3   OH2 3594   2.372   3.600   0.632  0.0366 -0.0184 -0.0130
 1218TIP3    H1 3595   2.308   3.588   0.703 -1.1857 -0.3395 -1.1447
 1218TIP3    H2 3596   2.448   3.638   0.675 -0.6635 -0.2512  1.4901
 1219TIP3   OH2 3597   1.208   2.001   1.176  0.4568 -0.6277  0.2497
 1219TIP3    H1 3598   1.133   2.058   1.193 -0.7955 -1.7077 -1.5487
 1219TIP3    H2 3599   1.170   1.919   1.147  2.3552 -0.7762 -1.9802
 1220TIP3   OH2 3600   7.691   5.566   0.678 -0.6185 -0.2099  0.2087
 1220TIP3    H1 3601   7.664   5.654   0.652 -3.4786 -1.2239 -0.3283
 1220TIP3    H2 3602   7.665   5.560   0.770  1.1668  0.0814  0.7645
 1221TIP3   OH2 3603   8.562   4.209   1.450  0.3804 -0.0944  0.0895
 1221TIP3    H1 3604   8.563   4.114   1.455 -0.0924 -0.1185 -0.2645
 1221TIP3    H2 3605   8.632   4.230   1.388  1.8310 -0.1041  1.6692
 1222TIP3   OH2 3606   8.502   5.499   1.098  0.7435  0.6201 -0.3153
 1222TIP3    H1 3607   8.547   5.530   1.177  0.2174  0.2525  0.1364
 1222TIP3    H2 3608   8.411   5.488   1.125  0.6942 -0.1844 -0.7825
 1223TIP3   OH2 3609   1.762   4.858   2.380  0.2017  1.1407 -0.2435
 1223TIP3    H1 3610   1.793   4.781   2.426 -0.0512  1.6132  0.7302
 1223TIP3    H2 3611   1.673   4.836   2.354  1.7282 -0.7651 -4.2793
 1224TIP3   OH2 3612   1.919   3.719   0.767  0.0836  0.5605 -0.0625
 1224TIP3    H1 3613   1.924   3.681   0.679  0.1121  0.1165  0.1308
 1224TIP3    H2 3614   1.851   3.786   0.761 -2.1251 -1.5748  0.3618
 1225TIP3   OH2 3615   1.288   3.352   2.923 -0.2669 -0.6012  0.4248
 1225TIP3    H1 3616   1.218   3.355   2.859 -0.7696 -1.3600  0.9247
 1225TIP3    H2 3617   1.290   3.260   2.951  1.2668 -0.7014  0.0279
 1226TIP3   OH2 3618   7.660   3.804   1.322  0.0329  0.3933 -0.0049
 1226TIP3    H1 3619   7.706   3.759   1.252 -0.7356  0.7490 -0.7483
 1226TIP3    H2 3620   7.675   3.897   1.304  0.0757  0.4807  0.4726
 1227TIP3   OH2 3621   1.500   3.793   1.021  0.5851 -0.2029  0.1414
 1227TIP3    H1 3622   1.419   3.840   1.040  1.4354  0.8005  1.3926
 1227TIP3    H2 3623   1.546   3.790   1.105  1.0908 -2.2309 -0.2030
 1228TIP3   OH2 3624   2.552   3.552   2.626 -0.0284  0.1444  0.1209
 1228TIP3    H1 3625   2.574   3.612   2.555 -1.7106 -0.2750 -0.7722
 1228TIP3    H2 3626   2.467   3.515   2.601 -1.0078  0.5666  2.7244
 1229TIP3   OH2 3627   2.737   3.157   1.048  0.6296 -0.1365 -0.0930
 1229TIP3    H1 3628   2.792   3.235   1.054 -2.2453  1.8068  2.2290
 1229TIP3    H2 3629   2.680   3.174   0.973  0.2639 -0.1519  0.1791
 1230TIP3   OH2 3630   2.404   4.195   2.055 -0.4357  0.5494  0.3022
 1230TIP3    H1 3631   2.402   4.140   1.977  0.2593  1.2093 -0.1950
 1230TIP3    H2 3632   2.349   4.270   2.032  0.3545  1.0932  0.1721
 1231TIP3   OH2 3633   0.422   6.239   0.530 -0.0204 -0.4075  0.4875
 1231TIP3    H1 3634   0.472   6.298   0.585  0.0322 -0.5672  0.6110
 1231TIP3    H2 3635   0.482   6.167   0.510 -0.6449 -1.3363  1.8378
 1232TIP3   OH2 3636   0.988   4.431   1.666 -0.1829 -0.3504  0.5021
 1232TIP3    H1 3637   1.003   4.499   1.600  0.2349 -2.8671 -2.0890
 1232TIP3    H2 3638   1.075   4.398   1.687 -0.4861 -1.0819  0.6400
 1233TIP3   OH2 3639   1.346   5.629   2.875 -0.1547  0.2894 -0.3413
 1233TIP3    H1 3640   1.258   5.638   2.913  0.0841  1.0660  0.0476
 1233TIP3    H2 3641   1.345   5.544   2.831 -1.3607  0.6499 -1.0359
 1234TIP3   OH2 3642   7.971   4.950   2.166  0.4205  0.7836  0.4967
 1234TIP3    H1 3643   7.996   4.885   2.102 -0.6164  0.5308  0.3444
 1234TIP3    H2 3644   8.044   5.012   2.168  1.0178  0.0867  0.0212
 1235TIP3   OH2 3645   8.416   3.454   1.211 -0.4061  0.0746 -0.0087
 1235TIP3    H1 3646   8.333   3.480   1.170 -0.7762  0.0719  0.7191
 1235TIP3    H2 3647   8.390   3.423   1.298  0.2241 -1.1650 -0.2662
 1236TIP3   OH2 3648   0.520   4.875   3.802  0.1027 -0.5472 -0.6153
 1236TIP3    H1 3649   0.525   4.886   3.707  1.4352  1.5150 -0.3441
 1236TIP3    H2 3650   0.606   4.844   3.827  0.0349 -0.2245  0.0207
 1237TIP3   OH2 3651   0.727   7.833   0.121  0.5310  0.3442 -0.1565
 1237TIP3    H1 3652   0.783   7.910   0.134  0.6186 -0.0433  2.0185
 1237TIP3    H2 3653   0.787   7.759   0.122  0.1759  0.0488  0.6516
 1238TIP3   OH2 3654   0.857   4.876   3.030  0.1073  0.2047  0.5586
 1238TIP3    H1 3655   0.860   4.818   2.954 -0.3878 -0.6663  1.1959
 1238TIP3    H2 3656   0.832   4.962   2.994  0.5793 -0.0404 -0.3491
 1239TIP3   OH2 3657   0.328   3.611   2.171 -0.1663  1.0488 -0.0606
 1239TIP3    H1 3658   0.392   3.581   2.106 -0.7048 -1.9355  0.7237
 1239TIP3    H2 3659   0.381   3.642   2.244  0.4053 -0.5839  0.2295
 1240TIP3   OH2 3660   0.365   5.179   1.811 -0.3803  0.4421  0.0378
 1240TIP3    H1 3661   0.409   5.097   1.789  0.4769  1.2810 -1.4956
 1240TIP3    H2 3662   0.411   5.211   1.889  0.6428  0.4769 -0.5715
 1241TIP3   OH2 3663   8.235   3.431   1.774 -0.1118 -0.4218  0.0499
 1241TIP3    H1 3664   8.272   3.513   1.807  0.4304 -0.3127 -0.8385
 1241TIP3    H2 3665   8.148   3.427   1.815  0.8070 -0.6354  2.0507
 1242TIP3   OH2 3666   6.427   2.819   2.564 -0.4067  0.1440  0.0165
 1242TIP3    H1 3667   6.345   2.831   2.612 -0.1160 -0.9874  0.8079
 1242TIP3    H2 3668   6.409   2.748   2.503 -0.2463  0.4071 -0.3360
 1243TIP3   OH2 3669   7.227   3.876   2.605  0.2155  0.2061 -0.2521
 1243TIP3    H1 3670   7.212   3.815   2.533 -1.2816 -0.0825  0.2985
 1243TIP3    H2 3671   7.308   3.845   2.647 -0.9010 -1.8179  0.4499
 1244TIP3   OH2 3672   0.038   3.329   2.961 -0.2299 -0.2218  0.1725
 1244TIP3    H1 3673  -0.032   3.332   3.025  0.5251 -2.7675  1.1701
 1244TIP3    H2 3674   0.080   3.244   2.975 -0.0163 -0.8383 -3.6325
 1245TIP3   OH2 3675   1.910   4.884   3.159 -0.1596  0.0978  0.0827
 1245TIP3    H1 3676   1.879   4.913   3.245  0.2676  0.4490  0.1205
 1245TIP3    H2 3677   1.994   4.841   3.177  1.1112  2.3081 -0.4353
 1246TIP3   OH2 3678   0.985   4.342   2.340  0.4173  0.5008 -0.3654
 1246TIP3    H1 3679   0.927   4.403   2.295 -1.4955  0.1772  1.5679
 1246TIP3    H2 3680   1.016   4.390   2.416 -0.5467 -0.6612  0.7901
 1247TIP3   OH2 3681   0.542   3.711   3.531 -0.5128  0.3012 -0.3880
 1247TIP3    H1 3682   0.488   3.649   3.580 -0.1059 -1.0089 -1.5654
 1247TIP3    H2 3683   0.480   3.775   3.496 -1.3157 -1.1316 -1.6381
 1248TIP3   OH2 3684   7.431   5.930   3.694 -0.2083 -0.2904 -0.2034
 1248TIP3    H1 3685   7.496   5.987   3.736  1.5300 -2.1102 -0.3390
 1248TIP3    H2 3686   7.410   5.865   3.761 -0.1795 -1.0458 -0.9150
 1249TIP3   OH2 3687   1.117   4.616   2.776 -0.2828 -0.4480 -0.2572
 1249TIP3    H1 3688   1.101   4.524   2.794 -0.6732 -0.3009  0.1806
 1249TIP3    H2 3689   1.174   4.645   2.848 -2.8569  0.4508  1.4959
 1250TIP3   OH2 3690   4.477   3.574   1.071  0.7535 -0.0349 -0.1187
 1250TIP3    H1 3691   4.503   3.570   1.163  1.8519 -2.6242 -0.5289
 1250TIP3    H2 3692   4.559   3.583   1.022  0.0983  2.8441 -0.8211
 1251TIP3   OH2 3693   1.413   4.239   1.968 -0.0577  0.0099 -0.0799
 1251TIP3    H1 3694   1.431   4.245   1.874  0.4208  1.3116  0.0881
 1251TIP3    H2 3695   1.318   4.235   1.974 -0.0535 -1.2179 -0.6732
 1252TIP3   OH2 3696   0.669   4.867   2.455 -0.0666 -1.0334 -0.1434
 1252TIP3    H1 3697   0.644   4.935   2.518 -0.5648 -0.7931 -0.5971
 1252TIP3    H2 3698   0.605   4.875   2.384 -0.0509 -1.8951 -0.2613
 1253TIP3   OH2 3699   3.581   3.746   1.125 -0.1556 -0.9128  0.6378
 1253TIP3    H1 3700   3.504   3.779   1.171  0.8644  2.7875 -0.1916
 1253TIP3    H2 3701   3.639   3.717   1.195 -0.8098 -0.3439  1.4262
 1254TIP3   OH2 3702   2.983   2.277   3.301 -0.9368  0.1563 -0.5512
 1254TIP3    H1 3703   2.946   2.365   3.293 -0.7513  0.0810 -2.6593
 1254TIP3    H2 3704   3.075   2.292   3.322 -1.6794  0.3714  2.8059
 1255TIP3   OH2 3705   0.196   1.833   0.097  0.1047  0.0887 -0.7152
 1255TIP3    H1 3706   0.186   1.762   0.161 -1.6149  0.0497 -1.0046
 1255TIP3    H2 3707   0.223   1.909   0.148  2.2228 -0.8238 -0.4364
 1256TIP3   OH2 3708   2.420   5.189   2.523 -0.4015 -0.0622  0.2676
 1256TIP3    H1 3709   2.401   5.133   2.447  0.6672 -0.4802  0.3039
 1256TIP3    H2 3710   2.482   5.138   2.576  1.7338  1.7509 -0.4211
 1257TIP3   OH2 3711   7.802   6.664   2.170  0.0467 -0.2569 -0.2906
 1257TIP3    H1 3712   7.796   6.756   2.193 -0.5283 -1.0412  2.9489
 1257TIP3    H2 3713   7.729   6.649   2.110  0.2228  1.3903 -0.9367
 1258TIP3   OH2 3714   1.183   4.239   1.240 -0.2686  0.0838  0.7410
 1258TIP3    H1 3715   1.244   4.166   1.253  0.3731  0.3013 -0.8368
 1258TIP3    H2 3716   1.229   4.298   1.179 -1.9453  0.3696 -0.2892
 1259TIP3   OH2 3717   4.162   3.138   2.098 -0.1733  0.2948 -0.1508
 1259TIP3    H1 3718   4.149   3.106   2.009  0.6958 -1.3870  0.3094
 1259TIP3    H2 3719   4.252   3.171   2.100 -0.1865  0.3243  0.1053
 1260TIP3   OH2 3720   8.536   5.211   1.355 -0.3624 -0.3124 -0.2323
 1260TIP3    H1 3721   8.585   5.284   1.318  0.3184 -0.5697  0.1450
 1260TIP3    H2 3722   8.452   5.249   1.381 -0.1971  0.2264 -0.4758
 1261TIP3   OH2 3723   0.877   3.945   1.521 -0.0821 -0.0956 -0.1903
 1261TIP3    H1 3724   0.880   3.861   1.476  4.1679 -0.4983  0.6529
 1261TIP3    H2 3725   0.959   3.988   1.497 -0.4653  2.2084  2.4110
 1262TIP3   OH2 3726   8.574   5.138   1.849  0.1786  0.3708  0.5420
 1262TIP3    H1 3727   8.526   5.091   1.780  1.9849 -0.9913  0.1907
 1262TIP3    H2 3728   8.511   5.143   1.921 -0.9798 -0.1497 -0.3987
 1263TIP3   OH2 3729   1.174   4.179   2.245 -0.3632 -0.2853  0.0590
 1263TIP3    H1 3730   1.168   4.098   2.296 -0.4082  1.0326  2.2299
 1263TIP3    H2 3731   1.094   4.226   2.268 -0.2483  0.4558 -1.0514
 1264TIP3   OH2 3732   6.793   3.284   6.797 -0.3495 -0.2124  0.6167
 1264TIP3    H1 3733   6.753   3.323   6.874 -0.5944 -0.3881  0.5799
 1264TIP3    H2 3734   6.763   3.339   6.724 -0.5427 -0.3560  0.5867
 1265TIP3   OH2 3735   8.261   6.146   1.955  0.5230 -0.2859 -0.0649
 1265TIP3    H1 3736   8.186   6.199   1.984 -0.1307 -0.8802 -0.6492
 1265TIP3    H2 3737   8.274   6.170   1.864 -0.2087 -1.6262 -0.5317
 1266TIP3   OH2 3738   2.932   3.399   0.804 -0.3619  0.3390  0.1584
 1266TIP3    H1 3739   3.024   3.419   0.819 -0.7197  0.5432  2.3197
 1266TIP3    H2 3740   2.887   3.482   0.823 -1.0758 -0.0656  0.2391
 1267TIP3   OH2 3741   3.427   3.572   1.370  0.1477  0.4766  0.0641
 1267TIP3    H1 3742   3.377   3.632   1.315 -2.2358 -0.4176  1.1826
 1267TIP3    H2 3743   3.384   3.576   1.455  0.8553 -1.7191  0.5547
 1268TIP3   OH2 3744   2.838   3.454   1.159  0.1804 -0.2461 -0.5803
 1268TIP3    H1 3745   2.773   3.522   1.175  1.0357  1.1171 -2.7987
 1268TIP3    H2 3746   2.833   3.398   1.237 -0.4100  2.4289  1.3678
 1269TIP3   OH2 3747   3.505   3.764   1.729  0.4060 -0.4211  0.2477
 1269TIP3    H1 3748   3.541   3.796   1.646  0.3324 -1.3388 -0.1505
 1269TIP3    H2 3749   3.458   3.838   1.766  0.6067  0.0519 -0.4376
 1270TIP3   OH2 3750   2.376   5.142   1.470  0.2215  0.0752 -0.1747
 1270TIP3    H1 3751   2.377   5.079   1.542  1.1677  0.4164  0.1094
 1270TIP3    H2 3752   2.344   5.092   1.395 -3.4741  0.3906  1.0777
 1271TIP3   OH2 3753   1.805   6.001   0.301 -0.5930 -0.5530  0.0029
 1271TIP3    H1 3754   1.839   6.086   0.276  0.7096 -1.1766 -0.3770
 1271TIP3    H2 3755   1.728   6.020   0.355 -0.9233  0.8353 -0.9539
 1272TIP3   OH2 3756   6.564   0.384   6.966  0.4244  0.3193 -0.4497
 1272TIP3    H1 3757   6.495   0.418   6.909 -0.1992 -0.6816 -0.3084
 1272TIP3    H2 3758   6.523   0.378   7.052  1.4640  2.1533  0.2061
 1273TIP3   OH2 3759   2.646   4.849   1.965  0.3933 -0.1910 -0.2644
 1273TIP3    H1 3760   2.624   4.941   1.980 -0.5094 -0.1393 -1.8068
 1273TIP3    H2 3761   2.672   4.846   1.873  2.3494 -1.1219  0.3067
 1274TIP3   OH2 3762   8.440   5.755   1.776 -0.3124  0.2876 -0.2512
 1274TIP3    H1 3763   8.412   5.713   1.695  2.8201 -0.7106 -0.8851
 1274TIP3    H2 3764   8.359   5.780   1.820 -2.1989 -3.0041 -1.6707
 1275TIP3   OH2 3765   2.036   4.550   1.730 -0.6665 -0.1184  0.4021
 1275TIP3    H1 3766   2.094   4.608   1.680 -0.0755 -1.5481 -0.5737
 1275TIP3    H2 3767   1.949   4.592   1.723 -0.9405 -1.1525 -3.2308
 1276TIP3   OH2 3768   2.792   5.963   1.242  0.2941 -0.2693 -0.4637
 1276TIP3    H1 3769   2.749   5.963   1.327  0.3746 -1.2275 -0.4164
 1276TIP3    H2 3770   2.868   5.906   1.253 -0.8045 -2.0293 -1.7094
 1277TIP3   OH2 3771   2.289   3.654   0.913 -0.3843  0.3633  0.0333
 1277TIP3    H1 3772   2.262   3.731   0.862 -1.3940 -0.1795 -0.2768
 1277TIP3    H2 3773   2.215   3.594   0.906 -0.0905 -0.1564  1.2713
 1278TIP3   OH2 3774   1.583   7.319   1.005 -0.1382  0.5195  0.1030
 1278TIP3    H1 3775   1.633   7.301   1.085 -1.6231  2.7729  1.6090
 1278TIP3    H2 3776   1.517   7.250   1.002 -0.4810  0.7926  1.1986
 1279TIP3   OH2 3777   3.458   6.273   1.404  0.1376  0.9388  0.1959
 1279TIP3    H1 3778   3.405   6.293   1.481 -1.1122  1.5773 -0.7905
 1279TIP3    H2 3779   3.497   6.357   1.379  2.5555  0.2524  1.5759
 1280TIP3   OH2 3780   4.239   4.826   0.213 -0.6646  0.3249 -0.4093
 1280TIP3    H1 3781   4.194   4.757   0.164 -0.1435 -2.1292  2.4285
 1280TIP3    H2 3782   4.227   4.802   0.305  0.6849  3.3072  0.6049
 1281TIP3   OH2 3783   2.008   4.092   2.083  0.0432  0.3059 -0.1151
 1281TIP3    H1 3784   1.963   4.157   2.029 -0.0913 -0.1231 -0.5287
 1281TIP3    H2 3785   1.946   4.072   2.153  0.2454  0.9154  0.2397
 1282TIP3   OH2 3786   3.362   6.954   0.023  0.1387 -0.3226 -0.5682
 1282TIP3    H1 3787   3.430   6.997   0.076 -0.3238 -1.4332  0.9630
 1282TIP3    H2 3788   3.409   6.919  -0.052  1.3799 -1.5702  0.7558
 1283TIP3   OH2 3789   0.740   5.621  -0.010 -0.5157 -0.2137 -0.4167
 1283TIP3    H1 3790   0.774   5.638   0.078 -0.9288 -0.8068 -0.1352
 1283TIP3    H2 3791   0.719   5.708  -0.045  2.7572  0.3208 -1.2347
 1284TIP3   OH2 3792   2.321   4.307   0.494  0.0239 -0.0510 -0.0893
 1284TIP3    H1 3793   2.235   4.339   0.522  0.4991  2.0499 -0.9795
 1284TIP3    H2 3794   2.369   4.293   0.575 -0.8408 -0.3272  0.3808
 1285TIP3   OH2 3795   0.833   5.760   0.246  0.3847 -0.1264  0.4960
 1285TIP3    H1 3796   0.765   5.744   0.311 -0.3633 -0.1824 -0.2949
 1285TIP3    H2 3797   0.834   5.855   0.236  0.8732 -0.0780  0.9788
 1286TIP3   OH2 3798   3.170   0.715   1.265 -0.8766 -0.5527 -0.1932
 1286TIP3    H1 3799   3.088   0.712   1.315 -0.5817 -0.0089  0.3364
 1286TIP3    H2 3800   3.149   0.766   1.187 -1.1867 -0.8939 -0.3315
 1287TIP3   OH2 3801   0.873   4.367   0.641 -0.0201 -0.2780 -0.5042
 1287TIP3    H1 3802   0.951   4.358   0.696  0.1693  2.2115 -0.3013
 1287TIP3    H2 3803   0.907   4.392   0.555 -0.4159 -2.5778 -1.3563
 1288TIP3   OH2 3804   5.379   7.950   6.453 -0.4659 -0.0207  0.4795
 1288TIP3    H1 3805   5.420   7.880   6.504 -0.5606 -0.0517  0.5136
 1288TIP3    H2 3806   5.443   8.021   6.454 -0.5941  0.0925  0.9041
 1289TIP3   OH2 3807   7.488   2.856   6.489 -0.0119  0.5168 -0.3455
 1289TIP3    H1 3808   7.487   2.951   6.498  0.3257  0.3886  1.4348
 1289TIP3    H2 3809   7.482   2.824   6.580  0.9256 -1.1314 -0.8392
 1290TIP3   OH2 3810   0.034   3.101   0.444 -0.1695 -0.1238  0.0698
 1290TIP3    H1 3811   0.063   3.039   0.510  0.7246  0.2391  0.0282
 1290TIP3    H2 3812  -0.038   3.148   0.484  1.1761  0.9706  1.2692
 1291TIP3   OH2 3813   2.410   6.411   0.627  0.0376 -0.8050  0.0455
 1291TIP3    H1 3814   2.485   6.355   0.648  0.5724 -0.7262 -1.6161
 1291TIP3    H2 3815   2.425   6.440   0.537 -0.5081  1.6075  0.6972
 1292TIP3   OH2 3816   2.235   3.047   3.001  0.0138 -0.3940  0.3668
 1292TIP3    H1 3817   2.190   3.126   3.031  2.4555  0.8793  0.8200
 1292TIP3    H2 3818   2.253   2.998   3.081  2.5328  0.8278  0.5897
 1293TIP3   OH2 3819   2.289   4.150   1.337  0.4693 -0.2585  0.5585
 1293TIP3    H1 3820   2.375   4.186   1.358  1.1888 -0.2179 -2.3081
 1293TIP3    H2 3821   2.300   4.055   1.348  0.2266 -0.0951  2.3533
 1294TIP3   OH2 3822   6.831   3.583   2.428 -0.9140 -0.2591  1.2563
 1294TIP3    H1 3823   6.762   3.546   2.374 -0.0255  0.3695 -0.3561
 1294TIP3    H2 3824   6.811   3.677   2.432  0.6323  0.1689 -0.4550
 1295TIP3   OH2 3825   3.612   5.250   1.187  0.2226 -0.4409  0.4585
 1295TIP3    H1 3826   3.626   5.227   1.279  0.2946 -1.7941  0.1290
 1295TIP3    H2 3827   3.565   5.175   1.151  0.5239 -0.0878 -0.6890
 1296TIP3   OH2 3828   0.364   5.367   1.590  0.0543  0.3578 -0.2392
 1296TIP3    H1 3829   0.384   5.324   1.506 -0.6238 -0.3608 -0.0426
 1296TIP3    H2 3830   0.355   5.294   1.652 -0.4505  0.8286  0.2407
 1297TIP3   OH2 3831   7.979   4.244   0.939 -0.0495 -0.0383 -0.2634
 1297TIP3    H1 3832   8.029   4.176   0.984  0.0558  0.0902 -0.1870
 1297TIP3    H2 3833   8.033   4.323   0.947  1.3696 -0.6506 -3.1125
 1298TIP3   OH2 3834   3.419   3.937   0.810 -0.0142  0.2341  0.4137
 1298TIP3    H1 3835   3.475   3.860   0.819 -1.5843 -1.0560 -0.3481
 1298TIP3    H2 3836   3.463   3.992   0.745  1.2302  0.0788  1.1219
 1299TIP3   OH2 3837   8.267   3.984   0.711 -0.1389 -0.7882 -0.4793
 1299TIP3    H1 3838   8.282   3.913   0.649 -0.0087  0.3049 -1.7273
 1299TIP3    H2 3839   8.354   4.021   0.726  0.0455 -1.9533  1.4939
 1300TIP3   OH2 3840   8.420   0.447   6.492  0.3482 -0.3159  0.5749
 1300TIP3    H1 3841   8.352   0.401   6.541  1.4797 -0.4248  2.1084
 1300TIP3    H2 3842   8.445   0.520   6.550  1.6230 -0.3647  0.1116
 1301TIP3   OH2 3843   1.046   4.178   0.968  0.0855  0.0055  0.2328
 1301TIP3    H1 3844   0.990   4.103   0.951  0.5644 -0.3034 -0.0244
 1301TIP3    H2 3845   1.007   4.222   1.043  0.5954 -1.2940  1.2661
 1302TIP3   OH2 3846   2.536   5.643   2.767 -0.4940 -0.2167 -0.2950
 1302TIP3    H1 3847   2.594   5.652   2.842  0.9444  1.6183 -1.5957
 1302TIP3    H2 3848   2.551   5.553   2.736  1.4021  0.1143 -0.3901
 1303TIP3   OH2 3849   2.091   6.092   1.145  0.3735 -0.1843 -0.4617
 1303TIP3    H1 3850   2.125   6.162   1.201 -0.2187 -0.7005  0.5437
 1303TIP3    H2 3851   2.063   6.137   1.065  0.9303  0.5924 -0.2271
 1304TIP3   OH2 3852   3.074   4.100   1.663  0.3986  0.2008 -0.1375
 1304TIP3    H1 3853   3.063   4.004   1.665  2.3445 -0.0272  1.1378
 1304TIP3    H2 3854   3.067   4.126   1.755  0.5357  1.2138 -0.4069
 1305TIP3   OH2 3855   1.860   3.704   2.955  0.1307 -0.1559  0.1986
 1305TIP3    H1 3856   1.855   3.631   3.017  0.1989  0.3485  0.8062
 1305TIP3    H2 3857   1.901   3.667   2.877  0.2901 -0.7314  0.5552
 1306TIP3   OH2 3858   2.710   5.132   2.684  0.0261  0.8464  0.1269
 1306TIP3    H1 3859   2.716   5.051   2.735  1.7618  2.1323  2.0343
 1306TIP3    H2 3860   2.752   5.111   2.601 -0.4416 -0.4972  0.2167
 1307TIP3   OH2 3861   1.982   3.857   0.136 -0.0077  0.9018  0.0945
 1307TIP3    H1 3862   1.970   3.888   0.046  0.2843 -1.6503 -0.8599
 1307TIP3    H2 3863   2.077   3.855   0.148 -0.0188 -0.0667 -0.0006
 1308TIP3   OH2 3864   1.892   6.599   0.426  0.4450  0.5524  0.3238
 1308TIP3    H1 3865   1.855   6.611   0.513  1.7158  1.5629  0.7385
 1308TIP3    H2 3866   1.978   6.559   0.442  0.2561 -0.2176 -0.5260
 1309TIP3   OH2 3867   1.712   4.329   1.166  0.1792  0.1912 -0.3874
 1309TIP3    H1 3868   1.715   4.424   1.158  0.7077  0.2761  0.8358
 1309TIP3    H2 3869   1.803   4.301   1.152  0.2987 -0.0106  0.7591
 1310TIP3   OH2 3870   0.936   5.199   0.957 -0.0683  0.3496  0.0327
 1310TIP3    H1 3871   0.869   5.153   1.006 -0.3654  1.9506  1.1602
 1310TIP3    H2 3872   0.918   5.177   0.865 -0.2188 -1.7124  0.5278
 1311TIP3   OH2 3873   4.078   4.885   3.772 -0.2328 -0.4606  0.1378
 1311TIP3    H1 3874   4.007   4.855   3.714  0.9703  0.7129 -1.9848
 1311TIP3    H2 3875   4.078   4.980   3.762  0.9089 -0.3702  0.9879
 1312TIP3   OH2 3876   2.063   2.753   1.913 -0.3403  0.3332 -0.4596
 1312TIP3    H1 3877   2.124   2.714   1.851  0.5253  1.6645 -0.4629
 1312TIP3    H2 3878   2.065   2.694   1.989  0.0593 -0.2566 -0.9262
 1313TIP3   OH2 3879   0.952   3.683   0.358 -0.8696  0.6561  0.1231
 1313TIP3    H1 3880   1.037   3.682   0.313 -1.0449  1.4046 -0.2321
 1313TIP3    H2 3881   0.905   3.608   0.323 -0.0845 -0.1817  0.8444
 1314TIP3   OH2 3882   1.470   5.451   0.025 -0.1294 -0.2556 -0.0194
 1314TIP3    H1 3883   1.457   5.364  -0.011  0.6883 -0.4068  0.0498
 1314TIP3    H2 3884   1.556   5.478  -0.006 -0.2390  0.4021  0.2248
 1315TIP3   OH2 3885   0.501   4.953   1.697  0.3630  0.2512  0.7313
 1315TIP3    H1 3886   0.539   4.868   1.720  1.3353  0.2545 -0.7961
 1315TIP3    H2 3887   0.443   4.935   1.623  2.2326  1.2217 -1.0232
 1316TIP3   OH2 3888  -0.025   2.506   2.026  0.5078 -0.0906 -0.6124
 1316TIP3    H1 3889  -0.017   2.578   1.964  0.8478  0.3976 -0.0149
 1316TIP3    H2 3890   0.063   2.468   2.030 -0.2764 -2.2456 -2.9314
 1317TIP3   OH2 3891   8.370   3.178   1.714  0.5785  0.0767 -0.2722
 1317TIP3    H1 3892   8.298   3.240   1.725  0.2602 -0.4788  0.8743
 1317TIP3    H2 3893   8.330   3.101   1.673 -0.0079 -1.1654  2.5269
 1318TIP3   OH2 3894   2.341   5.867   0.730  0.4814 -0.1962 -0.5484
 1318TIP3    H1 3895   2.298   5.835   0.651 -0.0711 -2.8282  0.7306
 1318TIP3    H2 3896   2.272   5.867   0.797  1.5763 -0.7982  0.6118
 1319TIP3   OH2 3897   2.076   2.588   3.024  0.4395  0.3403 -0.3259
 1319TIP3    H1 3898   2.018   2.660   3.002  0.0784  0.2054  0.1638
 1319TIP3    H2 3899   2.135   2.580   2.949 -1.2955 -0.6794 -1.6164
 1320TIP3   OH2 3900   1.282   5.364   1.385  0.2951  0.2743 -0.3725
 1320TIP3    H1 3901   1.236   5.419   1.449 -0.6612 -1.1467  0.1808
 1320TIP3    H2 3902   1.225   5.288   1.373  1.3750 -0.3825 -1.4904
 1321TIP3   OH2 3903   0.474   6.440   0.901  0.0535 -0.5516 -0.5530
 1321TIP3    H1 3904   0.510   6.431   0.813 -3.1708 -0.6150 -1.9111
 1321TIP3    H2 3905   0.419   6.363   0.913  0.2782 -0.4321  1.4583
 1322TIP3   OH2 3906   2.772   3.562   0.228  0.0682 -0.7330  0.3230
 1322TIP3    H1 3907   2.687   3.598   0.253  0.5895  0.2913  0.6442
 1322TIP3    H2 3908   2.812   3.534   0.310 -0.8994 -3.3660 -0.0531
 1323TIP3   OH2 3909   0.846   3.016   0.972 -0.2298 -0.2060 -0.2052
 1323TIP3    H1 3910   0.752   2.998   0.973 -0.6169  1.7707 -0.2059
 1323TIP3    H2 3911   0.867   3.028   0.879 -0.0370 -0.3338 -0.1791
 1324TIP3   OH2 3912   6.335   7.128   6.939  0.0078  0.1607  0.5162
 1324TIP3    H1 3913   6.324   7.151   7.031  0.5901 -0.8738  0.8430
 1324TIP3    H2 3914   6.344   7.213   6.894 -1.2420  0.7101  1.2685
 1325TIP3   OH2 3915   1.420   4.435   2.691  0.3903  0.2932  0.2713
 1325TIP3    H1 3916   1.394   4.508   2.747 -2.8587 -1.6855  1.5040
 1325TIP3    H2 3917   1.422   4.359   2.748 -2.9325 -1.7720 -2.1552
 1326TIP3   OH2 3918   1.471   0.392   5.771 -0.0772 -0.8604 -0.3660
 1326TIP3    H1 3919   1.469   0.332   5.845  0.6715 -1.3465 -0.7303
 1326TIP3    H2 3920   1.476   0.335   5.694  1.3816 -0.3270 -0.6748
 1327TIP3   OH2 3921   7.426   3.874   1.131  0.0339 -0.1424 -0.4385
 1327TIP3    H1 3922   7.483   3.847   1.059  0.0996 -2.0804  0.3018
 1327TIP3    H2 3923   7.478   3.938   1.180  0.9868 -0.7340 -0.6573
 1328TIP3   OH2 3924   0.407   2.186   1.240 -0.4014 -0.3584  0.5277
 1328TIP3    H1 3925   0.465   2.236   1.298  0.3602  0.3048 -0.7852
 1328TIP3    H2 3926   0.355   2.252   1.194 -1.6382 -0.9214  1.1049
 1329TIP3   OH2 3927   3.512   6.134   6.942  0.1084 -0.0176  0.1318
 1329TIP3    H1 3928   3.435   6.093   6.902 -0.4886  0.5935  0.6354
 1329TIP3    H2 3929   3.585   6.106   6.887 -0.3149 -1.5439  0.3254
 1330TIP3   OH2 3930   0.900   4.405   3.363  0.1930  0.0646  0.4172
 1330TIP3    H1 3931   0.939   4.491   3.350  1.0517 -0.2706  0.7161
 1330TIP3    H2 3932   0.836   4.418   3.433  0.1110  0.5284  0.2535
 1331TIP3   OH2 3933   1.998   3.533   1.839  0.3652 -0.4454  0.3211
 1331TIP3    H1 3934   1.994   3.534   1.744 -1.9963  0.8739  0.3971
 1331TIP3    H2 3935   1.930   3.470   1.866  0.8525 -0.6341  1.1565
 1332TIP3   OH2 3936   0.795   5.138   2.698 -0.1991  0.1167  0.2020
 1332TIP3    H1 3937   0.772   5.196   2.626 -0.0439  0.3999  0.3780
 1332TIP3    H2 3938   0.768   5.186   2.777  1.3432  0.6355  0.4359
 1333TIP3   OH2 3939   2.985   6.386   1.070 -0.4112  0.4944 -0.0739
 1333TIP3    H1 3940   2.953   6.474   1.089 -0.9389  0.9612 -2.9129
 1333TIP3    H2 3941   3.049   6.398   1.001  1.3816 -1.1165  1.2568
 1334TIP3   OH2 3942   4.078   4.559   1.036  0.4502 -0.6930 -0.1711
 1334TIP3    H1 3943   4.169   4.543   1.015  0.9465 -0.2447  1.5401
 1334TIP3    H2 3944   4.041   4.472   1.053  0.5977 -0.8561 -0.6768
 1335TIP3   OH2 3945   1.738   5.268   1.142  0.1794 -0.1166  0.1296
 1335TIP3    H1 3946   1.664   5.209   1.152 -0.4412  0.7512  0.8452
 1335TIP3    H2 3947   1.721   5.337   1.207  3.3183 -1.6450  2.7150
 1336TIP3   OH2 3948   1.973   4.250   1.153 -0.5689 -0.0889  0.4950
 1336TIP3    H1 3949   1.991   4.240   1.247 -1.2823  0.8188  0.7337
 1336TIP3    H2 3950   2.046   4.303   1.121  0.0874 -1.0500  0.3787
 1337TIP3   OH2 3951   0.651   5.030   1.464  0.0717  0.4434 -0.2650
 1337TIP3    H1 3952   0.673   5.065   1.550  0.7948 -0.1611 -0.1925
 1337TIP3    H2 3953   0.558   5.046   1.454  0.1872  1.4766  0.1853
 1338TIP3   OH2 3954   0.448   4.878   2.277  0.1724 -0.1777 -0.2915
 1338TIP3    H1 3955   0.414   4.801   2.231 -1.0072  0.2994 -0.2220
 1338TIP3    H2 3956   0.422   4.952   2.223  1.7169  0.1658 -0.6012
 1339TIP3   OH2 3957   2.650   2.184   1.522  0.4868 -0.1091  0.0650
 1339TIP3    H1 3958   2.622   2.096   1.551 -1.2842 -0.0349 -1.3215
 1339TIP3    H2 3959   2.746   2.179   1.521  0.4039 -2.8031 -2.2282
 1340TIP3   OH2 3960   7.982   4.235   0.658  0.3726 -0.4802  0.2020
 1340TIP3    H1 3961   8.075   4.228   0.679  0.2788  0.5224  1.0053
 1340TIP3    H2 3962   7.939   4.170   0.714  0.5110 -0.3708  0.4360
 1341TIP3   OH2 3963   1.441   3.669   2.590 -0.8243 -0.4188 -0.4272
 1341TIP3    H1 3964   1.535   3.658   2.584 -0.8606 -0.3031 -1.1877
 1341TIP3    H2 3965   1.421   3.656   2.683  0.1086  0.9292 -0.0394
 1342TIP3   OH2 3966   1.334   2.221   0.539 -0.5793 -0.3981 -0.1025
 1342TIP3    H1 3967   1.377   2.201   0.622 -0.9590 -0.6936  0.0252
 1342TIP3    H2 3968   1.250   2.175   0.544 -0.6100 -0.4019 -0.6405
 1343TIP3   OH2 3969   1.403   3.422   3.168  0.0484 -0.1295 -0.0262
 1343TIP3    H1 3970   1.452   3.505   3.172  0.3049 -0.2491 -0.5583
 1343TIP3    H2 3971   1.373   3.418   3.077  0.1354 -0.6829 -0.0276
 1344TIP3   OH2 3972   0.623   2.362   2.747  0.2126  0.1887 -0.4728
 1344TIP3    H1 3973   0.713   2.395   2.750  0.2343  0.1491 -0.6596
 1344TIP3    H2 3974   0.623   2.286   2.804  0.6668 -0.6964 -1.6237
 1345TIP3   OH2 3975   1.778   2.228   1.214 -0.3579 -0.0924 -0.0702
 1345TIP3    H1 3976   1.863   2.250   1.175 -0.3167  1.5957  0.9437
 1345TIP3    H2 3977   1.717   2.228   1.140  0.4413 -0.8972 -0.7368
 1346TIP3   OH2 3978   1.041   4.855   1.616 -0.0498 -0.5473 -0.2059
 1346TIP3    H1 3979   0.965   4.802   1.591  0.7945 -2.1401  0.5419
 1346TIP3    H2 3980   1.063   4.904   1.537 -1.2680 -0.7922 -0.7119
 1347TIP3   OH2 3981   2.244   1.750   0.353  0.3332  0.5342  0.0131
 1347TIP3    H1 3982   2.307   1.768   0.423  0.6912 -0.1787 -0.1212
 1347TIP3    H2 3983   2.170   1.708   0.397  0.4422  0.3313  0.0014
 1348TIP3   OH2 3984   3.811   6.621   6.989  0.0423 -0.1360 -0.5599
 1348TIP3    H1 3985   3.734   6.673   7.014 -0.5858 -1.8553  1.2709
 1348TIP3    H2 3986   3.799   6.604   6.896 -2.5734 -1.4888 -0.0598
 1349TIP3   OH2 3987   8.580   5.323   0.480 -0.0025  0.0294 -0.3468
 1349TIP3    H1 3988   8.546   5.236   0.456  0.2209 -0.4255  0.9465
 1349TIP3    H2 3989   8.519   5.356   0.545  0.4243  0.4552 -0.1582
 1350TIP3   OH2 3990   5.517   6.798   6.860  0.3796 -0.2023 -0.0706
 1350TIP3    H1 3991   5.555   6.729   6.805  1.6001  0.9284 -0.6798
 1350TIP3    H2 3992   5.586   6.865   6.865 -0.1740  0.2558  1.8384
 1351TIP3   OH2 3993   7.810   5.860   2.968 -0.1240 -0.3855  0.2736
 1351TIP3    H1 3994   7.744   5.871   3.037  0.5502 -2.1197  1.2132
 1351TIP3    H2 3995   7.884   5.912   2.998 -0.8572  1.1987 -0.5652
 1352TIP3   OH2 3996   8.481   4.170   2.927  0.0328 -0.2736  0.2774
 1352TIP3    H1 3997   8.397   4.159   2.973 -0.5965 -0.1884 -0.8259
 1352TIP3    H2 3998   8.474   4.256   2.884  0.3012 -0.6732 -0.5896
 1353TIP3   OH2 3999   4.295   7.178   2.424 -0.4866  0.2427 -0.3977
 1353TIP3    H1 4000   4.223   7.141   2.373 -1.4541  1.9013 -0.2706
 1353TIP3    H2 4001   4.361   7.202   2.359 -0.5228 -0.2241 -0.6110
 1354TIP3   OH2 4002   0.646   3.777   2.814  0.2277 -0.4299 -0.0477
 1354TIP3    H1 4003   0.574   3.778   2.750 -1.7666 -1.0035  2.1362
 1354TIP3    H2 4004   0.615   3.721   2.885  1.1071  2.6689  2.8942
 1355TIP3   OH2 4005   0.601   5.827   2.300 -0.4782 -0.4567 -0.3409
 1355TIP3    H1 4006   0.660   5.752   2.297  2.0431  1.4102  0.6532
 1355TIP3    H2 4007   0.612   5.869   2.214  1.3239  1.0636  0.5826
 1356TIP3   OH2 4008   0.308   6.251   0.263  0.4421  0.2869 -0.0996
 1356TIP3    H1 4009   0.335   6.215   0.347  1.1489 -0.6671 -0.7256
 1356TIP3    H2 4010   0.223   6.209   0.246  0.5838  0.0188 -0.1470
 1357TIP3   OH2 4011   1.495   3.865   0.266  0.0947  0.0810 -0.5305
 1357TIP3    H1 4012   1.548   3.913   0.329 -0.0287 -0.5742  0.0674
 1357TIP3    H2 4013   1.420   3.834   0.316  0.8083 -1.8366 -0.6182
 1358TIP3   OH2 4014   1.356   5.141   0.872 -0.3194 -0.1913 -0.1377
 1358TIP3    H1 4015   1.393   5.067   0.824  0.4361 -1.1871  1.9183
 1358TIP3    H2 4016   1.292   5.179   0.812 -0.7422 -2.5410 -1.2155
 1359TIP3   OH2 4017   1.073   4.663   1.187 -0.1090 -0.5461 -0.3126
 1359TIP3    H1 4018   0.990   4.651   1.141 -0.4689  0.2591  0.1124
 1359TIP3    H2 4019   1.134   4.694   1.120 -0.6756  0.7842 -0.2224
 1360TIP3   OH2 4020   3.360   3.843   1.227 -0.0519 -0.3169  0.4685
 1360TIP3    H1 4021   3.317   3.911   1.175 -1.0194 -0.1680  1.4298
 1360TIP3    H2 4022   3.331   3.860   1.316  2.6189  0.2207  1.2793
 1361TIP3   OH2 4023   2.441   4.521   4.252 -0.3676  0.2054  0.2306
 1361TIP3    H1 4024   2.389   4.597   4.225  0.1011  0.2126 -0.6807
 1361TIP3    H2 4025   2.501   4.555   4.319  0.7664  0.9626 -1.1308
 1362TIP3   OH2 4026   1.552   3.333   1.939 -0.3929 -0.3606  0.1636
 1362TIP3    H1 4027   1.582   3.248   1.907 -1.3716 -1.7295  2.7405
 1362TIP3    H2 4028   1.632   3.380   1.961  0.1858 -0.2724 -2.0150
 1363TIP3   OH2 4029   0.811   4.248   2.034  0.3305 -0.5974 -0.1998
 1363TIP3    H1 4030   0.868   4.326   2.032 -0.3340 -0.0974  0.2129
 1363TIP3    H2 4031   0.749   4.262   1.963  0.2385 -0.7743 -0.1540
 1364TIP3   OH2 4032   4.635   3.857   1.117 -0.0931 -0.4689 -0.1005
 1364TIP3    H1 4033   4.720   3.818   1.140  0.3915 -0.1319 -1.2927
 1364TIP3    H2 4034   4.581   3.844   1.195  0.9263 -1.0589  0.5193
 1365TIP3   OH2 4035   1.283   7.403   1.543 -0.0824 -0.0842  0.1367
 1365TIP3    H1 4036   1.273   7.308   1.539 -0.8586 -0.0640  1.2818
 1365TIP3    H2 4037   1.375   7.417   1.567  0.8555 -0.4469 -2.9799
 1366TIP3   OH2 4038   1.949   3.148   1.853 -0.0556 -0.3930  0.0212
 1366TIP3    H1 4039   1.960   3.072   1.795 -1.4831 -1.0730  0.6109
 1366TIP3    H2 4040   2.038   3.171   1.879  0.5062 -0.8676 -1.4428
 1367TIP3   OH2 4041   3.091   5.080   1.140 -0.2428 -0.1144  0.7815
 1367TIP3    H1 4042   3.061   5.032   1.063 -0.3946  0.5951  0.3883
 1367TIP3    H2 4043   3.132   5.159   1.104 -0.7631  0.4641  1.4476
 1368TIP3   OH2 4044   1.617   4.077   1.185 -0.1913  0.2984  0.4552
 1368TIP3    H1 4045   1.643   4.170   1.183  0.2649  0.1625 -0.5421
 1368TIP3    H2 4046   1.634   4.046   1.096 -1.9274 -0.3216  0.3314
 1369TIP3   OH2 4047   1.655   4.363   4.447 -0.4373 -0.4173 -0.5723
 1369TIP3    H1 4048   1.635   4.362   4.541  0.4617 -2.8474 -0.3844
 1369TIP3    H2 4049   1.749   4.378   4.443 -0.6166  0.5635 -1.1248
 1370TIP3   OH2 4050   7.613   4.193   2.659 -0.0681 -0.3998  0.0466
 1370TIP3    H1 4051   7.583   4.130   2.593  1.2926 -1.2738  0.2498
 1370TIP3    H2 4052   7.550   4.265   2.653  0.2592 -0.2539 -2.5149
 1371TIP3   OH2 4053   1.390   5.105   1.487 -0.5582  0.6390  0.0515
 1371TIP3    H1 4054   1.309   5.056   1.500  0.3632 -0.8777  0.2201
 1371TIP3    H2 4055   1.407   5.102   1.393 -1.8678  2.8983 -0.2871
 1372TIP3   OH2 4056   0.308   4.694   3.203  0.2101  0.2080 -0.6900
 1372TIP3    H1 4057   0.343   4.668   3.289 -1.9017 -2.7119 -0.6543
 1372TIP3    H2 4058   0.357   4.640   3.141 -0.0679  0.4343 -1.1028
 1373TIP3   OH2 4059   2.490   6.505   0.392 -0.1412  0.5398 -0.1824
 1373TIP3    H1 4060   2.510   6.449   0.317 -1.3739 -0.2468  0.0764
 1373TIP3    H2 4061   2.439   6.577   0.355  0.2843  0.7921 -0.2880
 1374TIP3   OH2 4062   7.910   1.364   6.548 -0.1309 -0.3165  0.1184
 1374TIP3    H1 4063   7.977   1.427   6.521 -0.1826  0.3542  1.5317
 1374TIP3    H2 4064   7.881   1.324   6.466  1.9572 -0.5858 -0.5234
 1375TIP3   OH2 4065   1.798   7.273   0.109  0.5347  0.0316  0.9337
 1375TIP3    H1 4066   1.726   7.307   0.162  0.9166  1.2160  0.7228
 1375TIP3    H2 4067   1.769   7.186   0.083 -0.3931  0.1010  1.6697
 1376TIP3   OH2 4068   5.284   6.958   5.533  0.5261  0.2224 -0.2595
 1376TIP3    H1 4069   5.257   6.874   5.571  0.4635  0.4539  0.2112
 1376TIP3    H2 4070   5.265   7.023   5.602  1.6704  0.4781 -0.1764
 1377TIP3   OH2 4071   2.947   2.031   3.074 -0.0692  0.2921  0.2753
 1377TIP3    H1 4072   2.968   1.960   3.013 -0.1036  0.7613 -0.2892
 1377TIP3    H2 4073   3.022   2.090   3.069  0.8898 -0.7400  2.2977
 1378TIP3   OH2 4074   1.375   3.490   1.433  0.1159  0.0888 -0.4764
 1378TIP3    H1 4075   1.395   3.461   1.522  0.7630 -0.2818 -0.7349
 1378TIP3    H2 4076   1.281   3.477   1.423  0.1237 -0.3155 -0.0088
 1379TIP3   OH2 4077   4.098   4.721   1.251 -0.1557 -0.0652 -0.2549
 1379TIP3    H1 4078   4.144   4.803   1.232  0.6699 -0.2711  0.7985
 1379TIP3    H2 4079   4.087   4.679   1.165  2.6917 -0.5522 -0.4273
 1380TIP3   OH2 4080   3.244   7.613   3.394  0.3830  0.1777  0.1914
 1380TIP3    H1 4081   3.285   7.556   3.328 -0.5617  0.4547 -0.6480
 1380TIP3    H2 4082   3.171   7.561   3.428  0.5189  0.2612  0.6160
 1381TIP3   OH2 4083   2.649   4.233   2.187  0.3242 -0.7389  0.0884
 1381TIP3    H1 4084   2.575   4.228   2.127 -0.2704 -1.6376  0.8606
 1381TIP3    H2 4085   2.609   4.241   2.274  1.1075 -1.6054  0.5500
 1382TIP3   OH2 4086   3.523   5.231   0.518 -0.0387  0.1677 -0.2618
 1382TIP3    H1 4087   3.551   5.169   0.450  2.1989 -0.7902  1.4989
 1382TIP3    H2 4088   3.598   5.288   0.531 -0.7135  0.8063  0.8909
 1383TIP3   OH2 4089   1.246   3.044   1.127 -0.0529  0.7357 -0.2547
 1383TIP3    H1 4090   1.300   3.068   1.202  1.6328  0.5269 -1.3759
 1383TIP3    H2 4091   1.255   3.118   1.067  0.2097  0.0282 -1.0908
 1384TIP3   OH2 4092   1.713   6.170   3.701 -0.1772  0.0315  0.4193
 1384TIP3    H1 4093   1.783   6.221   3.741 -0.6590  0.1153  1.1542
 1384TIP3    H2 4094   1.662   6.235   3.652  0.9080 -0.1989 -1.0675
 1385TIP3   OH2 4095   2.848   7.051   0.960  0.1325  0.2510 -0.4120
 1385TIP3    H1 4096   2.937   7.051   0.924  0.2062  1.5189 -0.2543
 1385TIP3    H2 4097   2.853   7.110   1.035 -0.9669  0.7432 -0.7200
 1386TIP3   OH2 4098   3.111   3.484   1.193  0.5633 -0.4579  0.0187
 1386TIP3    H1 4099   3.016   3.482   1.186  0.3793  0.3275  1.9176
 1386TIP3    H2 4100   3.138   3.392   1.186 -0.5372 -0.9297  1.7960
 1387TIP3   OH2 4101   1.387   4.201   1.018  0.1154 -0.2388  0.0447
 1387TIP3    H1 4102   1.472   4.245   1.011  0.6728 -1.1543  0.9618
 1387TIP3    H2 4103   1.323   4.272   1.014  0.9076  0.4560 -0.7171
 1388TIP3   OH2 4104   4.048   5.981   0.284 -0.2514  1.0216  0.2398
 1388TIP3    H1 4105   4.125   6.036   0.295  0.9845 -0.2590 -1.7429
 1388TIP3    H2 4106   4.071   5.921   0.213 -2.6847 -0.0689  0.3235
 1389TIP3   OH2 4107   1.923   4.743   0.372 -0.0067  0.4062  0.4861
 1389TIP3    H1 4108   1.977   4.665   0.384  0.7825  1.2712  3.0094
 1389TIP3    H2 4109   1.839   4.721   0.411 -0.7272 -0.1304 -1.3355
 1390TIP3   OH2 4110   0.728   4.563   1.325 -0.0340  0.1605  0.0071
 1390TIP3    H1 4111   0.768   4.485   1.365 -0.3171 -0.1423 -0.3020
 1390TIP3    H2 4112   0.724   4.542   1.232 -1.7319 -0.1718  0.1348
 1391TIP3   OH2 4113   3.805   4.406   3.165 -0.1550  0.2302 -0.3537
 1391TIP3    H1 4114   3.791   4.497   3.137  1.7681  1.4214  2.2724
 1391TIP3    H2 4115   3.718   4.374   3.188 -0.8717  1.3565 -1.4351
 1392TIP3   OH2 4116   5.678   7.441   6.649 -0.0568 -0.3021  0.5023
 1392TIP3    H1 4117   5.637   7.385   6.583 -2.5958  2.1420 -0.1096
 1392TIP3    H2 4118   5.629   7.423   6.729 -0.0297  0.1278  0.6135
 1393TIP3   OH2 4119   2.552   3.177   1.474  0.3074  0.9767  0.4427
 1393TIP3    H1 4120   2.576   3.117   1.404  1.0975  0.8098  0.8573
 1393TIP3    H2 4121   2.458   3.193   1.461  0.2841  0.3264 -0.1774
 1394TIP3   OH2 4122   4.230   2.967   2.557 -0.0670 -0.2662 -0.3435
 1394TIP3    H1 4123   4.177   2.951   2.479  1.9033 -1.8255 -1.3777
 1394TIP3    H2 4124   4.239   3.063   2.560 -1.8000 -0.0666 -0.9016
 1395TIP3   OH2 4125   3.872   3.560   0.992 -0.2756  0.6306 -0.1641
 1395TIP3    H1 4126   3.832   3.561   0.905 -1.3920  1.0421  0.3358
 1395TIP3    H2 4127   3.924   3.640   0.996  1.9140 -0.6758 -1.3908
 1396TIP3   OH2 4128   7.451   0.519   6.718 -0.8703 -0.0092 -0.0968
 1396TIP3    H1 4129   7.413   0.525   6.806 -2.5519 -1.8567 -0.6471
 1396TIP3    H2 4130   7.530   0.467   6.730  0.9602  2.9062  0.8847
 1397TIP3   OH2 4131   5.878   6.934   6.364  0.1639  0.1908 -0.3173
 1397TIP3    H1 4132   5.909   6.846   6.341  1.0999  0.2014  0.8222
 1397TIP3    H2 4133   5.844   6.970   6.283  2.2584 -0.2292 -1.4184
 1398TIP3   OH2 4134   0.368   5.825   1.429  0.1019 -0.1139 -0.3200
 1398TIP3    H1 4135   0.439   5.858   1.484  0.2548 -1.1537  0.1115
 1398TIP3    H2 4136   0.296   5.809   1.489 -0.6841  1.3969 -0.8241
 1399TIP3   OH2 4137   0.132   5.371   1.849  0.0707 -0.1271  0.5756
 1399TIP3    H1 4138   0.096   5.283   1.854 -0.8829  0.0165 -3.1039
 1399TIP3    H2 4139   0.224   5.358   1.824  0.0390 -0.0758  0.4346
 1400TIP3   OH2 4140   7.085   6.003   2.384 -0.1123  0.0838 -0.3363
 1400TIP3    H1 4141   7.152   5.949   2.344  0.6948  0.9920 -0.2262
 1400TIP3    H2 4142   7.128   6.087   2.401 -1.1694  0.5621  0.0519
 1401TIP3   OH2 4143   1.722   5.442   2.770  0.1371 -0.4852 -0.2560
 1401TIP3    H1 4144   1.633   5.408   2.773 -0.0508  0.0953  1.0291
 1401TIP3    H2 4145   1.750   5.446   2.861  0.3577  2.2553 -0.4014
 1402TIP3   OH2 4146   3.454   4.090   2.419  0.2820 -0.1119 -0.8276
 1402TIP3    H1 4147   3.518   4.033   2.462  0.7512  1.2435  0.3233
 1402TIP3    H2 4148   3.417   4.036   2.349  1.5402 -1.4372 -0.5039
 1403TIP3   OH2 4149   8.505   4.653   1.135  0.5407 -0.0080  0.4151
 1403TIP3    H1 4150   8.454   4.668   1.055  1.5764 -0.4666 -0.3524
 1403TIP3    H2 4151   8.491   4.560   1.154 -1.3737  0.5706  1.9690
 1404TIP3   OH2 4152   8.304   0.060   5.723  0.1401  0.2218  0.0665
 1404TIP3    H1 4153   8.387   0.078   5.678  0.7026  0.9911  1.3748
 1404TIP3    H2 4154   8.285  -0.032   5.704  1.8619 -0.2702  0.6886
 1405TIP3   OH2 4155   1.864   6.023   1.280 -0.2416  0.1222  0.2100
 1405TIP3    H1 4156   1.958   6.040   1.273 -0.1808 -0.1861  0.3010
 1405TIP3    H2 4157   1.843   6.043   1.371 -0.3530  0.6275  0.0796
 1406TIP3   OH2 4158   0.277   1.948   1.224 -0.1817 -0.2757  0.4314
 1406TIP3    H1 4159   0.279   1.921   1.132 -3.3879 -0.4558  0.3818
 1406TIP3    H2 4160   0.311   2.037   1.223  0.1001 -0.3799 -0.8868
 1407TIP3   OH2 4161   1.974   5.100   1.899  0.6177 -0.0055 -0.2206
 1407TIP3    H1 4162   1.953   5.178   1.847 -1.3276 -0.3823 -0.0229
 1407TIP3    H2 4163   1.990   5.134   1.987  0.9653  0.3097 -0.4065
 1408TIP3   OH2 4164   1.220   4.821   0.563 -0.2145 -0.8217  0.1162
 1408TIP3    H1 4165   1.196   4.913   0.569 -1.0176 -1.1007  1.4626
 1408TIP3    H2 4166   1.306   4.815   0.605  1.2920 -0.1892 -2.7508
 1409TIP3   OH2 4167   3.685   1.754   1.099 -0.3893  0.0772 -0.6920
 1409TIP3    H1 4168   3.686   1.811   1.176 -1.1631  0.2042 -0.7736
 1409TIP3    H2 4169   3.593   1.753   1.071 -0.1547 -0.1697 -1.4628
 1410TIP3   OH2 4170   0.725   5.151   0.186 -0.0418 -0.7645 -0.2002
 1410TIP3    H1 4171   0.647   5.122   0.233 -0.7954  0.1619 -0.8501
 1410TIP3    H2 4172   0.703   5.239   0.155  1.1041 -0.6607 -0.7620
 1411TIP3   OH2 4173   4.966   7.187   6.316  0.0406 -0.0163  0.0236
 1411TIP3    H1 4174   5.023   7.250   6.271  0.6094 -0.4715  0.1012
 1411TIP3    H2 4175   4.933   7.236   6.392 -0.6590  0.6452 -0.6972
 1412TIP3   OH2 4176   1.726   2.998   1.248  0.4286 -0.5966 -0.2652
 1412TIP3    H1 4177   1.644   3.045   1.262  1.0143  0.6258 -0.8407
 1412TIP3    H2 4178   1.700   2.920   1.200 -0.5956 -1.0166  0.9289
 1413TIP3   OH2 4179   1.569   3.448   1.245  0.3128  0.3604 -0.0431
 1413TIP3    H1 4180   1.649   3.418   1.288 -0.1376  0.5745  0.9706
 1413TIP3    H2 4181   1.510   3.469   1.318 -0.0405  1.8823 -0.7461
 1414TIP3   OH2 4182   3.269   3.482   3.127 -0.3353  0.5866  0.5759
 1414TIP3    H1 4183   3.364   3.474   3.140 -0.4611  1.2266  2.0192
 1414TIP3    H2 4184   3.236   3.392   3.129  0.1177  0.4307  1.1266
 1415TIP3   OH2 4185   0.880   3.854   2.265  0.2119 -0.3331 -0.5496
 1415TIP3    H1 4186   0.933   3.775   2.280 -2.3893 -2.1223 -0.5229
 1415TIP3    H2 4187   0.835   3.837   2.182  0.0354  1.3700 -0.8197
 1416TIP3   OH2 4188   3.361   5.122   1.759  0.6184  0.2628 -0.1638
 1416TIP3    H1 4189   3.366   5.185   1.831  0.4993  0.6581 -0.5036
 1416TIP3    H2 4190   3.385   5.172   1.681 -1.5330  0.4371 -0.7506
 1417TIP3   OH2 4191   3.913   4.312   1.340  0.1069 -0.2639 -0.3442
 1417TIP3    H1 4192   3.898   4.295   1.248  2.0316  4.4027 -1.6810
 1417TIP3    H2 4193   4.008   4.317   1.349 -0.0104 -1.5521  2.1249
 1418TIP3   OH2 4194   7.044   7.783   5.784  0.2597  0.0447  0.1344
 1418TIP3    H1 4195   7.070   7.837   5.859  0.4693 -1.5170  1.2259
 1418TIP3    H2 4196   7.114   7.717   5.777 -0.9231 -1.2325  0.0360
 1419TIP3   OH2 4197   0.353   0.878   6.525 -0.2321 -0.0263  0.3298
 1419TIP3    H1 4198   0.268   0.848   6.559 -1.5748  1.2048 -1.8291
 1419TIP3    H2 4199   0.340   0.884   6.430  1.4964  2.5465  0.2103
 1420TIP3   OH2 4200   7.979   5.879   5.534 -0.5717  0.6953  0.2388
 1420TIP3    H1 4201   7.915   5.947   5.512 -0.7724  0.6456  0.6685
 1420TIP3    H2 4202   7.985   5.881   5.629  1.2174  1.7443  0.1201
 1421TIP3   OH2 4203   4.020   6.840   0.453 -0.0886 -0.0421  0.1403
 1421TIP3    H1 4204   4.021   6.908   0.520  1.5143 -0.3250  0.4319
 1421TIP3    H2 4205   4.074   6.876   0.382  0.1484 -0.6924 -0.0153
 1422TIP3   OH2 4206   8.089   1.035   6.644 -0.5028 -0.2349 -0.0821
 1422TIP3    H1 4207   7.995   1.022   6.661 -0.7605  0.5352 -0.8992
 1422TIP3    H2 4208   8.123   1.068   6.727 -1.1667  0.5424 -0.1141
 1423TIP3   OH2 4209   0.514   0.943   6.957  0.4753  0.6222  0.0775
 1423TIP3    H1 4210   0.568   0.873   6.993  1.3673  0.8820 -0.7488
 1423TIP3    H2 4211   0.576   1.005   6.919 -0.2887  2.0686  1.1456
 1424TIP3   OH2 4212   5.262   7.895   6.843  0.4465 -0.0447  0.0842
 1424TIP3    H1 4213   5.352   7.862   6.839  0.6647  0.3596  1.3193
 1424TIP3    H2 4214   5.215   7.830   6.895  0.4388  0.6085  0.9093
 1425TIP3   OH2 4215   2.745   4.006   1.860  0.1679 -0.1150 -0.3164
 1425TIP3    H1 4216   2.689   3.961   1.924  1.0122 -0.9697 -0.1778
 1425TIP3    H2 4217   2.833   3.996   1.894  0.4980  0.4957 -0.9851
 1426TIP3   OH2 4218   2.637   6.338   1.411 -0.2247  0.1802  0.5320
 1426TIP3    H1 4219   2.711   6.388   1.378 -1.6407  1.5908 -0.6290
 1426TIP3    H2 4220   2.570   6.404   1.428 -1.4259 -1.1236  0.9626
 1427TIP3   OH2 4221   4.911   4.175   1.755  0.4159 -0.1700  0.7919
 1427TIP3    H1 4222   4.847   4.171   1.683  3.1845  2.4632 -1.9620
 1427TIP3    H2 4223   4.859   4.159   1.834 -3.0158 -1.5719 -1.6239
 1428TIP3   OH2 4224   3.761   3.672   1.316  0.8743  0.1211  0.1049
 1428TIP3    H1 4225   3.854   3.688   1.307  0.9235  0.0807  0.5386
 1428TIP3    H2 4226   3.751   3.578   1.299  0.5882  0.5761 -2.4100
 1429TIP3   OH2 4227   4.006   5.378   1.772 -0.4864 -0.1273 -0.0892
 1429TIP3    H1 4228   3.969   5.450   1.823  0.1985  0.4564 -0.4062
 1429TIP3    H2 4229   4.069   5.336   1.832  1.8542  1.8461 -1.1236
 1430TIP3   OH2 4230   2.945   6.907   0.284 -0.0605  0.5583  0.1937
 1430TIP3    H1 4231   2.952   6.845   0.358 -0.0302 -0.2996 -0.5192
 1430TIP3    H2 4232   2.852   6.928   0.279 -0.4955 -1.5773 -1.2847
 1431TIP3   OH2 4233   7.607   0.158   6.212  0.1934 -0.3330  0.5501
 1431TIP3    H1 4234   7.637   0.240   6.252 -0.4611  0.1140  0.1377
 1431TIP3    H2 4235   7.520   0.179   6.178  0.3425 -0.9760 -0.2498
 1432TIP3   OH2 4236   1.007   1.616   5.232 -0.0980 -0.1128 -0.3599
 1432TIP3    H1 4237   1.060   1.656   5.164 -0.3952  0.0665 -0.4863
 1432TIP3    H2 4238   0.917   1.623   5.200 -0.3654  1.0901  0.6093
 1433TIP3   OH2 4239   6.903   8.003   5.437  0.4938  0.6601  0.0854
 1433TIP3    H1 4240   6.973   7.941   5.418 -0.1796  0.7970 -3.0429
 1433TIP3    H2 4241   6.840   7.952   5.489  1.0897 -0.5652 -0.3642
 1434TIP3   OH2 4242   4.234   4.554   1.438  0.2930  0.0107 -0.5281
 1434TIP3    H1 4243   4.233   4.636   1.387  3.1796  0.0594 -0.5716
 1434TIP3    H2 4244   4.185   4.575   1.518 -2.4499  0.5612 -2.2972
 1435TIP3   OH2 4245   2.403   3.301   0.656 -0.7387 -0.1741  0.1191
 1435TIP3    H1 4246   2.483   3.352   0.645 -0.3260 -0.4276  1.7662
 1435TIP3    H2 4247   2.333   3.366   0.651 -0.4267  0.0720 -1.1615
 1436TIP3   OH2 4248   0.880   0.659   6.904  0.1517 -0.2275  0.1593
 1436TIP3    H1 4249   0.937   0.597   6.858  0.5922  0.7856 -0.6602
 1436TIP3    H2 4250   0.866   0.731   6.842 -1.7756 -0.3048  0.4652
 1437TIP3   OH2 4251   4.495   2.416   0.226 -0.0452  0.3272  0.0300
 1437TIP3    H1 4252   4.475   2.484   0.290  0.0856 -0.2225  0.6556
 1437TIP3    H2 4253   4.498   2.335   0.277 -0.4687 -0.1866 -0.7573
 1438TIP3   OH2 4254   1.566   2.025   1.799 -0.3442  0.0723  0.7511
 1438TIP3    H1 4255   1.519   2.007   1.881  0.5435  1.0585  1.4819
 1438TIP3    H2 4256   1.603   2.112   1.811  0.4223 -0.0845 -0.4169
 1439TIP3   OH2 4257   1.587   5.742   2.232  0.1235 -0.0036 -0.4643
 1439TIP3    H1 4258   1.493   5.753   2.246  0.2949 -0.2542  0.9220
 1439TIP3    H2 4259   1.623   5.728   2.319  1.8009  2.7579 -0.6476
 1440TIP3   OH2 4260   6.779   0.590   4.913 -0.1404 -0.2741 -0.3349
 1440TIP3    H1 4261   6.849   0.606   4.976  0.0842  3.3606 -1.4059
 1440TIP3    H2 4262   6.700   0.583   4.966  0.4013  0.1385  0.5381
 1441TIP3   OH2 4263   5.139   5.456   0.134 -0.5852  0.1388 -0.3787
 1441TIP3    H1 4264   5.049   5.424   0.139 -0.3901 -0.4642 -0.6742
 1441TIP3    H2 4265   5.178   5.429   0.218 -0.8756  1.0184  0.0467
 1442TIP3   OH2 4266   0.119   0.510   6.434 -0.1480 -0.2777 -0.2385
 1442TIP3    H1 4267   0.189   0.487   6.373  0.3139  1.0619 -0.2408
 1442TIP3    H2 4268   0.049   0.448   6.415  0.5488 -0.8093 -1.1255
 1443TIP3   OH2 4269   1.091   0.303   7.011  0.3795 -0.5685 -0.1265
 1443TIP3    H1 4270   1.000   0.318   6.983 -0.1098 -2.9136  0.0897
 1443TIP3    H2 4271   1.142   0.318   6.932 -0.2535  0.3154 -0.3735
 1444TIP3   OH2 4272   3.893   5.960   3.332  0.3909 -0.2574 -0.5277
 1444TIP3    H1 4273   3.912   5.956   3.238  0.2962 -1.8037 -0.4826
 1444TIP3    H2 4274   3.801   5.937   3.340  0.0486  1.1466 -0.1525
 1445TIP3   OH2 4275   1.865   1.598   5.887 -0.6887 -0.5992 -0.4528
 1445TIP3    H1 4276   1.953   1.624   5.912 -1.3693 -0.7946  2.3566
 1445TIP3    H2 4277   1.876   1.549   5.805  1.9453 -1.6458  0.4697
 1446TIP3   OH2 4278   1.535   0.660   6.931 -0.1647  0.1211 -0.2480
 1446TIP3    H1 4279   1.539   0.755   6.933 -0.8562  0.1713 -1.0802
 1446TIP3    H2 4280   1.533   0.637   6.838 -0.0781 -0.7021 -0.0563
 1447TIP3   OH2 4281   1.049   0.924   5.478 -0.0019 -0.0087  0.5263
 1447TIP3    H1 4282   1.031   0.854   5.541 -1.6912 -0.6334 -0.6309
 1447TIP3    H2 4283   0.990   0.907   5.405  1.2427  1.2717 -0.8203
 1448TIP3   OH2 4284   3.302   3.596   2.305 -0.1739  0.2622  0.2044
 1448TIP3    H1 4285   3.275   3.541   2.231 -2.0021  1.0562  0.2536
 1448TIP3    H2 4286   3.361   3.540   2.356 -0.6491 -1.0620 -0.6636
 1449TIP3   OH2 4287   3.422   6.225   0.959 -0.4707  0.3525  0.4233
 1449TIP3    H1 4288   3.336   6.267   0.962 -0.2248  0.9505 -0.4214
 1449TIP3    H2 4289   3.430   6.195   0.868  0.4724  0.8760  0.3256
 1450TIP3   OH2 4290   3.582   4.830   0.414  0.7409  0.3381 -0.3289
 1450TIP3    H1 4291   3.652   4.824   0.350 -0.5880 -3.5766 -1.5160
 1450TIP3    H2 4292   3.619   4.793   0.494  0.2765 -1.0562 -0.7526
 1451TIP3   OH2 4293   0.838   1.195   5.099  0.8475  0.7336  0.2692
 1451TIP3    H1 4294   0.819   1.105   5.125  0.3180  1.1049  1.1737
 1451TIP3    H2 4295   0.754   1.230   5.069  1.0268  0.9638  0.0353
 1452TIP3   OH2 4296   3.861   7.271   0.411 -0.2768  0.6607 -0.2891
 1452TIP3    H1 4297   3.778   7.317   0.398  0.0644  0.5854 -3.0253
 1452TIP3    H2 4298   3.844   7.182   0.378  0.5235  0.2871  0.2999
 1453TIP3   OH2 4299   3.935   7.830   0.597 -0.7217 -0.7867 -0.0267
 1453TIP3    H1 4300   3.840   7.836   0.587 -0.6760 -0.8482 -0.5136
 1453TIP3    H2 4301   3.968   7.914   0.565 -0.5717 -0.9970 -0.4273
 1454TIP3   OH2 4302   5.243   3.919   1.334  0.1016  0.1011  1.0929
 1454TIP3    H1 4303   5.157   3.958   1.319 -0.5428 -0.2921  3.5479
 1454TIP3    H2 4304   5.303   3.993   1.334  0.1921  0.1434 -3.1813
 1455TIP3   OH2 4305   1.112   4.774   6.076  0.2453 -0.2897  0.2034
 1455TIP3    H1 4306   1.163   4.829   6.016  1.8251  0.0536  1.8430
 1455TIP3    H2 4307   1.099   4.828   6.154 -0.1412 -1.4287  0.9372
 1456TIP3   OH2 4308   6.944   0.592   6.330  0.6312 -1.1134 -0.0627
 1456TIP3    H1 4309   6.899   0.564   6.410 -2.8735  0.4393 -1.3858
 1456TIP3    H2 4310   6.981   0.677   6.352 -0.9663 -0.3424 -0.2433
 1457TIP3   OH2 4311   7.409   1.483   6.918  0.4634 -0.2725 -0.4695
 1457TIP3    H1 4312   7.485   1.472   6.975  0.3036  1.3637  0.0906
 1457TIP3    H2 4313   7.446   1.498   6.831  0.8014  0.6066 -0.1816
 1458TIP3   OH2 4314   2.049   6.812   0.296 -0.4581 -0.2339 -0.2187
 1458TIP3    H1 4315   1.992   6.746   0.335 -0.0794  0.3240  1.3353
 1458TIP3    H2 4316   2.026   6.894   0.340  0.8361  0.1797 -0.2648
 1459TIP3   OH2 4317   1.474   4.147   1.711 -0.4012  0.6695  0.0868
 1459TIP3    H1 4318   1.407   4.082   1.688 -1.3737  1.3631  0.8962
 1459TIP3    H2 4319   1.553   4.116   1.668 -0.8914 -0.9641  0.3193
 1460TIP3   OH2 4320   4.620   6.326   1.430 -0.1063  0.5424  0.6251
 1460TIP3    H1 4321   4.664   6.263   1.372  0.7374  0.3677  1.4380
 1460TIP3    H2 4322   4.590   6.273   1.504 -1.0767  0.7859  0.4064
 1461TIP3   OH2 4323   0.669   4.505   0.787 -0.7360 -0.0302 -0.5605
 1461TIP3    H1 4324   0.596   4.470   0.736  0.5697 -2.8935 -0.5277
 1461TIP3    H2 4325   0.747   4.474   0.742  0.4818  1.7835  0.2434
 1462TIP3   OH2 4326   2.001   4.828   0.763 -0.0077 -0.6832  1.0651
 1462TIP3    H1 4327   2.016   4.922   0.757 -0.1211 -0.6982  0.5529
 1462TIP3    H2 4328   2.060   4.790   0.697  0.7482 -1.0391  1.9292
 1463TIP3   OH2 4329   4.428   5.829   1.657  0.0510 -0.0863 -0.3194
 1463TIP3    H1 4330   4.383   5.785   1.585 -0.8830  0.1229  0.1302
 1463TIP3    H2 4331   4.371   5.902   1.680  0.0675 -0.4716  0.9884
 1464TIP3   OH2 4332   2.061   6.054   0.507  0.8039 -0.0074 -0.3476
 1464TIP3    H1 4333   1.991   6.035   0.569  0.1865 -1.2367 -1.3999
 1464TIP3    H2 4334   2.113   5.973   0.504  0.2623 -0.3265 -2.1404
 1465TIP3   OH2 4335   3.255   4.287   0.252 -0.0384  0.8648  0.3372
 1465TIP3    H1 4336   3.271   4.348   0.180  2.4820  0.5825  0.6329
 1465TIP3    H2 4337   3.248   4.342   0.330  4.2778  0.7152  0.9253
 1466TIP3   OH2 4338   3.861   3.581   0.499  0.6793  0.8851 -0.2741
 1466TIP3    H1 4339   3.882   3.512   0.437 -0.2590 -0.2921  0.6904
 1466TIP3    H2 4340   3.946   3.621   0.519  1.4891 -1.1268  0.4585
 1467TIP3   OH2 4341   3.737   7.620   1.872  0.2124 -0.1665  0.0424
 1467TIP3    H1 4342   3.652   7.580   1.892 -0.2201  1.4899  1.6175
 1467TIP3    H2 4343   3.796   7.584   1.939  0.1450  0.7013  0.5739
 1468TIP3   OH2 4344   7.095   7.984   5.988 -0.1026  0.0334 -0.1668
 1468TIP3    H1 4345   7.102   7.900   6.033 -0.3321  0.3179  0.3989
 1468TIP3    H2 4346   7.064   8.046   6.055 -1.2798  0.2803 -0.9108
 1469TIP3   OH2 4347   4.233   6.465   0.901 -0.5014 -0.2203 -0.3459
 1469TIP3    H1 4348   4.216   6.557   0.882 -0.3702 -0.1532 -0.1469
 1469TIP3    H2 4349   4.243   6.462   0.996  0.0803 -0.3427 -0.4099
 1470TIP3   OH2 4350   8.585   0.087   6.426  0.0746 -0.0867  0.4955
 1470TIP3    H1 4351   8.526   0.133   6.366 -0.0181  0.0373  0.6797
 1470TIP3    H2 4352   8.669   0.129   6.415  0.5044 -1.2725 -0.9064
 1471TIP3   OH2 4353   6.624   7.476   6.789 -0.4296 -0.4981 -0.7565
 1471TIP3    H1 4354   6.536   7.440   6.775 -1.0515  1.6784 -2.9894
 1471TIP3    H2 4355   6.607   7.566   6.817  1.0860 -0.0376 -1.3115
 1472TIP3   OH2 4356   3.345   3.876   2.272  0.7940 -0.3346 -0.4317
 1472TIP3    H1 4357   3.267   3.884   2.326  0.3097 -0.1232 -1.1501
 1472TIP3    H2 4358   3.361   3.781   2.268  2.4592 -0.2276  2.3399
 1473TIP3   OH2 4359   1.238   3.668   0.888  0.1691 -0.3730  0.5368
 1473TIP3    H1 4360   1.269   3.758   0.899  1.7152 -0.8425  0.2018
 1473TIP3    H2 4361   1.232   3.634   0.977  0.2646 -0.1640  0.6243
 1474TIP3   OH2 4362   7.265   1.547   6.468 -0.4786  0.3958 -0.1475
 1474TIP3    H1 4363   7.218   1.468   6.441  0.1863 -0.7690  2.0178
 1474TIP3    H2 4364   7.210   1.619   6.438 -3.2709 -0.9287  1.5762
 1475TIP3   OH2 4365   4.693   5.444   0.337  0.3205  0.3685  0.0060
 1475TIP3    H1 4366   4.632   5.377   0.368  1.5237 -0.9881 -0.5317
 1475TIP3    H2 4367   4.656   5.527   0.369 -1.1181 -0.5522  0.7568
 1476TIP3   OH2 4368   1.617   4.179   0.087 -0.0256  0.2635 -0.0736
 1476TIP3    H1 4369   1.544   4.154   0.143  1.0763  0.9873  1.6987
 1476TIP3    H2 4370   1.633   4.271   0.108  2.2960 -0.2636  0.5864
 1477TIP3   OH2 4371   4.942   7.916   6.332 -0.2470  0.1317  0.5144
 1477TIP3    H1 4372   4.965   7.996   6.378 -1.4209  0.9251 -0.2424
 1477TIP3    H2 4373   4.931   7.943   6.241 -1.9018 -0.6409  0.4685
 1478TIP3   OH2 4374   0.401   3.012   5.660 -0.5549  0.2356 -0.5774
 1478TIP3    H1 4375   0.422   3.101   5.633 -0.2879  0.7193  1.1620
 1478TIP3    H2 4376   0.387   3.018   5.755 -2.6773 -1.1755 -0.7686
 1479TIP3   OH2 4377   0.596   0.783   6.574  0.5307  0.1238 -0.0507
 1479TIP3    H1 4378   0.606   0.741   6.659  0.9253  1.6700  0.6845
 1479TIP3    H2 4379   0.503   0.775   6.554  0.1317  1.1454  1.2915
 1480TIP3   OH2 4380   2.573   4.110   1.222  0.3344 -0.4002  0.8318
 1480TIP3    H1 4381   2.524   4.028   1.221  0.0760 -0.2441  0.7211
 1480TIP3    H2 4382   2.665   4.083   1.219  0.2201 -0.6340 -0.8996
 1481TIP3   OH2 4383   7.846   7.040   6.593  0.2850 -0.5952 -0.5027
 1481TIP3    H1 4384   7.784   7.024   6.522 -0.2390 -0.9330  0.0269
 1481TIP3    H2 4385   7.887   6.955   6.608 -0.2427 -0.7397  0.1881
 1482TIP3   OH2 4386   2.855   2.141   0.491 -0.3589  0.1876  0.1694
 1482TIP3    H1 4387   2.854   2.124   0.397 -0.2594 -0.1384  0.2263
 1482TIP3    H2 4388   2.871   2.056   0.531 -1.4275  0.1526  0.5259
 1483TIP3   OH2 4389   7.697   0.527   5.600 -0.2208  0.2343 -0.0111
 1483TIP3    H1 4390   7.627   0.471   5.565 -0.4335  1.1957 -1.1500
 1483TIP3    H2 4391   7.725   0.579   5.525  2.6424 -1.0613  0.1121
 1484TIP3   OH2 4392   2.254   7.267   0.034 -0.4179  0.2136 -0.0127
 1484TIP3    H1 4393   2.187   7.249  -0.032 -1.0752  1.7635  0.2040
 1484TIP3    H2 4394   2.242   7.360   0.055  1.6207  0.4408  0.2263
 1485TIP3   OH2 4395   2.567   4.282   0.318 -0.0472 -0.7027  0.1622
 1485TIP3    H1 4396   2.641   4.309   0.371  1.4833 -1.0880 -1.6967
 1485TIP3    H2 4397   2.490   4.320   0.361  1.3852  1.0628  1.2166
 1486TIP3   OH2 4398   0.311   1.527   4.812 -0.0867 -0.3911 -0.1752
 1486TIP3    H1 4399   0.274   1.446   4.847 -0.3894 -0.2285 -0.1121
 1486TIP3    H2 4400   0.308   1.515   4.717 -0.5847 -0.2600 -0.1808
 1487TIP3   OH2 4401   2.248   2.714   1.183  0.1761 -0.6602  0.0547
 1487TIP3    H1 4402   2.291   2.789   1.225 -0.0103 -1.0591  0.9863
 1487TIP3    H2 4403   2.308   2.688   1.113  0.8584 -0.4395  0.5492
 1488TIP3   OH2 4404   4.160   6.143   0.979  0.6649  0.9348 -0.7426
 1488TIP3    H1 4405   4.171   6.097   0.896 -0.1616  0.4764 -0.6002
 1488TIP3    H2 4406   4.131   6.231   0.954 -2.9247 -0.1932 -0.8689
 1489TIP3   OH2 4407   1.069   0.578   6.712 -0.1797 -0.4416  0.3249
 1489TIP3    H1 4408   1.084   0.632   6.635  0.3571 -0.4855  0.3936
 1489TIP3    H2 4409   1.070   0.488   6.678 -1.5714 -0.3951  0.1307
 1490TIP3   OH2 4410   4.665   3.844   1.755 -0.5516  0.1123  0.3139
 1490TIP3    H1 4411   4.640   3.892   1.834 -1.7689  1.0084 -0.6088
 1490TIP3    H2 4412   4.666   3.753   1.782 -0.8848  0.4203  1.3922
 1491TIP3   OH2 4413   3.686   6.558   0.981 -0.2457 -0.0618  0.4340
 1491TIP3    H1 4414   3.597   6.593   0.972  0.1258  1.0644  1.0401
 1491TIP3    H2 4415   3.718   6.553   0.891 -0.9387 -0.5100  0.2096
 1492TIP3   OH2 4416   4.971   7.077   6.958  0.3914 -0.3714 -0.2514
 1492TIP3    H1 4417   5.014   7.136   7.020  0.2661  0.1998 -0.7038
 1492TIP3    H2 4418   4.881   7.070   6.990  0.8833 -1.8141  0.8758
 1493TIP3   OH2 4419   7.627   0.637   6.136  0.0360  0.6454 -0.5103
 1493TIP3    H1 4420   7.557   0.695   6.165 -0.6012 -1.3537  2.1454
 1493TIP3    H2 4421   7.588   0.587   6.064 -0.8836  0.4250  0.1263
 1494TIP3   OH2 4422   0.860   0.110   5.830 -0.2520 -0.5276  0.1644
 1494TIP3    H1 4423   0.872   0.095   5.736 -1.6961 -0.8590  0.0175
 1494TIP3    H2 4424   0.833   0.201   5.836 -1.9296 -0.9952  0.0711
 1495TIP3   OH2 4425   4.689   8.019   6.567  0.6967  0.6818 -0.3385
 1495TIP3    H1 4426   4.652   8.054   6.486  1.1037  1.4400 -0.2052
 1495TIP3    H2 4427   4.623   7.958   6.599  0.3350  0.7144 -1.0091
 1496TIP3   OH2 4428   3.026   4.152   0.299  0.3998  0.7074 -0.2969
 1496TIP3    H1 4429   3.107   4.196   0.271  0.0065  1.9269  0.4491
 1496TIP3    H2 4430   2.996   4.106   0.221  1.6753  0.4466 -0.6558
 1497TIP3   OH2 4431   4.656   4.394   0.286 -0.2378 -0.4482  0.2090
 1497TIP3    H1 4432   4.613   4.479   0.278 -1.8122 -1.4058 -2.1756
 1497TIP3    H2 4433   4.637   4.350   0.203  0.9853 -2.9279  1.2001
 1498TIP3   OH2 4434   3.640   5.469   0.922 -0.3744 -0.3840  0.3232
 1498TIP3    H1 4435   3.712   5.531   0.931 -1.1651  0.5512  0.3415
 1498TIP3    H2 4436   3.682   5.385   0.902  0.6756  0.2728 -0.2478
 1499TIP3   OH2 4437   1.932   4.619   1.322 -0.5304  0.1097  0.0581
 1499TIP3    H1 4438   1.969   4.663   1.399  0.1493  0.1579 -0.2941
 1499TIP3    H2 4439   2.009   4.591   1.271 -0.9073 -2.6210  0.9168
 1500TIP3   OH2 4440   6.675   7.599   6.231 -0.0088  0.2784 -0.0747
 1500TIP3    H1 4441   6.702   7.517   6.272 -0.2229 -0.1811 -0.8389
 1500TIP3    H2 4442   6.588   7.580   6.196  0.6409  0.3138 -1.7322
 1501TIP3   OH2 4443   4.048   4.929   0.831  0.0626  0.0013 -0.1297
 1501TIP3    H1 4444   4.049   4.835   0.814  2.0680  0.0757 -0.5715
 1501TIP3    H2 4445   3.976   4.942   0.892 -0.7233 -1.7095 -0.6609
 1502TIP3   OH2 4446   5.726   0.271   6.084  0.3458  0.1120  0.0734
 1502TIP3    H1 4447   5.749   0.280   5.992 -1.5984  0.2188 -0.4207
 1502TIP3    H2 4448   5.682   0.186   6.090  1.2009 -0.2825  1.0750
 1503TIP3   OH2 4449   0.070   3.363   6.814  0.3708  0.0224 -0.4671
 1503TIP3    H1 4450   0.020   3.371   6.733 -0.1399 -1.5285 -0.3212
 1503TIP3    H2 4451   0.005   3.360   6.883  0.8228  1.7491  0.0603
 1504TIP3   OH2 4452   4.032   6.634   0.093 -0.5523 -0.0201  0.5603
 1504TIP3    H1 4453   4.106   6.626   0.032 -0.5153  0.1579  0.5830
 1504TIP3    H2 4454   3.993   6.718   0.073  0.0255  0.4615  1.4072
 1505TIP3   OH2 4455   0.153   4.740   1.671 -0.2001  0.8391 -0.3473
 1505TIP3    H1 4456   0.065   4.724   1.638  0.3636 -0.8213 -1.1074
 1505TIP3    H2 4457   0.194   4.796   1.604  0.1776 -0.5858 -1.3246
 1506TIP3   OH2 4458   7.494   2.303   6.993  0.0129  0.2313  0.5686
 1506TIP3    H1 4459   7.462   2.369   6.932  0.4261 -0.4012 -0.3441
 1506TIP3    H2 4460   7.549   2.352   7.055 -0.6005  0.9108  0.5874
 1507TIP3   OH2 4461   3.814   4.996   0.294 -0.0875  0.1632  0.0998
 1507TIP3    H1 4462   3.857   4.997   0.380  0.4631 -0.4919 -0.1644
 1507TIP3    H2 4463   3.829   4.908   0.261 -0.0028  0.5180 -0.8236
 1508TIP3   OH2 4464   0.638   1.533   5.213  0.1629 -0.6028  0.1400
 1508TIP3    H1 4465   0.642   1.559   5.121  1.1700  1.6694  0.7798
 1508TIP3    H2 4466   0.554   1.490   5.222  0.2127 -1.1825 -1.9282
 1509TIP3   OH2 4467   3.313   4.871   1.644 -0.0813  0.3566 -0.3200
 1509TIP3    H1 4468   3.344   4.934   1.709  0.5111  1.0587 -1.2638
 1509TIP3    H2 4469   3.358   4.789   1.667 -1.0345  0.2018  1.0544
 1510TIP3   OH2 4470   2.132   0.693   3.948 -0.3454  0.8036  0.4755
 1510TIP3    H1 4471   2.099   0.611   3.985 -1.1875  1.2400  0.7111
 1510TIP3    H2 4472   2.226   0.678   3.937 -0.2617  0.2658  1.7430
 1511TIP3   OH2 4473   4.175   3.501   0.692 -0.7542 -0.2326  0.1095
 1511TIP3    H1 4474   4.133   3.433   0.745 -0.8518 -1.3437 -1.3294
 1511TIP3    H2 4475   4.217   3.558   0.755 -1.9384 -0.7859  1.4401
 1512TIP3   OH2 4476   3.794   3.271   0.483  0.2625  0.1656 -0.3898
 1512TIP3    H1 4477   3.720   3.297   0.538 -0.4311 -1.8698 -0.3400
 1512TIP3    H2 4478   3.758   3.269   0.395  0.8436  1.3402 -0.6697
 1513TIP3   OH2 4479   6.650   4.050   0.962 -0.2057  0.2972  0.0535
 1513TIP3    H1 4480   6.566   4.081   0.928 -0.2901  0.0854  0.0667
 1513TIP3    H2 4481   6.705   4.042   0.884  0.1472  1.5096  0.1760
 1514TIP3   OH2 4482   2.700   7.693   4.494  0.6797 -0.4719 -0.1358
 1514TIP3    H1 4483   2.756   7.766   4.521 -1.7648  1.7314 -0.8062
 1514TIP3    H2 4484   2.659   7.663   4.575  0.5847 -0.1250 -0.0546
 1515TIP3   OH2 4485   1.382   0.857   6.075  0.1523  0.1784 -0.4991
 1515TIP3    H1 4486   1.443   0.831   6.144  0.7856  0.5842 -0.8919
 1515TIP3    H2 4487   1.438   0.875   6.000 -0.4303  0.8455 -0.7797
 1516TIP3   OH2 4488   3.191   5.990   1.237  0.2845 -0.3151 -0.2383
 1516TIP3    H1 4489   3.150   6.070   1.269  0.4123 -0.2649 -0.2018
 1516TIP3    H2 4490   3.280   5.992   1.273  1.0734  0.6873 -2.1487
 1517TIP3   OH2 4491   2.938   4.376   1.128  0.1045  0.3477  0.2903
 1517TIP3    H1 4492   2.950   4.467   1.154  0.9941  0.0368  0.9998
 1517TIP3    H2 4493   3.022   4.350   1.091 -0.4911  0.1414 -0.9339
 1518TIP3   OH2 4494   1.870   1.778   4.750 -0.1019  0.2269  0.4225
 1518TIP3    H1 4495   1.908   1.811   4.669  2.7640 -1.6592  0.9249
 1518TIP3    H2 4496   1.881   1.850   4.813 -0.1627  0.8003 -0.2138
 1519TIP3   OH2 4497   0.505   1.754   6.786 -0.1362  0.5805 -0.3022
 1519TIP3    H1 4498   0.578   1.723   6.840  1.1807  1.2330 -1.6490
 1519TIP3    H2 4499   0.459   1.674   6.761  1.6267 -0.1138 -1.4977
 1520TIP3   OH2 4500   3.521   4.140   1.219  0.5127 -0.0295  0.5043
 1520TIP3    H1 4501   3.459   4.107   1.283  0.6184 -0.7596  0.2387
 1520TIP3    H2 4502   3.496   4.232   1.206  1.9540  0.8388  3.3523
 1521TIP3   OH2 4503   2.599   5.627   0.618 -0.3215  0.2611  0.1784
 1521TIP3    H1 4504   2.593   5.534   0.593  0.2244 -0.1820  1.6456
 1521TIP3    H2 4505   2.565   5.630   0.707 -0.4427  1.5005  0.0916
 1522TIP3   OH2 4506   2.706   6.090   1.715  0.5891  0.7045  0.0883
 1522TIP3    H1 4507   2.728   6.075   1.807 -1.1469  1.3930  0.6457
 1522TIP3    H2 4508   2.653   6.170   1.717 -1.9698 -0.9169 -1.1565
 1523TIP3   OH2 4509   1.573   1.512   6.824 -0.7262 -0.4219 -0.0250
 1523TIP3    H1 4510   1.652   1.492   6.774 -0.0367  0.3573  0.7471
 1523TIP3    H2 4511   1.597   1.494   6.915 -1.8399 -1.4236  0.0939
 1524TIP3   OH2 4512   7.061   2.811   6.597 -0.1268 -0.4582 -0.6113
 1524TIP3    H1 4513   7.049   2.813   6.692  1.0943  1.5314 -0.4713
 1524TIP3    H2 4514   7.067   2.718   6.575  0.2826 -0.9063  1.3422
 1525TIP3   OH2 4515   4.662   6.725   1.341 -0.4824 -0.0862 -0.5112
 1525TIP3    H1 4516   4.727   6.792   1.324  0.3433  0.2952  3.5680
 1525TIP3    H2 4517   4.579   6.772   1.341 -0.1483  0.5165  0.0168
 1526TIP3   OH2 4518   5.183   6.286   0.644 -0.1930 -0.5316  0.8256
 1526TIP3    H1 4519   5.196   6.279   0.738  0.0928 -2.1757  0.6874
 1526TIP3    H2 4520   5.272   6.286   0.608 -0.3039 -0.0149  0.5556
 1527TIP3   OH2 4521   3.193   5.074   0.305 -0.6666  0.7670 -0.0851
 1527TIP3    H1 4522   3.105   5.111   0.302 -1.2705 -0.7438 -2.9770
 1527TIP3    H2 4523   3.250   5.147   0.281 -1.3766  1.1107 -0.7571
 1528TIP3   OH2 4524   2.669   3.941   0.332  0.2104 -0.6810  0.3988
 1528TIP3    H1 4525   2.676   3.968   0.424  1.2884 -1.2502  0.5036
 1528TIP3    H2 4526   2.760   3.926   0.305  0.2775  3.4359 -1.9860
 1529TIP3   OH2 4527   4.382   7.439   6.991 -0.4169 -0.0849 -0.4605
 1529TIP3    H1 4528   4.415   7.382   6.922 -0.3781  0.6617 -1.0718
 1529TIP3    H2 4529   4.446   7.432   7.062  0.0986 -0.0491 -0.9192
 1530TIP3   OH2 4530   3.461   6.757   0.270  0.1969  0.3412 -0.3795
 1530TIP3    H1 4531   3.473   6.773   0.364  0.1412  0.5591 -0.4100
 1530TIP3    H2 4532   3.369   6.734   0.261  0.3105 -0.1496 -0.3147
 1531TIP3   OH2 4533   3.468   4.087   0.321  0.1126 -0.1464 -0.3791
 1531TIP3    H1 4534   3.492   4.122   0.407 -1.1395 -1.4829  0.5338
 1531TIP3    H2 4535   3.384   4.127   0.301  0.0133 -0.4778 -0.6227
 1532TIP3   OH2 4536   1.356   1.786   6.158  0.2094  0.5609  0.8160
 1532TIP3    H1 4537   1.337   1.723   6.088  0.4031  1.6584 -0.2482
 1532TIP3    H2 4538   1.336   1.871   6.120  2.1725  1.3410  1.4342
 1533TIP3   OH2 4539   4.276   5.297   0.230 -0.4989  0.1304  0.0737
 1533TIP3    H1 4540   4.302   5.261   0.314  0.6634 -0.6599 -0.6176
 1533TIP3    H2 4541   4.250   5.221   0.178 -0.0894  0.4975 -0.6740
 1534TIP3   OH2 4542   4.367   4.262   0.559  0.4735  0.2654  0.2140
 1534TIP3    H1 4543   4.357   4.340   0.504 -0.6617 -0.6453 -0.8695
 1534TIP3    H2 4544   4.279   4.226   0.566  1.4466 -2.6278 -1.7764
 1535TIP3   OH2 4545   4.047   7.030   1.692 -0.1805  0.0881  0.0528
 1535TIP3    H1 4546   4.116   7.096   1.680  1.9463 -2.0148  0.1493
 1535TIP3    H2 4547   4.016   7.012   1.603 -0.4319  0.8511 -0.0203
 1536TIP3   OH2 4548   4.443   5.509   0.539 -0.0717  0.2726  0.0803
 1536TIP3    H1 4549   4.504   5.583   0.540 -0.4425  0.6001 -0.8384
 1536TIP3    H2 4550   4.364   5.544   0.497 -0.8605 -0.1708  1.1998
 1537TIP3   OH2 4551   1.451   0.217   5.988 -0.1354 -0.0447  0.2230
 1537TIP3    H1 4552   1.534   0.201   6.032 -0.1254  0.6029  0.4337
 1537TIP3    H2 4553   1.388   0.231   6.058 -0.2780  0.1949  0.0496
 1538TIP3   OH2 4554   1.064   3.429   0.023  0.3055 -0.1419  0.0145
 1538TIP3    H1 4555   1.024   3.442   0.109 -0.8343  0.6688 -0.6192
 1538TIP3    H2 4556   1.137   3.369   0.038 -0.7795 -1.1442  1.3060
 1539TIP3   OH2 4557   4.892   7.239   0.933 -0.0887 -0.1606  0.5875
 1539TIP3    H1 4558   4.915   7.317   0.983 -0.0072  0.3521 -0.2489
 1539TIP3    H2 4559   4.975   7.194   0.919 -0.0587 -0.0910  0.5437
 1540TIP3   OH2 4560   2.992   3.904   2.895  0.3931  0.6305  0.0317
 1540TIP3    H1 4561   2.969   3.825   2.944  0.8062  0.9784  0.7941
 1540TIP3    H2 4562   3.060   3.946   2.947  0.2538  1.4361 -0.4215
 1541TIP3   OH2 4563   4.903   3.079   2.410 -0.3478  0.1283  0.2035
 1541TIP3    H1 4564   4.943   3.149   2.461 -2.1405  0.0975  1.7177
 1541TIP3    H2 4565   4.890   3.117   2.323  2.9039  0.1266 -0.3352
 1542TIP3   OH2 4566   4.113   5.537   0.553 -0.4956 -0.1272 -0.5963
 1542TIP3    H1 4567   4.056   5.570   0.623 -0.7856  0.6227 -1.1738
 1542TIP3    H2 4568   4.084   5.447   0.540  0.6814 -0.8277  1.3903
 1543TIP3   OH2 4569   2.162   6.541   0.501  0.4686 -0.3757 -0.2937
 1543TIP3    H1 4570   2.216   6.477   0.548  0.6601  1.6958  2.4386
 1543TIP3    H2 4571   2.193   6.626   0.533 -1.6092  1.0002 -1.8174
 1544TIP3   OH2 4572   2.100   4.071   1.599 -0.2787 -0.2481  0.4708
 1544TIP3    H1 4573   2.056   4.146   1.559  0.1929  0.0293  0.4691
 1544TIP3    H2 4574   2.058   3.995   1.559  0.1587  0.0254 -0.5280
 1545TIP3   OH2 4575   2.022   1.547   6.765 -0.1206  0.2245 -0.2584
 1545TIP3    H1 4576   1.960   1.504   6.824 -0.3583  0.8927 -0.0149
 1545TIP3    H2 4577   2.103   1.550   6.814 -0.2188  0.4411 -0.1084
 1546TIP3   OH2 4578   3.292   3.897   1.878 -0.3176 -0.1299 -0.1392
 1546TIP3    H1 4579   3.324   3.938   1.959  0.6356 -1.4141  0.1489
 1546TIP3    H2 4580   3.208   3.859   1.902 -0.2278 -0.1533  0.1450
 1547TIP3   OH2 4581   3.146   5.361   0.753 -0.1416  0.2536 -0.1972
 1547TIP3    H1 4582   3.220   5.412   0.722 -0.0642  0.3523  0.1551
 1547TIP3    H2 4583   3.144   5.284   0.695 -0.0487  0.4806 -0.4994
 1548TIP3   OH2 4584   0.464   0.443   6.376 -0.2964  0.5685  0.0495
 1548TIP3    H1 4585   0.441   0.502   6.448  1.8108  0.6751  0.6494
 1548TIP3    H2 4586   0.498   0.365   6.420 -0.1111  0.1667 -0.8166
 1549TIP3   OH2 4587   3.879   5.857   0.887  0.1350  0.4232 -0.1963
 1549TIP3    H1 4588   3.826   5.891   0.815  0.7344 -1.6223 -1.6578
 1549TIP3    H2 4589   3.820   5.799   0.935  0.4344 -0.1900 -0.5592
 1550TIP3   OH2 4590   5.339   4.196   2.399 -0.4023  0.2332 -0.2098
 1550TIP3    H1 4591   5.276   4.176   2.330 -0.6143 -1.9107  0.5535
 1550TIP3    H2 4592   5.286   4.210   2.477 -0.2020  3.2248 -0.5530
 1551TIP3   OH2 4593   6.726   6.980   6.987  0.6606 -0.6564 -0.4374
 1551TIP3    H1 4594   6.740   7.049   7.053  1.2717 -2.0216  0.8957
 1551TIP3    H2 4595   6.804   6.925   6.994 -0.7847 -2.6949  0.0042
 1552TIP3   OH2 4596   5.166   5.936   0.688  0.6327 -0.2875  0.2194
 1552TIP3    H1 4597   5.245   5.975   0.725  1.1519 -1.0908 -0.0276
 1552TIP3    H2 4598   5.113   5.912   0.764 -0.4319  2.3574  0.3579
 1553TIP3   OH2 4599   3.639   5.716   0.351  0.1212  0.2214  0.0149
 1553TIP3    H1 4600   3.558   5.767   0.342 -0.5832 -0.5833  1.5988
 1553TIP3    H2 4601   3.707   5.774   0.317 -1.2821  0.3891 -2.6129
 1554TIP3   OH2 4602   1.160   1.427   1.221 -0.2906 -0.4432 -0.6542
 1554TIP3    H1 4603   1.113   1.344   1.212 -0.3714 -0.5942  1.0402
 1554TIP3    H2 4604   1.097   1.485   1.263  0.6864 -0.3354  0.6790
 1555TIP3   OH2 4605   0.923   5.466   0.478 -0.5943 -0.2397  0.3040
 1555TIP3    H1 4606   0.996   5.525   0.461 -1.6906  1.3612  1.1094
 1555TIP3    H2 4607   0.934   5.396   0.414 -0.6083  2.0176 -2.2415
 1556TIP3   OH2 4608   0.065   2.991   5.938 -0.1732 -0.2286 -0.2546
 1556TIP3    H1 4609   0.076   2.976   6.032 -1.9788  2.2529  0.4214
 1556TIP3    H2 4610   0.130   3.057   5.916 -1.5382  1.1889 -0.1280
 1557TIP3   OH2 4611   3.386   1.296   5.364  0.2378  0.0975  0.5609
 1557TIP3    H1 4612   3.367   1.284   5.271  0.7618 -1.4603  0.6439
 1557TIP3    H2 4613   3.320   1.359   5.394 -0.7875 -0.4329 -0.5511
 1558TIP3   OH2 4614   1.912   0.137   6.614  0.3286 -0.2763 -0.2994
 1558TIP3    H1 4615   1.866   0.059   6.583  0.2283 -0.4574  0.3031
 1558TIP3    H2 4616   1.845   0.205   6.614  0.1154 -0.4896  0.3764
 1559TIP3   OH2 4617   4.353   4.132   1.209 -0.0298  0.2150 -0.5725
 1559TIP3    H1 4618   4.435   4.181   1.202  1.7005 -2.3291  1.0660
 1559TIP3    H2 4619   4.297   4.187   1.263  0.4108  2.1427 -1.9933
 1560TIP3   OH2 4620   4.521   2.435   1.944 -0.9468  0.5136  0.5738
 1560TIP3    H1 4621   4.442   2.487   1.956 -2.1193 -1.3943  1.3423
 1560TIP3    H2 4622   4.564   2.436   2.030 -1.1496 -0.0501  0.6853
 1561TIP3   OH2 4623   2.927   1.732   6.800  0.2561  0.0738  0.4799
 1561TIP3    H1 4624   3.000   1.670   6.802 -0.6344 -0.9589  1.8635
 1561TIP3    H2 4625   2.913   1.750   6.707  0.9128 -1.3493  0.0984
 1562TIP3   OH2 4626   6.210   7.534   5.805  0.0479  0.3458 -0.1201
 1562TIP3    H1 4627   6.303   7.531   5.826  0.0314  0.7005 -0.0015
 1562TIP3    H2 4628   6.175   7.451   5.838  0.5897 -0.4272 -1.4321
 1563TIP3   OH2 4629   4.164   5.047   0.055 -0.2402  0.5596  0.1942
 1563TIP3    H1 4630   4.086   5.014   0.010  0.5340  0.4654 -1.1062
 1563TIP3    H2 4631   4.183   4.981   0.121 -0.4744 -0.0944 -0.3849
 1564TIP3   OH2 4632   4.416   6.703   0.313 -0.0819 -0.3296 -0.6271
 1564TIP3    H1 4633   4.388   6.753   0.237 -0.7624 -1.2809 -1.0134
 1564TIP3    H2 4634   4.507   6.681   0.296 -0.0723 -0.0701 -0.9121
 1565TIP3   OH2 4635   1.561   0.916   6.953  0.4360 -0.3856 -0.2875
 1565TIP3    H1 4636   1.587   0.931   7.044 -1.5385 -3.4156  0.8549
 1565TIP3    H2 4637   1.467   0.937   6.951  0.3836 -0.7332 -1.5370
 1566TIP3   OH2 4638   0.550   0.186   6.455  0.0605 -0.1203 -0.3815
 1566TIP3    H1 4639   0.646   0.185   6.453  0.0502 -0.7863 -0.7963
 1566TIP3    H2 4640   0.524   0.114   6.397 -0.6678 -1.0360  1.0584
 1567TIP3   OH2 4641   3.166   3.662   1.433 -1.0536  0.2656 -0.5623
 1567TIP3    H1 4642   3.137   3.595   1.372  0.5017  0.5151 -1.6285
 1567TIP3    H2 4643   3.158   3.622   1.520 -2.4708 -0.4006 -1.0002
 1568TIP3   OH2 4644   7.841   3.186   6.806 -0.1862 -0.0586  0.1649
 1568TIP3    H1 4645   7.745   3.183   6.804 -0.2293  0.7702  0.8022
 1568TIP3    H2 4646   7.868   3.108   6.757 -1.1841 -0.5244  0.3302
 1569TIP3   OH2 4647   7.431   1.189   6.688 -0.1797  0.5635  0.3012
 1569TIP3    H1 4648   7.511   1.225   6.648 -0.7274  2.4777  0.8911
 1569TIP3    H2 4649   7.420   1.104   6.645  0.9648  1.2293 -1.3804
 1570TIP3   OH2 4650   3.715   6.838   1.605 -0.2820 -0.3807 -0.3566
 1570TIP3    H1 4651   3.621   6.846   1.591 -0.2068 -0.3797 -0.8691
 1570TIP3    H2 4652   3.748   6.928   1.606 -0.5166 -0.2978  1.4772
 1571TIP3   OH2 4653   6.168   7.317   2.532 -0.3783  0.1766  0.4751
 1571TIP3    H1 4654   6.086   7.365   2.543  0.0581  0.8781  0.6999
 1571TIP3    H2 4655   6.198   7.300   2.621  1.3142  2.6865  0.4601
 1572TIP3   OH2 4656   1.703   3.266   0.157  0.2770  0.1576 -0.5850
 1572TIP3    H1 4657   1.797   3.263   0.140  0.9505 -3.9634  3.0028
 1572TIP3    H2 4658   1.691   3.338   0.219  1.1055  0.5241 -0.8541
 1573TIP3   OH2 4659   7.036   0.082   6.382  0.1711 -0.6079  0.2611
 1573TIP3    H1 4660   6.981   0.133   6.322  1.1970  0.2897  0.0506
 1573TIP3    H2 4661   7.103   0.044   6.326  0.6426 -0.4587  0.7200
 1574TIP3   OH2 4662   8.000   1.770   6.844 -0.0836  0.2017  0.0965
 1574TIP3    H1 4663   8.043   1.684   6.849 -2.3550 -1.1241 -1.6659
 1574TIP3    H2 4664   7.939   1.771   6.917  0.9869  0.9422  0.9858
 1575TIP3   OH2 4665   5.529   7.184   5.220 -0.2204  0.2716 -0.4748
 1575TIP3    H1 4666   5.474   7.107   5.208  1.0294 -0.7538  0.1728
 1575TIP3    H2 4667   5.496   7.226   5.299 -1.0836  0.5675 -0.9871
 1576TIP3   OH2 4668   0.373   2.369   6.425 -0.1629 -1.0382 -0.2228
 1576TIP3    H1 4669   0.290   2.377   6.378  0.3554 -3.0258 -1.5640
 1576TIP3    H2 4670   0.435   2.421   6.373 -0.5635  0.4634  0.7911
 1577TIP3   OH2 4671   0.948   3.915   1.054  0.2074  0.0298 -0.5189
 1577TIP3    H1 4672   0.871   3.934   1.107 -0.9277  0.9170 -2.4276
 1577TIP3    H2 4673   0.957   3.820   1.058 -0.5424 -0.0064  0.3389
 1578TIP3   OH2 4674   2.224   2.651   1.698 -0.0917 -0.3737  0.3394
 1578TIP3    H1 4675   2.255   2.564   1.672 -0.7617 -0.4142 -0.3180
 1578TIP3    H2 4676   2.192   2.690   1.617 -0.2949  0.2793  0.7372
 1579TIP3   OH2 4677   2.587   5.070   0.742  0.1597 -0.1494  0.0820
 1579TIP3    H1 4678   2.519   5.004   0.756  0.2424 -0.1092  0.6714
 1579TIP3    H2 4679   2.554   5.149   0.786  1.5028 -0.7001  2.1686
 1580TIP3   OH2 4680   0.483   1.386   5.604 -0.1828  0.1598  0.3359
 1580TIP3    H1 4681   0.498   1.314   5.665 -0.6172  0.6207  0.9980
 1580TIP3    H2 4682   0.556   1.446   5.618 -0.3620  0.3374  0.5003
 1581TIP3   OH2 4683   0.226   1.443   5.234 -0.2637 -0.1966  0.0774
 1581TIP3    H1 4684   0.254   1.513   5.292  0.3163  0.5548 -1.0758
 1581TIP3    H2 4685   0.131   1.452   5.229 -0.5373 -1.4529  2.3736
 1582TIP3   OH2 4686   5.556   4.644   0.329 -0.0052  0.2129 -0.3704
 1582TIP3    H1 4687   5.476   4.665   0.281  0.0023  0.9753 -0.0468
 1582TIP3    H2 4688   5.538   4.671   0.419  0.9005  1.0847 -0.4512
 1583TIP3   OH2 4689   4.552   7.301   6.824 -0.1455 -0.0202 -0.1561
 1583TIP3    H1 4690   4.592   7.258   6.749  0.1536  1.4800 -0.8651
 1583TIP3    H2 4691   4.617   7.366   6.852 -0.1431 -0.7338  1.5559
 1584TIP3   OH2 4692   4.156   6.159   4.808 -0.2257 -0.3227 -0.0766
 1584TIP3    H1 4693   4.242   6.150   4.766 -0.9709  2.6584 -2.3695
 1584TIP3    H2 4694   4.094   6.125   4.744 -1.1424  1.8743 -0.4131
 1585TIP3   OH2 4695   3.328   4.842   0.982  0.4613  0.4249  0.5051
 1585TIP3    H1 4696   3.410   4.841   0.932 -0.5395 -1.3549 -1.1338
 1585TIP3    H2 4697   3.307   4.935   0.992  1.0754  0.8145 -1.7202
 1586TIP3   OH2 4698   2.355   4.951   1.688  0.2959  0.0038 -1.1658
 1586TIP3    H1 4699   2.271   4.930   1.730  0.2023  0.0627 -1.3239
 1586TIP3    H2 4700   2.389   4.866   1.659  0.5708 -0.0905 -0.5790
 1587TIP3   OH2 4701   1.630   3.516   0.234 -0.5652  0.2338 -0.1093
 1587TIP3    H1 4702   1.607   3.593   0.182 -0.1537 -0.9822 -2.1538
 1587TIP3    H2 4703   1.612   3.541   0.324 -2.3527  2.0290 -0.9393
 1588TIP3   OH2 4704   1.779   0.626   7.052  0.0361 -0.1933 -0.0780
 1588TIP3    H1 4705   1.835   0.564   7.006 -0.4293 -0.0767 -0.7967
 1588TIP3    H2 4706   1.696   0.624   7.005 -1.0579 -1.4390  1.8632
 1589TIP3   OH2 4707   0.199   0.233   6.385  0.0017 -0.5721 -0.1967
 1589TIP3    H1 4708   0.234   0.190   6.464 -0.0570 -1.1577 -0.4865
 1589TIP3    H2 4709   0.273   0.238   6.326  0.2416  0.5890  0.1922
 1590TIP3   OH2 4710   3.976   3.277   1.264 -0.3157 -0.1265 -0.1965
 1590TIP3    H1 4711   4.010   3.205   1.212  0.3192 -0.5195  0.7371
 1590TIP3    H2 4712   4.014   3.355   1.225  0.0748 -0.4070 -0.3827
 1591TIP3   OH2 4713   5.672   5.117   6.156 -0.3979 -0.1017 -0.1957
 1591TIP3    H1 4714   5.715   5.089   6.237 -0.5595  1.7901  0.5717
 1591TIP3    H2 4715   5.721   5.073   6.087  2.6824  1.7574  0.6743
 1592TIP3   OH2 4716   2.576   1.950   1.040  0.6354  0.0295 -0.3605
 1592TIP3    H1 4717   2.614   2.036   1.056 -0.6332  0.6119 -0.4301
 1592TIP3    H2 4718   2.496   1.968   0.990  0.6229 -1.2234 -0.8058
 1593TIP3   OH2 4719   4.555   3.028   0.834 -0.1592 -0.2494  0.0563
 1593TIP3    H1 4720   4.536   3.066   0.920  0.3318 -0.4507  0.2544
 1593TIP3    H2 4721   4.567   2.935   0.850 -1.2223 -0.4775 -0.4137
 1594TIP3   OH2 4722   1.886   1.598   5.598  0.7634 -0.1229 -0.5354
 1594TIP3    H1 4723   1.866   1.633   5.511  0.9139  2.5744  0.4470
 1594TIP3    H2 4724   1.981   1.606   5.606  0.6842  0.2476  0.1003
 1595TIP3   OH2 4725   1.550   0.168   6.435  0.5419  0.0986  0.3551
 1595TIP3    H1 4726   1.596   0.172   6.351 -0.5698 -0.1152 -0.2741
 1595TIP3    H2 4727   1.476   0.109   6.419 -0.1416  0.7024  1.2561
 1596TIP3   OH2 4728   0.503   1.839   6.385 -0.3870  0.1130  0.0967
 1596TIP3    H1 4729   0.558   1.917   6.382 -0.8092  0.3999 -0.3342
 1596TIP3    H2 4730   0.413   1.873   6.384 -0.5746 -0.3665  0.3048
 1597TIP3   OH2 4731   8.310   0.749   4.797  0.5322  0.0725  0.5742
 1597TIP3    H1 4732   8.308   0.779   4.888  0.2021 -0.8512  0.8729
 1597TIP3    H2 4733   8.218   0.748   4.770  0.4176 -1.9440  0.9892
 1598TIP3   OH2 4734   5.117   4.218   1.235  0.4383  0.4486 -0.0749
 1598TIP3    H1 4735   5.052   4.148   1.229 -0.3893  1.2212 -0.2305
 1598TIP3    H2 4736   5.182   4.185   1.297  0.1448 -0.5237 -0.2788
 1599TIP3   OH2 4737   3.263   0.710   3.933 -0.3339 -0.0300 -0.4062
 1599TIP3    H1 4738   3.269   0.655   3.856  3.0743  1.6388 -1.4272
 1599TIP3    H2 4739   3.201   0.665   3.990 -1.3517 -2.3455 -3.2142
 1600TIP3   OH2 4740   1.904   2.384   6.171 -0.2125  0.0425 -0.5763
 1600TIP3    H1 4741   1.840   2.385   6.243 -0.2826  0.4384 -0.6418
 1600TIP3    H2 4742   1.958   2.461   6.186  0.8774 -0.8338  0.0333
 1601TIP3   OH2 4743   6.617   6.021   6.786 -0.3651  0.3710  0.1082
 1601TIP3    H1 4744   6.638   6.092   6.725 -0.4065  0.4551  0.1932
 1601TIP3    H2 4745   6.678   6.032   6.859 -1.9869  1.7806  1.2898
 1602TIP3   OH2 4746   4.630   5.369   0.837 -0.4932 -0.1856 -0.5983
 1602TIP3    H1 4747   4.702   5.384   0.898  1.8171 -0.2494 -3.1972
 1602TIP3    H2 4748   4.623   5.274   0.832  1.2185 -0.2383 -2.5126
 1603TIP3   OH2 4749   7.215   5.939   1.061 -0.0958  0.4870 -0.4845
 1603TIP3    H1 4750   7.285   5.993   1.097 -0.0376  0.5959 -0.7592
 1603TIP3    H2 4751   7.135   5.974   1.099  0.1765 -0.9530  1.4654
 1604TIP3   OH2 4752   8.523   0.800   3.502  0.0069 -0.5177  0.0129
 1604TIP3    H1 4753   8.439   0.841   3.481 -0.6430 -2.2948 -0.9693
 1604TIP3    H2 4754   8.510   0.708   3.482  1.5018 -1.1874  2.0521
 1605TIP3   OH2 4755   2.858   5.251   1.357  0.2718 -0.8160 -0.1928
 1605TIP3    H1 4756   2.766   5.224   1.358  0.8215 -2.8304 -1.3715
 1605TIP3    H2 4757   2.900   5.191   1.296  2.1837  0.7613 -0.4749
 1606TIP3   OH2 4758   1.975   2.587   6.781  0.4318 -0.4274 -0.1206
 1606TIP3    H1 4759   2.036   2.532   6.829  2.5103  1.4818 -0.4823
 1606TIP3    H2 4760   1.940   2.531   6.711 -0.4956 -2.3906  1.8522
 1607TIP3   OH2 4761   0.156   2.960   6.824 -0.1694 -0.0156 -0.0080
 1607TIP3    H1 4762   0.095   3.002   6.885 -1.0612 -0.4870 -0.5744
 1607TIP3    H2 4763   0.193   3.033   6.774  0.3380  0.3451  0.8727
 1608TIP3   OH2 4764   1.381   0.669   6.674 -0.7401  0.6176  0.0136
 1608TIP3    H1 4765   1.459   0.689   6.621 -1.0397  2.1300  0.1040
 1608TIP3    H2 4766   1.309   0.672   6.612 -0.9882  1.5244  0.3307
 1609TIP3   OH2 4767   3.932   1.705   5.552  0.2266  0.2560  0.0620
 1609TIP3    H1 4768   3.872   1.637   5.583 -1.7917  3.1088  2.6366
 1609TIP3    H2 4769   3.985   1.727   5.628 -0.1359  2.5585 -0.3048
 1610TIP3   OH2 4770   3.060   1.032   6.653  0.1744  0.3185  0.1328
 1610TIP3    H1 4771   3.109   0.983   6.719 -0.0256 -1.2694 -0.8858
 1610TIP3    H2 4772   2.968   1.010   6.669  0.1251 -0.0930 -0.6853
 1611TIP3   OH2 4773   7.027   5.406   0.275  0.0694 -0.2469 -0.4019
 1611TIP3    H1 4774   7.042   5.408   0.180 -1.0399  1.6601 -0.5710
 1611TIP3    H2 4775   7.115   5.405   0.313  0.5544  0.6587 -1.4505
 1612TIP3   OH2 4776   3.602   3.484   0.082 -0.4292 -0.0441  0.3135
 1612TIP3    H1 4777   3.592   3.440  -0.003  1.9719 -0.9984  0.5028
 1612TIP3    H2 4778   3.623   3.414   0.143 -0.5234  0.8725  1.4024
 1613TIP3   OH2 4779   3.747   5.227   0.156 -0.0611 -0.4178  0.0898
 1613TIP3    H1 4780   3.784   5.153   0.205 -1.8003 -0.9725  0.5952
 1613TIP3    H2 4781   3.709   5.187   0.078  0.7624  0.2075 -0.6441
 1614TIP3   OH2 4782   3.095   1.261   6.940  0.2267 -0.3676  0.3093
 1614TIP3    H1 4783   3.035   1.192   6.964 -0.3537 -0.0931 -0.3308
 1614TIP3    H2 4784   3.065   1.290   6.854  0.8214  0.2770  0.3126
 1615TIP3   OH2 4785   4.182   6.628   0.394 -0.6464  0.3749  0.3293
 1615TIP3    H1 4786   4.125   6.701   0.419  0.2259  0.9124  0.7547
 1615TIP3    H2 4787   4.254   6.669   0.345  0.3003 -0.0922  1.3115
 1616TIP3   OH2 4788   3.765   5.965   0.259 -0.3248 -0.1166  0.1335
 1616TIP3    H1 4789   3.852   5.945   0.293 -0.0237 -1.1531 -1.1882
 1616TIP3    H2 4790   3.770   6.057   0.233  0.1370  0.0320  0.7486
 1617TIP3   OH2 4791   5.016   3.652   0.444 -0.1950 -0.6396  0.1322
 1617TIP3    H1 4792   5.050   3.707   0.373 -1.7059 -0.0785 -0.1787
 1617TIP3    H2 4793   4.921   3.654   0.432 -0.5570  0.2751  2.7441
 1618TIP3   OH2 4794   6.054   7.092   1.461  0.1052  0.2528 -0.0253
 1618TIP3    H1 4795   5.987   7.046   1.410 -1.6626  2.9491 -0.2516
 1618TIP3    H2 4796   6.126   7.104   1.400 -1.1008  1.4696 -1.2546
 1619TIP3   OH2 4797   5.693   4.124   1.438  0.1753  0.0020  0.4146
 1619TIP3    H1 4798   5.709   4.165   1.523  0.1131  1.9185 -0.4666
 1619TIP3    H2 4799   5.776   4.135   1.391 -0.7912  1.7787 -0.8949
 1620TIP3   OH2 4800   4.268   5.520   0.096 -0.2335 -0.1025 -0.1627
 1620TIP3    H1 4801   4.283   5.431   0.128  1.6494  1.1143  2.5243
 1620TIP3    H2 4802   4.181   5.543   0.128  0.2236 -0.1466  1.1172
 1621TIP3   OH2 4803   3.273   2.022   6.488 -0.7248 -0.3778 -0.4728
 1621TIP3    H1 4804   3.348   2.041   6.431  0.6948 -1.5814  0.9456
 1621TIP3    H2 4805   3.281   1.928   6.508 -2.2573 -0.3795  0.2176
 1622TIP3   OH2 4806   3.731   4.075   0.944 -0.7320  0.5143  0.2733
 1622TIP3    H1 4807   3.684   4.130   1.007  0.4362 -0.5041  2.0727
 1622TIP3    H2 4808   3.687   3.990   0.948 -0.5675  0.4040 -0.2058
 1623TIP3   OH2 4809   4.377   5.672   1.366 -0.1074  0.5951 -0.8749
 1623TIP3    H1 4810   4.419   5.754   1.339 -1.2598  0.8133 -2.0616
 1623TIP3    H2 4811   4.286   5.680   1.336 -0.5112 -0.6603 -0.0337
 1624TIP3   OH2 4812   2.021   2.899   5.299  0.0556  0.2156  0.0543
 1624TIP3    H1 4813   1.958   2.828   5.289  1.9763 -1.3347 -1.4851
 1624TIP3    H2 4814   2.044   2.924   5.210  1.6195  0.7356  0.5719
 1625TIP3   OH2 4815   5.386   6.277   0.113 -0.2402 -0.1050 -0.5812
 1625TIP3    H1 4816   5.419   6.187   0.108  0.5703  0.0434  1.6184
 1625TIP3    H2 4817   5.307   6.270   0.168  0.5669  0.7036  0.7022
 1626TIP3   OH2 4818   0.986   0.632   6.396  0.8971 -0.0388 -0.6945
 1626TIP3    H1 4819   1.026   0.587   6.321  1.8281 -1.1186  0.4438
 1626TIP3    H2 4820   0.906   0.671   6.360  0.1712 -2.4035 -1.7516
 1627TIP3   OH2 4821   3.973   7.214   1.426 -0.4717 -0.0113  0.4361
 1627TIP3    H1 4822   3.932   7.265   1.355 -0.5659  0.3197  0.7310
 1627TIP3    H2 4823   4.063   7.244   1.429 -0.5099  0.0877  0.5673
 1628TIP3   OH2 4824   1.792   4.239   6.799 -0.2366 -0.4552  0.1241
 1628TIP3    H1 4825   1.797   4.312   6.861 -1.3042  0.1568 -0.4866
 1628TIP3    H2 4826   1.722   4.183   6.833  0.7007 -1.3015  0.6883
 1629TIP3   OH2 4827   5.776   4.589   1.684  0.2165 -0.3712  0.2340
 1629TIP3    H1 4828   5.868   4.612   1.673  0.7001 -2.1348  0.4141
 1629TIP3    H2 4829   5.730   4.637   1.616  1.1249  1.3647  0.8135
 1630TIP3   OH2 4830   0.550   2.875   5.478 -0.3976 -0.0936  0.0855
 1630TIP3    H1 4831   0.480   2.833   5.429 -0.5979  0.7967 -0.3948
 1630TIP3    H2 4832   0.506   2.937   5.536 -0.1160 -0.6487  0.9129
 1631TIP3   OH2 4833   3.792   1.100   6.863 -0.0422  0.1307 -0.1295
 1631TIP3    H1 4834   3.869   1.089   6.807  0.1151  0.5560 -0.0034
 1631TIP3    H2 4835   3.745   1.017   6.856  1.1424 -0.6504  0.8588
 1632TIP3   OH2 4836   7.955   0.490   0.225  0.8253  0.3370 -0.0814
 1632TIP3    H1 4837   8.034   0.437   0.239  0.3326 -0.4651 -0.2838
 1632TIP3    H2 4838   7.913   0.450   0.148  0.2900  0.8339 -0.0477
 1633TIP3   OH2 4839   6.586   4.967   0.971  0.4183  0.4598  0.1306
 1633TIP3    H1 4840   6.591   5.002   0.882 -1.0449 -0.0229 -0.1493
 1633TIP3    H2 4841   6.587   4.872   0.960 -1.5175  0.3751  0.4967
 1634TIP3   OH2 4842   3.152   1.542   5.384 -0.2930  0.2052 -0.2170
 1634TIP3    H1 4843   3.241   1.575   5.398  0.0377 -0.5332 -0.5524
 1634TIP3    H2 4844   3.134   1.560   5.292 -0.5533  0.5109 -0.1044
 1635TIP3   OH2 4845   5.119   3.897   0.280  0.5331 -0.1295 -0.5466
 1635TIP3    H1 4846   5.066   3.939   0.212 -0.5084 -1.0963 -0.3470
 1635TIP3    H2 4847   5.076   3.919   0.362  1.7795  1.0205 -0.1746
 1636TIP3   OH2 4848   0.608   0.171   5.457 -0.2934  0.7391 -0.2402
 1636TIP3    H1 4849   0.597   0.110   5.383  0.2512  0.7881 -0.3702
 1636TIP3    H2 4850   0.555   0.133   5.527  0.4602 -0.1803 -0.1521
 1637TIP3   OH2 4851   1.216   3.029   6.704  0.3426  0.6284  0.1320
 1637TIP3    H1 4852   1.170   3.052   6.785  0.9815  0.7746  0.4582
 1637TIP3    H2 4853   1.308   3.049   6.722  0.4494  0.9503 -0.7346
 1638TIP3   OH2 4854   6.790   6.677   0.683  0.1191 -0.0371 -0.3360
 1638TIP3    H1 4855   6.806   6.587   0.713  1.3436  0.4092  0.4140
 1638TIP3    H2 4856   6.729   6.713   0.746  0.8469  0.1446  0.2735
 1639TIP3   OH2 4857   7.157   6.299   1.757 -0.0142 -0.3105  0.1188
 1639TIP3    H1 4858   7.063   6.288   1.744 -0.3124  2.3294 -0.2240
 1639TIP3    H2 4859   7.186   6.352   1.682  1.5316 -0.2066  0.7637
 1640TIP3   OH2 4860   2.574   5.542   2.142 -0.7220  0.8170 -0.4035
 1640TIP3    H1 4861   2.645   5.489   2.178  1.2701  2.5906 -1.5972
 1640TIP3    H2 4862   2.549   5.499   2.061  0.2134  1.1259 -0.8657
 1641TIP3   OH2 4863   2.917   1.612   5.702 -0.1389 -0.3575  0.9555
 1641TIP3    H1 4864   2.965   1.531   5.716  0.1946 -0.4577 -0.6836
 1641TIP3    H2 4865   2.888   1.608   5.610 -0.7812  1.0123  1.0759
 1642TIP3   OH2 4866   4.080   3.191   1.487 -0.7249 -0.3982 -0.4629
 1642TIP3    H1 4867   4.041   3.244   1.418 -1.3070  1.7514  1.4758
 1642TIP3    H2 4868   4.048   3.229   1.569 -0.0198 -2.8584  1.0253
 1643TIP3   OH2 4869   7.704   5.828   1.047  0.0177 -0.1322 -0.1787
 1643TIP3    H1 4870   7.746   5.819   1.132 -0.0409  0.0341 -0.1322
 1643TIP3    H2 4871   7.774   5.812   0.984  0.6301  2.1757 -0.1169
 1644TIP3   OH2 4872   7.127   5.208   0.071 -0.1309 -0.7955 -0.0126
 1644TIP3    H1 4873   7.036   5.184   0.087 -0.7563  2.1355  1.2424
 1644TIP3    H2 4874   7.121   5.285   0.014  1.5336 -0.3683  0.3705
 1645TIP3   OH2 4875   4.174   4.697   0.519 -0.5533  0.1111  0.1156
 1645TIP3    H1 4876   4.113   4.650   0.463 -0.0989 -2.0654  1.4152
 1645TIP3    H2 4877   4.135   4.694   0.606  0.1648  0.9299  0.4764
 1646TIP3   OH2 4878   5.866   3.133   1.268 -0.2357  0.4041 -0.0678
 1646TIP3    H1 4879   5.887   3.043   1.243 -0.4580  0.5983 -0.9793
 1646TIP3    H2 4880   5.770   3.136   1.265 -0.2226  0.6995 -0.1611
 1647TIP3   OH2 4881   5.152   6.005   1.570 -0.2099  0.0715  0.5499
 1647TIP3    H1 4882   5.121   6.095   1.555 -2.1414 -0.1757  2.8356
 1647TIP3    H2 4883   5.105   5.953   1.505 -0.4913  0.4523  0.4423
 1648TIP3   OH2 4884   4.972   5.782   1.235  0.1163 -0.1222 -0.0520
 1648TIP3    H1 4885   4.892   5.732   1.220 -0.5818  0.8125  0.4701
 1648TIP3    H2 4886   4.969   5.806   1.327  1.5347 -0.9682  0.2198
 1649TIP3   OH2 4887   3.565   1.242   6.386  0.5066  0.2469  0.0738
 1649TIP3    H1 4888   3.498   1.173   6.388  0.0781  0.6160 -1.0204
 1649TIP3    H2 4889   3.559   1.283   6.472 -1.0720  0.6284 -0.1940
 1650TIP3   OH2 4890   6.213   3.540   0.464  0.1880 -0.1910  0.2638
 1650TIP3    H1 4891   6.225   3.517   0.372  1.0952  1.5966 -0.0869
 1650TIP3    H2 4892   6.148   3.477   0.496 -2.6905  1.2146 -2.4652
 1651TIP3   OH2 4893   4.212   2.189   6.019  0.1323 -0.3929 -0.3321
 1651TIP3    H1 4894   4.263   2.206   5.939  0.5950  0.6570  0.1723
 1651TIP3    H2 4895   4.262   2.233   6.088  0.3534 -2.2579  0.7305
 1652TIP3   OH2 4896   2.525   2.147   6.484  0.0499  0.2161 -0.1713
 1652TIP3    H1 4897   2.461   2.125   6.416 -0.7366 -0.3744  0.7431
 1652TIP3    H2 4898   2.606   2.165   6.436 -0.7878  0.9265 -1.3392
 1653TIP3   OH2 4899   1.222   0.735   6.473 -0.0155  0.0887 -0.2613
 1653TIP3    H1 4900   1.140   0.696   6.444  0.6108 -0.0580 -1.8789
 1653TIP3    H2 4901   1.206   0.830   6.469 -1.1130  0.0459  2.4326
 1654TIP3   OH2 4902   5.648   2.810   0.587 -0.2180 -0.2764 -0.0266
 1654TIP3    H1 4903   5.665   2.717   0.572  2.4466  0.0964  0.3848
 1654TIP3    H2 4904   5.600   2.813   0.669 -0.9227 -1.3290 -0.3914
 1655TIP3   OH2 4905   3.795   4.731   0.230  0.6686  0.4246 -0.5203
 1655TIP3    H1 4906   3.734   4.661   0.207  0.6173  0.0547  0.7339
 1655TIP3    H2 4907   3.880   4.700   0.199  0.4188  0.4235 -1.2151
 1656TIP3   OH2 4908   3.645   7.719   0.006  0.7488  0.2239  0.0677
 1656TIP3    H1 4909   3.698   7.648   0.040 -0.2005  0.1359  1.3908
 1656TIP3    H2 4910   3.560   7.679  -0.013  0.6291  0.7137 -0.4572
 1657TIP3   OH2 4911   2.880   1.388   6.733  0.1132  0.3382  0.4201
 1657TIP3    H1 4912   2.857   1.474   6.697 -0.9226 -0.0764  0.0767
 1657TIP3    H2 4913   2.892   1.332   6.656 -0.6498 -0.1831  0.6728
 1658TIP3   OH2 4914   3.184   5.965   0.644 -0.9550 -0.0314 -0.7504
 1658TIP3    H1 4915   3.149   5.890   0.596 -1.5248  0.1416 -0.6085
 1658TIP3    H2 4916   3.114   5.990   0.704  0.4677 -1.4635  1.5874
 1659TIP3   OH2 4917   6.877   7.222   6.785  0.7915 -0.2387 -0.2654
 1659TIP3    H1 4918   6.873   7.142   6.732  1.4867 -0.2754 -0.2651
 1659TIP3    H2 4919   6.932   7.198   6.859 -0.5320 -0.3233  0.7094
 1660TIP3   OH2 4920   0.508   1.105   6.554 -0.3491  0.5347  0.3925
 1660TIP3    H1 4921   0.573   1.122   6.623 -0.0626  0.1654  0.2186
 1660TIP3    H2 4922   0.479   1.016   6.570  1.8363 -0.6161 -1.6537
 1661TIP3   OH2 4923   4.976   4.454   1.098 -0.6661 -0.0180 -0.7083
 1661TIP3    H1 4924   5.015   4.372   1.128  2.9192  1.9584  0.2278
 1661TIP3    H2 4925   4.925   4.485   1.173  0.6325  0.2223  0.0840
 1662TIP3   OH2 4926   7.063   2.680   1.612  0.8320 -0.1141 -0.0839
 1662TIP3    H1 4927   7.061   2.694   1.518  0.0354 -1.5921 -0.3141
 1662TIP3    H2 4928   6.983   2.722   1.645  0.6026 -0.4524 -0.2056
 1663TIP3   OH2 4929   5.316   4.829   1.234 -0.2541 -0.1795 -0.9079
 1663TIP3    H1 4930   5.286   4.868   1.152  0.0770  0.6454 -0.6448
 1663TIP3    H2 4931   5.363   4.750   1.207  0.6589  0.5802 -1.5781
 1664TIP3   OH2 4932   7.208   6.638   2.925  0.2186 -0.2602  0.1360
 1664TIP3    H1 4933   7.150   6.713   2.941 -0.6919 -0.8692 -0.2442
 1664TIP3    H2 4934   7.168   6.566   2.974  2.4396  0.0579  2.5378
 1665TIP3   OH2 4935   0.559   3.676   0.664  0.2545  0.0050  0.3403
 1665TIP3    H1 4936   0.471   3.674   0.702 -0.5830  0.5760 -1.5327
 1665TIP3    H2 4937   0.611   3.728   0.726 -1.3661  1.8749  0.1654
 1666TIP3   OH2 4938   2.617   5.798   2.083  0.2411  0.1468  0.0117
 1666TIP3    H1 4939   2.610   5.715   2.130  1.9867 -0.3835 -0.6133
 1666TIP3    H2 4940   2.676   5.851   2.136 -1.5709  1.3609  0.8783
 1667TIP3   OH2 4941   2.432   2.144   0.204  0.7074 -0.2719  0.3550
 1667TIP3    H1 4942   2.454   2.216   0.263  1.7846 -0.5537  0.3076
 1667TIP3    H2 4943   2.509   2.135   0.147 -0.3778  0.1231 -1.2244
 1668TIP3   OH2 4944   0.508   5.635   1.056 -0.7273  0.1856 -0.8508
 1668TIP3    H1 4945   0.541   5.656   0.968 -1.5033  1.6687 -0.8092
 1668TIP3    H2 4946   0.564   5.687   1.114 -0.3041 -0.6938 -0.4707
 1669TIP3   OH2 4947   2.880   4.586   1.433 -0.1249 -0.2985 -0.1187
 1669TIP3    H1 4948   2.829   4.506   1.430 -0.9890  0.2324  0.3483
 1669TIP3    H2 4949   2.900   4.599   1.526  1.9029 -1.1477 -0.4060
 1670TIP3   OH2 4950   2.123   6.825   0.035  0.1476 -0.1208 -0.3013
 1670TIP3    H1 4951   2.093   6.738   0.010  0.9224 -0.1166 -1.2710
 1670TIP3    H2 4952   2.134   6.820   0.130  0.8558 -1.3055 -0.4333
 1671TIP3   OH2 4953   0.492   5.503   0.663 -0.3922  0.2213 -0.5361
 1671TIP3    H1 4954   0.474   5.433   0.724 -0.6735  1.1655  0.4822
 1671TIP3    H2 4955   0.540   5.461   0.591  0.3612 -0.7969  0.5538
 1672TIP3   OH2 4956   8.005   5.802   1.108 -0.4005 -0.0093 -0.0478
 1672TIP3    H1 4957   8.093   5.837   1.122  0.5316 -2.5563  0.8698
 1672TIP3    H2 4958   7.996   5.798   1.013  0.8151 -0.4357 -0.1656
 1673TIP3   OH2 4959   6.751   3.092   6.975  0.1218  0.2110  0.6418
 1673TIP3    H1 4960   6.752   3.134   6.889  1.7715  0.5450  0.8080
 1673TIP3    H2 4961   6.763   3.164   7.037  1.7642 -0.3552  0.9915
 1674TIP3   OH2 4962   1.138   6.655   1.002 -0.0081 -0.0009  0.0238
 1674TIP3    H1 4963   1.152   6.573   0.956 -0.5123  0.4636 -0.9662
 1674TIP3    H2 4964   1.055   6.689   0.967 -0.3106  0.4410  1.1368
 1675TIP3   OH2 4965   3.218   6.566   4.279  0.5684 -0.7238  0.2506
 1675TIP3    H1 4966   3.268   6.543   4.357 -0.8393  2.1862  2.0992
 1675TIP3    H2 4967   3.270   6.634   4.236 -0.6816  0.6791  0.9412
 1676TIP3   OH2 4968   1.824   0.135   1.625 -0.2968  0.4952  0.6653
 1676TIP3    H1 4969   1.784   0.154   1.540 -2.9077  1.3512  2.0423
 1676TIP3    H2 4970   1.835   0.040   1.625 -1.5253  0.3375 -0.1006
 1677TIP3   OH2 4971   0.984   5.903   0.541  0.2844  0.2456  0.0765
 1677TIP3    H1 4972   1.053   5.873   0.601  0.9321  0.4125 -0.5658
 1677TIP3    H2 4973   0.924   5.953   0.595  1.1516  0.8437  0.4902
 1678TIP3   OH2 4974   1.818   6.335   0.789 -0.3925  0.4939 -0.0606
 1678TIP3    H1 4975   1.744   6.286   0.824 -0.2558  0.4849  0.2149
 1678TIP3    H2 4976   1.798   6.346   0.696 -0.3117 -0.2863 -0.1747
 1679TIP3   OH2 4977   0.623   6.342   0.704 -0.3664  0.2162  0.2457
 1679TIP3    H1 4978   0.700   6.306   0.749 -0.7545 -1.4213 -0.3859
 1679TIP3    H2 4979   0.659   6.410   0.647  0.7143 -0.9723 -0.5299
 1680TIP3   OH2 4980   7.291   1.291   5.938  0.2258 -0.5614 -0.6842
 1680TIP3    H1 4981   7.258   1.253   5.857  2.2003  0.1007 -1.8257
 1680TIP3    H2 4982   7.332   1.373   5.911 -1.8796  1.2689  1.4243
 1681TIP3   OH2 4983   0.112   4.566   2.178 -0.5254 -1.0858  0.0014
 1681TIP3    H1 4984   0.048   4.518   2.230 -1.6890  0.1873 -0.2474
 1681TIP3    H2 4985   0.066   4.587   2.096  0.1438 -0.0182 -0.1129
 1682TIP3   OH2 4986   1.211   5.244   2.007 -0.7399 -0.7246  0.6849
 1682TIP3    H1 4987   1.239   5.155   1.985 -0.4564 -0.2738 -0.7872
 1682TIP3    H2 4988   1.142   5.264   1.945  0.4196  0.7526 -0.1706
 1683TIP3   OH2 4989   7.758   3.937   5.706  0.3428 -0.4966 -0.1364
 1683TIP3    H1 4990   7.676   3.948   5.657 -0.0714  2.7665  1.1619
 1683TIP3    H2 4991   7.823   3.984   5.653  0.7832 -0.6421  0.2745
 1684TIP3   OH2 4992   1.375   7.420   1.255  0.4547 -0.3554 -0.5404
 1684TIP3    H1 4993   1.427   7.350   1.296 -0.7191 -0.6642  0.4317
 1684TIP3    H2 4994   1.402   7.500   1.301  0.9940 -0.3213 -0.9075
 1685TIP3   OH2 4995   7.660   4.177   5.967 -0.2846  0.2925 -0.4280
 1685TIP3    H1 4996   7.712   4.248   5.927 -0.2345 -0.0181 -0.9194
 1685TIP3    H2 4997   7.586   4.222   6.007 -0.5319  0.5742 -1.1988
 1686TIP3   OH2 4998   0.369   2.480   4.117 -0.3216  0.0238  0.4806
 1686TIP3    H1 4999   0.371   2.385   4.128  0.5167 -0.0453 -0.2008
 1686TIP3    H2 5000   0.440   2.498   4.055 -2.2872  0.7769 -1.6213
 1687TIP3   OH2 5001   1.590   5.889   1.950  0.3732 -0.0663 -0.6142
 1687TIP3    H1 5002   1.684   5.898   1.934  0.3453 -1.3357 -1.6298
 1687TIP3    H2 5003   1.585   5.842   2.034  0.6347  0.6911 -0.1751
 1688TIP3   OH2 5004   4.540   0.454   0.215 -0.1419  0.8151  0.2065
 1688TIP3    H1 5005   4.467   0.398   0.243 -0.4927  1.1328 -0.0688
 1688TIP3    H2 5006   4.615   0.423   0.266 -0.2478 -0.1613 -0.2161
 1689TIP3   OH2 5007   1.620   6.141   1.519 -1.0389  0.1246 -0.0141
 1689TIP3    H1 5008   1.638   6.208   1.584  1.0997 -1.6910  1.3149
 1689TIP3    H2 5009   1.644   6.058   1.561 -1.6884 -1.2936 -2.3138
 1690TIP3   OH2 5010   7.274   0.655   6.325 -0.3096  0.0780 -0.5272
 1690TIP3    H1 5011   7.248   0.664   6.417 -0.8615  0.4998 -0.7239
 1690TIP3    H2 5012   7.337   0.583   6.325 -0.6994 -0.2662  0.1033
 1691TIP3   OH2 5013   1.492   4.822   1.374 -0.5111  0.4207  0.1959
 1691TIP3    H1 5014   1.570   4.866   1.409 -0.2852 -0.5351  0.9053
 1691TIP3    H2 5015   1.433   4.815   1.448  0.2957 -2.3586  0.6385
 1692TIP3   OH2 5016   0.997   5.315   1.473  0.4650 -0.1213  0.5389
 1692TIP3    H1 5017   0.912   5.303   1.514 -0.8029  0.8923 -1.6927
 1692TIP3    H2 5018   1.029   5.398   1.508 -0.2047  0.2935  0.1799
 1693TIP3   OH2 5019   8.406   6.485   0.648 -0.3164  0.2049  0.2187
 1693TIP3    H1 5020   8.444   6.504   0.733 -0.0677 -0.1916  0.1980
 1693TIP3    H2 5021   8.324   6.535   0.646 -0.4382  0.0363  0.7803
 1694TIP3   OH2 5022   1.009   8.095   0.705  0.0864 -0.1924  0.1783
 1694TIP3    H1 5023   0.964   8.055   0.630  1.3200 -1.8053  0.2669
 1694TIP3    H2 5024   1.096   8.116   0.671 -0.2036  1.4551  0.4488
 1695TIP3   OH2 5025   0.309   2.251   6.655  0.5126 -0.5455  0.2123
 1695TIP3    H1 5026   0.294   2.296   6.572  0.6710  1.4629  1.2369
 1695TIP3    H2 5027   0.288   2.316   6.722 -0.5339 -2.4153  1.7704
 1696TIP3   OH2 5028   0.325   0.499   6.029 -0.4022  0.2193 -1.1489
 1696TIP3    H1 5029   0.270   0.577   6.032 -2.1597 -1.0517  1.1502
 1696TIP3    H2 5030   0.409   0.527   6.065 -1.4635  0.7361  0.9849
 1697TIP3   OH2 5031   7.132   2.802   5.179 -0.7448 -0.0539 -0.2436
 1697TIP3    H1 5032   7.067   2.739   5.148 -1.3161  0.0893  0.6452
 1697TIP3    H2 5033   7.080   2.877   5.209 -0.0853  0.7578 -1.0811
 1698TIP3   OH2 5034   3.920   5.591   1.909  0.3650  0.4143  0.2003
 1698TIP3    H1 5035   3.883   5.667   1.953 -0.0711  0.5881 -0.4664
 1698TIP3    H2 5036   4.006   5.621   1.879 -0.0701  0.8415 -0.6226
 1699TIP3   OH2 5037   2.275   6.795   0.552 -0.2468 -0.0553 -0.2316
 1699TIP3    H1 5038   2.323   6.797   0.469 -0.5587 -1.1248 -0.4419
 1699TIP3    H2 5039   2.226   6.877   0.552  0.8126  0.6020 -0.4636
 1700TIP3   OH2 5040   7.453   2.490   5.548 -0.5633 -0.0409  0.1548
 1700TIP3    H1 5041   7.485   2.580   5.547 -0.1924 -0.1405  2.0293
 1700TIP3    H2 5042   7.486   2.453   5.630 -1.3933 -1.6380 -0.2077
 1701TIP3   OH2 5043   7.207   3.111   7.020 -0.6751 -0.1433 -0.3261
 1701TIP3    H1 5044   7.239   3.186   6.969 -0.8615 -0.0911 -0.3679
 1701TIP3    H2 5045   7.194   3.042   6.956 -1.4803  0.1089 -0.4408
 1702TIP3   OH2 5046   1.657   7.818   0.400  0.7461 -0.0540  0.2244
 1702TIP3    H1 5047   1.562   7.821   0.394  0.7509 -1.5684 -1.0789
 1702TIP3    H2 5048   1.674   7.758   0.473  0.7028 -0.1743  0.1360
 1703TIP3   OH2 5049   2.026   5.135   0.774  0.1119  0.0735 -0.0125
 1703TIP3    H1 5050   2.038   5.124   0.868 -0.5439  1.4600  0.2431
 1703TIP3    H2 5051   1.932   5.149   0.764 -0.1697 -2.2688 -1.1188
 1704TIP3   OH2 5052   3.595   7.240   0.084 -0.1064 -0.1012 -0.1976
 1704TIP3    H1 5053   3.554   7.202   0.161  0.4117 -0.8305 -0.2796
 1704TIP3    H2 5054   3.606   7.333   0.106 -2.0937  0.1648 -0.3178
 1705TIP3   OH2 5055   8.477   1.598   6.398  0.2231 -0.7615  0.9878
 1705TIP3    H1 5056   8.394   1.594   6.350 -0.4598 -1.4905  2.2098
 1705TIP3    H2 5057   8.458   1.653   6.474  1.9163  2.3375 -0.7347
 1706TIP3   OH2 5058   5.162   0.813   0.974  0.1354 -0.3691  1.2328
 1706TIP3    H1 5059   5.110   0.801   1.054  0.2620 -0.4935  1.2965
 1706TIP3    H2 5060   5.099   0.802   0.903  0.0344 -0.3205  1.3146
 1707TIP3   OH2 5061   0.068   2.154   5.267 -0.0040  0.1078 -0.0706
 1707TIP3    H1 5062   0.038   2.161   5.177 -1.8776  0.9097  0.5820
 1707TIP3    H2 5063   0.021   2.223   5.314  0.8339 -0.3780  1.5520
 1708TIP3   OH2 5064   3.336   7.268   0.230 -0.0883  0.1206  0.6771
 1708TIP3    H1 5065   3.389   7.346   0.248 -1.1081  0.5623  1.8048
 1708TIP3    H2 5066   3.396   7.195   0.243  1.3172  0.7520 -1.9168
 1709TIP3   OH2 5067   5.921   6.026   0.684 -0.2482  0.6656 -0.1621
 1709TIP3    H1 5068   5.967   5.956   0.730 -0.3847  1.2215  0.8298
 1709TIP3    H2 5069   5.830   5.997   0.682 -0.3247  0.8699  0.3548
 1710TIP3   OH2 5070   2.465   6.626   0.001 -0.2301 -0.5488 -0.7045
 1710TIP3    H1 5071   2.400   6.618   0.071 -1.2634  0.4564 -1.5342
 1710TIP3    H2 5072   2.439   6.704  -0.047  1.7638  0.0324 -0.8891
 1711TIP3   OH2 5073   1.873   2.954   6.609  0.2061  0.1218 -0.5388
 1711TIP3    H1 5074   1.805   2.905   6.562  0.6286 -1.3745  0.3715
 1711TIP3    H2 5075   1.825   3.023   6.654 -0.7237 -0.8771  0.0309
 1712TIP3   OH2 5076   1.725   4.407   0.495 -0.5995  0.0678 -0.5622
 1712TIP3    H1 5077   1.719   4.502   0.488  0.9796  0.2408  0.1555
 1712TIP3    H2 5078   1.682   4.386   0.578 -1.0476  0.1407 -0.7750
 1713TIP3   OH2 5079   2.571   6.883   1.316 -0.0295  0.0489 -0.0451
 1713TIP3    H1 5080   2.490   6.906   1.360  1.0429  0.4098  1.7867
 1713TIP3    H2 5081   2.583   6.951   1.250 -0.9256  0.3131  0.0636
 1714TIP3   OH2 5082   1.763   7.126   0.506 -0.2176  0.0349 -0.6123
 1714TIP3    H1 5083   1.684   7.179   0.492 -0.3294  0.2797  0.8231
 1714TIP3    H2 5084   1.750   7.048   0.453 -1.1245  0.3826 -0.9089
 1715TIP3   OH2 5085   6.106   0.621   2.999  0.1913 -0.0543 -0.2472
 1715TIP3    H1 5086   6.121   0.575   2.917 -0.2303  1.5904 -1.2865
 1715TIP3    H2 5087   6.031   0.577   3.039 -0.8947  0.4078 -1.7463
 1716TIP3   OH2 5088   2.971   7.432   0.435  0.2389 -0.4207 -0.3476
 1716TIP3    H1 5089   3.000   7.387   0.514 -0.5759 -0.2671  0.0447
 1716TIP3    H2 5090   2.958   7.362   0.370  0.7430 -0.5629 -0.2960
 1717TIP3   OH2 5091   8.543   1.680   5.430  0.8184  0.3184  0.3295
 1717TIP3    H1 5092   8.577   1.768   5.412  1.9730 -0.5570 -2.1128
 1717TIP3    H2 5093   8.594   1.623   5.371  1.3529 -2.2243  3.1179
 1718TIP3   OH2 5094   2.450   4.597   0.758 -0.0778 -0.1793  0.7265
 1718TIP3    H1 5095   2.522   4.615   0.818  0.8115  2.6644 -1.0818
 1718TIP3    H2 5096   2.492   4.571   0.676 -1.1398 -0.0889  0.1353
 1719TIP3   OH2 5097   6.120   1.536   0.817  0.1313 -0.2054 -0.0025
 1719TIP3    H1 5098   6.068   1.505   0.892 -1.8942  0.4502 -1.1069
 1719TIP3    H2 5099   6.211   1.519   0.843 -0.6987 -3.2060  1.1423
 1720TIP3   OH2 5100   6.820   1.834   6.589  0.5634  0.4315  0.3800
 1720TIP3    H1 5101   6.859   1.858   6.673  0.4843 -0.6164  0.7295
 1720TIP3    H2 5102   6.728   1.818   6.609  0.0013  2.5862 -0.3833
 1721TIP3   OH2 5103   3.920   4.885   0.525 -0.2073 -0.0334  0.0791
 1721TIP3    H1 5104   3.840   4.866   0.575 -0.2463  0.7374  0.3152
 1721TIP3    H2 5105   3.971   4.804   0.531 -0.2681  0.0075  1.2701
 1722TIP3   OH2 5106   1.472   7.691   1.453 -0.2294  0.2869 -0.4393
 1722TIP3    H1 5107   1.381   7.703   1.480 -0.1195  1.6018 -0.6049
 1722TIP3    H2 5108   1.510   7.779   1.458  0.9908 -0.2305 -0.5072
 1723TIP3   OH2 5109   5.591   1.193   1.308 -0.2003  0.0216 -0.3514
 1723TIP3    H1 5110   5.502   1.169   1.281 -0.7476  1.8039 -0.2134
 1723TIP3    H2 5111   5.617   1.124   1.368 -2.4727  0.7455  1.5508
 1724TIP3   OH2 5112   1.028   1.291   6.516 -0.6110 -0.1293  0.2932
 1724TIP3    H1 5113   0.994   1.337   6.440 -0.6936  0.1645  0.5077
 1724TIP3    H2 5114   1.089   1.352   6.556 -1.3719  0.1369  1.0705
 1725TIP3   OH2 5115   5.745   6.546   0.752  0.2764 -0.0774 -0.5927
 1725TIP3    H1 5116   5.802   6.570   0.678  1.2142 -0.1323  0.0989
 1725TIP3    H2 5117   5.791   6.579   0.829  0.2483 -1.6521  0.1313
 1726TIP3   OH2 5118   7.350   1.920   5.778  0.4564 -0.4801 -0.0691
 1726TIP3    H1 5119   7.265   1.946   5.743  0.4480 -1.5083 -0.8309
 1726TIP3    H2 5120   7.380   1.996   5.827 -0.9845 -0.1706  0.3497
 1727TIP3   OH2 5121   1.876   7.527   0.006 -0.4062  0.0667  0.3849
 1727TIP3    H1 5122   1.943   7.576   0.054 -1.0030  1.0529  0.2316
 1727TIP3    H2 5123   1.882   7.438   0.040 -1.1761  0.8576  2.6997
 1728TIP3   OH2 5124   8.419   3.786   6.358 -0.1145 -0.5957 -0.0922
 1728TIP3    H1 5125   8.387   3.830   6.280  1.5427  0.1166 -0.3861
 1728TIP3    H2 5126   8.485   3.845   6.394  1.2173 -2.2438  0.2253
 1729TIP3   OH2 5127   2.230   3.336   5.755 -0.5863 -0.1097 -0.3770
 1729TIP3    H1 5128   2.323   3.359   5.759 -0.2806 -1.2762 -0.4896
 1729TIP3    H2 5129   2.186   3.401   5.810  0.4086 -0.0905  0.4012
 1730TIP3   OH2 5130   1.265   4.525   0.576  0.3327  0.1130  0.2724
 1730TIP3    H1 5131   1.228   4.484   0.654  1.8462  0.1752  1.0402
 1730TIP3    H2 5132   1.263   4.619   0.596 -1.3329  0.3032 -0.6905
 1731TIP3   OH2 5133   3.181   3.876   0.245  0.2986  0.6012  0.0509
 1731TIP3    H1 5134   3.093   3.891   0.211  0.0016 -1.0955  0.0374
 1731TIP3    H2 5135   3.239   3.914   0.179 -0.3298 -1.0598 -1.4905
 1732TIP3   OH2 5136   1.946   6.998   1.954 -0.5727 -1.0394  0.1237
 1732TIP3    H1 5137   2.003   7.001   1.877 -0.7567  0.5518  0.0348
 1732TIP3    H2 5138   2.004   7.019   2.027 -0.9463  0.1106  0.0917
 1733TIP3   OH2 5139   1.817   8.012   0.247  0.1876  0.2163 -0.0695
 1733TIP3    H1 5140   1.745   7.975   0.298 -0.5690  0.2078 -1.1328
 1733TIP3    H2 5141   1.873   7.938   0.227 -0.9035 -0.2433 -1.5042
 1734TIP3   OH2 5142   8.449   4.506   6.437 -0.5340  0.4672 -0.1836
 1734TIP3    H1 5143   8.533   4.520   6.395 -0.9994  1.9016 -0.6694
 1734TIP3    H2 5144   8.405   4.591   6.432 -1.9400 -0.2142  0.2062
 1735TIP3   OH2 5145   2.370   5.216   0.443  0.3176  0.4793  0.7613
 1735TIP3    H1 5146   2.301   5.233   0.378  0.4426 -1.6228  0.0251
 1735TIP3    H2 5147   2.331   5.242   0.526 -1.1796 -0.1614  0.2803
 1736TIP3   OH2 5148   7.641   1.340   6.591 -0.7768  0.5233  0.2525
 1736TIP3    H1 5149   7.733   1.362   6.601  0.0959 -2.1109 -1.4285
 1736TIP3    H2 5150   7.601   1.419   6.554  1.2318  0.9932 -0.9654
 1737TIP3   OH2 5151   1.556   2.535   6.547 -0.4779  0.4741 -0.0638
 1737TIP3    H1 5152   1.523   2.533   6.637  1.0395  0.8938  0.5174
 1737TIP3    H2 5153   1.492   2.587   6.499 -0.9087  0.8751  0.9354
 1738TIP3   OH2 5154   3.594   8.045   1.216  0.1881 -0.1186  0.1148
 1738TIP3    H1 5155   3.609   7.955   1.187  1.0671  0.0258  0.1187
 1738TIP3    H2 5156   3.611   8.099   1.139 -4.3937 -0.2034 -1.0960
 1739TIP3   OH2 5157   7.128   0.828   1.414  0.3581 -0.2644  0.4073
 1739TIP3    H1 5158   7.051   0.813   1.469  0.1110 -1.3931 -0.2502
 1739TIP3    H2 5159   7.108   0.784   1.331  2.1789 -1.5523  0.6240
 1740TIP3   OH2 5160   7.341   1.687   5.546 -0.0867  0.1602 -0.8216
 1740TIP3    H1 5161   7.293   1.607   5.567  0.3286 -0.2775 -1.4993
 1740TIP3    H2 5162   7.307   1.752   5.607 -1.4015 -0.1880 -1.1588
 1741TIP3   OH2 5163   0.864   7.975   0.491  0.3277  0.2486 -0.5302
 1741TIP3    H1 5164   0.796   8.023   0.443 -1.5617 -1.3032  0.4845
 1741TIP3    H2 5165   0.845   7.883   0.473  3.3851 -0.2014 -1.7795
 1742TIP3   OH2 5166   3.141   7.180   0.049 -0.1002 -0.0813  0.6567
 1742TIP3    H1 5167   3.183   7.125  -0.017 -1.6062 -0.9689  0.3895
 1742TIP3    H2 5168   3.212   7.229   0.089  0.8546  0.3815 -1.5348
 1743TIP3   OH2 5169   4.448   0.687   0.125 -0.5727 -0.6937 -0.0199
 1743TIP3    H1 5170   4.487   0.608   0.161 -1.2937 -0.6016  0.9805
 1743TIP3    H2 5171   4.420   0.737   0.202 -0.1484  0.5111 -0.6506
 1744TIP3   OH2 5172   1.373   4.425   1.401 -0.0138  0.6062 -0.8169
 1744TIP3    H1 5173   1.459   4.466   1.408  0.1681 -0.0296  0.7682
 1744TIP3    H2 5174   1.369   4.393   1.310  1.0328  1.4793 -1.1728
 1745TIP3   OH2 5175   2.174   5.564   2.462  0.2819 -0.4501  0.6019
 1745TIP3    H1 5176   2.128   5.603   2.388  0.1816 -2.1154 -0.2382
 1745TIP3    H2 5177   2.264   5.551   2.431  0.9219  1.2511  1.6726
 1746TIP3   OH2 5178   4.440   3.915   1.357 -0.5282  0.0662  0.2367
 1746TIP3    H1 5179   4.422   3.994   1.306 -3.9755 -0.4711  0.5434
 1746TIP3    H2 5180   4.386   3.922   1.435  0.0466 -2.0190  0.8729
 1747TIP3   OH2 5181   1.949   3.592   0.183  0.0485 -0.8572 -0.0637
 1747TIP3    H1 5182   1.878   3.581   0.119  0.1773 -0.1206 -0.3364
 1747TIP3    H2 5183   1.958   3.686   0.192 -0.7043 -0.9528  1.8878
 1748TIP3   OH2 5184   1.177   5.894   0.779 -0.0923  0.3225 -0.4447
 1748TIP3    H1 5185   1.139   5.965   0.831  2.2044  0.7734  0.6815
 1748TIP3    H2 5186   1.142   5.814   0.818 -0.8992  0.7536 -0.2720
 1749TIP3   OH2 5187   3.487   5.998   1.436  0.2951  0.6129  0.6478
 1749TIP3    H1 5188   3.479   6.094   1.433  0.3195  0.5862 -1.5612
 1749TIP3    H2 5189   3.540   5.977   1.359 -1.5122 -1.3522 -0.0934
 1750TIP3   OH2 5190   2.163   6.762   1.280  0.4162  0.5259  0.0778
 1750TIP3    H1 5191   2.174   6.842   1.228  2.6981  0.1049 -0.1378
 1750TIP3    H2 5192   2.174   6.691   1.217  0.2722  0.0265  0.6155
 1751TIP3   OH2 5193   8.225   2.142   6.914  0.2161 -0.0383 -0.3520
 1751TIP3    H1 5194   8.274   2.224   6.920  0.0965  0.1773 -2.1514
 1751TIP3    H2 5195   8.230   2.105   7.003  1.0618  1.4440  0.2402
 1752TIP3   OH2 5196   4.076   6.894   2.425 -0.3748  0.0732 -0.0809
 1752TIP3    H1 5197   4.030   6.976   2.409 -0.4636  0.1174  0.4047
 1752TIP3    H2 5198   4.059   6.874   2.517  1.9105  0.9469  0.5718
 1753TIP3   OH2 5199   7.647   2.462   6.156  0.5523  0.2741  0.0947
 1753TIP3    H1 5200   7.678   2.544   6.196 -1.4855  1.3713 -0.5349
 1753TIP3    H2 5201   7.648   2.480   6.062  1.5221 -0.9500 -0.1318
 1754TIP3   OH2 5202   2.653   6.336   0.926 -0.5702  0.3053  0.6143
 1754TIP3    H1 5203   2.623   6.317   0.837 -2.5672  1.2658  1.0405
 1754TIP3    H2 5204   2.747   6.353   0.917 -0.5051 -0.8621 -1.0976
 1755TIP3   OH2 5205   2.008   6.365   2.887 -0.0842 -0.7963  0.2523
 1755TIP3    H1 5206   2.094   6.325   2.899 -0.6814 -2.1571  0.1047
 1755TIP3    H2 5207   2.027   6.453   2.854  1.2487 -1.1161  0.1175
 1756TIP3   OH2 5208   0.771   6.903   0.070 -0.0905 -0.1594  0.0988
 1756TIP3    H1 5209   0.728   6.836   0.017  0.6088 -0.6735  0.1723
 1756TIP3    H2 5210   0.804   6.966   0.006 -2.1792  0.9815  0.1214
 1757TIP3   OH2 5211   2.454   1.788   5.686 -0.1675 -0.1115 -0.3882
 1757TIP3    H1 5212   2.401   1.842   5.745  1.8095  1.7054 -0.2348
 1757TIP3    H2 5213   2.405   1.787   5.604 -0.7063  1.1144 -0.0942
 1758TIP3   OH2 5214   8.509   1.431   6.713  0.1101  0.6070  0.1890
 1758TIP3    H1 5215   8.490   1.372   6.786  1.5350  1.8348  1.5989
 1758TIP3    H2 5216   8.484   1.381   6.635 -2.6593 -0.2361  1.5570
 1759TIP3   OH2 5217   0.199   6.185   0.707 -0.0648  0.1482  0.1178
 1759TIP3    H1 5218   0.147   6.118   0.662  2.7473 -2.1006  0.0547
 1759TIP3    H2 5219   0.257   6.219   0.638 -0.0871  1.2370  0.6280
 1760TIP3   OH2 5220   1.858   3.271   6.880  0.7790 -0.0156  0.3249
 1760TIP3    H1 5221   1.831   3.329   6.808  2.0947  0.2251 -0.0008
 1760TIP3    H2 5222   1.800   3.196   6.874  0.4673  0.2961 -0.6166
 1761TIP3   OH2 5223   3.430   6.821   1.486  0.0733 -0.7545 -0.9121
 1761TIP3    H1 5224   3.426   6.784   1.398  0.6528 -3.3993  0.1250
 1761TIP3    H2 5225   3.404   6.749   1.544 -1.8531  1.4072  0.9938
 1762TIP3   OH2 5226   0.608   2.244   6.514  0.6950 -0.3241  0.6509
 1762TIP3    H1 5227   0.521   2.243   6.475  0.8899 -0.5681  0.2256
 1762TIP3    H2 5228   0.602   2.183   6.587  0.7920 -1.1153  0.0049
 1763TIP3   OH2 5229   2.683   7.309   0.272  0.3913  0.1339  0.9479
 1763TIP3    H1 5230   2.589   7.324   0.281  0.6948  1.8004  1.7028
 1763TIP3    H2 5231   2.709   7.364   0.198  1.0315  1.0344  1.8159
 1764TIP3   OH2 5232   6.578   4.403   6.551  0.3206 -0.1794  0.5897
 1764TIP3    H1 5233   6.613   4.489   6.575 -1.4049  0.7675 -0.1904
 1764TIP3    H2 5234   6.603   4.346   6.624  1.2830  1.0319  1.2230
 1765TIP3   OH2 5235   2.655   6.741   1.533  0.1574 -0.0516  0.0900
 1765TIP3    H1 5236   2.728   6.795   1.566 -1.2133  2.0496 -0.1902
 1765TIP3    H2 5237   2.622   6.791   1.458 -2.5025 -0.2160  1.1108
 1766TIP3   OH2 5238   3.659   6.910   3.157  0.6571 -0.7605  0.6762
 1766TIP3    H1 5239   3.599   6.973   3.118  1.1727 -0.0643  0.9986
 1766TIP3    H2 5240   3.629   6.825   3.125 -1.4448 -0.5775  2.0538
 1767TIP3   OH2 5241   0.991   3.348   5.991  0.6240  0.2041 -0.4591
 1767TIP3    H1 5242   1.081   3.375   6.009  1.0290 -1.1831 -0.3069
 1767TIP3    H2 5243   0.937   3.419   6.024  1.5815 -0.0665  1.7563
 1768TIP3   OH2 5244   7.797   0.264   0.707  0.1513 -0.3029  0.2062
 1768TIP3    H1 5245   7.753   0.294   0.627 -1.8988 -2.0409  0.6491
 1768TIP3    H2 5246   7.833   0.344   0.745 -0.1470  0.7695 -1.6579
 1769TIP3   OH2 5247   5.631   1.625   0.856  0.4254 -0.1220 -0.2256
 1769TIP3    H1 5248   5.650   1.674   0.777  0.3384  0.4939  0.1317
 1769TIP3    H2 5249   5.540   1.596   0.845 -0.1752  1.4789  0.4335
 1770TIP3   OH2 5250   5.078   4.138   0.057  0.0636  0.5985  0.2178
 1770TIP3    H1 5251   5.026   4.195   0.115  0.3965  1.2785 -0.1393
 1770TIP3    H2 5252   5.168   4.168   0.068  0.2617  0.0332  0.1381
 1771TIP3   OH2 5253   4.811   7.109   1.164  0.5007  0.0154 -0.1626
 1771TIP3    H1 5254   4.728   7.062   1.158  0.4483 -0.0228  0.7994
 1771TIP3    H2 5255   4.817   7.158   1.081  0.7341 -1.9618 -1.3532
 1772TIP3   OH2 5256   6.172   6.600   2.107 -0.5511 -0.2945 -0.1703
 1772TIP3    H1 5257   6.112   6.671   2.129  1.3736  1.5192 -0.5771
 1772TIP3    H2 5258   6.179   6.604   2.011 -0.3457 -0.9566 -0.1838
 1773TIP3   OH2 5259   3.427   6.456   0.476 -0.1663 -0.1436 -0.2324
 1773TIP3    H1 5260   3.364   6.429   0.409 -0.1564  0.2958 -0.4280
 1773TIP3    H2 5261   3.497   6.391   0.471  0.1440  0.2393 -1.0994
 1774TIP3   OH2 5262   6.661   0.509   0.281  0.1525 -0.2666 -0.3473
 1774TIP3    H1 5263   6.699   0.561   0.210 -0.2088  0.1577 -0.2312
 1774TIP3    H2 5264   6.699   0.422   0.270  0.8536  0.0574 -0.4657
 1775TIP3   OH2 5265   2.538   7.371   1.762  0.1481  0.3064  0.2548
 1775TIP3    H1 5266   2.592   7.311   1.711  1.9364  1.3435  0.9073
 1775TIP3    H2 5267   2.590   7.391   1.840 -1.5924  0.5548  1.3835
 1776TIP3   OH2 5268   8.085   1.800   6.013  0.5342  0.2509  0.0646
 1776TIP3    H1 5269   8.059   1.746   6.088  0.0357 -1.3776 -1.2582
 1776TIP3    H2 5270   8.067   1.890   6.041  1.2033 -0.2645  2.2296
 1777TIP3   OH2 5271   6.995   7.618   4.440 -0.4433  0.3441  0.2812
 1777TIP3    H1 5272   6.970   7.704   4.406 -0.7692  0.7355  1.5172
 1777TIP3    H2 5273   7.058   7.637   4.510 -0.4466 -0.4263  0.4975
 1778TIP3   OH2 5274   6.654   6.623   2.453  0.8210  0.1650 -0.4254
 1778TIP3    H1 5275   6.637   6.529   2.460  2.2321  0.0810  2.2864
 1778TIP3    H2 5276   6.723   6.630   2.388  1.0317 -0.7209 -0.3089
 1779TIP3   OH2 5277   5.709   6.513   4.459  0.1880  0.1167  0.1426
 1779TIP3    H1 5278   5.621   6.548   4.466  0.7786  1.5909  0.3120
 1779TIP3    H2 5279   5.766   6.585   4.484  1.4587 -0.7537 -0.1754
 1780TIP3   OH2 5280   6.794   7.893   6.277  0.5366  0.0448  0.3896
 1780TIP3    H1 5281   6.753   7.909   6.193 -0.2798  1.3747  1.0206
 1780TIP3    H2 5282   6.727   7.847   6.328  0.7090  0.0099  0.5851
 1781TIP3   OH2 5283   0.339   7.692   2.536  0.4871 -0.2901  0.5057
 1781TIP3    H1 5284   0.299   7.779   2.529 -0.7907 -0.7608  1.5987
 1781TIP3    H2 5285   0.308   7.645   2.458 -0.9412 -0.5703  1.2178
 1782TIP3   OH2 5286   0.698   0.197   4.568  0.0520  0.2806  0.6655
 1782TIP3    H1 5287   0.626   0.184   4.505  0.6753 -0.8749  0.1675
 1782TIP3    H2 5288   0.661   0.171   4.652 -1.1963  3.0914  1.0379
 1783TIP3   OH2 5289   0.238   1.366   2.571  0.0032 -0.2447  0.5412
 1783TIP3    H1 5290   0.211   1.457   2.558 -2.2872 -1.1812 -1.8678
 1783TIP3    H2 5291   0.159   1.322   2.603  0.9196 -1.5197  1.0891
 1784TIP3   OH2 5292   6.570   5.786   3.354  0.6026 -0.7026 -0.8407
 1784TIP3    H1 5293   6.510   5.746   3.417  1.6999  1.2187  1.5223
 1784TIP3    H2 5294   6.655   5.747   3.374  1.5798  2.2770  1.1275
 1785TIP3   OH2 5295   2.078   2.349   3.705 -0.0822 -0.7473  0.8610
 1785TIP3    H1 5296   2.017   2.302   3.762 -0.2186 -0.3636  1.0347
 1785TIP3    H2 5297   2.056   2.441   3.717 -0.1155 -0.6611  0.1859
 1786TIP3   OH2 5298   2.002   0.712   3.534  0.2469  0.4170 -0.0130
 1786TIP3    H1 5299   2.040   0.794   3.502 -1.4503  2.2604  2.4263
 1786TIP3    H2 5300   1.922   0.740   3.580  0.5700 -2.4069  2.4152
 1787TIP3   OH2 5301   7.388   5.684   3.840 -0.2874  0.1127  0.1449
 1787TIP3    H1 5302   7.469   5.642   3.809 -0.5486 -0.7385  0.5889
 1787TIP3    H2 5303   7.337   5.612   3.876 -0.6026  0.8706  1.2326
 1788TIP3   OH2 5304   0.586   1.866   3.970 -0.9940  0.6643  0.4102
 1788TIP3    H1 5305   0.526   1.940   3.976 -2.2572 -0.1816 -1.2384
 1788TIP3    H2 5306   0.593   1.848   3.876  0.1652 -0.6073  0.7076
 1789TIP3   OH2 5307   1.750   2.731   5.912 -0.6182  0.7445 -0.1223
 1789TIP3    H1 5308   1.682   2.705   5.974 -0.7151  0.3520 -0.3915
 1789TIP3    H2 5309   1.754   2.659   5.849  0.8295  0.2325  0.5307
 1790TIP3   OH2 5310   1.050   0.316   4.747  0.5198  0.2774  0.2746
 1790TIP3    H1 5311   0.989   0.305   4.820  0.6010  0.0256  0.3044
 1790TIP3    H2 5312   0.996   0.354   4.677 -0.0181 -1.2121 -0.1640
 1791TIP3   OH2 5313   6.465   7.230   3.778 -0.3001 -0.8137 -0.1051
 1791TIP3    H1 5314   6.447   7.262   3.866  1.7508  0.6949 -0.1842
 1791TIP3    H2 5315   6.398   7.165   3.761 -1.9700  0.3796  1.7740
 1792TIP3   OH2 5316   8.181   1.729   3.798 -0.1300  0.1948  0.0217
 1792TIP3    H1 5317   8.194   1.738   3.703 -2.4635  0.7219 -0.2807
 1792TIP3    H2 5318   8.255   1.777   3.837  0.2283  0.9351 -1.5234
 1793TIP3   OH2 5319   5.290   6.666   3.575  0.2691  0.0962  0.5735
 1793TIP3    H1 5320   5.197   6.658   3.597  0.5909 -1.5503  1.4051
 1793TIP3    H2 5321   5.312   6.756   3.596 -0.8444  0.1423  1.5756
 1794TIP3   OH2 5322   1.630   0.205   4.638  0.0319 -0.2666  0.0802
 1794TIP3    H1 5323   1.671   0.143   4.697  2.2892 -0.9081 -2.1122
 1794TIP3    H2 5324   1.539   0.176   4.632  0.8561 -2.8659 -0.2463
 1795TIP3   OH2 5325   7.808   8.084   3.774  0.1310  0.2885 -0.3246
 1795TIP3    H1 5326   7.738   8.038   3.821  1.1643 -0.9099  0.0746
 1795TIP3    H2 5327   7.776   8.093   3.685 -1.2064  1.2040  0.2249
 1796TIP3   OH2 5328   8.513   1.933   4.914 -0.2285 -0.3508  0.1189
 1796TIP3    H1 5329   8.428   1.900   4.884 -0.5526  0.8703 -0.3534
 1796TIP3    H2 5330   8.565   1.942   4.833  0.1150 -0.4352  0.3279
 1797TIP3   OH2 5331   1.795   2.754   4.562 -0.4301 -0.0797  0.5418
 1797TIP3    H1 5332   1.826   2.759   4.652 -0.2943  0.0589  0.4876
 1797TIP3    H2 5333   1.812   2.841   4.525 -0.6610 -0.0751  0.4386
 1798TIP3   OH2 5334   8.216   3.445   6.315 -0.1043 -0.3801  0.9109
 1798TIP3    H1 5335   8.308   3.470   6.307 -0.1650 -0.3764  0.1748
 1798TIP3    H2 5336   8.215   3.351   6.296 -0.2780 -0.3416  0.7294
 1799TIP3   OH2 5337   2.495   0.535   3.355  0.3379 -0.6616 -0.1060
 1799TIP3    H1 5338   2.415   0.565   3.397  0.7838  1.2004 -0.5354
 1799TIP3    H2 5339   2.545   0.493   3.425  0.8956  2.0210  1.1677
 1800TIP3   OH2 5340   0.957   1.599   4.792  0.0507  0.3373 -0.3530
 1800TIP3    H1 5341   0.953   1.509   4.762  1.9699 -0.2285  0.9871
 1800TIP3    H2 5342   0.938   1.594   4.886  0.7495  1.2581 -0.1552
 1801TIP3   OH2 5343   2.380   0.470   4.157 -0.1012  0.2657  0.5502
 1801TIP3    H1 5344   2.471   0.449   4.175  0.0658  0.0842 -0.5106
 1801TIP3    H2 5345   2.383   0.539   4.091 -0.7098  1.3372  1.6285
 1802TIP3   OH2 5346   0.703   0.540   3.821 -0.5625 -0.1194  0.1678
 1802TIP3    H1 5347   0.667   0.455   3.847 -0.8348 -0.0411  0.0540
 1802TIP3    H2 5348   0.674   0.552   3.731 -3.9606  1.8967  1.4399
 1803TIP3   OH2 5349   7.281   6.599   2.265 -0.8386  0.5457  0.6542
 1803TIP3    H1 5350   7.292   6.666   2.197  1.0010 -0.5374 -0.1558
 1803TIP3    H2 5351   7.300   6.645   2.347  1.6024  0.7714  0.0008
 1804TIP3   OH2 5352   6.486   7.060   4.510 -0.1168  0.4155  0.0205
 1804TIP3    H1 5353   6.534   6.978   4.501 -1.1339 -0.5017  2.4236
 1804TIP3    H2 5354   6.553   7.128   4.517  0.8233 -0.6157  1.3000
 1805TIP3   OH2 5355   0.411   6.543   4.055 -0.0143  0.1611 -0.5017
 1805TIP3    H1 5356   0.382   6.492   3.980 -1.1471  1.7957 -1.2051
 1805TIP3    H2 5357   0.384   6.491   4.131 -0.2729 -0.7457 -1.2042
 1806TIP3   OH2 5358   8.315   7.231   3.966  0.8119  0.0807 -0.0387
 1806TIP3    H1 5359   8.256   7.301   3.937 -0.2525 -1.0427 -0.6037
 1806TIP3    H2 5360   8.263   7.151   3.961  1.6425 -0.6046  1.8055
 1807TIP3   OH2 5361   1.676   2.801   5.457 -0.4152  0.5549  0.3570
 1807TIP3    H1 5362   1.749   2.830   5.512 -1.3344  0.1953  1.7835
 1807TIP3    H2 5363   1.639   2.882   5.421  1.1988  0.6936 -1.0831
 1808TIP3   OH2 5364   8.441   2.092   6.722  0.1931 -0.4109  0.0757
 1808TIP3    H1 5365   8.383   2.076   6.648  0.1368 -3.5465  0.7242
 1808TIP3    H2 5366   8.382   2.102   6.797  0.3669 -2.1900  0.4905
 1809TIP3   OH2 5367   0.970   2.392   4.670 -0.0037  0.0647 -0.8292
 1809TIP3    H1 5368   1.036   2.462   4.668 -0.4094  0.4436 -1.0889
 1809TIP3    H2 5369   0.987   2.342   4.590 -0.6331  0.7307 -1.3926
 1810TIP3   OH2 5370   0.915   2.260   4.904  0.0129 -0.4015  0.1330
 1810TIP3    H1 5371   0.851   2.209   4.855 -1.1157  0.7348  0.3873
 1810TIP3    H2 5372   0.969   2.301   4.838  0.6844 -1.5947 -0.0801
 1811TIP3   OH2 5373   7.435   8.045   6.547 -0.1486 -0.4591 -0.2049
 1811TIP3    H1 5374   7.381   7.974   6.581  0.8251 -1.1264 -0.0279
 1811TIP3    H2 5375   7.376   8.120   6.544 -0.7532 -0.8595  1.1940
 1812TIP3   OH2 5376   0.325   6.200   0.944  0.5866  0.0880 -0.0987
 1812TIP3    H1 5377   0.267   6.187   0.869 -0.3706 -0.2634  0.6909
 1812TIP3    H2 5378   0.341   6.112   0.978 -0.2670  0.3631  1.0538
 1813TIP3   OH2 5379   2.015   0.406   2.828  0.3299 -0.4827 -0.3266
 1813TIP3    H1 5380   2.028   0.437   2.917 -1.5143  0.4178 -0.3504
 1813TIP3    H2 5381   1.992   0.313   2.838 -0.4229 -0.2431  0.1755
 1814TIP3   OH2 5382   0.808   0.877   4.616 -0.5874  0.0940 -0.6348
 1814TIP3    H1 5383   0.720   0.911   4.600 -0.2479  1.5903  0.5943
 1814TIP3    H2 5384   0.838   0.923   4.694  1.1662 -0.6558 -0.8401
 1815TIP3   OH2 5385   7.834   7.888   1.830 -0.0252  0.2297 -0.1020
 1815TIP3    H1 5386   7.815   7.948   1.757  1.1468  0.1894 -0.4565
 1815TIP3    H2 5387   7.779   7.919   1.901  0.0654  1.3277 -0.4918
 1816TIP3   OH2 5388   0.458   0.479   4.223 -0.2348  0.0250 -0.6850
 1816TIP3    H1 5389   0.505   0.396   4.221 -1.0544 -0.4692 -0.0424
 1816TIP3    H2 5390   0.468   0.514   4.135 -0.5708 -1.1555 -1.2112
 1817TIP3   OH2 5391   6.819   7.140   3.278 -0.3403  0.1828 -0.2229
 1817TIP3    H1 5392   6.879   7.092   3.221 -0.8979 -0.6813 -0.0984
 1817TIP3    H2 5393   6.810   7.226   3.237 -0.0745 -0.1488 -0.9762
 1818TIP3   OH2 5394   8.545   7.731   3.729 -0.3701  0.1040  0.1869
 1818TIP3    H1 5395   8.514   7.654   3.776  0.5253 -0.7845 -0.6543
 1818TIP3    H2 5396   8.508   7.722   3.641  0.7537 -0.0241 -0.2839
 1819TIP3   OH2 5397   2.306   1.141   2.773  0.2672 -0.2542  0.0118
 1819TIP3    H1 5398   2.254   1.119   2.695 -0.8029 -0.2997  0.7272
 1819TIP3    H2 5399   2.284   1.073   2.836  0.0086  0.6191  0.8613
 1820TIP3   OH2 5400   1.500   5.724   3.768 -0.5875  0.1594  0.2598
 1820TIP3    H1 5401   1.414   5.764   3.784 -1.1424 -1.0165  0.3218
 1820TIP3    H2 5402   1.563   5.792   3.788 -1.5448  1.4809 -1.1131
 1821TIP3   OH2 5403   2.122   2.236   6.264 -0.1478  0.2884  0.2673
 1821TIP3    H1 5404   2.098   2.235   6.357 -1.0859 -1.0873  0.0178
 1821TIP3    H2 5405   2.047   2.275   6.220  0.0723  0.4372  0.0230
 1822TIP3   OH2 5406   0.783   7.615   3.993 -0.4304 -0.1130 -0.5153
 1822TIP3    H1 5407   0.769   7.657   4.078 -0.9304 -0.8953 -0.2055
 1822TIP3    H2 5408   0.700   7.571   3.974  0.0915 -0.9773 -0.8203
 1823TIP3   OH2 5409   1.128   1.806   2.940 -0.1205  0.6054 -0.1314
 1823TIP3    H1 5410   1.066   1.750   2.893  1.0731  0.8378 -2.0394
 1823TIP3    H2 5411   1.077   1.843   3.012 -1.6325 -0.8418 -0.4297
 1824TIP3   OH2 5412   0.293   7.481   3.579  0.3565 -0.3304 -0.4295
 1824TIP3    H1 5413   0.218   7.534   3.608  0.2533 -0.4585 -0.4597
 1824TIP3    H2 5414   0.368   7.540   3.585  0.3101 -0.3079 -0.0465
 1825TIP3   OH2 5415   2.534   7.817   2.923 -0.4067  1.0821 -0.0642
 1825TIP3    H1 5416   2.512   7.805   2.831  1.1091  1.1807 -0.4463
 1825TIP3    H2 5417   2.460   7.866   2.959 -2.4912 -1.6678 -0.4899
 1826TIP3   OH2 5418   2.875   0.618   2.344 -0.9607  0.2052  0.7236
 1826TIP3    H1 5419   2.940   0.548   2.336  1.2791  2.2497  0.7159
 1826TIP3    H2 5420   2.820   0.609   2.266 -0.4624 -1.2962  0.5313
 1827TIP3   OH2 5421   1.580   0.391   2.473  0.0993 -0.6525 -0.4760
 1827TIP3    H1 5422   1.656   0.409   2.529 -0.5697  1.3871 -0.1634
 1827TIP3    H2 5423   1.510   0.367   2.533  0.2964 -1.8004 -0.7049
 1828TIP3   OH2 5424   8.516   7.671   2.449  0.4866  0.0811  0.7312
 1828TIP3    H1 5425   8.461   7.595   2.467  1.5650 -0.5861  1.2460
 1828TIP3    H2 5426   8.482   7.706   2.367 -0.4363 -0.5648  0.8278
 1829TIP3   OH2 5427   1.522   1.659   3.801 -0.2561  0.0518  0.1479
 1829TIP3    H1 5428   1.452   1.621   3.854  0.1307  1.3732  1.6660
 1829TIP3    H2 5429   1.482   1.676   3.716 -1.1714 -1.1706  0.3282
 1830TIP3   OH2 5430   3.851   0.528   3.541 -0.8859  0.0260 -0.4041
 1830TIP3    H1 5431   3.784   0.591   3.564  0.1130  1.4839 -1.3702
 1830TIP3    H2 5432   3.803   0.453   3.504 -2.0882  0.0718  1.0382
 1831TIP3   OH2 5433   0.157   7.650   3.019 -0.3730 -0.5215 -0.0467
 1831TIP3    H1 5434   0.159   7.577   2.958 -0.8824 -1.0263  0.5339
 1831TIP3    H2 5435   0.240   7.696   3.004 -0.5689 -0.5330 -1.2326
 1832TIP3   OH2 5436   6.497   6.825   3.373 -0.2272 -0.1945 -0.3082
 1832TIP3    H1 5437   6.494   6.748   3.316  0.3916 -0.1735 -0.3665
 1832TIP3    H2 5438   6.567   6.806   3.436 -1.3837 -0.5472  0.9139
 1833TIP3   OH2 5439   3.343   0.446   3.476  0.3059 -0.2597 -0.0659
 1833TIP3    H1 5440   3.257   0.482   3.495  0.6587 -1.0611  3.4142
 1833TIP3    H2 5441   3.387   0.515   3.426 -1.5201  1.1258  0.1813
 1834TIP3   OH2 5442   3.554   0.570   4.013 -0.1525 -0.4994  0.8145
 1834TIP3    H1 5443   3.520   0.579   4.102 -1.3640 -0.5348  0.3701
 1834TIP3    H2 5444   3.476   0.575   3.958  0.4688 -1.6032 -0.1743
 1835TIP3   OH2 5445   1.365   7.709   3.350  0.2171  0.2265  0.0339
 1835TIP3    H1 5446   1.368   7.614   3.353 -4.0055  0.0316  1.0088
 1835TIP3    H2 5447   1.310   7.729   3.275  0.5048  1.8704  0.2393
 1836TIP3   OH2 5448   8.120   7.556   2.844 -0.2208  0.1304  0.6265
 1836TIP3    H1 5449   8.206   7.598   2.838  0.1440 -0.5653  0.9532
 1836TIP3    H2 5450   8.094   7.541   2.753  0.8074 -1.2974  0.5619
 1837TIP3   OH2 5451   0.390   7.368   3.218  0.5216 -0.0690  0.1970
 1837TIP3    H1 5452   0.308   7.340   3.177  0.8536  0.5761 -0.9308
 1837TIP3    H2 5453   0.454   7.366   3.147  1.4736 -0.4972  1.0591
 1838TIP3   OH2 5454   7.266   6.474   2.707 -0.7860  0.2142  0.0369
 1838TIP3    H1 5455   7.261   6.551   2.764 -0.7011 -0.3468  0.8070
 1838TIP3    H2 5456   7.345   6.428   2.735 -1.4023 -0.7101  0.2812
 1839TIP3   OH2 5457   0.159   0.643   4.223 -0.4361  0.4506 -0.9581
 1839TIP3    H1 5458   0.231   0.589   4.192  0.5760  1.1206  0.1941
 1839TIP3    H2 5459   0.108   0.662   4.144  0.2152 -0.6541 -1.6558
 1840TIP3   OH2 5460   8.188   6.894   3.414  0.3611  0.0905  0.2049
 1840TIP3    H1 5461   8.117   6.951   3.443  0.4189  0.0677  0.3932
 1840TIP3    H2 5462   8.248   6.891   3.488 -0.1091 -0.9834  0.5710
 1841TIP3   OH2 5463   0.189   7.682   1.141  0.0715  0.2718 -0.3718
 1841TIP3    H1 5464   0.099   7.655   1.158 -0.1990  0.0511 -2.0476
 1841TIP3    H2 5465   0.240   7.601   1.146 -0.2839 -0.1114 -2.3289
 1842TIP3   OH2 5466   3.154   2.346   4.884  0.2786  0.2322  0.2548
 1842TIP3    H1 5467   3.135   2.309   4.798 -2.8600  2.0848  0.0603
 1842TIP3    H2 5468   3.196   2.430   4.866 -1.6262  1.2569  0.4494
 1843TIP3   OH2 5469   8.608   6.710   0.598  0.2768  0.1169 -0.1156
 1843TIP3    H1 5470   8.520   6.747   0.587  0.4388  0.4757 -0.2110
 1843TIP3    H2 5471   8.598   6.617   0.576 -0.1371  0.0986  0.1441
 1844TIP3   OH2 5472   1.637   0.332   5.312 -0.4104 -0.1248 -0.3862
 1844TIP3    H1 5473   1.672   0.403   5.259  0.4092 -0.8853 -0.8811
 1844TIP3    H2 5474   1.602   0.270   5.249 -1.5852  0.0602  0.0602
 1845TIP3   OH2 5475   2.416   1.610   3.571 -0.0698  0.4294  0.2455
 1845TIP3    H1 5476   2.352   1.651   3.514  1.9438  1.3075 -1.4171
 1845TIP3    H2 5477   2.433   1.525   3.531  0.9802  0.8441 -0.1954
 1846TIP3   OH2 5478   3.610   1.062   4.026  0.1404  0.3688  0.5854
 1846TIP3    H1 5479   3.552   1.136   4.011 -0.4909  0.6562  3.9807
 1846TIP3    H2 5480   3.551   0.989   4.046  0.8064 -0.7524 -1.3306
 1847TIP3   OH2 5481   1.574   6.548   3.248  0.0427  0.3748 -0.1358
 1847TIP3    H1 5482   1.505   6.550   3.314  0.7165 -0.9418  0.6349
 1847TIP3    H2 5483   1.639   6.612   3.278  0.0302  0.2630  0.1282
 1848TIP3   OH2 5484   1.182   0.843   3.902 -0.5384 -0.2677 -0.5698
 1848TIP3    H1 5485   1.200   0.766   3.957  0.2355  0.6293  0.4527
 1848TIP3    H2 5486   1.091   0.832   3.875 -0.0855 -2.1349 -1.4003
 1849TIP3   OH2 5487   3.855   1.540   2.853 -0.4078  0.5354 -0.3858
 1849TIP3    H1 5488   3.765   1.568   2.866 -0.5917 -0.4604  0.5547
 1849TIP3    H2 5489   3.848   1.450   2.820  0.2579 -0.1814  1.3734
 1850TIP3   OH2 5490   1.102   5.582   2.637  0.2476 -0.3488 -0.2471
 1850TIP3    H1 5491   1.044   5.642   2.684 -0.9581 -0.4456 -1.5446
 1850TIP3    H2 5492   1.085   5.601   2.544  2.3430 -0.3581 -0.6607
 1851TIP3   OH2 5493   8.237   7.067   1.471 -0.6776  0.0460 -0.3621
 1851TIP3    H1 5494   8.257   7.132   1.404  1.1433 -1.2426 -1.1003
 1851TIP3    H2 5495   8.242   6.983   1.426 -2.6102 -0.6491  0.6750
 1852TIP3   OH2 5496   0.748   2.271   3.495  0.2406 -0.4563 -0.2998
 1852TIP3    H1 5497   0.689   2.339   3.528  0.6284  0.0313 -0.6011
 1852TIP3    H2 5498   0.830   2.317   3.476 -0.0259 -0.6783 -2.1334
 1853TIP3   OH2 5499   1.588   0.196   2.266  0.4060 -0.2410 -0.2140
 1853TIP3    H1 5500   1.577   0.247   2.346 -2.4564 -3.6615  1.7116
 1853TIP3    H2 5501   1.646   0.124   2.292  0.5956 -0.6182 -1.6367
 1854TIP3   OH2 5502   4.138   1.704   0.163  0.2351  0.3325  0.2641
 1854TIP3    H1 5503   4.059   1.668   0.123  0.3642  1.6133 -1.1906
 1854TIP3    H2 5504   4.184   1.627   0.197 -0.6416 -0.6328 -0.6870
 1855TIP3   OH2 5505   0.561   7.010   1.783 -0.2832 -0.1812 -0.2781
 1855TIP3    H1 5506   0.636   7.016   1.723  0.0185  1.2351  0.2190
 1855TIP3    H2 5507   0.489   7.052   1.735  0.0405  1.2529  0.4458
 1856TIP3   OH2 5508   0.612   6.903   2.847  0.0912  0.2840 -0.2178
 1856TIP3    H1 5509   0.575   6.985   2.816 -0.9930 -0.5118 -1.0954
 1856TIP3    H2 5510   0.691   6.890   2.794  0.0734  0.5874 -0.3136
 1857TIP3   OH2 5511   1.350   0.469   2.763  0.8467  0.3772 -0.3603
 1857TIP3    H1 5512   1.324   0.559   2.743  1.3212  0.4700 -0.5749
 1857TIP3    H2 5513   1.320   0.418   2.687 -0.9507  0.0658  0.5303
 1858TIP3   OH2 5514   0.937   6.386   3.716 -0.1502 -0.3023 -0.2075
 1858TIP3    H1 5515   0.849   6.378   3.754  0.4580  0.4387  1.4027
 1858TIP3    H2 5516   0.926   6.446   3.642 -1.0646 -0.4810 -0.2239
 1859TIP3   OH2 5517   2.067   6.408   2.285 -0.4143  0.0655 -0.0540
 1859TIP3    H1 5518   2.161   6.414   2.264 -0.5762  1.3717 -0.4996
 1859TIP3    H2 5519   2.024   6.418   2.200 -0.9701  0.0114  0.2231
 1860TIP3   OH2 5520   0.711   7.060   4.286  0.1650  0.1723  0.2240
 1860TIP3    H1 5521   0.764   7.120   4.339  0.6715  0.4922 -0.6504
 1860TIP3    H2 5522   0.774   7.015   4.230 -0.2399 -0.9782  0.6627
 1861TIP3   OH2 5523   1.715   0.752   3.606 -0.0664 -0.1149  0.2313
 1861TIP3    H1 5524   1.640   0.701   3.574  1.8071 -2.8917  0.1167
 1861TIP3    H2 5525   1.714   0.740   3.701 -0.2285  0.5335  0.3165
 1862TIP3   OH2 5526   1.907   7.650   2.645  0.3196 -0.2572  0.3480
 1862TIP3    H1 5527   1.902   7.731   2.594 -2.1743 -0.9666 -0.6192
 1862TIP3    H2 5528   1.958   7.674   2.723  0.7124  1.8932 -0.5263
 1863TIP3   OH2 5529   0.125   7.601   2.286 -0.3295 -0.2501 -0.0596
 1863TIP3    H1 5530   0.133   7.649   2.204 -1.8275 -0.0580 -0.1188
 1863TIP3    H2 5531   0.071   7.657   2.341  1.3173 -0.0183  1.3558
 1864TIP3   OH2 5532   0.981   6.575   2.922 -0.2053 -0.7677  1.1304
 1864TIP3    H1 5533   0.936   6.491   2.929  0.0211 -0.8557  1.5028
 1864TIP3    H2 5534   0.926   6.636   2.971 -0.9599 -0.4556 -0.0609
 1865TIP3   OH2 5535   0.841   6.923   2.720  0.1302 -0.6288  0.0907
 1865TIP3    H1 5536   0.928   6.940   2.756  0.3542 -0.4824 -0.5159
 1865TIP3    H2 5537   0.847   6.948   2.628 -0.6830 -0.1990  0.1498
 1866TIP3   OH2 5538   1.062   5.621   5.258  0.2810  0.5694  0.0163
 1866TIP3    H1 5539   1.132   5.590   5.201  1.6088  1.4698  1.1236
 1866TIP3    H2 5540   1.064   5.561   5.333 -0.5208  0.2418 -0.2219
 1867TIP3   OH2 5541   2.750   2.859   5.611 -0.6446  0.1204 -0.1725
 1867TIP3    H1 5542   2.708   2.937   5.647 -0.0339 -0.2077  1.2734
 1867TIP3    H2 5543   2.687   2.789   5.625  0.3816 -0.3877  2.0707
 1868TIP3   OH2 5544   3.013   1.157   4.889  0.0243 -0.1333 -0.2637
 1868TIP3    H1 5545   3.081   1.093   4.911 -0.3074 -0.6557 -0.7306
 1868TIP3    H2 5546   2.948   1.149   4.959 -0.0781 -0.4019 -0.3876
 1869TIP3   OH2 5547   2.843   1.129   5.121 -0.0136 -0.6726 -0.1845
 1869TIP3    H1 5548   2.788   1.073   5.066 -0.9715 -0.1632  0.2327
 1869TIP3    H2 5549   2.825   1.218   5.089  0.6562 -0.5161 -0.1175
 1870TIP3   OH2 5550   3.021   2.572   2.335 -0.1423  0.0849  0.0866
 1870TIP3    H1 5551   2.932   2.547   2.360 -0.2107  1.2203  1.0342
 1870TIP3    H2 5552   3.070   2.490   2.337 -1.0517 -0.4686  0.0520
 1871TIP3   OH2 5553   1.901   1.251   3.076 -0.5463  0.1984 -0.3956
 1871TIP3    H1 5554   1.850   1.198   3.137  0.6574  1.2182  1.5445
 1871TIP3    H2 5555   1.937   1.189   3.014 -1.7041 -0.8729 -0.0197
 1872TIP3   OH2 5556   4.281   0.525   3.396 -0.0443  0.0484 -0.5412
 1872TIP3    H1 5557   4.202   0.504   3.346 -0.2879  1.9053 -0.9730
 1872TIP3    H2 5558   4.250   0.581   3.467  0.5509 -1.2152  0.7410
 1873TIP3   OH2 5559   3.519   0.151   3.741 -0.7120  0.2716 -0.5771
 1873TIP3    H1 5560   3.529   0.188   3.829  0.2231  0.2217 -0.6518
 1873TIP3    H2 5561   3.597   0.096   3.730 -1.4449 -0.6935 -0.9639
 1874TIP3   OH2 5562   7.765   8.004   1.585  0.2672 -0.1489 -0.3045
 1874TIP3    H1 5563   7.782   8.047   1.501  0.2610 -1.7815 -1.1587
 1874TIP3    H2 5564   7.693   7.943   1.567  0.1266 -0.3594  0.9397
 1875TIP3   OH2 5565   6.525   6.479   2.132 -0.3369  0.1406  0.0140
 1875TIP3    H1 5566   6.531   6.425   2.054  1.6313 -0.1055  0.3037
 1875TIP3    H2 5567   6.437   6.465   2.165 -0.2420 -1.9514 -0.5776
 1876TIP3   OH2 5568   1.554   0.560   2.249 -0.5154  0.7067  1.1488
 1876TIP3    H1 5569   1.573   0.504   2.324 -0.9057  0.3398  0.9794
 1876TIP3    H2 5570   1.459   0.556   2.240 -0.5018  1.0320  0.8511
 1877TIP3   OH2 5571   2.060   7.046   2.191 -0.0549 -0.1991 -0.2713
 1877TIP3    H1 5572   1.975   7.021   2.229  0.5793  0.2635  1.4554
 1877TIP3    H2 5573   2.117   7.059   2.266  1.3049  0.4331 -1.4066
 1878TIP3   OH2 5574   1.273   6.434   4.408 -0.1822  0.5582 -0.4764
 1878TIP3    H1 5575   1.252   6.359   4.351  0.2711 -0.7047  0.9870
 1878TIP3    H2 5576   1.346   6.478   4.364  1.5689 -1.6201  0.1570
 1879TIP3   OH2 5577   2.291   1.668   5.227  0.1342 -0.4712 -0.1707
 1879TIP3    H1 5578   2.335   1.595   5.270  0.1259 -0.0074  0.6451
 1879TIP3    H2 5579   2.243   1.629   5.155  0.2583 -1.2450  0.1633
 1880TIP3   OH2 5580   7.680   7.250   1.623  0.4966  0.0309 -0.1427
 1880TIP3    H1 5581   7.728   7.175   1.657  0.3700  0.1992  0.4139
 1880TIP3    H2 5582   7.749   7.311   1.596  0.6033 -0.6348 -1.3952
 1881TIP3   OH2 5583   3.580   0.165   1.751  0.5001  0.0220  0.0267
 1881TIP3    H1 5584   3.516   0.158   1.822  1.4097  0.6137  0.9171
 1881TIP3    H2 5585   3.594   0.259   1.741  1.9241 -0.1259  0.4839
 1882TIP3   OH2 5586   0.424   6.697   3.688 -0.1041  0.0969  0.3711
 1882TIP3    H1 5587   0.356   6.657   3.742 -3.1057  2.9405 -1.1595
 1882TIP3    H2 5588   0.450   6.776   3.736  0.5553  0.2054 -0.1493
 1883TIP3   OH2 5589   3.867   1.182   5.403  0.1148  0.1130  0.5248
 1883TIP3    H1 5590   3.838   1.259   5.354  1.5512  0.9961  1.0617
 1883TIP3    H2 5591   3.962   1.191   5.409  0.1095 -0.7645  2.1868
 1884TIP3   OH2 5592   1.005   2.043   3.897 -0.4456  0.5874 -0.1466
 1884TIP3    H1 5593   0.949   2.096   3.841 -0.9313  0.9943  0.7279
 1884TIP3    H2 5594   0.963   2.045   3.983 -1.8603 -3.2622 -0.6546
 1885TIP3   OH2 5595   0.938   8.052   2.982 -0.1159 -0.3416  0.3546
 1885TIP3    H1 5596   0.846   8.037   2.957 -0.2350 -0.1649  0.6817
 1885TIP3    H2 5597   0.988   8.020   2.908 -0.4977  0.9181 -0.4695
 1886TIP3   OH2 5598   8.441   7.107   3.556 -0.1674 -0.2285 -0.0296
 1886TIP3    H1 5599   8.456   7.024   3.600 -2.2800  0.5636  2.2930
 1886TIP3    H2 5600   8.461   7.173   3.622 -3.0709  0.9951 -0.3196
 1887TIP3   OH2 5601   6.994   1.612   3.160  0.6413 -0.7290  0.0494
 1887TIP3    H1 5602   7.035   1.526   3.162  0.5214 -0.7808  0.2788
 1887TIP3    H2 5603   6.932   1.611   3.233 -0.2959 -0.9054 -0.7437
 1888TIP3   OH2 5604   0.260   8.074   3.584 -0.0897  0.3336 -0.2365
 1888TIP3    H1 5605   0.234   7.995   3.631 -0.6949 -0.3054 -1.6106
 1888TIP3    H2 5606   0.313   8.042   3.510  0.2521  1.2603 -0.4089
 1889TIP3   OH2 5607   0.565   7.165   2.772 -0.0092 -0.1678  0.3191
 1889TIP3    H1 5608   0.544   7.227   2.842 -1.6161 -1.7466  1.2733
 1889TIP3    H2 5609   0.492   7.172   2.711  0.5614 -0.0343 -0.3658
 1890TIP3   OH2 5610   4.956   0.212   3.735  0.0115  0.0705 -0.0202
 1890TIP3    H1 5611   5.010   0.134   3.749 -1.2848 -0.8684 -0.1112
 1890TIP3    H2 5612   4.887   0.205   3.801  0.4760  1.6963  0.6585
 1891TIP3   OH2 5613   2.475   1.345   0.919  0.1566  0.5840  0.2331
 1891TIP3    H1 5614   2.397   1.392   0.889  0.7477  2.7614  2.0473
 1891TIP3    H2 5615   2.526   1.330   0.840 -0.5220  2.0928 -0.5024
 1892TIP3   OH2 5616   1.180   6.920   1.802  0.1480  0.1695 -0.4790
 1892TIP3    H1 5617   1.139   7.004   1.826 -0.4686 -0.5944  1.2325
 1892TIP3    H2 5618   1.144   6.858   1.865  0.7845 -1.3443 -1.5977
 1893TIP3   OH2 5619   1.460   1.786   1.734 -0.1973  0.1697 -1.0630
 1893TIP3    H1 5620   1.406   1.788   1.655  0.8947  0.5240 -1.8288
 1893TIP3    H2 5621   1.497   1.874   1.740  1.4882 -0.4955 -1.4304
 1894TIP3   OH2 5622   5.921   7.453   0.746 -0.4313  0.1146  0.1905
 1894TIP3    H1 5623   5.853   7.480   0.684  0.3553 -0.0254 -0.7488
 1894TIP3    H2 5624   5.943   7.364   0.721 -0.7102 -0.2493  1.2244
 1895TIP3   OH2 5625   0.144   6.556   2.641 -0.0867  0.4371 -0.4032
 1895TIP3    H1 5626   0.118   6.531   2.552 -1.0186 -0.6056  0.1375
 1895TIP3    H2 5627   0.188   6.640   2.631 -2.6658  1.6963 -1.5222
 1896TIP3   OH2 5628   8.361   5.846   2.691  0.2236 -0.4350  0.6375
 1896TIP3    H1 5629   8.403   5.928   2.665 -0.5397 -0.0207  0.7024
 1896TIP3    H2 5630   8.359   5.850   2.787  1.0704 -0.9727  0.6774
 1897TIP3   OH2 5631   3.612   2.469   3.630  0.1993  0.7091 -0.2992
 1897TIP3    H1 5632   3.657   2.546   3.595 -0.0572  1.9711  2.0110
 1897TIP3    H2 5633   3.665   2.443   3.706 -2.2442  1.4885  1.7393
 1898TIP3   OH2 5634   8.041   0.805   2.269  0.0818 -0.0772 -0.1480
 1898TIP3    H1 5635   8.091   0.785   2.190  0.9088  0.7856  0.1575
 1898TIP3    H2 5636   8.069   0.740   2.333  0.0812 -0.2075 -0.2802
 1899TIP3   OH2 5637   8.230   5.947   3.148  0.1361 -0.4676  0.3773
 1899TIP3    H1 5638   8.250   5.854   3.145 -0.2356 -0.5661  0.9951
 1899TIP3    H2 5639   8.270   5.983   3.068  2.2108 -0.7774  1.2562
 1900TIP3   OH2 5640   8.183   7.164   2.711  0.2347 -0.2786 -0.0763
 1900TIP3    H1 5641   8.261   7.207   2.676 -0.2137 -0.8778 -1.8824
 1900TIP3    H2 5642   8.217   7.101   2.775  1.1457  0.1329 -0.1404
 1901TIP3   OH2 5643   2.135   1.882   5.677 -0.0597  0.1804 -0.3221
 1901TIP3    H1 5644   2.075   1.931   5.620 -0.6839 -0.1968  0.0111
 1901TIP3    H2 5645   2.188   1.830   5.616  0.6494  1.2849 -0.6876
 1902TIP3   OH2 5646   7.501   8.106   4.387 -0.0369  0.6360 -0.0255
 1902TIP3    H1 5647   7.513   8.144   4.300 -0.8552 -0.8369 -0.8030
 1902TIP3    H2 5648   7.418   8.058   4.381  0.1927  0.0365  1.3946
 1903TIP3   OH2 5649   2.288   1.933   3.651  0.2066 -0.2326  0.4126
 1903TIP3    H1 5650   2.277   2.002   3.585  0.8978  0.4288  0.9898
 1903TIP3    H2 5651   2.381   1.911   3.648  0.2724 -0.0787  1.2987
 1904TIP3   OH2 5652   1.356   0.824   4.649 -0.1749  0.0556  0.4685
 1904TIP3    H1 5653   1.355   0.734   4.618 -0.0367  0.5653 -1.0701
 1904TIP3    H2 5654   1.449   0.844   4.659  0.0900  1.4405 -3.6001
 1905TIP3   OH2 5655   3.082   0.456   2.963 -0.1882 -1.0235 -0.5847
 1905TIP3    H1 5656   3.024   0.490   2.895 -0.4209  0.2321  0.2249
 1905TIP3    H2 5657   3.027   0.398   3.015 -0.8313  0.3705  0.3439
 1906TIP3   OH2 5658   8.563   6.976   1.590  0.1380  0.0898  0.4660
 1906TIP3    H1 5659   8.576   6.882   1.601 -1.5728 -0.3920 -1.3767
 1906TIP3    H2 5660   8.564   6.990   1.495 -1.9503  1.5710  0.6325
 1907TIP3   OH2 5661   3.290   1.547   4.104 -0.5103  0.5421  0.3670
 1907TIP3    H1 5662   3.358   1.497   4.148  0.5082  1.0633 -0.5934
 1907TIP3    H2 5663   3.327   1.634   4.094 -1.5180  0.9646  0.2786
 1908TIP3   OH2 5664   3.719   2.003   4.317  0.5985  0.2614  0.4341
 1908TIP3    H1 5665   3.712   2.098   4.316  1.4864  0.3236 -0.1665
 1908TIP3    H2 5666   3.639   1.973   4.361 -0.1723  1.2344 -0.3048
 1909TIP3   OH2 5667   8.223   6.752   2.400  0.3488  0.0783 -0.0101
 1909TIP3    H1 5668   8.236   6.676   2.342 -0.0152  0.3248 -0.4146
 1909TIP3    H2 5669   8.291   6.743   2.466  1.1805  0.1446 -0.8423
 1910TIP3   OH2 5670   3.824   2.386   3.897  0.2213 -0.4788 -0.2133
 1910TIP3    H1 5671   3.887   2.367   3.967  0.9808  0.9848 -0.4706
 1910TIP3    H2 5672   3.795   2.300   3.867 -0.5806 -1.1422  2.3037
 1911TIP3   OH2 5673   1.547   2.401   5.203 -0.2573 -0.0816  0.0112
 1911TIP3    H1 5674   1.543   2.475   5.142 -2.2835  1.0877  1.5058
 1911TIP3    H2 5675   1.499   2.430   5.280  0.7450 -2.1929  1.4929
 1912TIP3   OH2 5676   2.085   1.185   4.239  0.0985 -0.4615 -0.2841
 1912TIP3    H1 5677   2.147   1.256   4.257 -0.7799 -0.3699  2.6213
 1912TIP3    H2 5678   2.139   1.116   4.200  1.4321  0.8374 -0.7949
 1913TIP3   OH2 5679   7.136   5.865   0.790  0.1427 -0.9791  0.3183
 1913TIP3    H1 5680   7.160   5.929   0.723 -1.9547 -0.1257  0.3419
 1913TIP3    H2 5681   7.137   5.916   0.872 -1.3962 -1.0007  0.3547
 1914TIP3   OH2 5682   7.938   7.490   3.623 -0.0450  0.5214  0.0964
 1914TIP3    H1 5683   8.005   7.549   3.589  0.0479 -0.4957 -1.5722
 1914TIP3    H2 5684   7.940   7.415   3.563 -2.2518  0.2192  0.3485
 1915TIP3   OH2 5685   1.749   1.406   2.926  0.7618  0.7963  0.0147
 1915TIP3    H1 5686   1.806   1.349   2.978 -0.2989 -1.3155 -1.0796
 1915TIP3    H2 5687   1.664   1.403   2.971  0.4385  0.7591 -0.5972
 1916TIP3   OH2 5688   6.072   7.732   3.584 -0.5481 -0.0715 -0.0636
 1916TIP3    H1 5689   6.098   7.768   3.669 -1.1715 -1.3701  0.6878
 1916TIP3    H2 5690   6.124   7.652   3.574  1.1624  1.2188 -1.9329
 1917TIP3   OH2 5691   1.993   0.183   3.958  0.2552 -0.5419  0.2397
 1917TIP3    H1 5692   1.957   0.102   3.995  0.9248 -1.1323 -0.3942
 1917TIP3    H2 5693   2.066   0.155   3.903  1.1504  0.5724  0.8196
 1918TIP3   OH2 5694   1.883   1.213   4.436  0.0159 -0.0079 -0.4679
 1918TIP3    H1 5695   1.894   1.132   4.487  1.3775  0.3240 -0.2063
 1918TIP3    H2 5696   1.944   1.202   4.362  0.1001  0.7128 -0.5076
 1919TIP3   OH2 5697   0.106   7.890   2.800  0.5792 -0.4034  0.1819
 1919TIP3    H1 5698   0.061   7.807   2.814 -0.2610 -0.1501 -0.9847
 1919TIP3    H2 5699   0.121   7.894   2.706  0.4647  0.8534  0.2128
 1920TIP3   OH2 5700   0.798   6.923   1.589  0.1305  0.1529 -1.0774
 1920TIP3    H1 5701   0.847   6.992   1.545 -1.3032  1.7874 -0.1612
 1920TIP3    H2 5702   0.743   6.885   1.520 -0.2014  0.9750 -1.2730
 1921TIP3   OH2 5703   7.030   6.612   2.558  0.3449 -0.2926 -0.0407
 1921TIP3    H1 5704   7.034   6.640   2.467  0.1352 -0.3296 -0.0597
 1921TIP3    H2 5705   7.114   6.570   2.574  0.1729 -0.7605 -0.3663
 1922TIP3   OH2 5706   0.483   0.798   5.324 -0.3422 -0.0085 -0.0936
 1922TIP3    H1 5707   0.521   0.805   5.236  1.8201 -0.7075  0.7532
 1922TIP3    H2 5708   0.547   0.748   5.374 -0.4498  2.3136  2.4861
 1923TIP3   OH2 5709   3.048   2.407   2.624  0.2955  0.2652  0.1581
 1923TIP3    H1 5710   2.961   2.397   2.663  0.2316  0.1798 -0.0090
 1923TIP3    H2 5711   3.105   2.425   2.699  0.3761 -1.0978  0.4376
 1924TIP3   OH2 5712   2.846   2.077   3.442 -0.0104  0.2620  0.7433
 1924TIP3    H1 5713   2.890   2.140   3.385  0.3800 -0.9740 -0.3613
 1924TIP3    H2 5714   2.914   2.051   3.505 -0.6994  2.3015  2.3673
 1925TIP3   OH2 5715   3.746   0.581   2.909 -0.0057  0.5892 -0.2040
 1925TIP3    H1 5716   3.811   0.576   2.839  1.3773  0.5205  1.0609
 1925TIP3    H2 5717   3.784   0.643   2.971 -0.3007 -0.8313  1.4171
 1926TIP3   OH2 5718   3.208   5.728   2.841 -0.2055  0.1294 -0.5203
 1926TIP3    H1 5719   3.171   5.697   2.758 -1.2584  0.0524 -0.0285
 1926TIP3    H2 5720   3.175   5.818   2.848 -1.9220 -0.5822  0.8685
 1927TIP3   OH2 5721   2.269   0.178   3.358  0.0806  0.0740 -0.2476
 1927TIP3    H1 5722   2.299   0.234   3.287  0.6022  0.1603  0.0391
 1927TIP3    H2 5723   2.177   0.163   3.340  0.5322 -1.0681 -1.7385
 1928TIP3   OH2 5724   0.804   7.669   2.002 -0.3432  0.1600 -0.2659
 1928TIP3    H1 5725   0.828   7.738   2.065 -0.3723  0.5348 -0.6648
 1928TIP3    H2 5726   0.718   7.639   2.031  0.1366 -0.4455  0.5385
 1929TIP3   OH2 5727   5.586   0.985   4.046 -0.3547 -0.5700  0.8028
 1929TIP3    H1 5728   5.535   0.917   4.003 -0.7295 -1.6670  2.9162
 1929TIP3    H2 5729   5.521   1.044   4.084 -0.0454 -0.9398  1.9149
 1930TIP3   OH2 5730   0.723   6.996   2.134  0.1339 -0.1604 -0.6464
 1930TIP3    H1 5731   0.684   7.052   2.201  1.8682  0.6913 -0.3309
 1930TIP3    H2 5732   0.764   6.925   2.183 -1.5613 -1.4545 -1.0164
 1931TIP3   OH2 5733   5.269   1.429   4.474  0.1686  0.4394  0.2949
 1931TIP3    H1 5734   5.344   1.484   4.496 -0.2282  0.6875  1.0189
 1931TIP3    H2 5735   5.193   1.486   4.484 -0.1260  0.1921 -0.4506
 1932TIP3   OH2 5736   3.592   1.951   3.028 -0.0337 -0.1725  0.1850
 1932TIP3    H1 5737   3.685   1.931   3.035  0.2021  0.9697  0.3090
 1932TIP3    H2 5738   3.554   1.872   2.989  1.0104 -0.5754 -0.0380
 1933TIP3   OH2 5739   7.216   7.986   1.771  0.4509 -0.6398 -0.5706
 1933TIP3    H1 5740   7.234   7.977   1.864  2.1019  0.4261 -0.7659
 1933TIP3    H2 5741   7.136   7.935   1.757  1.2500 -2.4140  1.0479
 1934TIP3   OH2 5742   3.136   2.599   4.786 -0.3288  0.4208  0.3395
 1934TIP3    H1 5743   3.047   2.577   4.757 -0.1451 -0.3181  0.3160
 1934TIP3    H2 5744   3.124   2.634   4.875 -0.7079  0.9553  0.0765
 1935TIP3   OH2 5745   1.924   7.345   2.896 -0.1010  0.1167  0.1030
 1935TIP3    H1 5746   2.000   7.400   2.878 -0.9424  1.3854  0.4146
 1935TIP3    H2 5747   1.933   7.271   2.836  1.7434 -0.1079  0.6212
 1936TIP3   OH2 5748   0.520   6.710   2.553  0.4354 -0.6170 -0.0776
 1936TIP3    H1 5749   0.535   6.789   2.500  1.7316  0.1973  1.4690
 1936TIP3    H2 5750   0.426   6.714   2.575  0.6944  1.0675  0.8456
 1937TIP3   OH2 5751   1.639   6.648   4.932 -0.6770 -0.7076 -0.3949
 1937TIP3    H1 5752   1.717   6.618   4.977 -0.9867 -1.0071 -0.0529
 1937TIP3    H2 5753   1.663   6.733   4.896 -0.2278 -0.7562 -0.2080
 1938TIP3   OH2 5754   0.424   5.817   4.885 -0.2000 -0.1807 -0.4750
 1938TIP3    H1 5755   0.355   5.883   4.890  1.3423  1.2533  2.9784
 1938TIP3    H2 5756   0.434   5.786   4.975  2.4805 -1.5998 -1.2250
 1939TIP3   OH2 5757   0.407   0.058   3.338 -0.0766  0.5750 -0.6408
 1939TIP3    H1 5758   0.488   0.014   3.309  0.5657  1.3054  0.0273
 1939TIP3    H2 5759   0.380   0.110   3.262 -0.6420 -0.6616 -1.3147
 1940TIP3   OH2 5760   8.433   0.236   4.019  0.9295  0.1548 -0.5673
 1940TIP3    H1 5761   8.526   0.212   4.025  0.5682 -1.7453 -2.1982
 1940TIP3    H2 5762   8.389   0.173   4.076  0.6372  1.2800  0.4878
 1941TIP3   OH2 5763   8.356   6.049   2.925  0.1327 -0.2448 -0.1882
 1941TIP3    H1 5764   8.321   6.131   2.891 -0.9893 -0.1049  1.2405
 1941TIP3    H2 5765   8.444   6.070   2.955 -0.0876  0.3955  0.0017
 1942TIP3   OH2 5766   0.048   6.520   4.057 -0.1857  0.2370 -0.4423
 1942TIP3    H1 5767   0.115   6.583   4.029 -2.0051  3.6727  2.5106
 1942TIP3    H2 5768  -0.030   6.544   4.007 -0.3099 -1.1641 -0.9411
 1943TIP3   OH2 5769   1.865   0.334   4.970  0.2368 -0.1627  0.0722
 1943TIP3    H1 5770   1.936   0.302   5.025 -0.4142 -1.7687 -0.0036
 1943TIP3    H2 5771   1.789   0.283   4.998 -0.0928 -1.0346 -2.3326
 1944TIP3   OH2 5772   3.251   2.376   3.358 -0.0274  0.4631 -0.0861
 1944TIP3    H1 5773   3.226   2.441   3.424  0.1716  1.4044 -0.9330
 1944TIP3    H2 5774   3.339   2.348   3.385  1.4043  3.2108 -1.7279
 1945TIP3   OH2 5775   2.704   1.226   4.419  0.1455 -0.0114 -0.1823
 1945TIP3    H1 5776   2.674   1.304   4.371 -1.4025 -0.4879 -0.0266
 1945TIP3    H2 5777   2.651   1.155   4.383  1.8492 -1.0738 -0.6171
 1946TIP3   OH2 5778   1.602   1.666   5.878 -0.2287 -1.0593  0.0477
 1946TIP3    H1 5779   1.696   1.646   5.882 -0.2661 -0.9998  2.7513
 1946TIP3    H2 5780   1.598   1.762   5.888 -0.5088 -0.7886 -2.3608
 1947TIP3   OH2 5781   2.876   2.541   3.288 -0.3036 -0.2215  0.5205
 1947TIP3    H1 5782   2.866   2.633   3.312  2.5442  0.5590 -0.9726
 1947TIP3    H2 5783   2.857   2.539   3.194  1.3476 -0.8037  0.1798
 1948TIP3   OH2 5784   0.388   7.648   3.337 -0.4511 -0.0635  0.4749
 1948TIP3    H1 5785   0.476   7.619   3.317 -0.3144  0.2303  0.6465
 1948TIP3    H2 5786   0.339   7.568   3.356 -0.2753 -0.2426  0.1750
 1949TIP3   OH2 5787   0.099   7.331   2.319 -0.7212  0.1126  0.3480
 1949TIP3    H1 5788   0.038   7.316   2.247  1.3233 -0.6238 -1.2717
 1949TIP3    H2 5789   0.118   7.425   2.314 -1.1152  0.1960  0.3765
 1950TIP3   OH2 5790   4.082   2.098   4.326 -0.1335  0.0297  0.3535
 1950TIP3    H1 5791   4.034   2.177   4.350  0.0679  0.4774 -0.6930
 1950TIP3    H2 5792   4.155   2.094   4.389  0.2202  1.0170  0.0031
 1951TIP3   OH2 5793   1.004   1.340   4.906 -0.1595 -0.1367 -0.4831
 1951TIP3    H1 5794   1.098   1.336   4.920 -0.0967 -0.3382 -0.9429
 1951TIP3    H2 5795   0.967   1.285   4.975  0.0067  0.6136  0.2035
 1952TIP3   OH2 5796   7.313   7.636   2.043  0.2492 -0.1099  0.0733
 1952TIP3    H1 5797   7.373   7.701   2.080  0.9119 -1.0106  0.6027
 1952TIP3    H2 5798   7.336   7.555   2.088 -2.1954 -0.2280  1.1724
 1953TIP3   OH2 5799   0.630   7.480   4.310  0.0895  0.0970  0.4179
 1953TIP3    H1 5800   0.690   7.551   4.289  0.0821 -0.6513 -2.2472
 1953TIP3    H2 5801   0.677   7.401   4.284 -1.8626 -0.5264 -1.3150
 1954TIP3   OH2 5802   0.600   0.420   2.651  0.1541  0.0253  0.1580
 1954TIP3    H1 5803   0.559   0.365   2.584  1.3557  0.6926 -1.1540
 1954TIP3    H2 5804   0.582   0.509   2.623  1.2096  0.3140  0.3814
 1955TIP3   OH2 5805   4.209   2.134   2.519  0.1970 -0.1485  0.2060
 1955TIP3    H1 5806   4.280   2.131   2.584  0.9608 -2.0845 -0.6623
 1955TIP3    H2 5807   4.185   2.042   2.505 -1.7676  0.4148 -0.3110
 1956TIP3   OH2 5808   3.051   0.979   3.386  0.0326  0.0376  0.1639
 1956TIP3    H1 5809   3.073   1.066   3.355 -1.3339  0.3897  0.1816
 1956TIP3    H2 5810   3.007   0.937   3.312  1.7960 -1.0945 -0.2895
 1957TIP3   OH2 5811   5.274   1.129   5.169  0.6061  0.4854 -0.0494
 1957TIP3    H1 5812   5.275   1.108   5.263  0.4189  2.0638  0.3177
 1957TIP3    H2 5813   5.223   1.058   5.130  0.5459 -0.1078  1.0608
 1958TIP3   OH2 5814   5.474   0.471   1.218  0.0274 -0.0113  0.4531
 1958TIP3    H1 5815   5.531   0.396   1.234  0.1508  0.1408  0.7280
 1958TIP3    H2 5816   5.405   0.437   1.160  1.7912  0.4019 -1.9674
 1959TIP3   OH2 5817   5.093   2.239   3.369 -0.1946  0.4379  0.1292
 1959TIP3    H1 5818   5.080   2.328   3.338 -0.5694 -0.0933 -1.2625
 1959TIP3    H2 5819   5.010   2.194   3.351 -0.2055 -0.0499  1.3274
 1960TIP3   OH2 5820   4.811   1.102   5.159  0.5197 -0.4087  0.1649
 1960TIP3    H1 5821   4.734   1.152   5.188 -0.3799 -1.1163 -0.9720
 1960TIP3    H2 5822   4.885   1.159   5.179 -0.3437  0.5533  0.6939
 1961TIP3   OH2 5823   8.129   6.067   3.469 -0.6404 -0.2634  0.1784
 1961TIP3    H1 5824   8.167   6.155   3.470 -0.7047 -0.2429  0.6673
 1961TIP3    H2 5825   8.038   6.080   3.496 -0.5833 -0.5134  0.4937
 1962TIP3   OH2 5826   5.388   0.955   3.764  0.4601  0.3136 -0.4349
 1962TIP3    H1 5827   5.459   0.906   3.723  0.1062  0.2119 -0.9302
 1962TIP3    H2 5828   5.397   1.044   3.731  0.9389  0.5255  0.2539
 1963TIP3   OH2 5829   7.637   6.795   1.988 -0.1056  0.0826  0.6090
 1963TIP3    H1 5830   7.555   6.758   1.958  1.1259 -0.6383 -2.0125
 1963TIP3    H2 5831   7.612   6.866   2.047 -2.5790 -0.2879  0.0297
 1964TIP3   OH2 5832   4.441   2.874   1.733 -0.4081  0.4250  0.2235
 1964TIP3    H1 5833   4.363   2.837   1.774  1.6880 -0.6514  3.3523
 1964TIP3    H2 5834   4.485   2.800   1.692 -0.7077  0.9370 -1.0461
 1965TIP3   OH2 5835   4.384   2.856   3.035  0.2783  0.1306  0.0306
 1965TIP3    H1 5836   4.413   2.919   2.969 -0.1043 -0.2391 -0.4950
 1965TIP3    H2 5837   4.357   2.779   2.985  0.9449 -0.5357  0.6850
 1966TIP3   OH2 5838   5.843   0.164   4.707  0.0620 -0.3100  0.2609
 1966TIP3    H1 5839   5.812   0.238   4.759 -1.0027  0.6634 -1.7017
 1966TIP3    H2 5840   5.770   0.143   4.649  1.2565 -1.3085 -0.9110
 1967TIP3   OH2 5841   0.647   7.971   2.864 -0.5207 -0.3595  0.8082
 1967TIP3    H1 5842   0.578   8.030   2.894 -1.5149 -1.5121  0.8745
 1967TIP3    H2 5843   0.615   7.884   2.889  0.4150 -1.0041 -0.2120
 1968TIP3   OH2 5844   5.287   0.015   2.786 -0.1483 -0.5773 -0.1202
 1968TIP3    H1 5845   5.325   0.081   2.844 -2.0749  0.8315 -0.4196
 1968TIP3    H2 5846   5.359  -0.010   2.728  0.4732  1.7026 -0.3940
 1969TIP3   OH2 5847   4.385   0.610   4.157  0.0283  1.1542 -0.6835
 1969TIP3    H1 5848   4.358   0.590   4.246  1.7658  1.1210 -0.1599
 1969TIP3    H2 5849   4.370   0.704   4.148 -0.2256  1.1430 -0.3918
 1970TIP3   OH2 5850   5.131   0.186   3.357  0.2259  0.5389  0.1637
 1970TIP3    H1 5851   5.117   0.183   3.451  1.9833 -0.7227  0.4080
 1970TIP3    H2 5852   5.135   0.279   3.336 -1.5771  0.8387  1.1003
 1971TIP3   OH2 5853   5.275   1.772   4.516  0.0300  0.0862 -0.0749
 1971TIP3    H1 5854   5.328   1.852   4.507  1.7839 -0.9499  0.7372
 1971TIP3    H2 5855   5.192   1.802   4.551  1.4271  1.3507  2.3003
 1972TIP3   OH2 5856   4.136   0.103   2.734  0.4300 -0.2427  0.3659
 1972TIP3    H1 5857   4.166   0.100   2.643 -0.7152 -1.4220  0.0059
 1972TIP3    H2 5858   4.042   0.121   2.727  0.2209 -0.9704  1.2810
 1973TIP3   OH2 5859   4.267   2.505   3.487 -0.1645 -0.1762  0.2589
 1973TIP3    H1 5860   4.361   2.487   3.493  0.1654  1.3033 -0.2956
 1973TIP3    H2 5861   4.248   2.556   3.567  0.1106  1.9828 -1.0022
 1974TIP3   OH2 5862   0.410   6.553   1.874 -0.6479  0.2145  0.1693
 1974TIP3    H1 5863   0.464   6.476   1.894 -0.6195  0.0417 -0.5653
 1974TIP3    H2 5864   0.465   6.627   1.899 -0.2835  0.0224 -0.0578
 1975TIP3   OH2 5865   1.621   7.689   1.803  0.3023  0.5012 -0.4132
 1975TIP3    H1 5866   1.677   7.767   1.801 -0.0035  0.7279 -0.1466
 1975TIP3    H2 5867   1.533   7.723   1.818  0.2901  0.0404  0.6401
 1976TIP3   OH2 5868   1.189   7.080   2.395  0.1846 -0.0152  0.5334
 1976TIP3    H1 5869   1.239   7.083   2.314 -0.3825 -1.7918  0.1077
 1976TIP3    H2 5870   1.147   7.166   2.400  1.8045  0.8300 -0.0271
 1977TIP3   OH2 5871   5.356   2.138   3.355 -0.0347  0.0460  0.4145
 1977TIP3    H1 5872   5.264   2.162   3.361  0.0211  0.2886  0.3021
 1977TIP3    H2 5873   5.401   2.220   3.334  0.0918 -0.2681 -0.5543
 1978TIP3   OH2 5874   6.815   1.567   1.647  0.6636  0.4116 -0.3576
 1978TIP3    H1 5875   6.903   1.539   1.620 -0.6285 -1.7025 -2.5581
 1978TIP3    H2 5876   6.774   1.488   1.681  0.0560  1.7061  2.0197
 1979TIP3   OH2 5877   3.747   0.765   2.463 -0.1589 -0.2517  0.1618
 1979TIP3    H1 5878   3.682   0.812   2.516  1.0905  1.1783  0.4466
 1979TIP3    H2 5879   3.782   0.698   2.522  1.1299  1.2427  1.1268
 1980TIP3   OH2 5880   5.596   2.883   3.920 -0.0977 -0.2762  0.2735
 1980TIP3    H1 5881   5.607   2.902   4.013 -0.8676 -0.9626  0.5248
 1980TIP3    H2 5882   5.634   2.958   3.875  0.8894 -0.2455  1.1286
 1981TIP3   OH2 5883   1.072   7.365   2.648  0.4151 -0.0502  0.2339
 1981TIP3    H1 5884   1.151   7.310   2.655  1.0938  0.8074 -0.6065
 1981TIP3    H2 5885   1.000   7.303   2.660  1.1780 -1.0626 -0.2241
 1982TIP3   OH2 5886   6.275   0.774   2.270 -0.4632  0.1912 -0.0114
 1982TIP3    H1 5887   6.316   0.785   2.184 -1.3726 -1.3669 -0.6640
 1982TIP3    H2 5888   6.192   0.820   2.262 -1.5033 -1.7389 -0.7041
 1983TIP3   OH2 5889   5.619   6.645   2.149  0.0908 -0.2715  0.2269
 1983TIP3    H1 5890   5.611   6.550   2.141 -0.9139 -0.2496  0.7848
 1983TIP3    H2 5891   5.557   6.679   2.084  1.6004  0.0246 -1.0821
 1984TIP3   OH2 5892   1.116   7.959   0.370 -0.4485  0.1720 -0.0863
 1984TIP3    H1 5893   1.104   7.980   0.278 -0.4425 -1.5481 -0.4780
 1984TIP3    H2 5894   1.027   7.943   0.403 -0.3035 -0.8983 -0.2017
 1985TIP3   OH2 5895   7.377   0.118   4.220 -0.4231 -0.5318  0.0981
 1985TIP3    H1 5896   7.419   0.150   4.141 -1.3162  1.1254  0.2700
 1985TIP3    H2 5897   7.447   0.075   4.269  0.5084 -0.0215 -0.7695
 1986TIP3   OH2 5898   3.718   1.229   3.392 -0.1035  0.4581  0.8668
 1986TIP3    H1 5899   3.670   1.193   3.317  1.2276 -0.0544  0.2450
 1986TIP3    H2 5900   3.719   1.157   3.455 -0.1972  0.4895  0.9046
 1987TIP3   OH2 5901   4.084   0.403   3.204 -0.5239 -0.4059  0.1336
 1987TIP3    H1 5902   3.992   0.418   3.223 -0.8951 -0.8425 -1.2944
 1987TIP3    H2 5903   4.085   0.331   3.142  0.6244  1.1399 -1.7187
 1988TIP3   OH2 5904   4.613   1.038   3.304 -0.4760 -0.2804 -0.2261
 1988TIP3    H1 5905   4.614   1.013   3.211 -0.4772 -0.6595 -0.1207
 1988TIP3    H2 5906   4.558   0.973   3.346  0.6208 -0.9012  0.2708
 1989TIP3   OH2 5907   4.978   2.560   5.204 -0.0192  0.2639  0.2255
 1989TIP3    H1 5908   4.953   2.642   5.247  1.4930 -0.0061  1.6731
 1989TIP3    H2 5909   4.948   2.492   5.264  0.3399 -0.1810 -0.1008
 1990TIP3   OH2 5910   3.646   0.249   3.963  0.4671 -0.0819  0.1133
 1990TIP3    H1 5911   3.735   0.223   3.988  0.6760  0.4719 -0.0518
 1990TIP3    H2 5912   3.643   0.344   3.978 -0.1216 -0.1095  0.1984
 1991TIP3   OH2 5913   3.750   0.784   4.293 -0.1601  0.1063 -0.4280
 1991TIP3    H1 5914   3.811   0.804   4.364 -0.6844 -1.7721  0.5680
 1991TIP3    H2 5915   3.663   0.790   4.333 -0.4779 -0.5072 -1.0164
 1992TIP3   OH2 5916   3.113   1.632   1.144 -0.0887 -0.5458 -0.5081
 1992TIP3    H1 5917   3.152   1.580   1.074 -0.2039 -1.2079 -0.0814
 1992TIP3    H2 5918   3.140   1.588   1.225  0.3002  0.3940 -0.1223
 1993TIP3   OH2 5919   3.053   6.584   2.941  0.3015 -0.1225  0.3540
 1993TIP3    H1 5920   3.127   6.592   2.882  0.7552 -0.2956  0.8934
 1993TIP3    H2 5921   3.008   6.504   2.913  0.6032 -0.2870  0.3387
 1994TIP3   OH2 5922   2.455   0.094   2.252  0.2479  0.0009 -0.2823
 1994TIP3    H1 5923   2.382   0.037   2.227  0.1423  0.4538 -1.0101
 1994TIP3    H2 5924   2.433   0.180   2.215  0.6383  0.4032  0.3971
 1995TIP3   OH2 5925   2.385   6.618   2.236 -0.1007 -0.0004  0.0683
 1995TIP3    H1 5926   2.361   6.629   2.328  1.6621  2.0760  0.3258
 1995TIP3    H2 5927   2.447   6.545   2.235 -1.3629 -1.0959  0.2773
 1996TIP3   OH2 5928   5.977   1.229   2.795 -0.4375  0.0820  0.0391
 1996TIP3    H1 5929   5.996   1.136   2.796 -2.4490 -0.3479  1.1415
 1996TIP3    H2 5930   5.937   1.247   2.880 -0.9025  1.7477 -0.4974
 1997TIP3   OH2 5931   4.015   1.269   2.884 -0.1952 -0.2133 -0.2051
 1997TIP3    H1 5932   4.041   1.350   2.840 -2.1748  0.9641  0.6904
 1997TIP3    H2 5933   4.060   1.272   2.968 -0.9668  0.4401  0.2002
 1998TIP3   OH2 5934   1.248   2.342   3.522  0.0947 -0.1598 -0.5538
 1998TIP3    H1 5935   1.225   2.298   3.604  0.8442  0.5962  0.0809
 1998TIP3    H2 5936   1.343   2.330   3.515  0.4829  2.1346  0.1293
 1999TIP3   OH2 5937   5.174   1.676   4.884  0.2473  0.0385  0.3378
 1999TIP3    H1 5938   5.145   1.704   4.970  2.8664  1.4009  0.8411
 1999TIP3    H2 5939   5.269   1.690   4.885  0.6339 -1.9502 -2.0078
 2000TIP3   OH2 5940   0.022   7.711   1.583 -0.4660  0.0038 -0.1565
 2000TIP3    H1 5941  -0.020   7.633   1.620  0.3022  0.3884  1.5564
 2000TIP3    H2 5942   0.093   7.677   1.529 -1.0128 -0.5229 -0.5566
 2001TIP3   OH2 5943   3.899   2.740   1.354 -0.1529 -0.2254 -0.9149
 2001TIP3    H1 5944   3.862   2.655   1.331  0.6405 -0.9129  0.3094
 2001TIP3    H2 5945   3.877   2.752   1.446 -0.2749  0.9181 -1.0779
 2002TIP3   OH2 5946   1.193   7.143   1.604 -0.5241 -0.1659 -0.2673
 2002TIP3    H1 5947   1.162   7.090   1.531  1.4754 -1.1608 -0.4411
 2002TIP3    H2 5948   1.282   7.111   1.620  0.2347  2.2461  0.5130
 2003TIP3   OH2 5949   4.798   0.371   3.024  0.6015  0.5486  0.1230
 2003TIP3    H1 5950   4.874   0.328   3.063  0.9628  0.1998 -0.9570
 2003TIP3    H2 5951   4.724   0.336   3.073  0.9814 -0.5248 -0.0455
 2004TIP3   OH2 5952   5.628   1.864   3.977  0.2279  0.0110  0.3807
 2004TIP3    H1 5953   5.707   1.816   3.953 -0.0316 -0.4653  0.4726
 2004TIP3    H2 5954   5.588   1.887   3.893 -0.7050 -1.6970  0.3282
 2005TIP3   OH2 5955   3.167   2.836   3.041  0.0779  0.4809  0.3061
 2005TIP3    H1 5956   3.196   2.787   2.964  2.1670 -1.6018  2.3536
 2005TIP3    H2 5957   3.072   2.831   3.039  0.1570 -0.3675 -1.6112
 2006TIP3   OH2 5958   6.694   0.828   3.211 -0.6390 -0.6690 -0.3511
 2006TIP3    H1 5959   6.687   0.785   3.126  1.8908  1.1722 -1.5787
 2006TIP3    H2 5960   6.606   0.859   3.230 -1.0308 -0.1272 -2.8551
 2007TIP3   OH2 5961   0.650   7.578   1.046  0.3607 -0.0105 -0.4230
 2007TIP3    H1 5962   0.713   7.558   1.115  1.3709  0.3522 -1.2292
 2007TIP3    H2 5963   0.621   7.668   1.065 -0.4402 -0.4157  0.3340
 2008TIP3   OH2 5964   4.904   0.035   1.748  0.0841  0.2400 -0.1028
 2008TIP3    H1 5965   4.912  -0.042   1.803 -1.4651 -0.5759 -0.9770
 2008TIP3    H2 5966   4.954   0.014   1.669 -1.8758 -0.6573 -1.1395
 2009TIP3   OH2 5967   4.477   1.545   3.781 -0.3166 -0.1756  0.1000
 2009TIP3    H1 5968   4.395   1.495   3.786 -0.0449 -0.5902  0.4739
 2009TIP3    H2 5969   4.544   1.479   3.761 -0.0715  0.1619 -0.2030
 2010TIP3   OH2 5970   0.546   3.825   6.331  0.4721 -0.1072 -0.0799
 2010TIP3    H1 5971   0.529   3.900   6.274 -1.1092 -1.6253 -1.6835
 2010TIP3    H2 5972   0.549   3.750   6.272  2.2312 -1.3147  1.4728
 2011TIP3   OH2 5973   5.359   2.028   4.064  0.2535 -0.1075  0.5149
 2011TIP3    H1 5974   5.271   2.015   4.101 -1.2270 -1.5265 -3.1763
 2011TIP3    H2 5975   5.399   1.941   4.066  1.1095  0.2912  1.0415
 2012TIP3   OH2 5976   5.166   0.074   2.106  0.6922  0.3389  0.0686
 2012TIP3    H1 5977   5.189   0.086   2.014 -0.4450  0.2025 -0.2463
 2012TIP3    H2 5978   5.080   0.115   2.115  0.7187  0.2043  1.0349
 2013TIP3   OH2 5979   1.965   7.750   5.036 -0.2411  0.3813 -0.2949
 2013TIP3    H1 5980   1.960   7.674   4.978  0.1908  0.1671 -0.0502
 2013TIP3    H2 5981   2.043   7.735   5.089 -0.5689  0.6273  0.2695
 2014TIP3   OH2 5982   3.638   1.879   3.773  0.1250 -0.1429 -0.3979
 2014TIP3    H1 5983   3.544   1.882   3.753 -0.2922  1.4852  1.7064
 2014TIP3    H2 5984   3.644   1.822   3.850  0.8588 -0.1726 -0.4784
 2015TIP3   OH2 5985   1.894   6.291   4.348  0.4075 -0.1427 -0.0929
 2015TIP3    H1 5986   1.926   6.322   4.263  1.3070  2.4473  1.1461
 2015TIP3    H2 5987   1.886   6.196   4.337  2.8262 -0.1461 -2.3375
 2016TIP3   OH2 5988   0.653   6.518   2.682 -0.1527  0.0538 -0.2943
 2016TIP3    H1 5989   0.621   6.606   2.664  1.4448  0.9680  1.1365
 2016TIP3    H2 5990   0.589   6.480   2.742  0.0621  0.8931  0.4741
 2017TIP3   OH2 5991   4.055   1.648   3.019  0.7810  0.2451 -0.1031
 2017TIP3    H1 5992   4.017   1.603   2.945  2.1925 -0.5525 -0.3559
 2017TIP3    H2 5993   4.016   1.606   3.096 -0.2518  0.6949 -0.3720
 2018TIP3   OH2 5994   3.884   1.530   3.793  0.9548  0.3918 -0.0006
 2018TIP3    H1 5995   3.944   1.601   3.768  2.0875 -0.7616 -0.6466
 2018TIP3    H2 5996   3.933   1.450   3.775 -0.8593 -0.5962 -0.7128
 2019TIP3   OH2 5997   4.535   1.965   3.359 -0.4657  0.1460 -0.8481
 2019TIP3    H1 5998   4.622   1.955   3.398 -1.3663  0.0043  1.1532
 2019TIP3    H2 5999   4.548   1.943   3.267  2.2188  2.8899 -1.2162
 2020TIP3   OH2 6000   4.225   2.175   3.533  0.2051 -0.0961  0.5238
 2020TIP3    H1 6001   4.317   2.201   3.542 -0.5795  2.9351  0.5064
 2020TIP3    H2 6002   4.180   2.224   3.602 -1.3823 -1.8036  0.7476
 2021TIP3   OH2 6003   3.585   1.532   3.880  0.2891  0.7389 -1.1210
 2021TIP3    H1 6004   3.590   1.577   3.964 -0.7531 -0.8433 -0.1854
 2021TIP3    H2 6005   3.671   1.492   3.869  1.1215  2.6424 -1.8150
 2022TIP3   OH2 6006   3.766   0.298   3.411 -0.2398 -0.0983  0.5468
 2022TIP3    H1 6007   3.763   0.281   3.317  1.8920 -0.5870  0.5415
 2022TIP3    H2 6008   3.843   0.251   3.442 -0.9022  0.0768  2.5485
 2023TIP3   OH2 6009   0.680   1.231   3.169 -0.5129  0.0281  0.3885
 2023TIP3    H1 6010   0.607   1.227   3.231 -0.7996 -1.1356 -0.0081
 2023TIP3    H2 6011   0.702   1.139   3.153 -0.6172  0.3111 -1.4293
 2024TIP3   OH2 6012   5.394   0.176   4.963 -0.0939  0.0859 -0.3604
 2024TIP3    H1 6013   5.394   0.090   5.004 -0.7398 -0.2287 -1.0068
 2024TIP3    H2 6014   5.426   0.235   5.031 -0.7302 -0.4950  0.4510
 2025TIP3   OH2 6015   2.431   5.185   1.794  0.5789 -0.1624  0.3162
 2025TIP3    H1 6016   2.407   5.098   1.760 -0.1626 -0.0122  0.4544
 2025TIP3    H2 6017   2.522   5.197   1.766  0.3344 -0.5238 -0.6517
 2026TIP3   OH2 6018   5.093   0.906   1.595 -0.1494 -0.0020 -0.2504
 2026TIP3    H1 6019   5.107   0.996   1.626 -3.5204  0.4842  0.0364
 2026TIP3    H2 6020   5.072   0.915   1.503 -4.1354 -0.0560  0.5590
 2027TIP3   OH2 6021   6.942   1.749   3.430  0.1190  0.0466 -0.4062
 2027TIP3    H1 6022   6.939   1.839   3.398  3.2910 -0.4244 -2.1683
 2027TIP3    H2 6023   7.035   1.726   3.430 -0.4976 -2.7147  1.5458
 2028TIP3   OH2 6024   4.401   1.661   3.443  0.5820 -0.1319  0.7786
 2028TIP3    H1 6025   4.379   1.746   3.482  0.9714 -0.3531  1.4826
 2028TIP3    H2 6026   4.495   1.666   3.425  0.5481 -0.3024  0.5547
 2029TIP3   OH2 6027   2.965   7.719   2.091 -0.0757 -0.1113 -0.0599
 2029TIP3    H1 6028   2.925   7.632   2.083  2.1205 -1.3328  1.6754
 2029TIP3    H2 6029   2.891   7.779   2.096 -1.6384 -1.8389 -1.5067
 2030TIP3   OH2 6030   3.197   0.136   4.128 -0.5881 -0.0692 -0.5471
 2030TIP3    H1 6031   3.229   0.223   4.152 -0.0400 -0.7070  1.1528
 2030TIP3    H2 6032   3.126   0.152   4.066  0.4338  1.5255 -1.3424
 2031TIP3   OH2 6033   4.757   2.725   1.898 -0.1100 -0.5420 -0.4494
 2031TIP3    H1 6034   4.704   2.725   1.818 -1.1807  0.7296  0.2468
 2031TIP3    H2 6035   4.732   2.805   1.943  2.2718 -0.0097 -0.0001
 2032TIP3   OH2 6036   5.440   2.353   5.012  0.3634 -0.2493  0.4669
 2032TIP3    H1 6037   5.508   2.411   5.047  0.3414  1.4011 -2.1127
 2032TIP3    H2 6038   5.361   2.379   5.059  0.7034  0.5681  0.6056
 2033TIP3   OH2 6039   4.610   2.634   3.013 -0.5217 -0.3498  0.1604
 2033TIP3    H1 6040   4.555   2.711   3.022 -1.5538 -1.0445 -0.0767
 2033TIP3    H2 6041   4.648   2.640   2.926  0.3479  0.4992  0.5954
 2034TIP3   OH2 6042   0.650   7.539   3.304  0.0202  0.7848  0.0517
 2034TIP3    H1 6043   0.731   7.552   3.354  1.0266 -1.2794 -0.9948
 2034TIP3    H2 6044   0.673   7.563   3.214 -0.1658 -1.0342 -0.4869
 2035TIP3   OH2 6045   0.971   7.548   2.475 -0.1637  0.1683 -0.6035
 2035TIP3    H1 6046   0.881   7.562   2.505 -0.5548 -0.8149 -1.2633
 2035TIP3    H2 6047   1.009   7.490   2.540  0.6004  2.0657  0.6798
 2036TIP3   OH2 6048   2.912   3.855   2.622 -0.0243 -0.2705  0.4926
 2036TIP3    H1 6049   2.822   3.884   2.634 -0.2902 -1.6597  2.1814
 2036TIP3    H2 6050   2.954   3.872   2.706  1.4335  0.7850 -0.4244
 2037TIP3   OH2 6051   0.836   6.994   1.256 -0.5565 -0.4309 -0.3539
 2037TIP3    H1 6052   0.799   6.969   1.341  3.9117  0.4517  2.0656
 2037TIP3    H2 6053   0.822   7.088   1.250 -0.6336 -0.4485 -0.4305
 2038TIP3   OH2 6054   4.038   0.053   1.169 -0.5164  0.2114  0.0244
 2038TIP3    H1 6055   4.012   0.124   1.111 -0.1353  0.5436  0.2561
 2038TIP3    H2 6056   4.018  -0.027   1.120  0.3609  0.4953 -0.8007
 2039TIP3   OH2 6057   1.626   7.552   2.505 -0.3969 -0.1388 -0.0262
 2039TIP3    H1 6058   1.572   7.630   2.493  0.2948  0.4635  0.6836
 2039TIP3    H2 6059   1.654   7.557   2.597  2.1588  0.4217 -0.7936
 2040TIP3   OH2 6060   5.404   0.281   2.534 -0.5251  0.4298  0.2301
 2040TIP3    H1 6061   5.498   0.296   2.529 -0.7548  2.5317  1.4782
 2040TIP3    H2 6062   5.385   0.220   2.462  1.3703  2.1377 -1.8105
 2041TIP3   OH2 6063   3.307   6.824   2.881  0.0379 -0.0636  0.4444
 2041TIP3    H1 6064   3.337   6.802   2.970 -3.4615 -0.4263  1.6116
 2041TIP3    H2 6065   3.236   6.887   2.895 -0.6844 -0.2785 -2.0919
 2042TIP3   OH2 6066   4.153   1.684   4.992  0.6359  0.1448  0.1913
 2042TIP3    H1 6067   4.066   1.714   4.963  1.0709  0.1030 -1.1741
 2042TIP3    H2 6068   4.153   1.590   4.974  0.8676  0.0930  0.4564
 2043TIP3   OH2 6069   4.827   1.957   3.155  0.3379 -0.0682 -0.5160
 2043TIP3    H1 6070   4.853   1.899   3.083  0.4619 -0.6646  0.0040
 2043TIP3    H2 6071   4.830   1.901   3.232 -0.2881  0.4426 -0.1218
 2044TIP3   OH2 6072   1.106   6.439   1.372  0.1221  0.1721  0.8799
 2044TIP3    H1 6073   1.043   6.382   1.328  2.1389 -0.9230 -0.6979
 2044TIP3    H2 6074   1.093   6.525   1.334  1.9684 -0.7939 -2.1570
 2045TIP3   OH2 6075   1.915   0.933   2.284  0.7366  0.2625  0.4181
 2045TIP3    H1 6076   1.993   0.901   2.329  1.5654  0.8989 -0.5647
 2045TIP3    H2 6077   1.930   1.027   2.273  0.5858  0.0982 -1.2660
 2046TIP3   OH2 6078   2.999   7.547   1.195 -1.0818  0.0572 -0.3920
 2046TIP3    H1 6079   2.936   7.580   1.259  0.0325 -2.4154  2.0428
 2046TIP3    H2 6080   3.084   7.568   1.232 -0.4180 -1.1111 -1.2310
 2047TIP3   OH2 6081   4.092   1.799   3.416 -0.2479  0.5396 -0.1611
 2047TIP3    H1 6082   4.183   1.800   3.446  0.4367  1.6520 -2.1067
 2047TIP3    H2 6083   4.074   1.891   3.394 -1.5598  0.1824 -0.5864
 2048TIP3   OH2 6084   3.269   0.370   2.160 -0.1203 -0.5478 -0.2357
 2048TIP3    H1 6085   3.311   0.285   2.142  0.0979 -0.7271  1.0839
 2048TIP3    H2 6086   3.305   0.428   2.093  3.5038 -0.3103  1.7832
 2049TIP3   OH2 6087   1.040   7.465   3.942 -0.1289  0.6248 -0.0246
 2049TIP3    H1 6088   1.088   7.523   3.884 -0.4301 -0.4632 -1.3799
 2049TIP3    H2 6089   0.955   7.508   3.953 -0.8800 -0.2453 -2.1863
 2050TIP3   OH2 6090   0.053   8.014   2.335 -0.3630 -0.6446 -0.2481
 2050TIP3    H1 6091   0.012   8.077   2.275 -0.4223 -1.0033 -0.5904
 2050TIP3    H2 6092   0.110   7.961   2.278  1.1561  0.3233  0.3331
 2051TIP3   OH2 6093   4.963   2.808   3.552  0.4646  0.4213 -0.3216
 2051TIP3    H1 6094   4.886   2.798   3.497  0.6473 -0.7065 -0.3921
 2051TIP3    H2 6095   4.983   2.719   3.582  1.1659  0.8318  0.4723
 2052TIP3   OH2 6096   1.602   5.439   1.986 -0.1108  0.3698  0.0254
 2052TIP3    H1 6097   1.679   5.468   2.035 -0.1065  0.7215 -0.1940
 2052TIP3    H2 6098   1.614   5.345   1.977 -0.1090  0.2974  0.7058
 2053TIP3   OH2 6099   5.166   0.680   2.875 -0.0618 -0.5146 -0.2310
 2053TIP3    H1 6100   5.099   0.619   2.904  1.5436 -2.1692  0.0823
 2053TIP3    H2 6101   5.222   0.629   2.816  2.2290  0.1734  1.2890
 2054TIP3   OH2 6102   0.646   7.324   3.021  0.2774  0.0519  0.7586
 2054TIP3    H1 6103   0.730   7.287   2.993  0.2645  0.2629  0.4393
 2054TIP3    H2 6104   0.666   7.414   3.046 -0.1816  0.7087 -1.1416
 2055TIP3   OH2 6105   0.935   6.353   2.230 -0.5195 -0.3633 -0.5681
 2055TIP3    H1 6106   0.860   6.407   2.255  0.5238  0.6754  0.3654
 2055TIP3    H2 6107   0.914   6.266   2.265 -1.1577 -0.0075 -0.0402
 2056TIP3   OH2 6108   3.432   3.029   4.339 -0.3551  0.2223  0.9243
 2056TIP3    H1 6109   3.451   2.982   4.420 -2.7262 -1.9863  0.2917
 2056TIP3    H2 6110   3.340   3.055   4.348 -1.5730 -2.7072 -2.2550
 2057TIP3   OH2 6111   3.975   2.073   3.439  0.0204  1.3372 -1.0272
 2057TIP3    H1 6112   3.939   2.160   3.453  0.2315  1.2742 -0.0142
 2057TIP3    H2 6113   4.067   2.080   3.465 -0.3956  0.3843  0.8406
 2058TIP3   OH2 6114   4.946   0.571   5.922 -0.0656  0.0835 -0.2869
 2058TIP3    H1 6115   4.931   0.647   5.978 -1.1090  1.2963 -2.1546
 2058TIP3    H2 6116   5.005   0.516   5.973  1.4635  2.5635  0.7669
 2059TIP3   OH2 6117   5.832   2.092   5.329 -0.1127 -0.2765  0.4488
 2059TIP3    H1 6118   5.844   2.094   5.423 -0.5491 -2.3039  0.5762
 2059TIP3    H2 6119   5.743   2.125   5.314  0.4568  1.3567  0.6238
 2060TIP3   OH2 6120   0.098   6.933   1.337  0.0209 -0.2598  0.4499
 2060TIP3    H1 6121   0.145   6.852   1.360 -0.2271 -0.9800 -1.4706
 2060TIP3    H2 6122   0.148   6.970   1.265 -0.0798  1.1413  1.0787
 2061TIP3   OH2 6123   7.142   0.188   3.162  0.5400 -0.0359  0.0455
 2061TIP3    H1 6124   7.196   0.135   3.104  1.2373  1.7004 -0.9525
 2061TIP3    H2 6125   7.198   0.263   3.184 -1.0742  1.2517 -0.1343
 2062TIP3   OH2 6126   5.755   0.098   0.974  0.8185  0.0862 -0.3988
 2062TIP3    H1 6127   5.848   0.119   0.983  0.8567 -0.3196  0.1599
 2062TIP3    H2 6128   5.752   0.003   0.965  0.4956  0.1476 -0.9488
 2063TIP3   OH2 6129   1.412   7.123   3.662 -0.1393 -0.2860 -0.0919
 2063TIP3    H1 6130   1.496   7.119   3.618  0.0564 -0.4052  0.2868
 2063TIP3    H2 6131   1.410   7.209   3.704 -0.5875  0.0756 -0.8430
 2064TIP3   OH2 6132   3.743   0.679   1.647 -0.1580  0.0781 -0.1919
 2064TIP3    H1 6133   3.661   0.637   1.670 -0.6414 -0.4155 -2.6940
 2064TIP3    H2 6134   3.794   0.611   1.603  1.2875  0.6057  0.5959
 2065TIP3   OH2 6135   2.500   1.666   2.133  0.5519  0.8453  0.2707
 2065TIP3    H1 6136   2.554   1.737   2.097  1.0117  0.6688  0.6139
 2065TIP3    H2 6137   2.534   1.651   2.221  1.5061 -0.8851 -0.3788
 2066TIP3   OH2 6138   2.915   0.507   2.770 -0.1538 -0.1485  0.0659
 2066TIP3    H1 6139   2.862   0.549   2.702  0.4908  2.0731  0.8654
 2066TIP3    H2 6140   2.868   0.427   2.792 -2.2072  0.8589 -0.5204
 2067TIP3   OH2 6141   1.784   8.113   3.175  0.3113 -0.0898 -0.7279
 2067TIP3    H1 6142   1.845   8.100   3.103 -0.5115 -0.3637 -1.3876
 2067TIP3    H2 6143   1.827   8.073   3.251  1.1182  0.0755 -1.0955
 2068TIP3   OH2 6144   0.417   7.430   4.122 -0.2763  0.3522 -0.3359
 2068TIP3    H1 6145   0.465   7.472   4.193  0.2425  0.1441 -0.5628
 2068TIP3    H2 6146   0.359   7.499   4.088 -0.2116  0.5720  0.0047
 2069TIP3   OH2 6147   0.298   7.364   2.102  0.7886  0.0531  0.1989
 2069TIP3    H1 6148   0.389   7.387   2.119  0.7663  0.6613 -0.4518
 2069TIP3    H2 6149   0.259   7.355   2.189  1.0601  1.4612  0.4775
 2070TIP3   OH2 6150   4.492   1.652   4.505 -0.3032 -0.2821  0.0628
 2070TIP3    H1 6151   4.556   1.624   4.440  1.4224 -1.6771  2.2933
 2070TIP3    H2 6152   4.450   1.728   4.466  0.5163 -1.2104 -2.7722
 2071TIP3   OH2 6153   2.712   6.409   2.808 -0.3423 -0.2703 -0.0212
 2071TIP3    H1 6154   2.621   6.439   2.805  0.1716  1.3894  0.1667
 2071TIP3    H2 6155   2.749   6.437   2.724 -0.0415 -1.0422 -0.1465
 2072TIP3   OH2 6156   1.684   7.630   5.303 -0.4465  0.0397 -0.5166
 2072TIP3    H1 6157   1.681   7.712   5.254 -2.6620 -1.5102 -3.1076
 2072TIP3    H2 6158   1.713   7.564   5.240 -1.1336 -1.6031  0.8164
 2073TIP3   OH2 6159   5.632   0.283   3.932 -0.1444  0.2271 -0.0139
 2073TIP3    H1 6160   5.545   0.309   3.901  0.2734  0.7908 -0.7357
 2073TIP3    H2 6161   5.645   0.333   4.013 -0.5116  0.0981  0.1264
 2074TIP3   OH2 6162   6.112   2.553   4.260 -0.2387  0.5974 -0.2026
 2074TIP3    H1 6163   6.133   2.515   4.174  0.4950 -0.9683  0.6424
 2074TIP3    H2 6164   6.033   2.508   4.288  0.3366  0.0583  0.5775
 2075TIP3   OH2 6165   4.428   2.312   3.845  0.1432  0.0335 -0.1018
 2075TIP3    H1 6166   4.509   2.358   3.867  0.2869  1.0227 -2.5317
 2075TIP3    H2 6167   4.456   2.242   3.787 -0.5244 -0.8741  0.6607
 2076TIP3   OH2 6168   6.225   1.663   4.791  0.0102  0.4737 -0.1132
 2076TIP3    H1 6169   6.303   1.717   4.803 -0.1483  0.7501 -0.3132
 2076TIP3    H2 6170   6.190   1.649   4.879  0.9817 -0.6901  0.0969
 2077TIP3   OH2 6171   6.254   3.879   5.156  0.4129 -0.0083 -0.2453
 2077TIP3    H1 6172   6.171   3.837   5.180  0.5994  0.1400  0.6586
 2077TIP3    H2 6173   6.229   3.968   5.133  0.3526  0.1138  0.2844
 2078TIP3   OH2 6174   4.345   0.203   5.776 -0.0244 -0.2757  0.1162
 2078TIP3    H1 6175   4.256   0.189   5.743  0.3845 -1.7207 -0.4262
 2078TIP3    H2 6176   4.401   0.158   5.712  1.2629  2.3976 -0.7137
 2079TIP3   OH2 6177   5.583   0.935   2.950 -0.0842 -0.1659 -0.0931
 2079TIP3    H1 6178   5.625   0.904   3.030  0.4882  0.7171 -0.0440
 2079TIP3    H2 6179   5.492   0.906   2.957  0.2773 -1.2243  0.2619
 2080TIP3   OH2 6180   4.026   1.191   3.519  0.1512  0.2314  0.4391
 2080TIP3    H1 6181   3.971   1.194   3.441  0.8649  1.3671 -0.0243
 2080TIP3    H2 6182   4.116   1.192   3.486  0.4627  1.1132  1.2812
 2081TIP3   OH2 6183   3.121   1.401   0.558  0.3972 -0.4955 -0.0999
 2081TIP3    H1 6184   3.133   1.496   0.559 -0.1011 -0.4226 -0.6897
 2081TIP3    H2 6185   3.027   1.389   0.569  0.5469 -0.9426  0.6910
 2082TIP3   OH2 6186   2.949   0.264   3.170 -0.1221  0.2866  0.3269
 2082TIP3    H1 6187   3.008   0.215   3.228  2.5160  3.0515  0.1135
 2082TIP3    H2 6188   2.929   0.344   3.219 -2.0352  0.3313 -0.4917
 2083TIP3   OH2 6189   3.594   0.030   2.630 -0.0214 -0.4173  0.5142
 2083TIP3    H1 6190   3.522   0.069   2.581 -0.3206  0.2858  1.5155
 2083TIP3    H2 6191   3.552  -0.014   2.704  0.4546 -1.2476  0.3048
 2084TIP3   OH2 6192   7.885   4.464   6.679  0.0520 -0.0009 -0.3089
 2084TIP3    H1 6193   7.857   4.460   6.771 -1.0839  3.0787 -0.4650
 2084TIP3    H2 6194   7.807   4.441   6.629  0.3251 -0.4063 -0.5537
 2085TIP3   OH2 6195   6.508   3.127   2.977 -0.4650  0.8627 -0.0585
 2085TIP3    H1 6196   6.513   3.043   2.932  1.1905  1.2140 -0.5804
 2085TIP3    H2 6197   6.462   3.108   3.059 -0.8590 -0.3711 -0.5599
 2086TIP3   OH2 6198   5.325   2.064   3.739  0.3615  0.3686  0.1083
 2086TIP3    H1 6199   5.396   2.027   3.686 -0.2683 -0.4380 -0.1851
 2086TIP3    H2 6200   5.370   2.115   3.806  1.2667 -1.1364  0.6673
 2087TIP3   OH2 6201   4.355   7.626   1.448 -0.0273 -0.1758  0.1307
 2087TIP3    H1 6202   4.373   7.688   1.518 -0.4509  1.6956 -1.3815
 2087TIP3    H2 6203   4.441   7.593   1.423  0.7871  3.5311 -2.3688
 2088TIP3   OH2 6204   4.637   0.111   2.122  0.6634 -0.1419 -0.0232
 2088TIP3    H1 6205   4.705   0.152   2.068 -0.0325  0.4514 -0.4562
 2088TIP3    H2 6206   4.568   0.177   2.129  0.0495 -0.8040  0.2612
 2089TIP3   OH2 6207   2.836   7.915   1.011  0.3670 -0.4929  0.0854
 2089TIP3    H1 6208   2.902   7.877   1.070  1.9743  1.8380 -0.1768
 2089TIP3    H2 6209   2.834   7.855   0.936  1.8498 -0.8353  0.3038
 2090TIP3   OH2 6210   5.977   0.287   2.099  0.0018  0.4274  0.4847
 2090TIP3    H1 6211   6.018   0.361   2.055 -0.5949  1.2054  1.2271
 2090TIP3    H2 6212   6.046   0.252   2.156  0.9776 -0.9754 -1.4808
 2091TIP3   OH2 6213   2.787   6.673   2.171  0.2028 -0.5915 -0.3667
 2091TIP3    H1 6214   2.868   6.698   2.216 -0.5727  1.2168  0.0794
 2091TIP3    H2 6215   2.787   6.726   2.091  0.4025 -2.0306 -1.3421
 2092TIP3   OH2 6216   4.632   0.041   3.847  0.8076 -0.6001  0.3577
 2092TIP3    H1 6217   4.558   0.094   3.876  2.2740  1.4103  0.5022
 2092TIP3    H2 6218   4.636   0.054   3.752 -0.1238 -2.1448  0.1029
 2093TIP3   OH2 6219   1.665   6.921   0.840  0.5335 -0.1271 -0.1675
 2093TIP3    H1 6220   1.610   6.937   0.918 -0.8780 -0.7892 -1.0041
 2093TIP3    H2 6221   1.744   6.882   0.875  0.3775  0.5844  1.0524
 2094TIP3   OH2 6222   2.551   0.743   2.876 -0.1646  0.6015 -0.1579
 2094TIP3    H1 6223   2.527   0.652   2.860  0.1473  0.3484  0.7690
 2094TIP3    H2 6224   2.643   0.748   2.848  0.0541  0.4327  0.5288
 2095TIP3   OH2 6225   3.815   1.029   3.602  0.0938  0.2592 -0.6714
 2095TIP3    H1 6226   3.903   1.068   3.606 -0.6944  2.2199 -1.7439
 2095TIP3    H2 6227   3.784   1.031   3.693  0.1168  2.0676 -0.6909
 2096TIP3   OH2 6228   4.252   1.006   3.553 -0.0447  0.3759  0.1004
 2096TIP3    H1 6229   4.298   1.027   3.634 -0.8426  0.5124  0.5264
 2096TIP3    H2 6230   4.321   0.997   3.487  0.4951  1.8072  0.4562
 2097TIP3   OH2 6231   1.061   7.532   1.861 -0.2588 -0.0702  0.4469
 2097TIP3    H1 6232   1.058   7.570   1.774 -3.3883 -0.8077  0.1458
 2097TIP3    H2 6233   0.992   7.578   1.909  0.5029 -0.6398  2.1123
 2098TIP3   OH2 6234   6.045   0.895   3.021  0.1122 -0.0491 -0.2530
 2098TIP3    H1 6235   6.008   0.927   2.938 -0.5051 -0.5999 -0.1942
 2098TIP3    H2 6236   6.068   0.804   3.002  2.6802  0.6669 -0.6872
 2099TIP3   OH2 6237   6.134   0.486   2.760  0.5464  0.5700  0.1658
 2099TIP3    H1 6238   6.217   0.452   2.727  1.1844  1.4585  0.8392
 2099TIP3    H2 6239   6.106   0.548   2.693 -0.0394 -0.4024 -0.5019
 2100TIP3   OH2 6240   5.257   3.567   3.855  0.1879 -0.1225 -0.1131
 2100TIP3    H1 6241   5.316   3.532   3.922 -1.3156  0.4888  1.5776
 2100TIP3    H2 6242   5.315   3.607   3.790  1.6231  1.4157  2.0275
 2101TIP3   OH2 6243   2.486   6.503   3.507  0.0898 -0.3193 -0.4583
 2101TIP3    H1 6244   2.449   6.466   3.427 -0.7782 -1.9652  0.6771
 2101TIP3    H2 6245   2.578   6.519   3.486 -0.6771  1.5490 -2.5367
 2102TIP3   OH2 6246   4.280   2.734   1.161  0.2213  0.8017  0.4116
 2102TIP3    H1 6247   4.237   2.812   1.196 -0.0341  2.2235 -2.8763
 2102TIP3    H2 6248   4.373   2.748   1.178  0.2289  2.1113 -0.5627
 2103TIP3   OH2 6249   4.066   0.621   6.168  0.1517  0.1583  0.2006
 2103TIP3    H1 6250   4.159   0.612   6.188  0.0215  0.2570  0.8556
 2103TIP3    H2 6251   4.025   0.639   6.253 -0.3719  0.8362 -0.1908
 2104TIP3   OH2 6252   4.958   0.618   4.574 -0.7129  0.0133 -0.1351
 2104TIP3    H1 6253   4.923   0.545   4.625 -0.8526 -1.7219 -2.5915
 2104TIP3    H2 6254   4.883   0.655   4.529 -0.3668  0.5135 -0.3083
 2105TIP3   OH2 6255   3.127   0.637   3.207 -0.7638  0.3049 -0.3552
 2105TIP3    H1 6256   3.038   0.645   3.241  0.5892 -0.4197  3.6427
 2105TIP3    H2 6257   3.174   0.712   3.246  0.4884  0.4002 -2.0043
 2106TIP3   OH2 6258   4.904   3.345   3.437 -0.2275  0.5486  0.4258
 2106TIP3    H1 6259   4.830   3.372   3.382  0.9224 -0.1831 -1.5438
 2106TIP3    H2 6260   4.978   3.397   3.405  0.2572  0.8252  1.9602
 2107TIP3   OH2 6261   3.371   3.005   2.867 -0.2148 -0.0718  0.0034
 2107TIP3    H1 6262   3.375   2.924   2.817 -0.6103  0.8308 -1.5352
 2107TIP3    H2 6263   3.306   2.988   2.936 -0.1439 -1.1167 -0.1909
 2108TIP3   OH2 6264   1.586   7.862   6.335  0.0399  0.4306 -0.0120
 2108TIP3    H1 6265   1.528   7.788   6.352 -1.0430  1.0131 -1.0662
 2108TIP3    H2 6266   1.657   7.827   6.282  1.0699 -0.4470  1.8998
 2109TIP3   OH2 6267   3.467   2.172   2.387 -0.0353 -0.2930  0.6228
 2109TIP3    H1 6268   3.443   2.260   2.359 -0.6008  0.0539  2.1616
 2109TIP3    H2 6269   3.558   2.181   2.416  1.2136 -1.0616 -2.7862
 2110TIP3   OH2 6270   0.938   5.936   5.713 -0.1695  0.6339 -0.2233
 2110TIP3    H1 6271   0.905   6.022   5.689 -0.1905  1.0651  1.3428
 2110TIP3    H2 6272   0.892   5.914   5.794 -0.0447 -0.7797 -0.5220
 2111TIP3   OH2 6273   5.561   2.412   3.221 -0.0570  0.6694  0.3153
 2111TIP3    H1 6274   5.563   2.452   3.308  1.8982  2.0085 -0.3167
 2111TIP3    H2 6275   5.609   2.330   3.231 -1.5752 -0.1759  0.9336
 2112TIP3   OH2 6276   4.925   1.365   3.126 -0.3140 -0.0486  0.3693
 2112TIP3    H1 6277   5.016   1.358   3.097  0.5970  1.6537  2.6633
 2112TIP3    H2 6278   4.887   1.431   3.067  1.1406  2.3510  2.0200
 2113TIP3   OH2 6279   3.679   1.854   4.060  0.4227  0.0711  0.3768
 2113TIP3    H1 6280   3.631   1.782   4.101 -0.8485  0.1744 -0.8754
 2113TIP3    H2 6281   3.765   1.852   4.102  0.0203 -1.4458  1.1879
 2114TIP3   OH2 6282   5.141   2.131   2.864 -0.1441 -0.0975 -0.2362
 2114TIP3    H1 6283   5.191   2.132   2.782  1.5010  0.8911  0.7426
 2114TIP3    H2 6284   5.050   2.126   2.837  0.2359  2.6333 -2.2106
 2115TIP3   OH2 6285   8.424   6.715   1.410 -0.2515  0.3127  0.3748
 2115TIP3    H1 6286   8.419   6.765   1.328 -0.2408  1.6861  1.1883
 2115TIP3    H2 6287   8.338   6.728   1.450 -0.2923 -0.4459  0.5444
 2116TIP3   OH2 6288   0.768   6.008   1.130 -0.1320 -0.0264  0.7557
 2116TIP3    H1 6289   0.703   6.067   1.168 -1.2188 -1.2005  0.7449
 2116TIP3    H2 6290   0.758   5.927   1.179  0.5122 -0.6062 -0.0614
 2117TIP3   OH2 6291   3.375   0.321   2.732 -0.0980 -0.6961 -0.1338
 2117TIP3    H1 6292   3.434   0.354   2.665  0.4404 -0.5813  0.3943
 2117TIP3    H2 6293   3.298   0.377   2.726  1.0579  1.1036  1.1726
 2118TIP3   OH2 6294   1.723   1.057   2.780  0.6184 -0.0089 -0.4525
 2118TIP3    H1 6295   1.704   1.056   2.686  0.6931 -0.8763 -0.4575
 2118TIP3    H2 6296   1.648   1.101   2.819  1.1256  1.4167 -1.0389
 2119TIP3   OH2 6297   1.663   7.064   1.968 -0.2523  0.6626  0.4699
 2119TIP3    H1 6298   1.655   7.136   2.030 -1.7143 -0.9514  2.2366
 2119TIP3    H2 6299   1.755   7.039   1.972 -0.6155 -0.3801  3.1656
 2120TIP3   OH2 6300   8.025   1.097   2.237  0.6215 -0.4508 -0.5437
 2120TIP3    H1 6301   7.952   1.084   2.175  0.9974  0.0691 -1.0980
 2120TIP3    H2 6302   7.998   1.049   2.315 -2.7905  4.0426  1.2352
 2121TIP3   OH2 6303   5.388   0.868   3.297 -0.4510  0.2458  0.1232
 2121TIP3    H1 6304   5.418   0.916   3.374 -2.5800  1.8735 -0.0263
 2121TIP3    H2 6305   5.366   0.936   3.233  2.0036 -1.0887 -2.2424
 2122TIP3   OH2 6306   5.100   0.449   3.316 -0.0565 -0.1030 -0.1320
 2122TIP3    H1 6307   5.068   0.485   3.398 -1.2402 -1.1038 -0.1532
 2122TIP3    H2 6308   5.170   0.509   3.290  1.1112 -0.4175  2.1762
 2123TIP3   OH2 6309   6.600   1.029   2.479  0.0900  1.0373  0.2118
 2123TIP3    H1 6310   6.669   1.005   2.417 -2.3068  0.7190 -2.3979
 2123TIP3    H2 6311   6.531   0.965   2.464 -0.6576  1.1387  3.0485
 2124TIP3   OH2 6312   5.635   1.800   0.616 -0.3864 -0.3820 -0.3093
 2124TIP3    H1 6313   5.639   1.895   0.615 -1.7399 -0.2954  1.3421
 2124TIP3    H2 6314   5.550   1.778   0.577 -0.7676 -0.8501  0.7654
 2125TIP3   OH2 6315   7.684   0.434   2.828 -0.1307 -0.1633  0.4368
 2125TIP3    H1 6316   7.628   0.475   2.763 -0.8195  0.7200  1.5592
 2125TIP3    H2 6317   7.722   0.358   2.783 -2.4438 -0.9516 -0.2747
 2126TIP3   OH2 6318   6.782   0.412   1.925  0.3596 -0.4546 -0.5460
 2126TIP3    H1 6319   6.873   0.437   1.908  0.3277 -0.8809 -1.3633
 2126TIP3    H2 6320   6.741   0.412   1.839  0.2227 -2.7246 -0.5031
 2127TIP3   OH2 6321   5.125   0.811   2.045 -0.5373 -0.6241  0.5459
 2127TIP3    H1 6322   5.203   0.755   2.053  0.0817  0.0944 -0.3681
 2127TIP3    H2 6323   5.159   0.900   2.051 -1.2212 -0.2896 -0.4303
 2128TIP3   OH2 6324   5.811   1.886   1.475  0.4115  0.1102 -0.3836
 2128TIP3    H1 6325   5.875   1.832   1.522 -1.4818 -0.4347  1.6594
 2128TIP3    H2 6326   5.746   1.823   1.444 -1.3968  1.1010  1.3282
 2129TIP3   OH2 6327   6.701   0.087   1.355  0.2413  0.0697 -0.6627
 2129TIP3    H1 6328   6.783   0.088   1.404 -0.0919 -0.2880 -0.0882
 2129TIP3    H2 6329   6.705   0.166   1.300 -0.1753  1.4687  1.2611
 2130TIP3   OH2 6330   6.790   0.310   1.235 -0.6767 -0.2234  0.3732
 2130TIP3    H1 6331   6.876   0.348   1.251  0.3880 -2.5365  0.3723
 2130TIP3    H2 6332   6.740   0.381   1.194  1.7580  0.6683 -1.2112
 2131TIP3   OH2 6333   0.491   0.437   2.910 -0.3806 -0.3099  0.6630
 2131TIP3    H1 6334   0.555   0.436   2.839 -1.0674  1.0436  0.0029
 2131TIP3    H2 6335   0.512   0.517   2.959 -0.4526 -0.7908  1.4868
 2132TIP3   OH2 6336   4.993   1.525   4.501  0.4267  0.2815  0.3519
 2132TIP3    H1 6337   5.016   1.549   4.411  0.0397  1.6752  0.6101
 2132TIP3    H2 6338   5.011   1.604   4.552  0.7269 -0.5285  1.5164
 2133TIP3   OH2 6339   5.925   1.575   2.795 -0.4094 -0.5962 -0.6076
 2133TIP3    H1 6340   5.975   1.646   2.757  0.4397  0.0751  1.6665
 2133TIP3    H2 6341   5.978   1.497   2.781  0.1066 -0.2820 -0.4065
 2134TIP3   OH2 6342   2.736   7.029   2.959  0.2839 -0.3578 -0.1232
 2134TIP3    H1 6343   2.794   6.958   2.989  2.0238  0.6761 -0.9241
 2134TIP3    H2 6344   2.772   7.053   2.873 -0.4004  1.3732  0.0660
 2135TIP3   OH2 6345   5.184   2.840   3.358  0.0175  0.2281  0.2067
 2135TIP3    H1 6346   5.115   2.819   3.421 -0.3975  1.8773  0.3264
 2135TIP3    H2 6347   5.158   2.925   3.322  1.3136  0.2493 -0.7024
 2136TIP3   OH2 6348   6.397   0.744   2.026  0.4238  0.1577  0.7250
 2136TIP3    H1 6349   6.341   0.813   1.991 -0.2412 -0.4352  0.5936
 2136TIP3    H2 6350   6.484   0.764   1.993  0.3558  1.2803  1.2017
 2137TIP3   OH2 6351   7.130   0.686   2.874  0.5372 -0.3588  0.0986
 2137TIP3    H1 6352   7.201   0.627   2.899 -0.2142 -1.4787 -0.3900
 2137TIP3    H2 6353   7.157   0.771   2.908  3.1182 -0.3374 -1.9243
 2138TIP3   OH2 6354   5.673   0.710   4.277 -0.5360 -1.5138 -0.1162
 2138TIP3    H1 6355   5.680   0.736   4.369  0.2960 -1.4496 -0.1910
 2138TIP3    H2 6356   5.591   0.749   4.247 -0.6036 -1.1833  0.4881
 2139TIP3   OH2 6357   0.330   0.933   3.124 -0.5221  0.0330  0.2856
 2139TIP3    H1 6358   0.322   1.020   3.085 -0.5148 -0.5133 -0.9757
 2139TIP3    H2 6359   0.277   0.938   3.204 -1.7896  0.7469 -0.5655
 2140TIP3   OH2 6360   1.769   7.963   2.022  0.4500  0.0797 -0.0522
 2140TIP3    H1 6361   1.778   7.917   2.105 -2.7666 -1.0351 -0.2524
 2140TIP3    H2 6362   1.752   8.054   2.046 -1.1972 -0.3788  0.5382
 2141TIP3   OH2 6363   5.355   7.874   3.695 -0.4948  0.2371  0.3207
 2141TIP3    H1 6364   5.427   7.915   3.645  0.4691  0.1126  1.5946
 2141TIP3    H2 6365   5.311   7.818   3.631  0.0739  0.8949 -0.6691
 2142TIP3   OH2 6366   4.158   7.823   1.317 -0.1803  0.8116  0.5311
 2142TIP3    H1 6367   4.141   7.877   1.395  1.7917  1.4278  0.5705
 2142TIP3    H2 6368   4.204   7.746   1.351 -2.4834 -0.6553  0.3987
 2143TIP3   OH2 6369   3.740   3.274   2.826 -0.1844 -0.2192 -0.2773
 2143TIP3    H1 6370   3.760   3.364   2.800 -1.5638  0.0670 -0.3493
 2143TIP3    H2 6371   3.813   3.249   2.883  0.4574  0.7658 -0.6585
 2144TIP3   OH2 6372   5.933   6.209   1.783  0.4130 -0.2827  0.0707
 2144TIP3    H1 6373   5.975   6.129   1.815 -1.6399 -0.7142  1.8212
 2144TIP3    H2 6374   5.842   6.184   1.769 -0.7482  2.2360  2.6661
 2145TIP3   OH2 6375   8.549   0.437   2.821  0.0353 -0.2651 -0.0757
 2145TIP3    H1 6376   8.458   0.449   2.848  0.0915  1.8570 -0.7510
 2145TIP3    H2 6377   8.543   0.412   2.728  0.1605  0.6647 -0.3390
 2146TIP3   OH2 6378   7.646   1.863   0.661 -0.0044  0.2163 -0.1951
 2146TIP3    H1 6379   7.650   1.849   0.566 -1.5495  0.7002 -0.3466
 2146TIP3    H2 6380   7.660   1.776   0.698 -0.5062 -0.1778 -0.9047
 2147TIP3   OH2 6381   7.339   0.794   2.313 -0.0248  0.1977  0.2199
 2147TIP3    H1 6382   7.406   0.737   2.275  0.0346  0.8573 -0.6725
 2147TIP3    H2 6383   7.257   0.762   2.274 -0.0112  0.6046 -0.1409
 2148TIP3   OH2 6384   7.206   2.251   3.767 -0.2244  0.9390 -0.3036
 2148TIP3    H1 6385   7.148   2.190   3.812 -1.8868  1.6842 -1.3545
 2148TIP3    H2 6386   7.239   2.202   3.691  0.8056  0.3978  0.4939
 2149TIP3   OH2 6387   4.168   0.831   2.726  0.3281 -0.1806  0.5102
 2149TIP3    H1 6388   4.218   0.887   2.785  0.3662  1.1504 -0.7677
 2149TIP3    H2 6389   4.225   0.816   2.651 -0.0206 -1.2042  0.4333
 2150TIP3   OH2 6390   6.723   0.633   3.952 -0.1522 -0.5379 -0.2754
 2150TIP3    H1 6391   6.685   0.690   4.020 -0.6538 -2.2237  0.9065
 2150TIP3    H2 6392   6.813   0.620   3.980 -0.0182 -0.2891 -0.5831
 2151TIP3   OH2 6393   5.736   1.516   4.316 -0.2754  0.1291  0.3088
 2151TIP3    H1 6394   5.715   1.490   4.226 -0.6297  1.5723 -0.0500
 2151TIP3    H2 6395   5.831   1.521   4.318 -0.2886  0.6247 -0.1512
 2152TIP3   OH2 6396   7.719   0.535   3.915  0.2767  0.0717 -0.1409
 2152TIP3    H1 6397   7.649   0.529   3.980  0.6801 -0.2800  0.2703
 2152TIP3    H2 6398   7.701   0.466   3.852  2.3096 -2.5632  2.0123
 2153TIP3   OH2 6399   1.015   5.252   6.331  0.1142  0.2391 -0.0850
 2153TIP3    H1 6400   0.985   5.275   6.419  0.3270  0.6972 -0.1261
 2153TIP3    H2 6401   1.086   5.315   6.313  0.2520 -0.0240 -0.4746
 2154TIP3   OH2 6402   6.145   0.278   4.674  0.4173  0.0846 -0.1800
 2154TIP3    H1 6403   6.055   0.259   4.700 -0.1504  1.9759 -0.7001
 2154TIP3    H2 6404   6.158   0.229   4.593 -0.7555  1.2086 -1.0695
 2155TIP3   OH2 6405   6.852   2.253   1.101  0.2302 -0.5188  0.0891
 2155TIP3    H1 6406   6.821   2.342   1.084  1.8201 -0.2873 -1.7339
 2155TIP3    H2 6407   6.880   2.254   1.193  1.4586  1.2258 -0.2935
 2156TIP3   OH2 6408   6.378   2.267   2.020  1.2048 -0.4999  0.3531
 2156TIP3    H1 6409   6.323   2.225   2.086  1.2330  0.3285  0.9104
 2156TIP3    H2 6410   6.337   2.242   1.937  0.0777 -0.0395  0.7553
 2157TIP3   OH2 6411   6.334   1.461   2.940  0.0520 -0.5952 -0.1510
 2157TIP3    H1 6412   6.395   1.458   2.867  0.3847  0.2460  0.0972
 2157TIP3    H2 6413   6.309   1.369   2.954  0.1838 -0.7860 -1.1466
 2158TIP3   OH2 6414   0.610   6.221   1.243  0.7436  0.3005  0.0238
 2158TIP3    H1 6415   0.544   6.153   1.233 -1.6805  2.7158 -1.1099
 2158TIP3    H2 6416   0.596   6.256   1.330  1.6921 -0.3191  0.4342
 2159TIP3   OH2 6417   4.709   1.264   4.033 -0.2873  0.3685  0.1057
 2159TIP3    H1 6418   4.680   1.304   3.951  0.5422 -0.5904 -0.6557
 2159TIP3    H2 6419   4.678   1.324   4.101 -1.8715  0.6564 -0.8372
 2160TIP3   OH2 6420   6.123   1.236   4.912  0.0907 -0.1763 -0.2005
 2160TIP3    H1 6421   6.186   1.237   4.840 -0.8033 -0.7413 -1.0033
 2160TIP3    H2 6422   6.040   1.211   4.871 -0.7436  0.9106  0.7700
 2161TIP3   OH2 6423   5.063   2.131   2.216  0.5344  0.8262 -0.0814
 2161TIP3    H1 6424   5.157   2.136   2.199  0.7481  0.7816  1.0251
 2161TIP3    H2 6425   5.051   2.046   2.260 -0.0807  0.6633 -0.5417
 2162TIP3   OH2 6426   6.839   1.408   2.185  0.1255  0.3777 -0.6404
 2162TIP3    H1 6427   6.880   1.401   2.271  0.5073 -1.8979 -0.9972
 2162TIP3    H2 6428   6.783   1.486   2.192  0.2862  0.3149  1.5966
 2163TIP3   OH2 6429   5.707   0.725   2.379 -0.1501 -0.4223  0.1003
 2163TIP3    H1 6430   5.791   0.686   2.355  0.4060  0.9238 -0.1440
 2163TIP3    H2 6431   5.663   0.656   2.430  0.6186 -1.5444 -0.7247
 2164TIP3   OH2 6432   4.811   1.600   2.956  0.4879  0.0068  0.0003
 2164TIP3    H1 6433   4.865   1.673   2.928  0.5810 -0.0835 -0.0582
 2164TIP3    H2 6434   4.757   1.579   2.880  1.3685 -0.8087 -0.4180
 2165TIP3   OH2 6435   5.021   0.711   1.794 -0.3565 -0.0398 -0.2861
 2165TIP3    H1 6436   5.053   0.745   1.877  1.5163  0.7087 -1.2780
 2165TIP3    H2 6437   5.039   0.780   1.731  1.2286 -1.8375 -1.8913
 2166TIP3   OH2 6438   6.753   3.119   2.614  0.1215 -0.1853 -0.3379
 2166TIP3    H1 6439   6.778   3.211   2.627  1.6726 -0.0977 -3.5000
 2166TIP3    H2 6440   6.659   3.118   2.630  0.4114  1.5509  1.7056
 2167TIP3   OH2 6441   4.335   7.716   3.886  0.2932 -0.0586  0.0619
 2167TIP3    H1 6442   4.383   7.685   3.809 -1.2507 -2.1504 -0.0947
 2167TIP3    H2 6443   4.393   7.696   3.960  0.6985 -0.3616 -0.3371
 2168TIP3   OH2 6444   6.581   0.759   4.124  0.4190  0.6488 -0.5904
 2168TIP3    H1 6445   6.524   0.836   4.116 -1.1266 -0.5605 -1.4128
 2168TIP3    H2 6446   6.619   0.767   4.211 -2.8046  0.3009  0.9235
 2169TIP3   OH2 6447   8.252   0.845   3.445  0.6426  0.1382 -0.2615
 2169TIP3    H1 6448   8.272   0.905   3.373  1.8942  0.2031  0.1209
 2169TIP3    H2 6449   8.192   0.781   3.408  0.1848  0.9823 -0.9829
 2170TIP3   OH2 6450   2.484   7.813   2.652  0.6026 -0.1628 -0.2682
 2170TIP3    H1 6451   2.549   7.761   2.605  1.2578  0.6030 -0.2287
 2170TIP3    H2 6452   2.507   7.904   2.631 -0.1199  0.1309  0.1967
 2171TIP3   OH2 6453   6.737   0.530   3.269  0.2217 -0.8522 -0.1275
 2171TIP3    H1 6454   6.735   0.554   3.361 -0.7343  3.0352 -1.0844
 2171TIP3    H2 6455   6.814   0.574   3.234 -0.9607 -0.0225 -1.7484
 2172TIP3   OH2 6456   2.102   7.514   2.345 -0.2169  0.8624  0.1322
 2172TIP3    H1 6457   2.041   7.477   2.410 -0.7030  1.7760  0.2044
 2172TIP3    H2 6458   2.163   7.443   2.327  0.6157  0.9422  2.4237
 2173TIP3   OH2 6459   6.328   1.937   3.764 -0.0896  0.0983 -0.4368
 2173TIP3    H1 6460   6.323   1.857   3.816  0.6504  0.1731 -0.2506
 2173TIP3    H2 6461   6.378   1.913   3.686  0.3928  0.4511 -0.2398
 2174TIP3   OH2 6462   6.625   1.695   0.738 -0.0313 -0.0132 -0.0391
 2174TIP3    H1 6463   6.667   1.663   0.658  0.7385  1.5887 -0.3090
 2174TIP3    H2 6464   6.697   1.731   0.789 -0.8970  1.6987  0.0247
 2175TIP3   OH2 6465   5.328   7.504   3.457 -0.0436 -0.3571 -0.7817
 2175TIP3    H1 6466   5.348   7.470   3.544  0.0255 -0.1442 -0.7149
 2175TIP3    H2 6467   5.394   7.571   3.441 -0.2306 -0.1939 -0.8805
 2176TIP3   OH2 6468   1.984   7.409   1.315  0.2739 -0.1247 -0.6704
 2176TIP3    H1 6469   1.948   7.322   1.334  0.5062  0.1989  1.4226
 2176TIP3    H2 6470   1.908   7.466   1.310  0.2942  0.1485  1.4745
 2177TIP3   OH2 6471   3.221   3.946   6.612 -0.0128 -0.2428  0.0743
 2177TIP3    H1 6472   3.155   3.982   6.553  0.0219  0.2623  0.3494
 2177TIP3    H2 6473   3.267   4.022   6.647  0.5107 -0.5764  0.1272
 2178TIP3   OH2 6474   3.777   7.239   1.918 -0.1021 -0.3833 -0.3216
 2178TIP3    H1 6475   3.706   7.215   1.977  0.4776  1.1574  1.0622
 2178TIP3    H2 6476   3.734   7.277   1.842 -0.7903  1.1960  0.8181
 2179TIP3   OH2 6477   7.242   4.096   6.955 -0.5085  0.0397 -0.5573
 2179TIP3    H1 6478   7.333   4.120   6.941 -0.4680  0.3115  0.1658
 2179TIP3    H2 6479   7.197   4.179   6.972 -0.6662 -0.2143  0.2959
 2180TIP3   OH2 6480   2.321   7.211   1.609  0.4400  0.1912  0.4626
 2180TIP3    H1 6481   2.271   7.243   1.534  2.4160 -1.1849 -1.5087
 2180TIP3    H2 6482   2.361   7.290   1.646  0.5596  0.7174 -0.7613
 2181TIP3   OH2 6483   8.381   1.316   4.188 -0.0150 -0.2964  0.0449
 2181TIP3    H1 6484   8.383   1.259   4.265 -1.0472  1.0537  1.0931
 2181TIP3    H2 6485   8.423   1.265   4.119  3.0915 -0.6625  2.1145
 2182TIP3   OH2 6486   2.406   5.983   2.019 -0.2807 -0.4670  0.8648
 2182TIP3    H1 6487   2.474   5.924   2.052 -1.1670 -2.5713 -0.8805
 2182TIP3    H2 6488   2.385   6.039   2.093  4.8113  1.7128  0.8534
 2183TIP3   OH2 6489   2.711   7.201   1.607  0.5218 -0.4757 -0.5821
 2183TIP3    H1 6490   2.807   7.210   1.609  0.5054  0.0039 -1.5316
 2183TIP3    H2 6491   2.697   7.113   1.573  0.6311 -0.8898  0.4406
 2184TIP3   OH2 6492   5.076   7.270   3.944 -0.2229 -0.2103 -0.4473
 2184TIP3    H1 6493   5.076   7.333   4.015 -0.8407  0.7291 -1.2681
 2184TIP3    H2 6494   5.011   7.303   3.882 -1.4898 -2.3229 -0.2884
 2185TIP3   OH2 6495   5.808   1.196   3.715 -0.2456 -0.4999  0.1647
 2185TIP3    H1 6496   5.793   1.145   3.795  1.2576 -1.0899  0.0980
 2185TIP3    H2 6497   5.901   1.219   3.719 -0.4516  0.5326 -0.8024
 2186TIP3   OH2 6498   4.946   0.222   2.180  0.1578  0.3740  0.0936
 2186TIP3    H1 6499   4.998   0.299   2.200  0.4369  0.0206  0.7208
 2186TIP3    H2 6500   4.921   0.233   2.088 -0.0095  1.3306  0.2513
 2187TIP3   OH2 6501   4.474   7.993   3.652  0.6982 -0.3689 -0.3047
 2187TIP3    H1 6502   4.452   8.073   3.605 -0.6983  0.1092  1.1618
 2187TIP3    H2 6503   4.396   7.939   3.647  0.7796 -0.6102  0.8596
 2188TIP3   OH2 6504   1.629   8.074   3.605 -0.1120 -0.1077  0.1831
 2188TIP3    H1 6505   1.704   8.123   3.570  0.8393 -1.3984  0.3687
 2188TIP3    H2 6506   1.615   8.004   3.541 -0.3304 -0.6439  0.8188
 2189TIP3   OH2 6507   5.882   1.096   1.752  0.0709 -0.6582 -0.1608
 2189TIP3    H1 6508   5.974   1.070   1.745  0.0915 -0.8388  0.8226
 2189TIP3    H2 6509   5.872   1.129   1.841 -0.4964  0.6390 -0.7009
 2190TIP3   OH2 6510   5.091   1.913   3.881 -0.0704  0.2090  0.1240
 2190TIP3    H1 6511   5.109   1.877   3.794 -1.4144 -0.7862  0.2451
 2190TIP3    H2 6512   5.099   2.008   3.870  0.4103  0.0502 -0.9293
 2191TIP3   OH2 6513   7.980   0.976   2.554  0.0672  0.1842 -0.2493
 2191TIP3    H1 6514   8.069   1.004   2.574 -0.3959  0.5986  1.3499
 2191TIP3    H2 6515   7.924   1.034   2.607 -1.1456 -0.0005 -1.3019
 2192TIP3   OH2 6516   6.653   1.160   3.541 -0.3340  0.1426 -0.0183
 2192TIP3    H1 6517   6.668   1.242   3.493  0.7641 -0.3818 -0.6137
 2192TIP3    H2 6518   6.606   1.104   3.478  0.9556 -0.4849 -0.4547
 2193TIP3   OH2 6519   5.585   2.985   4.211 -0.5004  0.3597  0.7773
 2193TIP3    H1 6520   5.503   3.024   4.180 -0.4969 -0.7909 -0.7373
 2193TIP3    H2 6521   5.567   2.959   4.301 -1.1633  1.9306  1.1061
 2194TIP3   OH2 6522   0.201   1.114  -0.020 -0.6183  0.5709 -0.3388
 2194TIP3    H1 6523   0.175   1.030   0.019 -0.7068  0.9068  0.3341
 2194TIP3    H2 6524   0.271   1.146   0.036  0.3289  0.3270 -1.3597
 2195TIP3   OH2 6525   6.392   3.317   3.345  0.6473  0.0134  0.2221
 2195TIP3    H1 6526   6.426   3.375   3.277 -0.5762 -0.0342 -0.4413
 2195TIP3    H2 6527   6.317   3.365   3.381  0.6163 -0.4530  0.7719
 2196TIP3   OH2 6528   6.200   2.156   2.204 -0.4012 -0.0674  0.0801
 2196TIP3    H1 6529   6.221   2.218   2.274  0.0163 -0.9515  0.7552
 2196TIP3    H2 6530   6.135   2.098   2.244 -1.2709  0.3262 -0.7546
 2197TIP3   OH2 6531   6.368   1.655   0.334 -0.2738 -1.0846 -0.0973
 2197TIP3    H1 6532   6.334   1.721   0.273  1.0662  1.4908  1.8250
 2197TIP3    H2 6533   6.293   1.634   0.390 -0.1627  0.5471  0.7086
 2198TIP3   OH2 6534   4.062   8.028   2.243 -0.1164  0.1753 -0.7172
 2198TIP3    H1 6535   4.136   8.087   2.259 -0.1315 -0.1339  0.4965
 2198TIP3    H2 6536   4.079   7.953   2.299 -1.3065  0.0593 -0.5067
 2199TIP3   OH2 6537   3.370   7.623   2.950 -0.4409  0.0461  0.4979
 2199TIP3    H1 6538   3.310   7.695   2.928  1.6565  1.6581 -0.1535
 2199TIP3    H2 6539   3.410   7.599   2.866  1.5623  0.6296  1.2450
 2200TIP3   OH2 6540   3.882   2.298   0.670 -0.8665 -0.6067 -0.1683
 2200TIP3    H1 6541   3.893   2.333   0.759 -2.4922  0.1204 -0.2382
 2200TIP3    H2 6542   3.882   2.375   0.614 -0.4176 -1.0236 -0.7425
 2201TIP3   OH2 6543   4.731   1.022   2.649 -0.0600  0.5821 -0.1560
 2201TIP3    H1 6544   4.639   1.000   2.641 -0.6291  2.9226 -0.4480
 2201TIP3    H2 6545   4.777   0.952   2.604 -1.7976  0.2547 -1.4516
 2202TIP3   OH2 6546   5.698   1.590   2.933 -0.4511 -0.0639 -0.4418
 2202TIP3    H1 6547   5.785   1.591   2.892 -0.1183 -0.0907  0.2553
 2202TIP3    H2 6548   5.694   1.505   2.978 -2.3280 -1.7381 -3.6031
 2203TIP3   OH2 6549   8.596   2.087   1.471  0.4232 -0.0006  0.1038
 2203TIP3    H1 6550   8.673   2.037   1.498  1.1047  1.0022  0.0521
 2203TIP3    H2 6551   8.527   2.062   1.533  1.7622  1.7265  2.3468
 2204TIP3   OH2 6552   6.402   1.574   3.237 -0.1050  0.0320  0.5975
 2204TIP3    H1 6553   6.378   1.485   3.261 -1.0244  0.5635  1.7164
 2204TIP3    H2 6554   6.484   1.565   3.188 -0.0056 -1.3960  1.0185
 2205TIP3   OH2 6555   4.222   7.331   1.397 -0.1551  0.0771 -0.0185
 2205TIP3    H1 6556   4.202   7.340   1.303 -0.3445  0.2717  0.0408
 2205TIP3    H2 6557   4.270   7.412   1.418  0.2138 -0.1354 -0.0332
 2206TIP3   OH2 6558   6.410   1.999   4.400 -0.1392  0.2259  0.3769
 2206TIP3    H1 6559   6.429   1.997   4.306 -0.0592 -0.1419  0.4005
 2206TIP3    H2 6560   6.379   1.911   4.420 -1.9063  0.8158  0.3345
 2207TIP3   OH2 6561   4.677   6.563   1.562 -0.5912  0.0486 -0.3139
 2207TIP3    H1 6562   4.670   6.628   1.492  1.7704  0.4374 -0.2336
 2207TIP3    H2 6563   4.679   6.479   1.517  0.5705  0.2798 -0.7239
 2208TIP3   OH2 6564   5.035   7.043   1.555 -0.3648  0.0532  0.6685
 2208TIP3    H1 6565   5.045   7.067   1.463  0.8524 -1.1224  0.4829
 2208TIP3    H2 6566   5.117   7.068   1.596 -0.2979 -0.8715  1.1102
 2209TIP3   OH2 6567   2.026   8.089   3.407  0.3993 -0.1959  0.3445
 2209TIP3    H1 6568   2.053   7.997   3.405  2.0143  0.2468  0.8580
 2209TIP3    H2 6569   2.107   8.137   3.426 -0.0476  1.4970 -1.8588
 2210TIP3   OH2 6570   3.958   0.951   4.137 -0.1006 -0.1628 -0.0557
 2210TIP3    H1 6571   3.876   0.914   4.168 -0.2825  0.7883  0.6168
 2210TIP3    H2 6572   4.010   0.967   4.216  0.6052 -0.4526 -0.4482
 2211TIP3   OH2 6573   4.406   7.584   1.091 -0.1427  0.0935  0.2547
 2211TIP3    H1 6574   4.462   7.558   1.165  1.3242 -0.9655 -1.1907
 2211TIP3    H2 6575   4.409   7.680   1.092  1.7380  0.0672  0.2226
 2212TIP3   OH2 6576   2.393   0.301   2.075  0.8803  0.3015 -0.1022
 2212TIP3    H1 6577   2.412   0.370   2.013  0.8240  0.6258  0.2398
 2212TIP3    H2 6578   2.348   0.234   2.024 -0.7468  1.3299 -0.0529
 2213TIP3   OH2 6579   2.176   7.028   1.795 -0.0296 -0.1789 -0.1521
 2213TIP3    H1 6580   2.238   6.960   1.820  1.0125  1.5966  2.3439
 2213TIP3    H2 6581   2.230   7.093   1.749 -0.2583  0.7225  0.8214
 2214TIP3   OH2 6582   7.502   0.785   3.854  0.0724 -0.6142 -0.2270
 2214TIP3    H1 6583   7.489   0.713   3.916 -0.6690 -0.7411 -0.5244
 2214TIP3    H2 6584   7.421   0.835   3.858  0.7736  0.4797  0.3262
 2215TIP3   OH2 6585   3.825   7.896   4.038 -0.0040  0.3947 -0.0747
 2215TIP3    H1 6586   3.796   7.976   3.995  0.5176  0.2696 -0.6736
 2215TIP3    H2 6587   3.893   7.861   3.981 -0.8519 -0.9615 -0.2977
 2216TIP3   OH2 6588   3.013   7.317   0.675 -0.5346 -0.1173 -0.4134
 2216TIP3    H1 6589   2.993   7.353   0.761  0.2732  0.0318 -0.2847
 2216TIP3    H2 6590   3.040   7.227   0.693 -1.6441 -0.5041 -0.6438
 2217TIP3   OH2 6591   5.883   1.318   2.559  0.3696  0.6068  0.6366
 2217TIP3    H1 6592   5.917   1.408   2.568 -0.8340  1.0860  0.4053
 2217TIP3    H2 6593   5.917   1.272   2.635 -0.1144  1.6174  1.4711
 2218TIP3   OH2 6594   5.342   0.293   3.082  0.0777  0.3710  0.3668
 2218TIP3    H1 6595   5.373   0.271   2.994 -1.7693  0.9809 -0.4744
 2218TIP3    H2 6596   5.262   0.343   3.066  0.0945  1.0521  2.3966
 2219TIP3   OH2 6597   5.453   2.807   3.485  0.1775 -0.2903 -0.1941
 2219TIP3    H1 6598   5.437   2.899   3.505  1.3373 -0.2696  0.6746
 2219TIP3    H2 6599   5.458   2.764   3.570  0.5152 -1.0168 -0.5718
 2220TIP3   OH2 6600   7.427   1.353   5.103 -0.2527 -0.4073  0.3270
 2220TIP3    H1 6601   7.420   1.311   5.188 -0.9155 -1.4654 -0.2447
 2220TIP3    H2 6602   7.336   1.368   5.075 -0.0373  0.7528  0.1961
 2221TIP3   OH2 6603   7.560   5.295   6.068  0.3402  0.2926  0.0224
 2221TIP3    H1 6604   7.548   5.365   6.004 -0.4974 -1.0250 -1.3047
 2221TIP3    H2 6605   7.623   5.236   6.027  0.7209  0.0495  0.9488
 2222TIP3   OH2 6606   1.835   7.659   3.034 -0.0558 -0.2121 -0.0238
 2222TIP3    H1 6607   1.858   7.616   3.116 -0.2042  0.4477  0.3674
 2222TIP3    H2 6608   1.918   7.672   2.989 -0.0275 -1.0617 -0.2204
 2223TIP3   OH2 6609   7.721   1.918   1.650  0.2703 -0.1068  0.4606
 2223TIP3    H1 6610   7.734   1.982   1.720  0.0675 -0.8378  1.1850
 2223TIP3    H2 6611   7.627   1.923   1.630  0.4832  0.6885 -0.3397
 2224TIP3   OH2 6612   4.247   2.633   2.934 -0.1114 -0.2797 -0.3773
 2224TIP3    H1 6613   4.258   2.538   2.946 -2.2444 -0.3383  1.4653
 2224TIP3    H2 6614   4.159   2.642   2.898 -0.2503  1.0445  0.2477
 2225TIP3   OH2 6615   1.709   7.623   2.065  0.7973  0.2974  0.0605
 2225TIP3    H1 6616   1.681   7.636   1.975 -0.0108 -0.4924  0.1935
 2225TIP3    H2 6617   1.684   7.704   2.110 -0.4114 -0.0041 -0.0410
 2226TIP3   OH2 6618   6.717   2.432   4.466  0.0910  0.0867  0.2972
 2226TIP3    H1 6619   6.720   2.409   4.373  2.1206  1.1644  0.0507
 2226TIP3    H2 6620   6.686   2.523   4.467 -2.9829 -0.9315  0.9137
 2227TIP3   OH2 6621   0.564   1.760   3.401 -0.8859  0.1203  0.0492
 2227TIP3    H1 6622   0.557   1.673   3.440  0.3802 -0.4661 -1.0099
 2227TIP3    H2 6623   0.523   1.818   3.465 -1.5580 -1.2247  0.8518
 2228TIP3   OH2 6624   5.472   2.792   0.833  0.2758 -0.6290 -0.1674
 2228TIP3    H1 6625   5.451   2.881   0.806  1.6069  0.1137  1.1803
 2228TIP3    H2 6626   5.396   2.764   0.884 -0.1346 -0.2750 -0.5818
 2229TIP3   OH2 6627   4.686   7.923   3.829  0.5812  0.0203  0.4687
 2229TIP3    H1 6628   4.629   7.879   3.893  0.4971 -0.4696  0.0614
 2229TIP3    H2 6629   4.639   8.003   3.806  1.7387  1.4165  2.8479
 2230TIP3   OH2 6630   2.882   7.743   0.804 -0.8198  0.2157 -0.0185
 2230TIP3    H1 6631   2.927   7.667   0.840 -1.1463  0.5063  1.0378
 2230TIP3    H2 6632   2.854   7.715   0.717 -1.4454 -1.0818  0.5792
 2231TIP3   OH2 6633   3.057   0.378   2.339 -0.1405  0.4388  0.4287
 2231TIP3    H1 6634   3.142   0.385   2.294  0.6856 -1.4518  1.6277
 2231TIP3    H2 6635   2.999   0.337   2.275  0.5322 -0.5109  0.4060
 2232TIP3   OH2 6636   5.892   0.665   4.105  0.7272  0.2293  0.7615
 2232TIP3    H1 6637   5.815   0.699   4.149 -0.1381 -0.4785 -0.1823
 2232TIP3    H2 6638   5.860   0.636   4.019  1.9982 -0.2521  0.4341
 2233TIP3   OH2 6639   7.028   0.444   1.766 -0.1288  0.1436  0.8102
 2233TIP3    H1 6640   7.063   0.408   1.684  0.0582  2.8662 -0.3753
 2233TIP3    H2 6641   7.103   0.484   1.809 -0.9722  2.4890  0.1941
 2234TIP3   OH2 6642   5.126   7.578   3.808 -0.0501  0.0359 -0.5439
 2234TIP3    H1 6643   5.045   7.629   3.817 -0.3173 -0.6847  1.4511
 2234TIP3    H2 6644   5.186   7.617   3.871  0.9608  0.1474 -1.5571
 2235TIP3   OH2 6645   5.799   0.397   2.789  0.2539 -0.1044 -0.1380
 2235TIP3    H1 6646   5.863   0.340   2.831 -0.3760 -0.4133  0.4021
 2235TIP3    H2 6647   5.752   0.440   2.861 -0.0731  0.2067 -0.5277
 2236TIP3   OH2 6648   7.137   1.955   2.152  0.1879 -0.6314  0.1489
 2236TIP3    H1 6649   7.213   1.987   2.200  0.1270 -3.3080  2.0966
 2236TIP3    H2 6650   7.077   2.030   2.150  2.7732  1.4558 -1.2972
 2237TIP3   OH2 6651   3.709   1.120   5.623 -0.2006  0.0568 -0.0583
 2237TIP3    H1 6652   3.650   1.071   5.567 -1.0243  1.0791 -0.0944
 2237TIP3    H2 6653   3.790   1.127   5.572  0.2749 -2.1426  0.3751
 2238TIP3   OH2 6654   6.438   0.086   0.595  0.2139  0.0285  0.1440
 2238TIP3    H1 6655   6.345   0.079   0.614 -0.0383  1.9228 -0.2741
 2238TIP3    H2 6656   6.478   0.111   0.678  0.3236 -0.4983  0.2540
 2239TIP3   OH2 6657   8.267   1.587   6.193  0.0899  0.1509 -0.8298
 2239TIP3    H1 6658   8.205   1.537   6.141 -0.7882  0.2188  0.1479
 2239TIP3    H2 6659   8.237   1.677   6.186  0.0011  0.1673 -0.2564
 2240TIP3   OH2 6660   6.528   1.732   2.432  0.3379  0.0162 -0.3873
 2240TIP3    H1 6661   6.592   1.777   2.487  0.5907  0.2102 -0.8443
 2240TIP3    H2 6662   6.545   1.763   2.344 -0.8094  0.5585 -0.4200
 2241TIP3   OH2 6663   4.666   2.389   2.523 -0.8466  0.2401 -0.3568
 2241TIP3    H1 6664   4.722   2.466   2.515 -1.4223  0.9710  2.0623
 2241TIP3    H2 6665   4.714   2.331   2.583 -1.4446 -0.2774 -0.3712
 2242TIP3   OH2 6666   1.449   7.932   0.637 -0.3038  0.0576  0.3575
 2242TIP3    H1 6667   1.417   7.850   0.674  0.5469 -0.3308  0.2561
 2242TIP3    H2 6668   1.406   7.939   0.552  3.1511 -2.6922 -1.7590
 2243TIP3   OH2 6669   5.986   1.851   3.186 -0.2853  0.0786 -0.1420
 2243TIP3    H1 6670   6.040   1.792   3.133 -1.9710 -1.2340 -0.4489
 2243TIP3    H2 6671   5.997   1.819   3.275  0.6859  0.8267  0.0258
 2244TIP3   OH2 6672   7.959   2.044   0.405  0.4327 -0.3971 -0.0406
 2244TIP3    H1 6673   7.959   2.097   0.324 -0.1684  0.6076  0.6003
 2244TIP3    H2 6674   7.894   1.976   0.388 -0.2901  0.2951 -0.1070
 2245TIP3   OH2 6675   7.394   3.047   3.387 -0.0095 -0.2086 -0.0957
 2245TIP3    H1 6676   7.473   3.007   3.422 -0.8906 -1.7030  0.2210
 2245TIP3    H2 6677   7.331   3.045   3.459 -0.9828 -0.8825 -0.9444
 2246TIP3   OH2 6678   8.299   3.029   1.119  0.2646  0.7877  0.5558
 2246TIP3    H1 6679   8.305   2.993   1.031  1.9761  0.7012  0.6861
 2246TIP3    H2 6680   8.248   3.109   1.109  0.3414  0.7080 -0.4903
 2247TIP3   OH2 6681   0.221   2.215   4.163 -0.0121 -0.3468 -1.1463
 2247TIP3    H1 6682   0.160   2.208   4.089 -2.5153  1.7445  0.6039
 2247TIP3    H2 6683   0.179   2.277   4.223  2.3899 -1.2468  1.6078
 2248TIP3   OH2 6684   2.693   6.597   6.837 -0.3225 -0.0489  0.2739
 2248TIP3    H1 6685   2.689   6.598   6.933 -1.0325  0.2216  0.2455
 2248TIP3    H2 6686   2.785   6.582   6.817 -0.2361 -0.4942  1.0003
 2249TIP3   OH2 6687   5.236   1.662   3.569 -0.2793  0.2661  0.2799
 2249TIP3    H1 6688   5.274   1.642   3.483  1.7411 -0.1162  1.2424
 2249TIP3    H2 6689   5.204   1.578   3.601 -1.6096  0.5115 -0.3276
 2250TIP3   OH2 6690   5.625   1.022   0.981 -0.2496  0.0050 -0.0540
 2250TIP3    H1 6691   5.566   0.975   0.923  0.0947 -0.6209  0.1063
 2250TIP3    H2 6692   5.708   0.976   0.974  0.4992  1.4667 -1.0239
 2251TIP3   OH2 6693   1.730   7.050   3.873  0.7091  0.1193  0.3999
 2251TIP3    H1 6694   1.814   7.017   3.840  0.6857  0.8681 -0.4593
 2251TIP3    H2 6695   1.673   6.974   3.876  1.9294 -0.7560  2.7373
 2252TIP3   OH2 6696   2.962   7.511   3.429  0.2190  0.0579 -0.1378
 2252TIP3    H1 6697   2.885   7.462   3.458 -0.3224  0.6345 -0.5801
 2252TIP3    H2 6698   2.928   7.598   3.407  1.0558  0.4262 -0.0008
 2253TIP3   OH2 6699   6.701   3.525   3.807  0.0331  0.4019 -0.5388
 2253TIP3    H1 6700   6.690   3.541   3.901 -1.6412 -0.4517 -0.5674
 2253TIP3    H2 6701   6.780   3.472   3.801  1.4455  2.3439  0.1783
 2254TIP3   OH2 6702   8.225   0.351   2.407  0.6533 -0.8519 -0.2029
 2254TIP3    H1 6703   8.220   0.347   2.312  3.3195 -0.3721 -0.4075
 2254TIP3    H2 6704   8.149   0.300   2.438 -0.7365 -0.2436 -2.5457
 2255TIP3   OH2 6705   7.156   0.978   2.669  0.2972  0.0127  0.1711
 2255TIP3    H1 6706   7.151   0.906   2.607  0.6136  0.6956 -0.6668
 2255TIP3    H2 6707   7.068   0.986   2.705  0.3125 -0.9058  0.4022
 2256TIP3   OH2 6708   2.080   6.407   3.573  0.1636  0.6905 -0.1999
 2256TIP3    H1 6709   1.992   6.416   3.535  0.9046  0.0372 -2.1357
 2256TIP3    H2 6710   2.105   6.316   3.555  1.2826  0.8956  0.2627
 2257TIP3   OH2 6711   2.357   6.966   1.485 -0.0321  0.3028  0.1391
 2257TIP3    H1 6712   2.338   7.059   1.491  0.3079  0.3442  0.5466
 2257TIP3    H2 6713   2.386   6.941   1.573  2.0130  0.2757 -0.5206
 2258TIP3   OH2 6714   8.386   0.891   2.018 -0.0281  0.0173  0.2279
 2258TIP3    H1 6715   8.299   0.853   2.005 -0.9358  2.1540 -0.2769
 2258TIP3    H2 6716   8.376   0.950   2.092  1.2367 -0.4113  0.7499
 2259TIP3   OH2 6717   6.113   1.178   3.618 -0.5102 -0.3929  0.4382
 2259TIP3    H1 6718   6.172   1.132   3.677 -1.0021  1.5010  2.4511
 2259TIP3    H2 6719   6.145   1.268   3.616 -0.6244 -0.3598 -2.0540
 2260TIP3   OH2 6720   5.347   1.413   1.226  0.4738 -0.7366  0.2668
 2260TIP3    H1 6721   5.434   1.408   1.186  0.4479  0.9108 -0.0332
 2260TIP3    H2 6722   5.311   1.495   1.193 -1.5892 -1.8916 -0.3823
 2261TIP3   OH2 6723   6.449   0.135   2.998 -0.0125  0.1584 -0.8299
 2261TIP3    H1 6724   6.519   0.105   3.056 -0.7756  0.6711  0.3712
 2261TIP3    H2 6725   6.439   0.228   3.018  0.0793  0.4795 -2.1801
 2262TIP3   OH2 6726   6.695   0.287   3.696 -0.1749  0.2981 -0.4143
 2262TIP3    H1 6727   6.758   0.319   3.761 -1.2193  0.3903  0.5747
 2262TIP3    H2 6728   6.625   0.248   3.748 -0.8703  0.0723 -1.5041
 2263TIP3   OH2 6729   4.214   4.255   3.914  1.0921 -0.1787 -0.3813
 2263TIP3    H1 6730   4.260   4.336   3.894  0.6334 -0.0955 -1.1278
 2263TIP3    H2 6731   4.121   4.280   3.915  0.8994 -0.8241 -1.3026
 2264TIP3   OH2 6732   6.466   0.240   1.172  0.5631  0.4295  0.4095
 2264TIP3    H1 6733   6.480   0.280   1.086  0.7080 -1.5679 -0.5274
 2264TIP3    H2 6734   6.436   0.312   1.227  1.0670  1.8740 -1.1510
 2265TIP3   OH2 6735   5.483   2.671   3.735 -0.4067  0.4178 -0.3594
 2265TIP3    H1 6736   5.488   2.595   3.793 -0.8788  0.7508  0.1136
 2265TIP3    H2 6737   5.524   2.741   3.785 -2.0516  1.0505  0.1262
 2266TIP3   OH2 6738   7.207   3.741   4.015 -0.2405  0.1905  0.3284
 2266TIP3    H1 6739   7.276   3.767   4.076  0.4059  1.7867 -1.0888
 2266TIP3    H2 6740   7.146   3.815   4.014  0.6272  0.8810 -2.2605
 2267TIP3   OH2 6741   0.708   3.094   1.845 -0.8419 -0.2487 -0.3039
 2267TIP3    H1 6742   0.714   3.000   1.828 -2.5523 -0.7852  1.8198
 2267TIP3    H2 6743   0.615   3.114   1.834 -1.0761  0.4765  2.6735
 2268TIP3   OH2 6744   6.839   1.016   3.329 -0.0015  0.0133  0.5769
 2268TIP3    H1 6745   6.802   1.006   3.417  0.9414 -0.8162  0.8808
 2268TIP3    H2 6746   6.799   0.946   3.278  0.6869 -0.5118  0.7545
 2269TIP3   OH2 6747   5.379   2.997   1.916  0.4605 -0.0265 -0.6365
 2269TIP3    H1 6748   5.441   3.068   1.901 -0.3255  0.7972 -0.0255
 2269TIP3    H2 6749   5.309   3.012   1.852 -0.4584  0.6454  0.4981
 2270TIP3   OH2 6750   8.272   0.090   4.280 -0.7511  0.0450 -0.2317
 2270TIP3    H1 6751   8.338   0.116   4.345  0.7922 -0.6445 -1.4872
 2270TIP3    H2 6752   8.188   0.100   4.325  0.1932  1.2204  1.3057
 2271TIP3   OH2 6753   3.775   2.145   2.200  0.7456 -0.2877  0.3218
 2271TIP3    H1 6754   3.728   2.065   2.221  1.0801 -0.5765 -0.0142
 2271TIP3    H2 6755   3.803   2.180   2.285  0.2202 -0.2915  0.4973
 2272TIP3   OH2 6756   3.420   1.710   2.996 -0.2287 -0.0394 -0.2380
 2272TIP3    H1 6757   3.351   1.759   2.950  0.6080  0.4435 -0.9962
 2272TIP3    H2 6758   3.405   1.730   3.088  0.0795  1.6481 -0.5316
 2273TIP3   OH2 6759   4.437   7.311   3.787  0.8641 -0.2856  0.1618
 2273TIP3    H1 6760   4.516   7.273   3.749  0.8848 -1.4606  1.3436
 2273TIP3    H2 6761   4.469   7.388   3.835  1.1766 -0.2854 -0.0433
 2274TIP3   OH2 6762   4.827   3.169   3.887 -0.2264  0.1996 -0.9093
 2274TIP3    H1 6763   4.918   3.143   3.871  0.1334 -1.0450  2.6841
 2274TIP3    H2 6764   4.831   3.264   3.897  0.5939  0.2062 -1.2137
 2275TIP3   OH2 6765   0.147   1.313   2.906 -0.2027 -0.2409 -0.4741
 2275TIP3    H1 6766   0.196   1.286   2.983 -0.9216 -2.1057 -0.6198
 2275TIP3    H2 6767   0.149   1.408   2.907  0.9674 -0.2705  1.0830
 2276TIP3   OH2 6768   0.789   1.901   2.239 -0.0847 -0.0214 -0.3591
 2276TIP3    H1 6769   0.874   1.862   2.259  0.5443  1.9276  0.8703
 2276TIP3    H2 6770   0.725   1.840   2.277  0.8903  0.3208  1.8740
 2277TIP3   OH2 6771   6.198   1.764   2.244  0.1879  0.1779  0.2204
 2277TIP3    H1 6772   6.122   1.821   2.251  1.3886  1.7622  0.4487
 2277TIP3    H2 6773   6.240   1.768   2.329 -0.0437 -1.5497  0.4428
 2278TIP3   OH2 6774   6.488   7.019   1.939 -0.2541  0.1549  0.1494
 2278TIP3    H1 6775   6.486   6.930   1.975  2.3704 -0.6950 -1.6518
 2278TIP3    H2 6776   6.576   7.028   1.904 -1.8475  1.8484 -3.7004
 2279TIP3   OH2 6777   7.155   0.358   2.801  0.0141 -0.3679  0.0211
 2279TIP3    H1 6778   7.199   0.413   2.865 -0.5981 -0.8361  0.8669
 2279TIP3    H2 6779   7.213   0.357   2.725  0.9713 -0.1727  0.7423
 2280TIP3   OH2 6780   6.561   1.088   1.935  0.3575  0.8849  0.2150
 2280TIP3    H1 6781   6.654   1.071   1.919 -0.1534 -2.3789  0.3888
 2280TIP3    H2 6782   6.558   1.181   1.959  3.6396  0.9189  0.8069
 2281TIP3   OH2 6783   5.290   1.461   2.254  0.3768  0.3133 -0.0409
 2281TIP3    H1 6784   5.194   1.461   2.256  0.3948 -0.4311  1.2412
 2281TIP3    H2 6785   5.312   1.413   2.174 -0.3222  0.5836 -0.4004
 2282TIP3   OH2 6786   8.533   2.257   1.882 -0.4047  0.3435  0.2724
 2282TIP3    H1 6787   8.551   2.326   1.946 -0.9883  0.6302  0.1338
 2282TIP3    H2 6788   8.605   2.264   1.819 -0.4090  0.7678  0.3110
 2283TIP3   OH2 6789   5.129   7.620   2.177 -0.2788  0.1144  0.0606
 2283TIP3    H1 6790   5.192   7.628   2.105 -0.5378 -1.1269 -0.3213
 2283TIP3    H2 6791   5.044   7.607   2.133 -0.2658 -1.8942  0.5580
 2284TIP3   OH2 6792   7.820   2.556   2.964  0.3773 -0.0676  0.4508
 2284TIP3    H1 6793   7.789   2.532   2.876 -0.9158  2.6307  0.1141
 2284TIP3    H2 6794   7.785   2.488   3.021  0.5381 -1.4039 -0.9964
 2285TIP3   OH2 6795   4.177   2.383   2.435 -0.0286  0.0909 -0.2285
 2285TIP3    H1 6796   4.175   2.290   2.459 -1.0374  0.5533  1.5984
 2285TIP3    H2 6797   4.268   2.410   2.451 -0.6210  0.3508  3.1934
 2286TIP3   OH2 6798   6.500   2.262   4.576  0.0387 -0.6140 -0.3015
 2286TIP3    H1 6799   6.537   2.347   4.551 -1.1908  0.4571  1.4244
 2286TIP3    H2 6800   6.486   2.216   4.493 -1.1683  1.6652 -1.3918
 2287TIP3   OH2 6801   5.768   7.801   3.678 -0.3567 -0.1566 -0.0649
 2287TIP3    H1 6802   5.797   7.754   3.600  0.0254  1.2714 -0.8047
 2287TIP3    H2 6803   5.740   7.887   3.645 -1.1417  0.1017  1.2419
 2288TIP3   OH2 6804   2.187   4.695   6.178  0.7602  0.5474  0.2532
 2288TIP3    H1 6805   2.097   4.723   6.165  0.5103  0.0707  0.9291
 2288TIP3    H2 6806   2.231   4.715   6.095 -0.5138 -1.3687 -0.8993
 2289TIP3   OH2 6807   4.469   6.766   1.879  0.2089  0.0437 -0.1414
 2289TIP3    H1 6808   4.426   6.687   1.846  0.8431 -1.4232  2.4021
 2289TIP3    H2 6809   4.552   6.771   1.832  0.0826 -0.7290 -0.4366
 2290TIP3   OH2 6810   5.047   8.071   2.450  0.1310  0.0978  0.3581
 2290TIP3    H1 6811   5.085   8.006   2.390  0.2417 -0.6131  1.1879
 2290TIP3    H2 6812   5.121   8.127   2.473  0.1258  0.2658 -0.0289
 2291TIP3   OH2 6813   7.874   1.349   2.063  0.0471 -0.3893  0.0931
 2291TIP3    H1 6814   7.814   1.274   2.060 -0.3590 -0.0842  0.5490
 2291TIP3    H2 6815   7.932   1.336   1.988 -1.5274  0.1004 -1.2283
 2292TIP3   OH2 6816   5.497   7.738   1.699  0.1120 -0.0478 -0.4252
 2292TIP3    H1 6817   5.553   7.737   1.621  0.9012 -1.1057  0.1459
 2292TIP3    H2 6818   5.525   7.816   1.747  1.7015 -1.0182  0.2709
 2293TIP3   OH2 6819   5.626   8.026   2.197 -0.2436  0.0613  0.2189
 2293TIP3    H1 6820   5.554   8.073   2.154  0.1470  0.3652 -0.0983
 2293TIP3    H2 6821   5.632   7.943   2.150  0.6319  0.6718 -0.7600
 2294TIP3   OH2 6822   8.154   2.214   3.708 -0.3334 -0.0912  0.2029
 2294TIP3    H1 6823   8.117   2.151   3.770  2.1113 -1.1090  0.6959
 2294TIP3    H2 6824   8.217   2.264   3.760  0.4099  0.2762 -1.0280
 2295TIP3   OH2 6825   7.672   0.043   2.549 -0.3749 -0.2891  0.5515
 2295TIP3    H1 6826   7.642   0.113   2.491 -1.0827 -2.3349 -1.6545
 2295TIP3    H2 6827   7.755   0.014   2.512  0.2743 -0.1523  1.8664
 2296TIP3   OH2 6828   7.522   1.385   3.659 -0.2522 -0.0535  0.4656
 2296TIP3    H1 6829   7.521   1.371   3.753 -1.9547  0.9312  0.6096
 2296TIP3    H2 6830   7.441   1.346   3.627 -0.0991  0.3709 -0.4753
 2297TIP3   OH2 6831   4.640   7.856   0.999  0.8044  0.5771  0.0965
 2297TIP3    H1 6832   4.644   7.841   1.094  0.7163 -2.4039 -0.3096
 2297TIP3    H2 6833   4.551   7.889   0.985 -0.0205 -1.2389  0.8128
 2298TIP3   OH2 6834   7.560   0.415   3.061  0.3703  0.2013  0.4487
 2298TIP3    H1 6835   7.621   0.415   3.134 -0.2343  0.1883  0.9595
 2298TIP3    H2 6836   7.615   0.401   2.983  0.9746 -0.0854  0.9249
 2299TIP3   OH2 6837   7.515   0.299   3.971 -0.0334  0.5645  0.5353
 2299TIP3    H1 6838   7.555   0.283   3.885 -3.3143 -1.9264 -0.6646
 2299TIP3    H2 6839   7.538   0.389   3.992  1.0511  1.1679 -2.8823
 2300TIP3   OH2 6840   6.389   1.788   2.027 -0.4981 -0.0727  0.0963
 2300TIP3    H1 6841   6.333   1.855   1.987 -1.9012 -0.7920  0.8318
 2300TIP3    H2 6842   6.345   1.764   2.108  0.1368 -1.6954 -0.0126
 2301TIP3   OH2 6843   3.684   3.643   6.555 -0.3749 -0.6551 -0.0928
 2301TIP3    H1 6844   3.598   3.655   6.595  0.4650  0.8893  1.3191
 2301TIP3    H2 6845   3.737   3.604   6.624  0.9923  1.6920  0.2140
 2302TIP3   OH2 6846   7.837   2.532   2.135  0.2719  0.2939 -0.3575
 2302TIP3    H1 6847   7.818   2.511   2.226  1.7418  1.5472  0.2437
 2302TIP3    H2 6848   7.754   2.567   2.101 -0.4891 -0.8517  0.2609
 2303TIP3   OH2 6849   6.832   1.920   2.903 -0.1184 -0.0888  0.9437
 2303TIP3    H1 6850   6.766   1.957   2.845  0.7591  1.1736  0.7178
 2303TIP3    H2 6851   6.843   1.830   2.873 -0.2656  0.3116 -0.3252
 2304TIP3   OH2 6852   5.208   7.881   4.288  0.0648 -0.1948  0.2321
 2304TIP3    H1 6853   5.270   7.876   4.361 -0.0599 -1.1699  0.2806
 2304TIP3    H2 6854   5.133   7.930   4.323 -0.0819 -0.8360  0.8237
 2305TIP3   OH2 6855   8.517   0.825   3.189  0.0340  0.4475  0.6146
 2305TIP3    H1 6856   8.520   0.812   3.284 -0.4751  0.2420  0.6012
 2305TIP3    H2 6857   8.502   0.919   3.178  0.8729  0.6024  0.7289
 2306TIP3   OH2 6858   7.430   1.002   1.631  0.2103 -0.0038  0.4254
 2306TIP3    H1 6859   7.369   0.940   1.672 -0.9170  1.4031  0.9187
 2306TIP3    H2 6860   7.406   1.003   1.539 -1.8442  1.9669  0.9180
 2307TIP3   OH2 6861   7.958   0.269   2.815  0.1065  0.2982 -0.0193
 2307TIP3    H1 6862   7.962   0.297   2.906 -1.3687  0.3769  0.0449
 2307TIP3    H2 6863   8.049   0.262   2.787  0.5645  0.0904  1.5116
 2308TIP3   OH2 6864   6.773   2.344   2.221  0.5039  0.3186 -0.7309
 2308TIP3    H1 6865   6.823   2.411   2.175  0.1788  0.9433 -0.1822
 2308TIP3    H2 6866   6.724   2.299   2.152  0.8229  0.5647 -1.1144
 2309TIP3   OH2 6867   7.352   0.011   1.301  0.0481 -0.3056  0.3589
 2309TIP3    H1 6868   7.390   0.062   1.229  0.8332 -1.2359  0.1072
 2309TIP3    H2 6869   7.427  -0.008   1.358 -0.0793 -1.8577  0.0364
 2310TIP3   OH2 6870   8.452   0.964   4.322  0.2064 -0.0873 -0.6649
 2310TIP3    H1 6871   8.411   0.885   4.357  0.2866  0.6698  1.1972
 2310TIP3    H2 6872   8.428   1.033   4.384  1.8102  0.9500 -1.1698
 2311TIP3   OH2 6873   0.964   1.243   5.948 -0.1870  0.3090  0.2551
 2311TIP3    H1 6874   0.929   1.316   5.897  0.8910  0.8982  0.3363
 2311TIP3    H2 6875   0.932   1.164   5.903 -1.3302  0.8255  0.1474
 2312TIP3   OH2 6876   7.803   1.049   6.131 -0.4079 -0.4440 -0.0705
 2312TIP3    H1 6877   7.894   1.024   6.113 -0.9872 -1.0221 -2.4118
 2312TIP3    H2 6878   7.800   1.065   6.225  1.8983 -1.3387  0.1767
 2313TIP3   OH2 6879   2.550   3.998   4.344 -0.3854 -1.0120 -0.0118
 2313TIP3    H1 6880   2.533   3.907   4.318 -1.9903 -0.7288  0.0248
 2313TIP3    H2 6881   2.552   3.995   4.439  2.6919 -1.5377 -0.0159
 2314TIP3   OH2 6882   1.151   1.773   3.906  0.0481  0.2140  0.6311
 2314TIP3    H1 6883   1.194   1.805   3.827  1.3224  0.3342  1.3569
 2314TIP3    H2 6884   1.098   1.846   3.937  2.6447  1.5372  2.0749
 2315TIP3   OH2 6885   8.356   1.584   4.159  0.0381 -0.1808 -0.6323
 2315TIP3    H1 6886   8.347   1.490   4.171  1.5728 -0.7630 -3.8554
 2315TIP3    H2 6887   8.443   1.605   4.192  0.6151 -0.2671 -2.1062
 2316TIP3   OH2 6888   2.070   2.646   3.315  0.1107  0.3189 -0.4350
 2316TIP3    H1 6889   2.054   2.583   3.245  0.1566 -1.7890  1.4266
 2316TIP3    H2 6890   2.134   2.603   3.372 -0.7774  1.5445  1.5142
 2317TIP3   OH2 6891   7.660   1.493   3.421 -0.3889  0.0128 -0.2660
 2317TIP3    H1 6892   7.607   1.476   3.499  0.7096  1.7981  0.9191
 2317TIP3    H2 6893   7.640   1.421   3.362 -2.1165 -0.7622  1.2107
 2318TIP3   OH2 6894   8.081   2.104   5.386  0.1941  0.3852 -0.2575
 2318TIP3    H1 6895   8.078   2.099   5.291 -1.7931  1.9590 -0.2947
 2318TIP3    H2 6896   7.990   2.097   5.414  0.8534 -1.2202  1.6071
 2319TIP3   OH2 6897   1.719   0.547   5.152  1.2674 -0.3943  0.1961
 2319TIP3    H1 6898   1.628   0.523   5.133  0.8960  1.5992 -0.5621
 2319TIP3    H2 6899   1.767   0.526   5.072  0.9178  1.4113 -0.5185
 2320TIP3   OH2 6900   1.695   0.593   4.034  0.2963  0.1014  0.2789
 2320TIP3    H1 6901   1.734   0.510   4.060  1.6099  0.6941  0.2572
 2320TIP3    H2 6902   1.635   0.570   3.963  0.5084 -0.8510  0.3962
 2321TIP3   OH2 6903   0.909   0.070   4.146 -0.5792  0.7398 -0.0173
 2321TIP3    H1 6904   0.907   0.102   4.237 -2.4030 -2.5939  1.1831
 2321TIP3    H2 6905   0.970  -0.004   4.148  0.1642  1.2803 -1.7713
 2322TIP3   OH2 6906   8.074   0.527   5.215 -0.2698  0.3177 -0.5782
 2322TIP3    H1 6907   8.048   0.591   5.149 -1.0171  0.9614  0.3210
 2322TIP3    H2 6908   8.170   0.533   5.217 -0.2795  0.7578 -1.1407
 2323TIP3   OH2 6909   1.730   0.088   3.438  0.7125 -0.6941  0.4129
 2323TIP3    H1 6910   1.731   0.077   3.343  0.5448 -1.9961  0.5547
 2323TIP3    H2 6911   1.651   0.141   3.455  0.1827 -1.3142 -0.0821
 2324TIP3   OH2 6912   1.771   0.372   4.455 -0.3170  0.0735 -0.0549
 2324TIP3    H1 6913   1.733   0.406   4.374  1.1688 -0.9370 -1.2142
 2324TIP3    H2 6914   1.718   0.295   4.476  0.0458 -0.3787 -0.7634
 2325TIP3   OH2 6915   1.890   2.353   4.815 -0.8692  0.1858  0.1907
 2325TIP3    H1 6916   1.818   2.320   4.868  0.1701  0.3967  1.7674
 2325TIP3    H2 6917   1.968   2.312   4.852 -0.0295  0.9848 -0.6613
 2326TIP3   OH2 6918   2.081   2.182   5.453  0.3710  0.6581  0.4712
 2326TIP3    H1 6919   2.023   2.116   5.490 -0.6321  0.9906 -0.4922
 2326TIP3    H2 6920   2.149   2.194   5.520  0.0339 -0.6377  1.0653
 2327TIP3   OH2 6921   2.117   2.663   5.971  0.0045 -0.3508 -0.3699
 2327TIP3    H1 6922   2.074   2.608   6.037 -0.8938  0.5299 -0.2219
 2327TIP3    H2 6923   2.186   2.708   6.020 -0.8125  0.4781  0.0175
 2328TIP3   OH2 6924   0.751   3.343   3.570  0.2346 -0.9787  0.0597
 2328TIP3    H1 6925   0.818   3.287   3.529  0.7361 -0.4207  0.1010
 2328TIP3    H2 6926   0.759   3.427   3.523  1.2851 -0.1080  1.7466
 2329TIP3   OH2 6927   0.583   3.618   3.037 -0.1833  0.9622  0.2864
 2329TIP3    H1 6928   0.615   3.625   3.127 -0.4830  2.8088  0.2628
 2329TIP3    H2 6929   0.489   3.636   3.043 -0.3323  0.3971 -0.3013
 2330TIP3   OH2 6930   0.510   0.693   3.428 -0.0442  0.1154  0.3755
 2330TIP3    H1 6931   0.445   0.654   3.369 -1.3552  1.3778  0.9593
 2330TIP3    H2 6932   0.483   0.664   3.515  0.8543 -0.2891  0.5219
 2331TIP3   OH2 6933   1.878   2.830   5.655  0.0975 -0.5708  0.5727
 2331TIP3    H1 6934   1.959   2.784   5.675 -1.6748 -3.1461  2.0350
 2331TIP3    H2 6935   1.832   2.838   5.739 -2.0415 -0.9138 -0.5198
 2332TIP3   OH2 6936   2.022   4.058   3.777  0.8774  0.9413  0.0758
 2332TIP3    H1 6937   2.039   4.146   3.743 -1.7412  1.5793  0.3347
 2332TIP3    H2 6938   2.054   4.061   3.867 -0.7175  2.1657  0.6230
 2333TIP3   OH2 6939   7.288   1.635   2.763  0.3226 -0.1635 -0.2688
 2333TIP3    H1 6940   7.368   1.656   2.715 -0.1541 -2.8538 -2.3140
 2333TIP3    H2 6941   7.228   1.706   2.743  1.4729  0.7844 -0.4051
 2334TIP3   OH2 6942   7.835   3.433   4.498 -0.1041 -0.4508  0.7800
 2334TIP3    H1 6943   7.797   3.349   4.526  1.9508 -2.4931 -2.3291
 2334TIP3    H2 6944   7.781   3.460   4.424  0.3760  0.0638  0.6198
 2335TIP3   OH2 6945   1.496   0.798   5.049 -0.3074 -0.4397  0.3545
 2335TIP3    H1 6946   1.568   0.803   4.985 -0.1923 -0.7253  0.4643
 2335TIP3    H2 6947   1.539   0.808   5.134 -0.4467 -0.1806  0.3949
 2336TIP3   OH2 6948   1.185   2.846   5.605 -0.1869  0.1301  0.0094
 2336TIP3    H1 6949   1.209   2.801   5.686  0.7226  0.1382 -0.2427
 2336TIP3    H2 6950   1.252   2.913   5.595  0.0867 -0.2909 -1.0813
 2337TIP3   OH2 6951   8.248   1.591   5.404 -0.3761  0.2904 -0.5851
 2337TIP3    H1 6952   8.327   1.583   5.458 -1.2922 -1.7725  0.5041
 2337TIP3    H2 6953   8.218   1.681   5.417  2.3220  1.4341 -1.7966
 2338TIP3   OH2 6954   0.027   1.202   4.651 -0.1228 -0.4281  0.5565
 2338TIP3    H1 6955   0.047   1.130   4.711  1.1740  0.5093  1.2734
 2338TIP3    H2 6956  -0.015   1.267   4.706 -0.9394 -0.4709 -0.0134
 2339TIP3   OH2 6957   1.108   2.314   5.128 -0.6388 -0.3315 -0.0484
 2339TIP3    H1 6958   1.015   2.326   5.108 -0.6855 -1.7190 -0.6994
 2339TIP3    H2 6959   1.150   2.303   5.042 -0.0297 -0.7762  0.3022
 2340TIP3   OH2 6960   7.561   3.483   2.359 -0.1511 -0.6755 -0.0209
 2340TIP3    H1 6961   7.490   3.420   2.367 -0.1447 -0.4551  2.0842
 2340TIP3    H2 6962   7.641   3.430   2.357 -0.2494 -0.8168 -0.4016
 2341TIP3   OH2 6963   8.001   1.247   3.040 -0.2800  0.8540  0.1970
 2341TIP3    H1 6964   8.039   1.330   3.067  0.2120  0.4560  0.7422
 2341TIP3    H2 6965   8.015   1.189   3.115  3.1985 -0.9642 -1.7644
 2342TIP3   OH2 6966   0.347   1.732   4.174 -0.3191  0.4071  0.1546
 2342TIP3    H1 6967   0.406   1.767   4.241  0.0237 -0.1951  0.1692
 2342TIP3    H2 6968   0.281   1.800   4.163 -0.1711  0.6702  0.8413
 2343TIP3   OH2 6969   1.007   0.784   5.715 -0.1523 -0.3335  0.2940
 2343TIP3    H1 6970   1.007   0.689   5.712  2.0982 -0.3558 -0.0562
 2343TIP3    H2 6971   1.025   0.805   5.807  0.4135 -0.2775  0.1761
 2344TIP3   OH2 6972   2.216   2.608   4.791 -0.0933  0.0657  0.1194
 2344TIP3    H1 6973   2.177   2.553   4.722  0.5847  0.7973 -0.8588
 2344TIP3    H2 6974   2.147   2.614   4.857 -1.8347  1.6599 -1.7581
 2345TIP3   OH2 6975   8.211   1.367   3.686  0.2266  0.6191  0.8713
 2345TIP3    H1 6976   8.132   1.416   3.662  0.6371  0.9770  0.2282
 2345TIP3    H2 6977   8.250   1.418   3.757  1.0496  1.6587 -0.2910
 2346TIP3   OH2 6978   0.705   1.900   3.217 -0.2790  0.2172 -0.0520
 2346TIP3    H1 6979   0.671   1.856   3.295 -0.1105  0.3887  0.1193
 2346TIP3    H2 6980   0.718   1.991   3.245  0.8485  0.0336  0.0550
 2347TIP3   OH2 6981   8.240   1.288   1.793  0.4162  0.0602  0.5404
 2347TIP3    H1 6982   8.288   1.205   1.794  0.5025  0.0414 -1.5941
 2347TIP3    H2 6983   8.162   1.271   1.845  0.1765 -1.5375 -0.2910
 2348TIP3   OH2 6984   1.188   3.331   3.326  0.8766 -0.2156 -1.1715
 2348TIP3    H1 6985   1.129   3.392   3.282  0.6154  0.8618  0.6750
 2348TIP3    H2 6986   1.274   3.347   3.286 -0.0312 -1.8655 -3.9473
 2349TIP3   OH2 6987   6.417   7.761   4.091 -0.6480  0.2589  0.1936
 2349TIP3    H1 6988   6.481   7.789   4.026 -0.1940 -0.3204  0.3892
 2349TIP3    H2 6989   6.351   7.830   4.091  0.8098  1.6914  1.1862
 2350TIP3   OH2 6990   8.514   4.336   3.797 -0.5060  0.2719 -0.3813
 2350TIP3    H1 6991   8.549   4.399   3.734 -1.2529 -0.2280 -1.3011
 2350TIP3    H2 6992   8.483   4.263   3.744 -2.6989  0.5745  0.4573
 2351TIP3   OH2 6993   0.329   2.142   4.467 -0.0564 -0.2745  0.1292
 2351TIP3    H1 6994   0.273   2.178   4.399  1.0622  0.7155 -0.2783
 2351TIP3    H2 6995   0.373   2.218   4.506  1.6654 -1.0945 -0.1506
 2352TIP3   OH2 6996   0.919   2.060   4.148  0.3474 -0.1485  0.2599
 2352TIP3    H1 6997   0.850   2.000   4.175  1.3741 -1.2753  0.3906
 2352TIP3    H2 6998   0.961   2.087   4.230 -0.2831  0.9696  0.2267
 2353TIP3   OH2 6999   2.057   3.409   5.140 -0.2821 -0.2813  0.3820
 2353TIP3    H1 7000   1.989   3.412   5.073 -1.1518 -1.2665  1.2114
 2353TIP3    H2 7001   2.051   3.494   5.183 -1.9496 -0.8836  1.3790
 2354TIP3   OH2 7002   0.605   2.598   5.082 -0.1654 -0.6606 -0.3863
 2354TIP3    H1 7003   0.536   2.553   5.032 -0.6960 -1.2881  0.8820
 2354TIP3    H2 7004   0.575   2.594   5.173  0.4577  1.0752 -0.0856
 2355TIP3   OH2 7005   3.606   1.429   5.508 -0.0319  0.3212  0.4717
 2355TIP3    H1 7006   3.544   1.379   5.454  0.0772  1.4384 -0.7188
 2355TIP3    H2 7007   3.569   1.424   5.597 -0.8649 -0.5257  0.0941
 2356TIP3   OH2 7008   1.194   1.702   4.346 -0.7455 -0.0337  0.4553
 2356TIP3    H1 7009   1.187   1.687   4.440 -1.9441 -2.1843  0.0631
 2356TIP3    H2 7010   1.114   1.748   4.323 -0.3945  0.6037  0.5011
 2357TIP3   OH2 7011   8.567   0.553   5.743 -0.1635  0.6126 -0.2002
 2357TIP3    H1 7012   8.486   0.603   5.753  0.0459  0.9258 -0.0537
 2357TIP3    H2 7013   8.554   0.476   5.798 -0.6004  0.3638 -0.6455
 2358TIP3   OH2 7014   7.713   0.949   1.452 -0.4537 -0.1999  0.1302
 2358TIP3    H1 7015   7.757   0.997   1.522  0.8570 -1.8193  0.4295
 2358TIP3    H2 7016   7.644   0.900   1.496 -1.4438  0.9443 -0.1067
 2359TIP3   OH2 7017   6.276   8.077   4.622 -0.3931 -0.0515 -0.4096
 2359TIP3    H1 7018   6.361   8.046   4.654 -0.7874 -0.1472  0.5568
 2359TIP3    H2 7019   6.247   8.008   4.562 -0.3202 -0.5751  0.1473
 2360TIP3   OH2 7020   1.079   2.789   3.938 -0.5828 -0.1236  0.4505
 2360TIP3    H1 7021   1.111   2.736   4.011  0.1902 -1.8134 -1.0647
 2360TIP3    H2 7022   1.153   2.792   3.877 -1.4829  0.5802 -0.6225
 2361TIP3   OH2 7023   0.777   1.501   4.549 -0.2822  0.2230 -0.5909
 2361TIP3    H1 7024   0.823   1.422   4.578 -0.1968  0.0778 -1.1096
 2361TIP3    H2 7025   0.686   1.475   4.541 -0.1487 -0.0041 -1.4014
 2362TIP3   OH2 7026   0.193   1.310   4.944 -0.0722  0.0478 -0.1935
 2362TIP3    H1 7027   0.161   1.304   5.035  1.3703  0.0741  0.3252
 2362TIP3    H2 7028   0.192   1.219   4.913  1.1918 -0.2006  0.4707
 2363TIP3   OH2 7029   1.606   1.414   6.153  0.2448  0.1859  0.1171
 2363TIP3    H1 7030   1.584   1.410   6.246  1.1436  1.5226  0.4066
 2363TIP3    H2 7031   1.662   1.492   6.145 -0.6185  0.6508 -1.6995
 2364TIP3   OH2 7032   7.665   7.178   2.724  0.4982  0.8754 -0.0380
 2364TIP3    H1 7033   7.629   7.266   2.732  0.7426  0.9751 -0.0339
 2364TIP3    H2 7034   7.758   7.192   2.702  0.5926  0.6212  0.1975
 2365TIP3   OH2 7035   1.163   0.781   2.257  0.0057 -0.3421  0.3619
 2365TIP3    H1 7036   1.078   0.821   2.236  0.2806  0.5685  0.9916
 2365TIP3    H2 7037   1.219   0.802   2.183 -0.2533 -0.7568  0.0468
 2366TIP3   OH2 7038   7.416   3.071   3.666 -0.2959  0.4996  0.0813
 2366TIP3    H1 7039   7.499   3.101   3.629  0.3376 -1.4167 -0.1046
 2366TIP3    H2 7040   7.366   3.151   3.680 -0.3023  1.3718 -4.2667
 2367TIP3   OH2 7041   7.277   2.135   3.089  0.4222 -0.1128 -0.3229
 2367TIP3    H1 7042   7.215   2.196   3.128  1.2564  0.9425 -0.6233
 2367TIP3    H2 7043   7.224   2.061   3.061 -0.3902 -0.2278  1.4677
 2368TIP3   OH2 7044   1.067   0.270   4.035 -0.2910  0.0484  0.0274
 2368TIP3    H1 7045   0.999   0.206   4.057  0.1212 -0.4830 -0.2352
 2368TIP3    H2 7046   1.044   0.348   4.085 -0.7330 -0.3432  0.4372
 2369TIP3   OH2 7047   1.029   4.640   3.488 -0.0305  0.2904  0.8196
 2369TIP3    H1 7048   1.011   4.684   3.405  2.1384 -0.3766 -0.0357
 2369TIP3    H2 7049   1.055   4.711   3.548  0.0353  0.5749  0.4546
 2370TIP3   OH2 7050   1.839   0.715   3.837 -0.6517 -0.4650 -0.1365
 2370TIP3    H1 7051   1.915   0.658   3.829  0.1206  0.5007  0.2817
 2370TIP3    H2 7052   1.795   0.686   3.916 -0.8194 -1.1424 -0.4755
 2371TIP3   OH2 7053   8.123   2.276   5.668 -0.5257 -0.4329  0.0809
 2371TIP3    H1 7054   8.128   2.339   5.739 -0.2767  2.5412 -2.4496
 2371TIP3    H2 7055   8.032   2.246   5.669 -0.7982  0.4015  0.9568
 2372TIP3   OH2 7056   1.842   3.228   2.982 -0.8874 -0.1084  0.4640
 2372TIP3    H1 7057   1.778   3.196   2.919 -1.2314 -1.4575  1.4865
 2372TIP3    H2 7058   1.789   3.274   3.048 -0.4561  2.0920 -0.6700
 2373TIP3   OH2 7059   1.363   1.669   6.728 -0.5986  0.4920  0.0713
 2373TIP3    H1 7060   1.422   1.613   6.779 -1.9680 -0.2251  0.9051
 2373TIP3    H2 7061   1.420   1.710   6.662  0.5741 -1.2653 -0.0543
 2374TIP3   OH2 7062   7.695   3.061   3.028 -0.1033 -0.0094  0.1124
 2374TIP3    H1 7063   7.662   3.136   2.979  0.4921  0.5935  0.6227
 2374TIP3    H2 7064   7.782   3.088   3.057  1.3005 -1.9936 -2.1535
 2375TIP3   OH2 7065   0.120   1.505   3.321 -0.0232 -0.0912  0.1166
 2375TIP3    H1 7066   0.165   1.433   3.365  0.6695  1.7811  2.5967
 2375TIP3    H2 7067   0.039   1.518   3.371  0.0642  1.1069 -0.0205
 2376TIP3   OH2 7068   8.520   2.401   3.926  0.0816  0.0062  0.0749
 2376TIP3    H1 7069   8.544   2.424   3.836 -2.9532  1.3379 -0.4531
 2376TIP3    H2 7070   8.558   2.471   3.979  0.9440 -0.1967 -0.2529
 2377TIP3   OH2 7071   7.401   2.040   2.839 -0.4035 -0.2389  0.2777
 2377TIP3    H1 7072   7.371   2.075   2.922  0.3976  1.0236  0.0564
 2377TIP3    H2 7073   7.442   2.115   2.795  1.9065 -1.5929  0.0567
 2378TIP3   OH2 7074   0.591   0.003   4.302 -0.1141  0.2930  0.4394
 2378TIP3    H1 7075   0.651  -0.053   4.351 -1.1598  0.1467  1.5913
 2378TIP3    H2 7076   0.646   0.072   4.265  1.0388 -0.9228 -0.1571
 2379TIP3   OH2 7077   2.087   4.387   0.611  0.4642  0.3209  0.3937
 2379TIP3    H1 7078   2.027   4.317   0.585  0.9021 -0.1593  0.6881
 2379TIP3    H2 7079   2.056   4.464   0.562 -1.2828  0.4361  1.6625
 2380TIP3   OH2 7080   1.621   3.613   3.138  0.0617  0.2148  0.0885
 2380TIP3    H1 7081   1.701   3.597   3.188 -0.6871 -2.7138  0.4940
 2380TIP3    H2 7082   1.639   3.575   3.052 -0.9191 -0.5696  0.2218
 2381TIP3   OH2 7083   8.093   7.351   3.005 -0.9831 -0.2509 -0.1448
 2381TIP3    H1 7084   8.001   7.352   2.981 -1.1495  1.5359  0.4351
 2381TIP3    H2 7085   8.134   7.415   2.945 -0.1886 -0.7889 -0.1847
 2382TIP3   OH2 7086   0.574   2.003   4.982  0.4560 -0.3281 -0.3052
 2382TIP3    H1 7087   0.548   1.932   5.042 -1.2751 -0.1842 -0.8583
 2382TIP3    H2 7088   0.615   2.068   5.039 -0.5443 -0.5083  0.6336
 2383TIP3   OH2 7089   8.304   4.997   5.342  0.2418  0.5259  0.2704
 2383TIP3    H1 7090   8.392   4.964   5.359  0.0562  0.9328  2.1410
 2383TIP3    H2 7091   8.260   4.925   5.297  0.8117 -0.6099  1.4718
 2384TIP3   OH2 7092   7.504   7.183   4.292 -0.1886 -0.1679 -0.0617
 2384TIP3    H1 7093   7.512   7.133   4.211 -0.2375 -0.9640  0.4209
 2384TIP3    H2 7094   7.593   7.185   4.328 -0.1235  0.3823 -0.2529
 2385TIP3   OH2 7095   1.305   0.997   5.177  0.1859  0.5338 -0.4145
 2385TIP3    H1 7096   1.329   1.016   5.267 -1.0468 -3.7595  0.9392
 2385TIP3    H2 7097   1.376   0.941   5.144 -0.1057  0.8545 -1.6136
 2386TIP3   OH2 7098   0.345   0.276   5.274  0.4054 -0.0987  0.1723
 2386TIP3    H1 7099   0.279   0.258   5.340  0.7643 -1.6082  0.1246
 2386TIP3    H2 7100   0.362   0.370   5.283 -0.0937 -0.1395  1.7158
 2387TIP3   OH2 7101   0.596   2.820   4.450 -0.5809 -0.0510 -0.5039
 2387TIP3    H1 7102   0.558   2.843   4.535 -0.8465 -0.1007 -0.6084
 2387TIP3    H2 7103   0.567   2.730   4.435 -0.9283  0.1154 -0.8651
 2388TIP3   OH2 7104   2.321   2.771   4.397  0.0809 -0.2110 -0.0981
 2388TIP3    H1 7105   2.386   2.817   4.345 -0.4042  1.4919  0.7539
 2388TIP3    H2 7106   2.282   2.708   4.337  0.3805  0.8769 -1.4671
 2389TIP3   OH2 7107   0.221   1.806   1.792 -0.9414  0.1755 -0.0042
 2389TIP3    H1 7108   0.270   1.859   1.855  0.3479  0.5824 -1.2998
 2389TIP3    H2 7109   0.200   1.867   1.721 -1.4210 -0.5187 -0.4671
 2390TIP3   OH2 7110   1.245   1.339   4.779  0.4189 -0.4825 -0.1248
 2390TIP3    H1 7111   1.237   1.432   4.756  0.8803 -0.4027  0.0457
 2390TIP3    H2 7112   1.316   1.306   4.725  1.5821 -0.2672  1.2522
 2391TIP3   OH2 7113   0.040   3.436   3.379 -0.2779 -0.0875  0.3137
 2391TIP3    H1 7114   0.069   3.522   3.410  1.1725 -1.0271  1.6393
 2391TIP3    H2 7115   0.117   3.400   3.334 -1.7681  0.4657 -2.8174
 2392TIP3   OH2 7116   0.350   2.419   3.299 -0.3704  0.3583  0.0822
 2392TIP3    H1 7117   0.311   2.503   3.274 -0.5921 -0.2547 -1.7364
 2392TIP3    H2 7118   0.440   2.423   3.268 -0.3210 -0.0021  0.1716
 2393TIP3   OH2 7119   7.986   2.781   2.551  0.1181 -0.0804  0.8759
 2393TIP3    H1 7120   8.001   2.826   2.467  0.9012 -0.2816  0.9051
 2393TIP3    H2 7121   7.993   2.850   2.617 -0.8619  0.1463  0.7574
 2394TIP3   OH2 7122   0.903   3.972   5.196  0.5228  0.1434 -1.0586
 2394TIP3    H1 7123   0.915   3.888   5.153  1.7936 -0.3214  0.1491
 2394TIP3    H2 7124   0.965   3.971   5.269  0.7777  2.2447 -1.1981
 2395TIP3   OH2 7125   0.632   2.261   5.128  0.1765 -0.5864  0.1734
 2395TIP3    H1 7126   0.724   2.285   5.143  0.3667 -1.7787  1.0009
 2395TIP3    H2 7127   0.583   2.342   5.142  0.9739 -0.2575  1.1087
 2396TIP3   OH2 7128   6.094   2.026   3.892 -0.2412 -0.2641 -0.3897
 2396TIP3    H1 7129   6.161   2.021   3.823 -2.6436  3.1191 -3.1415
 2396TIP3    H2 7130   6.022   1.973   3.859 -0.7097 -0.0966  0.3528
 2397TIP3   OH2 7131   8.078   2.801   5.693  0.1150  0.1922 -0.1303
 2397TIP3    H1 7132   8.062   2.786   5.787  0.2428  1.4370  0.0993
 2397TIP3    H2 7133   8.170   2.825   5.688  0.3323 -0.7451 -0.6933
 2398TIP3   OH2 7134   8.545   2.013   6.192  0.2150 -0.3476  0.5671
 2398TIP3    H1 7135   8.486   1.978   6.125  0.1054 -1.0585  1.0231
 2398TIP3    H2 7136   8.583   1.935   6.233 -0.4669  0.0606  2.0024
 2399TIP3   OH2 7137   8.182   3.443   4.050  0.0510  0.3900 -0.1690
 2399TIP3    H1 7138   8.221   3.431   3.964 -0.2649 -2.4301  0.0163
 2399TIP3    H2 7139   8.225   3.378   4.105 -1.8019  0.1716  1.0781
 2400TIP3   OH2 7140   7.214   7.989   3.737 -0.8763 -0.0430  0.0303
 2400TIP3    H1 7141   7.148   8.034   3.684 -0.7594  1.2817  0.9732
 2400TIP3    H2 7142   7.191   7.897   3.730 -1.6642  0.2313 -1.2304
 2401TIP3   OH2 7143   0.234   1.831   2.773  0.3816 -0.1421 -0.5925
 2401TIP3    H1 7144   0.248   1.837   2.867 -0.5626 -0.0356 -0.4537
 2401TIP3    H2 7145   0.322   1.817   2.736  0.8077  0.2841  0.2540
 2402TIP3   OH2 7146   1.836   3.362   5.805 -0.3274  0.2045 -0.2283
 2402TIP3    H1 7147   1.924   3.401   5.800 -0.5823  1.0794  1.7380
 2402TIP3    H2 7148   1.782   3.432   5.841 -1.4521 -0.9510  0.3362
 2403TIP3   OH2 7149   3.024   4.830   5.563  0.6709 -0.1825  0.2240
 2403TIP3    H1 7150   3.068   4.773   5.626 -3.1202 -6.2234 -2.1456
 2403TIP3    H2 7151   2.948   4.864   5.610  1.4958  0.7744  0.8687
 2404TIP3   OH2 7152   7.745   1.557   3.985 -0.4482 -0.3905  0.2290
 2404TIP3    H1 7153   7.691   1.519   4.055  0.4905 -2.3390 -0.0504
 2404TIP3    H2 7154   7.689   1.622   3.943 -1.1772  0.4718  2.4915
 2405TIP3   OH2 7155   6.193   7.852   3.345  0.2995 -0.1360  0.1359
 2405TIP3    H1 7156   6.123   7.876   3.284 -0.2445 -1.9728  0.0268
 2405TIP3    H2 7157   6.149   7.838   3.429  0.5262 -1.2342  0.0838
 2406TIP3   OH2 7158   1.805   1.037   4.848  0.2067  0.7981 -0.3059
 2406TIP3    H1 7159   1.782   0.952   4.811  0.3618  0.9791 -0.8181
 2406TIP3    H2 7160   1.720   1.080   4.863  0.0289 -0.2213  1.8275
 2407TIP3   OH2 7161   0.032   2.795   5.702  0.0366  0.3704  0.1886
 2407TIP3    H1 7162   0.002   2.729   5.765 -0.0063  1.7308  1.6313
 2407TIP3    H2 7163   0.073   2.863   5.756 -1.0287  2.1182 -1.1500
 2408TIP3   OH2 7164   1.388   1.113   6.426  0.3448  0.1853 -0.6956
 2408TIP3    H1 7165   1.426   1.201   6.438 -1.3611  0.6053  2.1023
 2408TIP3    H2 7166   1.455   1.054   6.462  0.8907  0.4371 -1.2805
 2409TIP3   OH2 7167   6.426   7.747   3.614  0.3230 -0.1030  0.2010
 2409TIP3    H1 7168   6.455   7.657   3.628 -0.9914 -0.8291 -1.5116
 2409TIP3    H2 7169   6.388   7.774   3.698  4.3705  0.3346  2.0056
 2410TIP3   OH2 7170   0.747   3.040   4.916 -0.6194  0.1867 -0.6436
 2410TIP3    H1 7171   0.818   3.086   4.961 -1.1171 -1.7495  2.2853
 2410TIP3    H2 7172   0.791   2.972   4.864 -0.1798  0.9416 -1.2687
 2411TIP3   OH2 7173   7.209   1.903   4.578  0.4131 -0.6741 -0.0600
 2411TIP3    H1 7174   7.164   1.851   4.645 -0.5052  0.8135  0.5173
 2411TIP3    H2 7175   7.271   1.956   4.627  0.7555 -0.6136 -0.5555
 2412TIP3   OH2 7176   2.110   2.068   3.084 -0.0705  0.6844 -0.1982
 2412TIP3    H1 7177   2.202   2.083   3.060 -0.0077  0.4674 -0.0871
 2412TIP3    H2 7178   2.061   2.092   3.005  0.0910  0.6644 -0.3050
 2413TIP3   OH2 7179   0.676   2.405   4.681 -0.6493 -0.3506  0.1430
 2413TIP3    H1 7180   0.734   2.461   4.732 -0.8042  0.0253 -0.0924
 2413TIP3    H2 7181   0.692   2.316   4.715  0.3424 -0.3054 -0.1873
 2414TIP3   OH2 7182   2.415   0.787   4.579  0.1332 -0.3682 -0.3875
 2414TIP3    H1 7183   2.505   0.788   4.547 -1.1098 -0.2789 -4.0550
 2414TIP3    H2 7184   2.364   0.752   4.507 -2.9916  1.0381  1.0594
 2415TIP3   OH2 7185   8.603   1.114   3.157  0.7380 -0.0635 -0.0025
 2415TIP3    H1 7186   8.558   1.190   3.121 -0.5098 -1.1480 -0.7729
 2415TIP3    H2 7187   8.627   1.140   3.246  1.4815  1.6813 -0.6946
 2416TIP3   OH2 7188   1.832   2.682   5.236  0.0945 -0.7404 -0.0196
 2416TIP3    H1 7189   1.856   2.603   5.284  1.0566 -1.1379 -1.1189
 2416TIP3    H2 7190   1.764   2.723   5.289  0.0808 -1.9427  0.9140
 2417TIP3   OH2 7191   2.000   1.498   3.354 -0.2439  0.2761  0.0219
 2417TIP3    H1 7192   1.911   1.513   3.323  0.0095  0.4969 -0.6046
 2417TIP3    H2 7193   1.989   1.460   3.441 -0.9107  2.7937  1.0571
 2418TIP3   OH2 7194   0.783   3.729   5.028 -0.5448 -0.0213 -0.4308
 2418TIP3    H1 7195   0.748   3.816   5.007 -3.6966 -1.4467 -1.3971
 2418TIP3    H2 7196   0.775   3.680   4.946  1.5416 -1.1763  0.0013
 2419TIP3   OH2 7197   8.465   1.092   3.978  0.0355  0.2962  0.0232
 2419TIP3    H1 7198   8.371   1.092   3.992  0.2528  0.2977  1.6212
 2419TIP3    H2 7199   8.494   1.006   4.011  0.7715  0.8942  0.9619
 2420TIP3   OH2 7200   5.976   7.027   3.032  0.9714  0.7362  0.2782
 2420TIP3    H1 7201   6.009   7.089   2.966  1.0545  0.9301  0.5035
 2420TIP3    H2 7202   5.932   7.083   3.096 -0.9798  0.3873 -0.7164
 2421TIP3   OH2 7203   6.413   0.981   4.917 -0.2243  0.1741 -0.8299
 2421TIP3    H1 7204   6.490   0.939   4.955 -0.8437 -0.2516 -0.0567
 2421TIP3    H2 7205   6.356   1.001   4.991 -0.5742  1.0867 -1.3310
 2422TIP3   OH2 7206   6.161   7.540   4.606  0.6312  0.2365 -0.4184
 2422TIP3    H1 7207   6.124   7.465   4.653 -0.6543  2.5749  2.4261
 2422TIP3    H2 7208   6.097   7.558   4.536 -0.9808  0.9663  1.2055
 2423TIP3   OH2 7209   1.996   1.528   3.854  0.1753  0.4538  0.2545
 2423TIP3    H1 7210   2.051   1.521   3.776  0.7555 -0.7043  0.7505
 2423TIP3    H2 7211   1.928   1.462   3.842 -0.0723  0.6674  0.4677
 2424TIP3   OH2 7212   0.554   0.947   5.575 -0.4021  0.5142 -0.4139
 2424TIP3    H1 7213   0.608   1.023   5.553 -1.0987  0.6608 -1.6516
 2424TIP3    H2 7214   0.567   0.887   5.502 -0.4790 -0.2229  0.1776
 2425TIP3   OH2 7215   0.564   1.072   4.438  0.0287  0.1828  0.4672
 2425TIP3    H1 7216   0.544   1.077   4.531  0.1073 -0.1392  0.5034
 2425TIP3    H2 7217   0.500   1.009   4.403 -0.7736  1.1858  0.0829
 2426TIP3   OH2 7218   7.762   1.347   6.259 -0.0246 -0.6328  0.1617
 2426TIP3    H1 7219   7.676   1.390   6.256  0.2142  0.0732  2.4522
 2426TIP3    H2 7220   7.742   1.254   6.270 -0.4875 -0.6994 -1.0650
 2427TIP3   OH2 7221   0.506   1.341   2.494 -0.1973  0.2064 -0.0451
 2427TIP3    H1 7222   0.543   1.283   2.561  1.6254  2.0797  0.6440
 2427TIP3    H2 7223   0.419   1.363   2.527 -0.6961 -1.6305 -0.0412
 2428TIP3   OH2 7224   0.991   1.065   3.635  0.3224  0.4931 -0.4962
 2428TIP3    H1 7225   1.035   1.110   3.563  0.2277  0.5947 -0.4912
 2428TIP3    H2 7226   1.017   1.113   3.713  1.7979 -0.6629 -0.2680
 2429TIP3   OH2 7227   0.183   1.232   3.887  0.2021  0.0900 -0.1417
 2429TIP3    H1 7228   0.150   1.310   3.932  0.3569 -0.5600  1.1025
 2429TIP3    H2 7229   0.146   1.158   3.935 -1.6431 -0.6371 -2.5586
 2430TIP3   OH2 7230   7.253   1.282   3.602  0.1970 -0.1425  0.3250
 2430TIP3    H1 7231   7.212   1.204   3.565 -0.0742 -0.6290  1.6191
 2430TIP3    H2 7232   7.188   1.351   3.592 -0.1402 -0.4301  0.5112
 2431TIP3   OH2 7233   7.439   1.424   4.668 -0.3148  0.3557  0.5165
 2431TIP3    H1 7234   7.378   1.492   4.698 -1.3143 -0.3728  0.1653
 2431TIP3    H2 7235   7.523   1.469   4.663 -1.1590  1.8734 -0.7847
 2432TIP3   OH2 7236   0.281   1.923   4.630 -0.4661  0.5065 -0.0454
 2432TIP3    H1 7237   0.190   1.949   4.647 -0.7288  0.3584 -1.2054
 2432TIP3    H2 7238   0.322   2.002   4.595 -0.6867  0.0070 -1.4560
 2433TIP3   OH2 7239   1.441   0.563   5.467 -0.4458  0.1553  0.8056
 2433TIP3    H1 7240   1.465   0.479   5.428  1.0746  0.8220  0.2466
 2433TIP3    H2 7241   1.523   0.596   5.505 -0.7117  1.9604 -0.1162
 2434TIP3   OH2 7242   2.298   0.659   4.366 -0.1317 -0.1421  0.4279
 2434TIP3    H1 7243   2.212   0.679   4.328  0.0078 -0.5333 -0.0925
 2434TIP3    H2 7244   2.324   0.577   4.325  0.7243  0.2362  0.2032
 2435TIP3   OH2 7245   2.523   1.751   5.027  0.1119 -0.1920 -0.0035
 2435TIP3    H1 7246   2.530   1.814   4.955 -0.5632 -0.2693 -0.1399
 2435TIP3    H2 7247   2.434   1.761   5.060  1.4167  2.1996  3.0099
 2436TIP3   OH2 7248   8.203   3.032   3.173  0.3124  0.3851 -0.3638
 2436TIP3    H1 7249   8.183   3.004   3.262  0.5907 -1.1807 -0.7755
 2436TIP3    H2 7250   8.297   3.016   3.164 -0.2837 -2.4485 -1.9523
 2437TIP3   OH2 7251   0.487   3.099   4.382  0.2624  0.1471 -0.2291
 2437TIP3    H1 7252   0.477   3.098   4.287  2.2178  0.8853 -0.4552
 2437TIP3    H2 7253   0.540   3.022   4.402 -1.4399 -0.8994  0.4590
 2438TIP3   OH2 7254   0.649   3.608   4.223 -0.2287 -0.2805 -0.3817
 2438TIP3    H1 7255   0.652   3.703   4.215  1.8622 -0.3554 -0.8888
 2438TIP3    H2 7256   0.624   3.577   4.136 -0.8673 -0.1911 -0.2282
 2439TIP3   OH2 7257   0.361   0.059   1.789  0.5046 -0.3484 -0.0047
 2439TIP3    H1 7258   0.414  -0.018   1.810  0.8401  0.3641  1.8521
 2439TIP3    H2 7259   0.350   0.055   1.694  1.3138 -2.1636 -0.0450
 2440TIP3   OH2 7260   5.218   6.990   4.380  0.2265 -0.2215  0.4044
 2440TIP3    H1 7261   5.284   6.984   4.311 -0.9937  1.6693 -1.0013
 2440TIP3    H2 7262   5.212   6.902   4.415  1.4058 -1.0731 -1.4186
 2441TIP3   OH2 7263   1.159   2.351   2.305 -0.8238  0.0263  0.6494
 2441TIP3    H1 7264   1.075   2.306   2.306 -0.7666 -0.1546 -1.1476
 2441TIP3    H2 7265   1.205   2.314   2.230  1.1385 -0.3672  2.0096
 2442TIP3   OH2 7266   7.980   3.170   4.160 -0.1129 -0.0885 -0.0236
 2442TIP3    H1 7267   7.952   3.098   4.216  0.4990  0.8075  1.4637
 2442TIP3    H2 7268   8.040   3.221   4.214  1.0268  0.4257 -1.7226
 2443TIP3   OH2 7269   8.137   0.860   3.018  0.6781 -0.2084 -0.1617
 2443TIP3    H1 7270   8.060   0.914   3.039  1.3289  0.3768  0.7227
 2443TIP3    H2 7271   8.100   0.782   2.976 -0.2780  0.8454 -1.3219
 2444TIP3   OH2 7272   5.010   7.340   2.884  0.0718 -0.1551  0.1526
 2444TIP3    H1 7273   4.914   7.340   2.885  0.0822 -0.2813  1.0875
 2444TIP3    H2 7274   5.034   7.428   2.852 -0.3318  0.9242  2.7165
 2445TIP3   OH2 7275   8.555   1.167   5.115 -0.2093  0.3008 -0.1224
 2445TIP3    H1 7276   8.576   1.093   5.172 -1.2232 -0.9878 -1.3967
 2445TIP3    H2 7277   8.488   1.216   5.163 -1.0061 -0.7364 -0.1538
 2446TIP3   OH2 7278   0.060   0.526   5.266  0.4758  0.6994  0.1684
 2446TIP3    H1 7279   0.151   0.548   5.246  1.5162 -3.1649  0.1577
 2446TIP3    H2 7280   0.061   0.504   5.359 -0.3696  0.3315  0.0959
 2447TIP3   OH2 7281   0.472   2.754   3.593  0.3122  0.2573  0.4395
 2447TIP3    H1 7282   0.501   2.800   3.514 -1.1553 -0.3927 -0.4977
 2447TIP3    H2 7283   0.513   2.668   3.588 -0.2042  0.0293  0.1127
 2448TIP3   OH2 7284   7.439   1.379   3.970 -0.4464  0.1228  0.2120
 2448TIP3    H1 7285   7.427   1.284   3.973 -0.9439  0.2141  1.1774
 2448TIP3    H2 7286   7.493   1.399   4.047 -1.5825  0.8012  0.8410
 2449TIP3   OH2 7287   8.440   1.307   6.450  0.0940 -0.4265  0.1800
 2449TIP3    H1 7288   8.349   1.278   6.438  0.1404  0.1629 -1.8738
 2449TIP3    H2 7289   8.439   1.400   6.427  1.2975 -0.5322 -0.3428
 2450TIP3   OH2 7290   0.270   4.410   5.469 -0.2110  0.1462  0.4503
 2450TIP3    H1 7291   0.354   4.403   5.515  1.0549 -0.7699 -1.9040
 2450TIP3    H2 7292   0.264   4.329   5.418 -2.2778  0.4498  0.1656
 2451TIP3   OH2 7293   2.010   1.977   2.673 -0.6418  0.5449  0.0032
 2451TIP3    H1 7294   1.976   1.940   2.755  0.1649 -0.6664 -0.1889
 2451TIP3    H2 7295   2.085   1.922   2.651 -0.1630  1.5570 -0.9637
 2452TIP3   OH2 7296   2.375   1.391   3.262  0.2991  0.5837  0.1002
 2452TIP3    H1 7297   2.351   1.375   3.354 -1.7265  0.8730 -0.3642
 2452TIP3    H2 7298   2.470   1.405   3.265  0.7257 -2.0903  1.7976
 2453TIP3   OH2 7299   2.161   3.456   5.504 -0.0339  0.1821 -0.0881
 2453TIP3    H1 7300   2.171   3.404   5.583 -0.1685  0.1891 -0.0660
 2453TIP3    H2 7301   2.213   3.410   5.438  0.3488  0.3595  0.0885
 2454TIP3   OH2 7302   0.983   1.940   4.780 -0.2831 -0.1898  0.2036
 2454TIP3    H1 7303   0.916   1.884   4.740  0.2920 -1.3254  0.8162
 2454TIP3    H2 7304   1.047   1.954   4.710 -0.9495  0.5622 -0.2616
 2455TIP3   OH2 7305   1.302   0.690   4.908 -0.0803  0.5011 -0.2324
 2455TIP3    H1 7306   1.373   0.718   4.965  0.8724  0.1180 -1.2200
 2455TIP3    H2 7307   1.288   0.763   4.847 -1.7483  1.3087  1.0679
 2456TIP3   OH2 7308   0.435   1.027   5.079 -0.4977 -0.6800 -0.1884
 2456TIP3    H1 7309   0.417   1.070   5.163 -2.1026 -0.8236 -0.4539
 2456TIP3    H2 7310   0.458   1.099   5.020 -0.2353 -0.4976  0.1300
 2457TIP3   OH2 7311   3.948   1.036   2.773  0.2479 -0.6400  0.2252
 2457TIP3    H1 7312   3.976   1.117   2.816  0.1767 -0.3183 -0.3315
 2457TIP3    H2 7313   4.027   0.984   2.765  0.4071 -0.3732  0.0433
 2458TIP3   OH2 7314   3.179   1.931   3.429  0.1736 -0.1326  0.4914
 2458TIP3    H1 7315   3.202   1.988   3.502 -0.4280 -0.2677  0.7859
 2458TIP3    H2 7316   3.185   1.842   3.464 -1.1953 -0.1532  0.6899
 2459TIP3   OH2 7317   4.360   1.396   1.959  0.0082 -0.2150 -0.1414
 2459TIP3    H1 7318   4.299   1.462   1.992  1.3851  0.6621  0.6707
 2459TIP3    H2 7319   4.324   1.313   1.989  0.3088  0.4475  2.1261
 2460TIP3   OH2 7320   1.377   1.664   2.959  0.1870  0.4272 -0.7914
 2460TIP3    H1 7321   1.355   1.635   3.047 -1.2226 -0.6491 -1.4580
 2460TIP3    H2 7322   1.293   1.695   2.923  0.9631  1.8737 -1.3766
 2461TIP3   OH2 7323   1.240   1.728   5.046  0.0967  0.1745 -0.0030
 2461TIP3    H1 7324   1.183   1.771   4.983 -1.2825 -2.0647 -0.3305
 2461TIP3    H2 7325   1.303   1.796   5.072 -1.3285  2.0354 -1.3059
 2462TIP3   OH2 7326   3.840   2.101   1.924 -0.4195  0.3897 -0.2615
 2462TIP3    H1 7327   3.821   2.008   1.922 -3.5572  1.0138 -1.6087
 2462TIP3    H2 7328   3.837   2.124   2.017  0.7747 -0.8841  0.1112
 2463TIP3   OH2 7329   1.042   1.576   3.718 -0.0871 -0.1605 -0.1448
 2463TIP3    H1 7330   0.950   1.559   3.738 -0.3202  1.6052  0.3392
 2463TIP3    H2 7331   1.073   1.630   3.791  1.1128 -0.0681 -0.7072
 2464TIP3   OH2 7332   2.362   1.641   3.099 -0.0307 -0.3829  0.0190
 2464TIP3    H1 7333   2.307   1.698   3.045 -0.3933 -0.3359  0.4344
 2464TIP3    H2 7334   2.392   1.697   3.170  2.5214  0.2333 -1.4980
 2465TIP3   OH2 7335   0.668   7.663   1.556  0.0918 -0.8162  0.0188
 2465TIP3    H1 7336   0.636   7.573   1.547  0.4398 -0.8574 -0.8388
 2465TIP3    H2 7337   0.591   7.713   1.582 -0.2778 -1.2239 -0.2840
 2466TIP3   OH2 7338   1.915   0.649   2.714 -0.1377 -0.0911 -0.0542
 2466TIP3    H1 7339   1.820   0.644   2.713 -0.1505  0.1252  0.0999
 2466TIP3    H2 7340   1.943   0.571   2.762 -0.2028 -0.6066 -0.8287
 2467TIP3   OH2 7341   7.423   7.077   6.659  0.0360 -0.6488  0.1148
 2467TIP3    H1 7342   7.450   7.079   6.567  0.8157 -2.2542  0.2916
 2467TIP3    H2 7343   7.435   6.986   6.686 -1.1966 -0.4206  1.5202
 2468TIP3   OH2 7344   1.767   1.063   3.229  0.2137 -0.4169  0.0714
 2468TIP3    H1 7345   1.798   0.978   3.196 -2.1797 -2.0397  1.8506
 2468TIP3    H2 7346   1.768   1.054   3.324 -1.5729  0.9938  0.2475
 2469TIP3   OH2 7347   8.526   7.980   1.965 -0.1973  0.0736 -0.4030
 2469TIP3    H1 7348   8.612   7.986   1.923 -0.9138  1.6787 -1.6882
 2469TIP3    H2 7349   8.463   7.984   1.893 -1.4499  2.7213  0.7846
 2470TIP3   OH2 7350   2.277   0.894   2.905 -0.1354  0.4952 -0.0373
 2470TIP3    H1 7351   2.210   0.897   2.974 -0.3079  0.3713 -0.1969
 2470TIP3    H2 7352   2.347   0.840   2.942 -0.7544 -0.5894 -0.4126
 2471TIP3   OH2 7353   3.512   3.425   2.374  0.4171  0.6858 -0.5070
 2471TIP3    H1 7354   3.525   3.377   2.293 -0.3178  1.9857 -1.3966
 2471TIP3    H2 7355   3.601   3.437   2.408  0.5455 -2.4419  0.4361
 2472TIP3   OH2 7356   5.926   7.264   3.188 -0.3556  1.1459  0.0866
 2472TIP3    H1 7357   5.962   7.317   3.259 -2.4151  1.1376  1.1578
 2472TIP3    H2 7358   5.852   7.315   3.155 -0.7507  0.1269 -0.6117
 2473TIP3   OH2 7359   1.900   2.207   3.854 -0.5687 -0.0648  0.3360
 2473TIP3    H1 7360   1.860   2.123   3.831  0.5758 -0.5332  0.0154
 2473TIP3    H2 7361   1.832   2.252   3.905 -1.8770 -0.4243 -1.0417
 2474TIP3   OH2 7362   0.487   2.100   2.995  0.4018  0.2829 -0.4216
 2474TIP3    H1 7363   0.428   2.027   2.979  0.9488  0.2495 -2.3410
 2474TIP3    H2 7364   0.434   2.164   3.043 -0.3788 -0.8999  0.3263
 2475TIP3   OH2 7365   4.764   4.078   3.532 -0.4470 -0.3372 -0.3005
 2475TIP3    H1 7366   4.786   4.171   3.524 -2.2075  0.1144 -0.0517
 2475TIP3    H2 7367   4.690   4.076   3.593 -0.1001 -1.9487  0.0841
 2476TIP3   OH2 7368   5.577   2.482   2.293 -0.4701 -0.5064  0.2022
 2476TIP3    H1 7369   5.512   2.533   2.341 -0.2842 -1.0386  1.0106
 2476TIP3    H2 7370   5.649   2.470   2.354 -0.8670 -2.4922  0.3127
 2477TIP3   OH2 7371   4.703   0.147   3.566  0.8633  0.2705  0.2380
 2477TIP3    H1 7372   4.765   0.098   3.512 -0.8372 -2.7250  0.8884
 2477TIP3    H2 7373   4.733   0.238   3.561  4.7302 -0.9438 -0.2282
 2478TIP3   OH2 7374   1.425   1.520   4.367  0.5426  0.2303  0.6914
 2478TIP3    H1 7375   1.492   1.475   4.315  1.2881  1.4928  0.5447
 2478TIP3    H2 7376   1.357   1.454   4.379  1.2345 -0.6843 -0.2390
 2479TIP3   OH2 7377   3.826   1.814   3.059  0.1631  0.0875 -0.0780
 2479TIP3    H1 7378   3.899   1.826   2.999  0.7204 -0.5294  0.4707
 2479TIP3    H2 7379   3.856   1.747   3.121 -0.7885 -0.0375  0.2640
 2480TIP3   OH2 7380   1.279   1.252   2.961  0.5960 -0.2911  0.2443
 2480TIP3    H1 7381   1.226   1.198   3.019 -0.7898 -1.8176 -2.3381
 2480TIP3    H2 7382   1.215   1.298   2.906  1.8529  1.3787  0.1354
 2481TIP3   OH2 7383   4.194   1.212   3.091 -0.2214  0.2664  0.1661
 2481TIP3    H1 7384   4.132   1.234   3.161 -1.8859 -1.4376 -0.7148
 2481TIP3    H2 7385   4.245   1.139   3.126 -0.6109 -0.1588 -0.1504
 2482TIP3   OH2 7386   0.473   7.491   2.634  0.0053  0.4978  0.1951
 2482TIP3    H1 7387   0.431   7.574   2.614 -0.6146  0.2388  0.3820
 2482TIP3    H2 7388   0.562   7.500   2.602  1.0641  2.5788  3.5265
 2483TIP3   OH2 7389   2.755   0.621   2.581 -0.2410 -0.1966  0.6929
 2483TIP3    H1 7390   2.787   0.605   2.493  0.9289 -0.6562  1.1952
 2483TIP3    H2 7391   2.662   0.597   2.577  0.0738 -1.3291 -0.1149
 2484TIP3   OH2 7392   1.828   3.263   5.280 -0.0656 -0.2938  0.0160
 2484TIP3    H1 7393   1.868   3.251   5.366  2.0578 -1.3712 -1.0788
 2484TIP3    H2 7394   1.889   3.321   5.234 -0.9061 -0.1617 -0.9337
 2485TIP3   OH2 7395   1.506   1.878   3.104 -0.0392 -0.3420 -0.5691
 2485TIP3    H1 7396   1.490   1.946   3.039 -0.3246 -1.9773 -2.2382
 2485TIP3    H2 7397   1.482   1.796   3.061 -0.0934 -1.4873  1.5387
 2486TIP3   OH2 7398   4.284   2.337   2.980 -0.5173  0.1729 -0.0825
 2486TIP3    H1 7399   4.270   2.242   2.972  1.4419 -0.0380 -1.2575
 2486TIP3    H2 7400   4.351   2.346   3.047 -1.2569  0.7822  0.5777
 2487TIP3   OH2 7401   1.850   1.164   4.061 -0.2503 -0.2904  0.0871
 2487TIP3    H1 7402   1.874   1.134   3.973 -0.0319  1.0240 -0.3185
 2487TIP3    H2 7403   1.927   1.146   4.115 -0.7463 -2.0281  0.2536
 2488TIP3   OH2 7404   2.960   2.361   0.983  0.7150 -0.2771  0.4981
 2488TIP3    H1 7405   3.043   2.405   0.964  0.1775  0.8774  0.8297
 2488TIP3    H2 7406   2.907   2.426   1.028 -0.1616 -1.1996  0.8332
 2489TIP3   OH2 7407   3.673   3.593   4.567  0.6679 -0.1508  0.9795
 2489TIP3    H1 7408   3.725   3.620   4.642  1.0118 -0.5083  0.8769
 2489TIP3    H2 7409   3.686   3.662   4.502  0.5733  0.0329  1.1599
 2490TIP3   OH2 7410   1.619   8.084   1.785 -0.1685 -0.3651  0.1854
 2490TIP3    H1 7411   1.679   8.038   1.844  0.1587 -0.0089  0.1262
 2490TIP3    H2 7412   1.552   8.019   1.765 -1.3468  0.0617  2.4757
 2491TIP3   OH2 7413   1.212   2.917   4.341  0.2079 -0.2401  0.3196
 2491TIP3    H1 7414   1.154   2.911   4.265  1.6520  1.1692 -0.9226
 2491TIP3    H2 7415   1.156   2.947   4.412 -0.9091 -0.4049 -0.4775
 2492TIP3   OH2 7416   4.782   3.830   2.758 -0.4158  0.4354 -0.5021
 2492TIP3    H1 7417   4.717   3.877   2.706 -1.4610  1.2437  1.4471
 2492TIP3    H2 7418   4.737   3.750   2.786 -0.8599  1.2999  1.3900
 2493TIP3   OH2 7419   0.187   2.931   5.116 -0.0822  0.1945  0.5952
 2493TIP3    H1 7420   0.158   2.859   5.060 -2.1639  0.0461  1.8265
 2493TIP3    H2 7421   0.123   3.000   5.102  0.6802  1.0122  1.0737
 2494TIP3   OH2 7422   1.481   2.817   4.033 -0.1258 -0.2333 -0.7126
 2494TIP3    H1 7423   1.469   2.883   4.101 -1.0172 -1.0519 -0.0482
 2494TIP3    H2 7424   1.564   2.775   4.055  0.0831  0.1723 -0.7153
 2495TIP3   OH2 7425   4.081   1.669   3.698 -0.0368  0.3383 -0.3445
 2495TIP3    H1 7426   4.034   1.742   3.657 -1.8594 -0.8374 -0.4113
 2495TIP3    H2 7427   4.131   1.629   3.627 -1.1499 -0.1059 -0.8893
 2496TIP3   OH2 7428   1.911   3.563   5.409  0.2001  0.1543 -0.2187
 2496TIP3    H1 7429   1.887   3.639   5.461  1.6092  1.4692 -1.4497
 2496TIP3    H2 7430   1.985   3.523   5.456 -0.0294 -0.0024  0.0099
 2497TIP3   OH2 7431   4.568   3.247   2.914  0.1160 -0.2181 -0.1251
 2497TIP3    H1 7432   4.529   3.162   2.893 -0.0955  0.1162 -1.1379
 2497TIP3    H2 7433   4.648   3.250   2.862  1.0877 -0.5680  1.3404
 2498TIP3   OH2 7434   3.240   2.724   2.503  0.3298 -0.0482  0.2286
 2498TIP3    H1 7435   3.195   2.670   2.438  1.0007 -0.3956  0.0430
 2498TIP3    H2 7436   3.170   2.774   2.546 -0.3539 -1.3637  0.6805
 2499TIP3   OH2 7437   2.215   0.499   2.170 -0.4391 -0.1203 -0.0991
 2499TIP3    H1 7438   2.186   0.489   2.261  2.8049  2.6643  1.3359
 2499TIP3    H2 7439   2.289   0.438   2.162  1.4383  2.0619  0.2079
 2500TIP3   OH2 7440   5.785   1.369   3.424  0.0869  0.6402  0.1205
 2500TIP3    H1 7441   5.788   1.311   3.499  1.0708  1.2205  0.5363
 2500TIP3    H2 7442   5.754   1.452   3.459 -1.9344  0.2161 -0.5817
 2501TIP3   OH2 7443   3.720   2.309   5.933  0.1990 -0.4899  0.4085
 2501TIP3    H1 7444   3.811   2.280   5.929 -0.0618 -1.1710 -0.7397
 2501TIP3    H2 7445   3.695   2.320   5.841 -0.1719  1.8980  0.7628
 2502TIP3   OH2 7446   0.246   4.362   3.291 -0.2300  0.0180 -0.0120
 2502TIP3    H1 7447   0.295   4.330   3.367 -0.4523 -0.4378 -0.0627
 2502TIP3    H2 7448   0.221   4.451   3.316 -2.4002 -0.9482  1.4661
 2503TIP3   OH2 7449   2.950   3.199   3.289 -0.2530 -0.2200  0.0978
 2503TIP3    H1 7450   2.915   3.113   3.266 -1.6758  0.7870 -1.6087
 2503TIP3    H2 7451   2.910   3.220   3.373 -1.5193 -0.3394 -0.4688
 2504TIP3   OH2 7452   2.714   1.065   4.866  0.3732  0.1759  0.3290
 2504TIP3    H1 7453   2.622   1.057   4.840 -0.1807  0.7665  2.0025
 2504TIP3    H2 7454   2.749   1.134   4.809 -0.1844 -0.1506 -0.4143
 2505TIP3   OH2 7455   0.797   7.599   3.054  0.0249 -0.0785 -0.8079
 2505TIP3    H1 7456   0.865   7.539   3.083 -0.6993 -0.4671  0.1020
 2505TIP3    H2 7457   0.841   7.655   2.989  1.0873 -0.6044 -0.5591
 2506TIP3   OH2 7458   3.709   2.873   3.461 -0.2256 -0.5054 -0.0093
 2506TIP3    H1 7459   3.699   2.821   3.381  1.0398 -0.2466 -0.3381
 2506TIP3    H2 7460   3.803   2.874   3.478 -0.3927  0.2841  0.9308
 2507TIP3   OH2 7461   4.333   1.299   5.089 -0.1079 -0.1315  0.2177
 2507TIP3    H1 7462   4.241   1.323   5.075 -0.3615 -1.1044  0.1536
 2507TIP3    H2 7463   4.366   1.366   5.149 -0.7370  0.4827 -0.1119
 2508TIP3   OH2 7464   1.771   1.984   3.748  0.0489  0.5858  0.2451
 2508TIP3    H1 7465   1.682   2.021   3.747  0.6768  2.1791  0.7527
 2508TIP3    H2 7466   1.759   1.892   3.769 -1.5137  0.7324  0.0445
 2509TIP3   OH2 7467   1.243   7.515   2.240 -0.2969 -0.2140  0.0283
 2509TIP3    H1 7468   1.289   7.457   2.301  1.9615  0.9675 -0.4999
 2509TIP3    H2 7469   1.166   7.465   2.213  0.4888 -2.1101  1.2001
 2510TIP3   OH2 7470   3.520   0.227   4.221  0.0619  0.2665 -0.1969
 2510TIP3    H1 7471   3.573   0.202   4.145  2.0982  0.2276  1.2048
 2510TIP3    H2 7472   3.453   0.160   4.227  0.6180 -0.3930 -1.2523
 2511TIP3   OH2 7473   3.107   0.158   1.916  0.4744 -0.4315  0.1901
 2511TIP3    H1 7474   3.028   0.198   1.953  1.2766 -1.6943  3.4720
 2511TIP3    H2 7475   3.075   0.101   1.847 -1.2201  1.0884 -0.3269
 2512TIP3   OH2 7476   2.860   0.885   2.926 -0.0517  0.0043  0.1474
 2512TIP3    H1 7477   2.938   0.863   2.875 -0.5619 -1.2399 -0.1270
 2512TIP3    H2 7478   2.840   0.975   2.903  0.5805 -0.0752 -0.7324
 2513TIP3   OH2 7479   2.623   1.181   3.596 -0.4038 -0.0072  0.9020
 2513TIP3    H1 7480   2.609   1.087   3.613 -0.4420 -0.1998 -0.1401
 2513TIP3    H2 7481   2.653   1.216   3.679  0.4084 -1.1080  1.0928
 2514TIP3   OH2 7482   1.920   0.611   4.427  0.3223 -0.7984  0.5487
 2514TIP3    H1 7483   1.849   0.654   4.379 -0.4940  0.3945  2.7360
 2514TIP3    H2 7484   1.884   0.525   4.450 -0.1210 -0.5111  0.9456
 2515TIP3   OH2 7485   7.379   2.008   2.260 -0.9701 -0.1937 -0.1124
 2515TIP3    H1 7486   7.408   2.037   2.173 -1.3054 -0.7995 -0.4290
 2515TIP3    H2 7487   7.417   2.072   2.320 -0.2298 -0.1176 -0.6541
 2516TIP3   OH2 7488   0.949   2.907   4.143 -0.3285 -0.1027  0.6238
 2516TIP3    H1 7489   0.857   2.936   4.140 -0.0725  0.6391 -0.1127
 2516TIP3    H2 7490   0.981   2.918   4.054  0.7522  0.5504  1.0750
 2517TIP3   OH2 7491   2.916   2.930   3.525 -0.3846  0.1511 -0.0224
 2517TIP3    H1 7492   3.006   2.898   3.520  0.2514  1.9396 -0.2895
 2517TIP3    H2 7493   2.880   2.913   3.438 -1.2228 -3.0962  0.8800
 2518TIP3   OH2 7494   1.478   2.514   5.775 -0.4636  0.2293  0.2753
 2518TIP3    H1 7495   1.486   2.529   5.681  0.0353  0.0212  0.2827
 2518TIP3    H2 7496   1.437   2.593   5.809 -1.0302  0.1305 -0.1801
 2519TIP3   OH2 7497   2.550   1.564   4.108  0.2445 -0.4954  0.1686
 2519TIP3    H1 7498   2.486   1.580   4.039 -1.6751 -0.9955  1.8038
 2519TIP3    H2 7499   2.511   1.601   4.187  1.6400 -1.4568  1.3331
 2520TIP3   OH2 7500   1.418   7.041   2.556  0.0201 -0.0703  0.4827
 2520TIP3    H1 7501   1.345   7.027   2.495 -0.4257  0.7484  0.8156
 2520TIP3    H2 7502   1.380   7.094   2.626  0.5787 -0.8466  1.3784
 2521TIP3   OH2 7503   1.217   0.833   3.027  0.5568  0.6100  0.0831
 2521TIP3    H1 7504   1.243   0.892   3.098 -1.8718  2.2678 -0.3447
 2521TIP3    H2 7505   1.123   0.847   3.017  0.7281 -0.0306 -3.0708
 2522TIP3   OH2 7506   3.218   3.254   2.771 -0.5889  0.1311 -0.0101
 2522TIP3    H1 7507   3.254   3.270   2.684 -0.7646  1.3445  0.1317
 2522TIP3    H2 7508   3.287   3.206   2.817  0.0084  0.5948 -0.4142
 2523TIP3   OH2 7509   1.835   3.873   4.372  0.2224  0.6899  0.0387
 2523TIP3    H1 7510   1.763   3.839   4.426  1.1595 -0.3302  0.6760
 2523TIP3    H2 7511   1.902   3.900   4.435  1.4141 -0.6926 -0.5839
 2524TIP3   OH2 7512   6.657   7.777   3.925  0.0940 -0.6337  0.0141
 2524TIP3    H1 7513   6.684   7.758   4.014 -1.5491  0.3210  0.7541
 2524TIP3    H2 7514   6.730   7.748   3.870  0.7930 -1.9324  1.6048
 2525TIP3   OH2 7515   2.784   1.348   3.450  0.4363 -0.5639  0.4944
 2525TIP3    H1 7516   2.723   1.287   3.492  0.5436 -1.8178 -1.1296
 2525TIP3    H2 7517   2.849   1.368   3.518  0.5618 -2.4850  0.9522
 2526TIP3   OH2 7518   3.111   2.748   4.474  0.1993 -0.2504 -0.4846
 2526TIP3    H1 7519   3.024   2.710   4.488  0.8427 -1.0818  1.3915
 2526TIP3    H2 7520   3.128   2.734   4.381 -1.6292 -0.1469 -0.8611
 2527TIP3   OH2 7521   0.696   0.632   1.928 -0.2757  0.0563 -0.3509
 2527TIP3    H1 7522   0.691   0.663   2.018 -0.6063 -1.3482  0.1172
 2527TIP3    H2 7523   0.608   0.644   1.893 -0.3333 -0.1109 -0.2598
 2528TIP3   OH2 7524   1.733   1.447   3.675  0.3262 -0.4603  0.4584
 2528TIP3    H1 7525   1.679   1.454   3.596  0.9967 -0.2197  0.0146
 2528TIP3    H2 7526   1.686   1.497   3.741 -0.1490 -0.5144  0.1651
 2529TIP3   OH2 7527   2.934   0.899   2.362  0.5043  0.3744  0.2199
 2529TIP3    H1 7528   2.959   0.930   2.275  0.6625  0.9470  0.4684
 2529TIP3    H2 7529   2.893   0.814   2.346 -1.1487  1.3101 -0.6122
 2530TIP3   OH2 7530   2.228   0.069   2.950 -0.7619  0.0055 -0.1978
 2530TIP3    H1 7531   2.221   0.102   2.861 -1.0080  1.5259  0.3657
 2530TIP3    H2 7532   2.300   0.006   2.947  2.0510  3.0372 -0.6576
 2531TIP3   OH2 7533   2.090   2.185   4.178  0.6425 -0.6986 -0.1939
 2531TIP3    H1 7534   2.065   2.093   4.175  1.3624 -1.0378  2.5566
 2531TIP3    H2 7535   2.164   2.193   4.119  0.6917 -1.9150 -0.2944
 2532TIP3   OH2 7536   2.820   1.623   2.874  0.0365  0.1597 -0.4278
 2532TIP3    H1 7537   2.873   1.698   2.900  0.0820 -0.6195  1.8574
 2532TIP3    H2 7538   2.882   1.550   2.871 -0.5636 -0.4161  0.6052
 2533TIP3   OH2 7539   7.696   1.049   3.576 -0.6366  0.5351  0.0925
 2533TIP3    H1 7540   7.642   1.100   3.635 -0.1617 -1.2327  2.1220
 2533TIP3    H2 7541   7.718   0.970   3.626  1.4041 -0.0931 -1.7262
 2534TIP3   OH2 7542   5.106   2.566   4.115  0.3146 -0.4959  0.0535
 2534TIP3    H1 7543   5.052   2.488   4.101 -0.4630  0.3572 -1.9198
 2534TIP3    H2 7544   5.133   2.560   4.207 -1.0590 -2.2440  0.3842
 2535TIP3   OH2 7545   2.832   2.528   2.993  0.6058  0.5151  0.2537
 2535TIP3    H1 7546   2.836   2.455   2.931  1.0275  0.6536  0.1185
 2535TIP3    H2 7547   2.803   2.602   2.940  2.3391  0.9637 -0.0780
 2536TIP3   OH2 7548   3.007   2.264   2.391 -0.2750  0.4527 -0.2791
 2536TIP3    H1 7549   3.080   2.203   2.382 -0.4904  0.3004 -1.0132
 2536TIP3    H2 7550   3.023   2.308   2.475  1.0942  0.9949 -0.8011
 2537TIP3   OH2 7551   3.601   3.494   3.660  0.4905  0.1023  0.1162
 2537TIP3    H1 7552   3.621   3.417   3.712  0.8495 -0.7055 -1.1712
 2537TIP3    H2 7553   3.520   3.472   3.613  0.0143  0.9211  0.5552
 2538TIP3   OH2 7554   2.075   2.545   2.104 -0.0105 -0.2050 -0.2018
 2538TIP3    H1 7555   2.108   2.470   2.053  0.3597  0.0388 -0.3211
 2538TIP3    H2 7556   2.145   2.563   2.166  0.3504  0.7211 -0.8740
 2539TIP3   OH2 7557   2.986   1.277   0.228  0.7692 -0.1984  0.0811
 2539TIP3    H1 7558   3.011   1.222   0.301  0.5550  1.4355  1.4161
 2539TIP3    H2 7559   2.912   1.329   0.261  0.7453  0.6382 -1.2382
 2540TIP3   OH2 7560   3.909   2.640   3.820  0.4417  0.4755  0.2732
 2540TIP3    H1 7561   3.856   2.567   3.851  1.6961 -0.8487 -0.6264
 2540TIP3    H2 7562   3.846   2.706   3.792 -0.7890 -1.5258 -1.8883
 2541TIP3   OH2 7563   8.405   1.066   1.792 -0.1437 -0.4000  0.1677
 2541TIP3    H1 7564   8.411   1.019   1.875  1.4566  3.0622  2.1109
 2541TIP3    H2 7565   8.493   1.099   1.777 -0.7119  0.0638 -2.3096
 2542TIP3   OH2 7566   6.829   7.395   3.199  0.1107  0.5206  0.1965
 2542TIP3    H1 7567   6.755   7.445   3.234  1.0718  0.9471  1.6748
 2542TIP3    H2 7568   6.861   7.448   3.126  0.2329  1.3699  0.8527
 2543TIP3   OH2 7569   3.562   3.202   3.581 -0.5123  0.1064 -0.3710
 2543TIP3    H1 7570   3.636   3.235   3.531 -0.4378  1.4503  0.6046
 2543TIP3    H2 7571   3.519   3.140   3.522  0.7777  0.0917 -1.3220
 2544TIP3   OH2 7572   1.517   1.251   4.910  0.7496 -0.0321  0.3975
 2544TIP3    H1 7573   1.494   1.200   4.833 -0.2281  0.9358  0.0287
 2544TIP3    H2 7574   1.461   1.329   4.905  1.7265  0.7480  1.2996
 2545TIP3   OH2 7575   4.571   2.454   4.790 -0.3295 -0.3096 -0.7357
 2545TIP3    H1 7576   4.601   2.494   4.871  2.3912 -2.1179 -0.7953
 2545TIP3    H2 7577   4.635   2.385   4.772 -1.0764 -0.1800 -4.2194
 2546TIP3   OH2 7578   2.073   1.302   0.592 -0.1468 -0.6155  0.0139
 2546TIP3    H1 7579   1.979   1.317   0.586 -0.0316  0.7294  1.2074
 2546TIP3    H2 7580   2.096   1.257   0.511 -1.2817  1.8276 -1.7366
 2547TIP3   OH2 7581   2.183   4.943   4.480 -0.2134 -0.0418  0.1915
 2547TIP3    H1 7582   2.231   5.020   4.511  0.5255 -0.7955  0.9144
 2547TIP3    H2 7583   2.097   4.977   4.456  0.5140  1.2445 -0.6891
 2548TIP3   OH2 7584   2.156   2.447   0.108 -0.0799 -0.1510 -0.1930
 2548TIP3    H1 7585   2.120   2.525   0.150  0.3901 -0.8996  1.6727
 2548TIP3    H2 7586   2.195   2.479   0.026 -0.6312  1.4287  0.1472
 2549TIP3   OH2 7587   0.312   0.965   4.292  0.2922  0.4719 -0.0490
 2549TIP3    H1 7588   0.283   0.971   4.384  1.3934 -0.5257  0.3768
 2549TIP3    H2 7589   0.234   0.986   4.241 -0.4837  0.4754  1.1109
 2550TIP3   OH2 7590   1.336   1.730   2.314 -0.5182  0.2474 -0.5145
 2550TIP3    H1 7591   1.413   1.684   2.348  0.5431  1.3461 -1.3541
 2550TIP3    H2 7592   1.321   1.801   2.377 -1.1174 -0.2311 -0.1165
 2551TIP3   OH2 7593   2.070   2.450   4.150 -0.4089 -0.4923 -0.4564
 2551TIP3    H1 7594   2.165   2.456   4.158 -0.4632 -0.2954  0.0205
 2551TIP3    H2 7595   2.050   2.358   4.162 -0.2657 -0.5546 -0.6914
 2552TIP3   OH2 7596   2.576   0.488   1.957  0.1051  0.2224 -0.4738
 2552TIP3    H1 7597   2.638   0.418   1.936  2.6119  2.4598 -0.6906
 2552TIP3    H2 7598   2.533   0.508   1.873 -0.0729 -0.5051 -0.5627
 2553TIP3   OH2 7599   0.678   3.344   4.052 -0.0100  0.0580 -0.6648
 2553TIP3    H1 7600   0.736   3.330   4.126 -3.0839 -0.0051  1.8322
 2553TIP3    H2 7601   0.736   3.344   3.976  3.5519  2.4642  1.8793
 2554TIP3   OH2 7602   0.089   1.198   1.280  0.4469 -0.0279  0.2928
 2554TIP3    H1 7603   0.129   1.263   1.337  0.5931 -0.3633  0.5733
 2554TIP3    H2 7604   0.001   1.185   1.314  0.6031 -0.3800  0.5737
 2555TIP3   OH2 7605   1.377   0.333   4.262 -0.1934  0.1735 -0.1741
 2555TIP3    H1 7606   1.370   0.323   4.168  0.6200 -0.4152 -0.1738
 2555TIP3    H2 7607   1.379   0.427   4.276 -0.6069  0.2663 -0.7154
 2556TIP3   OH2 7608   2.837   1.195   2.903 -0.0014 -0.3533 -0.2080
 2556TIP3    H1 7609   2.836   1.275   2.955 -1.1583 -0.5094  0.0065
 2556TIP3    H2 7610   2.916   1.203   2.849  2.2286 -1.0097  2.8502
 2557TIP3   OH2 7611   1.558   2.351   3.518  0.6947  0.0151 -0.4896
 2557TIP3    H1 7612   1.593   2.405   3.447 -1.0503  2.1417  0.2186
 2557TIP3    H2 7613   1.546   2.411   3.591 -0.0553 -1.6115  0.7606
 2558TIP3   OH2 7614   1.494   1.340   2.368 -0.2713 -0.0485 -0.0008
 2558TIP3    H1 7615   1.561   1.408   2.378  0.7377 -1.1649  1.0045
 2558TIP3    H2 7616   1.474   1.312   2.457 -0.2355 -1.4614 -0.4166
 2559TIP3   OH2 7617   0.105   0.257   2.937 -0.0905  0.5015  0.0697
 2559TIP3    H1 7618   0.053   0.333   2.912 -0.5920  0.0198 -0.3550
 2559TIP3    H2 7619   0.168   0.247   2.866 -1.4723 -0.8264 -0.9945
 2560TIP3   OH2 7620   2.480   1.791   3.306 -0.3306 -0.0821 -0.3913
 2560TIP3    H1 7621   2.408   1.829   3.357 -0.4584  1.0506 -1.3755
 2560TIP3    H2 7622   2.553   1.785   3.367 -0.8405  0.1192  0.2415
 2561TIP3   OH2 7623   1.445   1.493   3.448  0.0039 -0.6003  0.5735
 2561TIP3    H1 7624   1.367   1.455   3.407 -1.4419  1.6496  1.1206
 2561TIP3    H2 7625   1.410   1.552   3.515  2.2381 -1.0958  2.2340
 2562TIP3   OH2 7626   2.516   0.488   2.821  0.2318  0.2511  0.8037
 2562TIP3    H1 7627   2.562   0.421   2.872 -0.3198  0.3577  1.4371
 2562TIP3    H2 7628   2.477   0.440   2.748  1.9980  0.2692 -0.1806
 2563TIP3   OH2 7629   2.911   3.191   6.202  0.5404  0.2091  0.2382
 2563TIP3    H1 7630   2.930   3.244   6.124  2.1693  0.6882  0.9425
 2563TIP3    H2 7631   2.815   3.189   6.206  0.4254  0.1093 -1.8247
 2564TIP3   OH2 7632   1.293   1.057   4.033 -0.0188  0.2312  0.0099
 2564TIP3    H1 7633   1.233   0.988   4.004 -0.9731  1.3062 -0.6174
 2564TIP3    H2 7634   1.255   1.088   4.115  1.1804 -0.9262  1.0339
 2565TIP3   OH2 7635   1.554   1.422   4.157 -0.0749 -0.4503  0.1287
 2565TIP3    H1 7636   1.496   1.482   4.111 -0.4504 -1.9691 -1.4422
 2565TIP3    H2 7637   1.642   1.455   4.139 -0.2842 -0.2682 -0.5850
 2566TIP3   OH2 7638   8.311   7.443   2.544  0.0475  0.1103 -0.4573
 2566TIP3    H1 7639   8.308   7.406   2.456 -1.4459  0.9226 -0.7547
 2566TIP3    H2 7640   8.387   7.401   2.584 -0.1542 -1.4244 -1.6052
 2567TIP3   OH2 7641   5.277   3.607   3.144 -0.1595 -0.3660  0.1219
 2567TIP3    H1 7642   5.322   3.538   3.096  1.1069  1.8651 -1.9970
 2567TIP3    H2 7643   5.226   3.654   3.078 -0.6193  1.0186  1.4298
 2568TIP3   OH2 7644   0.584   1.222   0.899 -0.4794 -0.7631 -0.0105
 2568TIP3    H1 7645   0.586   1.222   0.995 -1.3545  2.0820  0.0301
 2568TIP3    H2 7646   0.637   1.297   0.874 -0.7056 -1.1681 -1.7634
 2569TIP3   OH2 7647   1.508   1.109   3.128  0.1627 -0.2074  0.3521
 2569TIP3    H1 7648   1.443   1.071   3.187 -0.4457  0.9534  0.4388
 2569TIP3    H2 7649   1.592   1.084   3.166 -0.1687 -3.2442 -0.7169
 2570TIP3   OH2 7650   1.870   5.125   5.294  0.9728  0.2307 -0.4847
 2570TIP3    H1 7651   1.878   5.216   5.265  0.2002  0.0752 -1.2087
 2570TIP3    H2 7652   1.932   5.117   5.367  1.8782  1.0265 -1.1504
 2571TIP3   OH2 7653   2.701   1.854   5.488 -0.4286 -0.8343 -0.4326
 2571TIP3    H1 7654   2.636   1.784   5.497 -0.4881 -0.7194  0.0714
 2571TIP3    H2 7655   2.725   1.874   5.579 -0.3255 -0.2825 -0.5867
 2572TIP3   OH2 7656   0.057   8.133   2.903  0.7166  0.0849 -0.0817
 2572TIP3    H1 7657   0.112   8.106   2.976  2.6810 -0.7799 -1.8379
 2572TIP3    H2 7658   0.044   8.053   2.852 -1.0399  0.5739 -0.4516
 2573TIP3   OH2 7659   4.264   1.343   3.727  0.1875  0.1695  0.1457
 2573TIP3    H1 7660   4.265   1.395   3.646  0.3329 -0.7626 -0.4548
 2573TIP3    H2 7661   4.172   1.330   3.746  0.1327  1.3486  0.7621
 2574TIP3   OH2 7662   1.617   1.582   2.416  0.8256 -0.0950 -0.2519
 2574TIP3    H1 7663   1.684   1.647   2.437 -0.1203  0.8093  0.0301
 2574TIP3    H2 7664   1.586   1.551   2.501  1.0634 -0.7119 -0.3831
 2575TIP3   OH2 7665   2.493   4.176   1.624  0.1804  0.2783  0.1001
 2575TIP3    H1 7666   2.453   4.094   1.653 -0.2911  1.3374  2.5582
 2575TIP3    H2 7667   2.586   4.154   1.613 -0.3046 -1.1207 -1.4727
 2576TIP3   OH2 7668   0.485   0.243   2.449  0.4999 -0.3556  0.3647
 2576TIP3    H1 7669   0.399   0.202   2.453  0.6839 -0.6053  1.8817
 2576TIP3    H2 7670   0.481   0.298   2.371 -2.4276  2.7353  2.5363
 2577TIP3   OH2 7671   2.399   3.565   4.129 -0.9325 -0.3284  0.1622
 2577TIP3    H1 7672   2.491   3.540   4.132 -1.5634 -2.6852  1.6650
 2577TIP3    H2 7673   2.364   3.517   4.054 -0.9874  0.3274 -0.2286
 2578TIP3   OH2 7674   2.565   3.821   1.399  0.1337  0.3195  0.3423
 2578TIP3    H1 7675   2.637   3.876   1.369  0.3411 -0.0794  0.1003
 2578TIP3    H2 7676   2.577   3.815   1.494  1.0465 -0.6159  0.1834
 2579TIP3   OH2 7677   1.681   1.363   3.338  0.0699 -1.0406  0.1586
 2579TIP3    H1 7678   1.654   1.272   3.325 -0.0732 -1.1144  0.9451
 2579TIP3    H2 7679   1.600   1.413   3.338  0.1369 -0.9270 -0.1119
 2580TIP3   OH2 7680   1.422   1.855   4.235  0.3814  0.4584  0.0179
 2580TIP3    H1 7681   1.355   1.807   4.284 -1.9106  1.6346 -1.8863
 2580TIP3    H2 7682   1.426   1.811   4.150 -0.3629  2.4258 -1.0507
 2581TIP3   OH2 7683   2.146   2.993   2.029  0.0368  0.1271  0.6187
 2581TIP3    H1 7684   2.132   2.971   2.121 -1.8320 -0.6648  0.1598
 2581TIP3    H2 7685   2.110   2.919   1.980 -1.6062  1.8219 -0.8096
 2582TIP3   OH2 7686   0.272   1.818   6.095 -0.2623  0.2139  0.2620
 2582TIP3    H1 7687   0.203   1.797   6.157 -1.0146  0.8430 -0.3535
 2582TIP3    H2 7688   0.304   1.904   6.123 -1.3417  0.9972 -0.8487
 2583TIP3   OH2 7689   2.044   0.643   2.428  0.5900  0.0099  0.1128
 2583TIP3    H1 7690   1.949   0.633   2.414  0.7214 -4.4310  1.6528
 2583TIP3    H2 7691   2.053   0.654   2.523  1.6669  0.2252 -0.0078
 2584TIP3   OH2 7692   2.119   1.412   3.102  0.1297 -0.0294  0.8114
 2584TIP3    H1 7693   2.082   1.450   3.182 -0.5470 -1.0112  0.9695
 2584TIP3    H2 7694   2.051   1.354   3.069  1.1077 -1.0100  0.4874
 2585TIP3   OH2 7695   7.226   6.182   6.976 -0.5795 -0.1705  0.1396
 2585TIP3    H1 7696   7.176   6.263   6.978  0.1772  0.2891  0.5726
 2585TIP3    H2 7697   7.301   6.201   6.920  0.1090 -0.2589  1.0150
 2586TIP3   OH2 7698   3.132   3.313   4.620 -0.5043  0.1935  0.1569
 2586TIP3    H1 7699   3.215   3.267   4.628  0.6496  1.9343 -1.5662
 2586TIP3    H2 7700   3.070   3.246   4.590  0.3319 -1.0127  1.0755
 2587TIP3   OH2 7701   0.308  -0.017   4.281  0.1649  0.3949 -0.4169
 2587TIP3    H1 7702   0.401  -0.009   4.305  0.1893  0.0162 -0.3671
 2587TIP3    H2 7703   0.262   0.037   4.345  0.2627 -0.2982  0.2560
 2588TIP3   OH2 7704   8.438   3.229   6.344 -0.2547  0.0804  0.8528
 2588TIP3    H1 7705   8.346   3.220   6.322  0.0803 -1.8370  0.1355
 2588TIP3    H2 7706   8.458   3.321   6.329 -2.2422  0.6897  1.8154
 2589TIP3   OH2 7707   3.418   1.647   5.395  0.0293  0.1749  0.2901
 2589TIP3    H1 7708   3.482   1.597   5.344  1.4352  1.6971  0.4977
 2589TIP3    H2 7709   3.462   1.663   5.479  0.1462  2.8218 -0.2375
 2590TIP3   OH2 7710   4.073   0.484   3.930  0.3075 -0.0209  0.2045
 2590TIP3    H1 7711   3.986   0.522   3.941 -0.4135 -1.3389 -0.7132
 2590TIP3    H2 7712   4.098   0.505   3.840  0.5795 -0.3437  0.2017
 2591TIP3   OH2 7713   1.256   0.570   5.823 -0.2874  0.4626  0.7755
 2591TIP3    H1 7714   1.281   0.646   5.770  1.6236 -1.0858 -0.6198
 2591TIP3    H2 7715   1.334   0.515   5.823 -2.6354 -3.0304 -0.9720
 2592TIP3   OH2 7716   0.176   1.075   1.028  0.2373 -0.0105  0.3064
 2592TIP3    H1 7717   0.111   1.105   1.091 -0.4340  0.8161 -0.7615
 2592TIP3    H2 7718   0.259   1.107   1.063 -0.1913  0.9007  0.5051
 2593TIP3   OH2 7719   0.990   3.959   6.459 -0.4463  0.0629  0.3959
 2593TIP3    H1 7720   0.910   3.921   6.495 -0.6535  0.0080 -0.1281
 2593TIP3    H2 7721   1.054   3.888   6.463 -0.2186  0.3154  1.4807
 2594TIP3   OH2 7722   3.527   0.696   3.357 -0.1937  0.2048 -0.0737
 2594TIP3    H1 7723   3.453   0.751   3.384  0.0267  0.8550 -0.7781
 2594TIP3    H2 7724   3.603   0.753   3.366  0.1892 -0.3652  0.3469
 2595TIP3   OH2 7725   3.347   1.485   4.712  0.0121  0.0850  0.0919
 2595TIP3    H1 7726   3.270   1.482   4.769 -1.7661 -1.7546 -2.2908
 2595TIP3    H2 7727   3.363   1.579   4.698  0.2574  0.5461  3.2520
 2596TIP3   OH2 7728   1.923   4.585   4.604  0.4155 -0.0212  0.3166
 2596TIP3    H1 7729   1.888   4.513   4.658 -0.2470 -0.3290 -0.5001
 2596TIP3    H2 7730   2.005   4.609   4.646  1.4086 -2.2716 -0.2082
 2597TIP3   OH2 7731   1.318   2.182   4.888  0.5137 -0.4564  0.0346
 2597TIP3    H1 7732   1.310   2.130   4.808  1.0988 -1.4673  0.6179
 2597TIP3    H2 7733   1.298   2.271   4.861 -0.4049 -0.9695 -1.0046
 2598TIP3   OH2 7734   1.376   2.103   4.352  0.3168 -0.8088  0.1332
 2598TIP3    H1 7735   1.430   2.159   4.296  1.3263  0.1049  1.9963
 2598TIP3    H2 7736   1.400   2.014   4.326  2.0862 -0.4130  0.3082
 2599TIP3   OH2 7737   0.203   0.915   3.358  0.4526 -0.2786  0.0663
 2599TIP3    H1 7738   0.207   0.986   3.423 -1.2798  0.3147 -0.4430
 2599TIP3    H2 7739   0.132   0.859   3.389 -0.9408  0.4559 -1.7617
 2600TIP3   OH2 7740   1.757   0.811   5.388  0.1048 -0.1771 -0.5517
 2600TIP3    H1 7741   1.810   0.781   5.314 -1.3820  1.6701 -2.4293
 2600TIP3    H2 7742   1.690   0.866   5.349 -1.9537 -0.7485  1.9793
 2601TIP3   OH2 7743   0.855   4.401   6.940  0.1049  0.2122 -0.5633
 2601TIP3    H1 7744   0.946   4.373   6.931  0.3894  0.4856  1.2146
 2601TIP3    H2 7745   0.808   4.356   6.869  1.7612  0.7382 -2.0120
 2602TIP3   OH2 7746   0.901   3.641   4.332  0.4283 -0.0674 -0.1522
 2602TIP3    H1 7747   0.816   3.596   4.330 -0.2498  1.2216 -0.6213
 2602TIP3    H2 7748   0.893   3.711   4.267  1.2028  1.2452  1.1456
 2603TIP3   OH2 7749   1.535   3.832   1.972  0.7264  0.0120  0.2373
 2603TIP3    H1 7750   1.508   3.820   1.881  0.2471  5.3689 -0.5107
 2603TIP3    H2 7751   1.631   3.832   1.969  0.7280 -1.2715  0.0053
 2604TIP3   OH2 7752   4.474   3.351   3.126  0.4005 -0.2272 -0.5661
 2604TIP3    H1 7753   4.541   3.409   3.161  0.5920  0.4272 -1.9981
 2604TIP3    H2 7754   4.517   3.303   3.055 -0.3052 -0.6802 -0.6987
 2605TIP3   OH2 7755   3.128   2.601   3.613  0.3127  0.3212  0.3806
 2605TIP3    H1 7756   3.067   2.589   3.686  0.1631 -0.4640  0.1322
 2605TIP3    H2 7757   3.202   2.543   3.634  0.1000 -0.1954 -0.2655
 2606TIP3   OH2 7758   1.428   1.220   2.613  0.3084 -0.1229 -0.4024
 2606TIP3    H1 7759   1.475   1.156   2.666  1.3379  0.2169 -0.8743
 2606TIP3    H2 7760   1.336   1.201   2.627  0.5646 -0.2435  1.2589
 2607TIP3   OH2 7761   3.225   1.854   2.241  0.0109 -0.1310  0.0026
 2607TIP3    H1 7762   3.313   1.832   2.214 -0.5572 -0.7959 -1.3207
 2607TIP3    H2 7763   3.199   1.784   2.301  0.0975 -0.3329 -0.1991
 2608TIP3   OH2 7764   3.886   1.179   0.547 -0.2204  0.4018 -0.2647
 2608TIP3    H1 7765   3.847   1.149   0.465  0.6315 -2.1334  0.2152
 2608TIP3    H2 7766   3.828   1.249   0.577 -0.9335  0.8900 -2.6470
 2609TIP3   OH2 7767   3.764   1.917   3.387  0.6225  0.0448  0.1457
 2609TIP3    H1 7768   3.705   1.918   3.312 -0.6882 -1.1507  1.1408
 2609TIP3    H2 7769   3.828   1.986   3.368  0.5264 -0.4629 -2.2273
 2610TIP3   OH2 7770   3.632   3.052   0.530 -0.2322  0.2971  0.0746
 2610TIP3    H1 7771   3.706   3.100   0.568 -0.1680 -0.6217  1.1412
 2610TIP3    H2 7772   3.673   2.994   0.465 -0.0647  0.1272  0.3298
 2611TIP3   OH2 7773   6.400   7.862   2.464 -0.6551 -0.1399 -0.5944
 2611TIP3    H1 7774   6.457   7.818   2.526 -0.5094 -0.2082 -0.7774
 2611TIP3    H2 7775   6.317   7.872   2.511 -0.6227 -0.4105 -0.4769
 2612TIP3   OH2 7776   1.977   0.731   0.959 -0.3463  0.2097  0.0716
 2612TIP3    H1 7777   2.052   0.776   0.998 -1.6708  1.8706  0.7456
 2612TIP3    H2 7778   1.969   0.650   1.009  2.2771 -1.0305 -1.3920
 2613TIP3   OH2 7779   2.003   1.829   3.602 -0.1407  0.2866  0.4989
 2613TIP3    H1 7780   2.070   1.770   3.567 -0.7933 -0.8640  1.1442
 2613TIP3    H2 7781   2.030   1.845   3.693  0.0094  0.9557  0.3421
 2614TIP3   OH2 7782   4.360   0.518   2.942  0.3985 -0.2403 -0.1649
 2614TIP3    H1 7783   4.439   0.463   2.946  0.4672 -0.0923  0.7825
 2614TIP3    H2 7784   4.289   0.457   2.922  0.0716 -1.1568  3.3559
 2615TIP3   OH2 7785   4.143   1.487   1.735  0.2833  0.5203  0.5454
 2615TIP3    H1 7786   4.232   1.512   1.761  0.9407 -1.5890  0.4509
 2615TIP3    H2 7787   4.153   1.398   1.700 -1.7387  0.5950 -0.2647
 2616TIP3   OH2 7788   2.674   0.440   4.122 -0.1029 -0.6385 -0.1864
 2616TIP3    H1 7789   2.719   0.357   4.143 -1.1499 -1.6218 -1.7848
 2616TIP3    H2 7790   2.696   0.457   4.031  0.5546  1.1522  0.3003
 2617TIP3   OH2 7791   2.779   0.313   1.813 -0.0486 -0.3186 -0.5872
 2617TIP3    H1 7792   2.841   0.318   1.741 -1.0397  1.0338 -1.3792
 2617TIP3    H2 7793   2.714   0.249   1.785 -0.4271  0.1982 -0.9089
 2618TIP3   OH2 7794   2.181   3.007   3.750  0.4448 -0.0922  0.3269
 2618TIP3    H1 7795   2.154   2.928   3.703 -0.1629  0.3145 -0.0074
 2618TIP3    H2 7796   2.215   3.065   3.683  0.5010  0.1027  0.5223
 2619TIP3   OH2 7797   3.242   2.474   2.845 -0.4190 -0.4661 -0.1233
 2619TIP3    H1 7798   3.335   2.463   2.828 -0.2522 -0.3921  0.7585
 2619TIP3    H2 7799   3.237   2.513   2.932 -1.1838  1.4664 -0.9951
 2620TIP3   OH2 7800   2.046   2.263   5.000 -0.3069 -0.4509 -0.0763
 2620TIP3    H1 7801   2.102   2.186   4.998 -0.5487 -0.6605  0.9622
 2620TIP3    H2 7802   2.104   2.335   5.027 -0.0153 -0.2062 -1.3365
 2621TIP3   OH2 7803   0.336   5.613   2.808  0.1254  0.1675  0.2314
 2621TIP3    H1 7804   0.336   5.565   2.891  2.0710 -0.3963 -0.0652
 2621TIP3    H2 7805   0.258   5.668   2.811 -0.5928 -0.9305  1.8100
 2622TIP3   OH2 7806   1.913   0.186   2.934  0.6367  0.1917 -0.4566
 2622TIP3    H1 7807   1.824   0.215   2.914  1.2165  1.5679 -1.0686
 2622TIP3    H2 7808   1.911   0.164   3.027 -0.0742  1.2070 -0.2347
 2623TIP3   OH2 7809   0.936   0.451   1.317 -0.1530 -0.6153 -0.3848
 2623TIP3    H1 7810   0.897   0.501   1.245 -0.5002  1.8935  1.4683
 2623TIP3    H2 7811   0.866   0.393   1.348 -0.4341 -0.6821 -1.1560
 2624TIP3   OH2 7812   5.491   4.928   0.136  0.0011 -0.6401 -0.2181
 2624TIP3    H1 7813   5.433   4.873   0.189  0.9766  1.5175  3.2702
 2624TIP3    H2 7814   5.449   5.014   0.137  1.3932  0.0570 -0.7122
 2625TIP3   OH2 7815   3.404   0.655   2.253  0.1649  0.4040 -0.0927
 2625TIP3    H1 7816   3.466   0.671   2.182 -0.5816 -0.4901 -0.9666
 2625TIP3    H2 7817   3.330   0.713   2.235  0.7588  1.5068  0.9748
 2626TIP3   OH2 7818   4.565   2.531   3.356  0.3166  0.1547 -0.2823
 2626TIP3    H1 7819   4.505   2.599   3.385 -1.1184 -1.4852  0.7280
 2626TIP3    H2 7820   4.652   2.570   3.363 -0.5716  2.4082 -1.2951
 2627TIP3   OH2 7821   6.762   6.492   3.394 -0.4547 -0.0578 -0.1983
 2627TIP3    H1 7822   6.668   6.471   3.389 -0.4297 -0.3103  0.4212
 2627TIP3    H2 7823   6.795   6.438   3.466  0.1626  0.0538 -0.3967
 2628TIP3   OH2 7824   3.433   2.051   3.333 -0.1456  0.2366 -0.4093
 2628TIP3    H1 7825   3.480   2.127   3.369  0.8260  0.0614 -1.2950
 2628TIP3    H2 7826   3.359   2.040   3.392 -0.2347  1.8023 -0.1892
 2629TIP3   OH2 7827   0.503   3.547   3.944 -0.3336 -0.3984 -0.3546
 2629TIP3    H1 7828   0.530   3.456   3.950 -1.0641 -0.6771 -1.1280
 2629TIP3    H2 7829   0.569   3.588   3.887  0.9662 -0.0314  1.3719
 2630TIP3   OH2 7830   1.428   1.009   3.738 -0.2532  0.1402  0.6521
 2630TIP3    H1 7831   1.461   1.012   3.828 -1.5634 -0.3704  1.1621
 2630TIP3    H2 7832   1.358   0.944   3.740 -0.1878 -0.0039 -0.7828
 2631TIP3   OH2 7833   2.112   3.557   2.480  0.4861 -0.4385 -0.2717
 2631TIP3    H1 7834   2.186   3.525   2.532  1.3585 -0.6772 -1.6140
 2631TIP3    H2 7835   2.150   3.627   2.427 -1.1827  2.2701  1.9801
 2632TIP3   OH2 7836   1.275   0.773   4.373 -0.8667  0.3079 -0.2301
 2632TIP3    H1 7837   1.191   0.819   4.376 -0.4237  1.0109  2.7871
 2632TIP3    H2 7838   1.334   0.829   4.423  0.9007 -1.2209 -0.5740
 2633TIP3   OH2 7839   1.047   3.077   3.889 -0.0034  0.4110  0.1638
 2633TIP3    H1 7840   1.094   3.093   3.970  3.0148  0.0797 -1.4551
 2633TIP3    H2 7841   1.075   2.990   3.861 -1.6380  0.1724 -0.8278
 2634TIP3   OH2 7842   3.751   1.272   2.802 -0.1417 -0.4591 -0.6158
 2634TIP3    H1 7843   3.837   1.249   2.837 -0.3004 -0.0872  0.0227
 2634TIP3    H2 7844   3.739   1.213   2.727  1.5635  0.8736 -1.9791
 2635TIP3   OH2 7845   2.897   3.342   5.515 -0.2310 -0.0011  0.7108
 2635TIP3    H1 7846   2.932   3.281   5.580 -0.4429 -1.0843 -0.1628
 2635TIP3    H2 7847   2.972   3.362   5.458 -0.6504 -1.1587 -0.2809
 2636TIP3   OH2 7848   2.724   2.343   3.763  0.1034  0.3188  0.4793
 2636TIP3    H1 7849   2.720   2.411   3.830 -0.4595  0.2647  0.5084
 2636TIP3    H2 7850   2.718   2.391   3.680 -1.1037  0.2644  0.5153
 2637TIP3   OH2 7851   3.684   2.740   3.685  0.3339 -0.2075 -0.7240
 2637TIP3    H1 7852   3.605   2.771   3.729 -0.7308 -1.7513 -1.4902
 2637TIP3    H2 7853   3.702   2.806   3.618 -0.0626  0.3659 -0.2670
 2638TIP3   OH2 7854   4.040   3.084   4.446  0.2528 -0.3006  0.2657
 2638TIP3    H1 7855   3.988   3.053   4.520  1.0685 -0.6193  0.7067
 2638TIP3    H2 7856   3.980   3.140   4.396 -0.5563 -0.7891  0.6865
 2639TIP3   OH2 7857   3.687   3.792   3.225 -0.3164  0.0725  0.0228
 2639TIP3    H1 7858   3.706   3.876   3.183 -0.8236 -0.1707 -0.7067
 2639TIP3    H2 7859   3.652   3.816   3.311  1.2427  0.5593  0.5368
 2640TIP3   OH2 7860   1.176   2.382   2.775  0.2340  0.2458 -0.6612
 2640TIP3    H1 7861   1.262   2.370   2.815 -0.4455 -0.6402  0.5621
 2640TIP3    H2 7862   1.145   2.293   2.756 -0.9505  0.4881  0.0730
 2641TIP3   OH2 7863   3.234   3.827   4.067 -0.1380  0.1496  0.2711
 2641TIP3    H1 7864   3.260   3.736   4.054 -0.1492  0.1041  0.5613
 2641TIP3    H2 7865   3.201   3.830   4.157  1.1541  0.7470  0.7312
 2642TIP3   OH2 7866   3.400   2.432   2.314  0.1071  0.1685  0.4135
 2642TIP3    H1 7867   3.472   2.468   2.366  0.6006 -1.1237  0.6498
 2642TIP3    H2 7868   3.353   2.509   2.282  1.6402  1.0380  0.1874
 2643TIP3   OH2 7869   1.147   0.583   4.038  0.3906  0.6453 -0.0880
 2643TIP3    H1 7870   1.165   0.584   4.132  0.2811  0.2541 -0.0593
 2643TIP3    H2 7871   1.055   0.605   4.031 -0.1216 -1.3331  0.0427
 2644TIP3   OH2 7872   4.976   1.487   5.061  0.0128  0.2774  0.0938
 2644TIP3    H1 7873   5.016   1.447   4.984  0.2794 -1.3283  1.0356
 2644TIP3    H2 7874   4.979   1.418   5.127 -2.3488  0.8417  0.8291
 2645TIP3   OH2 7875   4.436   0.341   2.165  0.8090  0.0842 -0.2017
 2645TIP3    H1 7876   4.449   0.430   2.197 -0.4214  0.3141 -0.2972
 2645TIP3    H2 7877   4.421   0.352   2.071  0.1670 -0.1682 -0.1306
 2646TIP3   OH2 7878   0.759   0.132   3.665 -0.2275  0.1655  0.2579
 2646TIP3    H1 7879   0.671   0.097   3.682 -0.4130  0.8029  0.6298
 2646TIP3    H2 7880   0.807   0.116   3.747 -0.1778  0.3795  0.2686
 2647TIP3   OH2 7881   1.661   2.455   3.814  0.1849 -0.5462 -0.4563
 2647TIP3    H1 7882   1.719   2.406   3.756 -0.5939 -1.4147 -0.5165
 2647TIP3    H2 7883   1.714   2.474   3.892  0.7954 -0.6084 -0.8602
 2648TIP3   OH2 7884   2.648   3.019   3.137  0.4348  0.1218 -0.1294
 2648TIP3    H1 7885   2.647   3.052   3.227  0.2035 -0.9917  0.2845
 2648TIP3    H2 7886   2.668   3.096   3.084 -0.0071  0.9132  0.8229
 2649TIP3   OH2 7887   0.057   6.991   2.043  0.4019  0.5769 -0.4132
 2649TIP3    H1 7888   0.067   7.072   2.094 -0.5949  1.6946 -1.9324
 2649TIP3    H2 7889   0.146   6.960   2.030  1.1199  3.3141 -2.6894
 2650TIP3   OH2 7890   8.595   0.583   1.846 -0.8674 -0.2593 -0.1242
 2650TIP3    H1 7891   8.561   0.570   1.757 -1.0294 -1.4608  0.1077
 2650TIP3    H2 7892   8.628   0.497   1.872  0.4750  0.4139  0.4394
 2651TIP3   OH2 7893   0.530   1.413   4.497 -0.4132 -0.1060  0.5986
 2651TIP3    H1 7894   0.528   1.397   4.402 -2.2085  0.8977  0.4468
 2651TIP3    H2 7895   0.509   1.329   4.536 -0.1147 -0.4194  0.0956
 2652TIP3   OH2 7896   8.067   1.338   2.370 -0.1054 -0.0446 -0.2555
 2652TIP3    H1 7897   8.033   1.279   2.303 -0.3134  1.6482 -1.7011
 2652TIP3    H2 7898   8.000   1.337   2.439 -1.3295  0.4065 -1.4023
 2653TIP3   OH2 7899   0.417   1.211   3.319 -0.3352 -0.1145 -0.1253
 2653TIP3    H1 7900   0.370   1.252   3.392  0.0672 -0.3630  0.2819
 2653TIP3    H2 7901   0.439   1.124   3.352 -0.4084 -0.3335 -0.6575
 2654TIP3   OH2 7902   3.086   2.699   4.165  0.1600 -0.2570 -0.3399
 2654TIP3    H1 7903   3.093   2.636   4.093 -0.1502 -1.2930  0.5308
 2654TIP3    H2 7904   3.076   2.784   4.121 -0.6625 -0.9482 -1.5305
 2655TIP3   OH2 7905   2.485   0.355   3.734 -0.2714  0.0561 -0.5756
 2655TIP3    H1 7906   2.565   0.342   3.785 -1.1218 -0.8689  0.5625
 2655TIP3    H2 7907   2.474   0.272   3.687 -0.9387 -0.1032 -0.1543
 2656TIP3   OH2 7908   2.304   2.040   4.952 -0.1598 -0.3835 -0.3187
 2656TIP3    H1 7909   2.307   2.085   4.868  0.0256  2.2862  1.0602
 2656TIP3    H2 7910   2.387   2.063   4.994 -0.8496 -0.5444  1.1552
 2657TIP3   OH2 7911   2.725   2.486   3.525  0.1206 -0.2115 -0.0602
 2657TIP3    H1 7912   2.684   2.571   3.506  1.6263  0.9498  1.6887
 2657TIP3    H2 7913   2.809   2.489   3.480 -0.4409 -1.4001 -1.2157
 2658TIP3   OH2 7914   3.090   3.153   5.349 -0.0076 -0.8409  0.2498
 2658TIP3    H1 7915   3.009   3.171   5.301  0.3206  1.5174  0.5100
 2658TIP3    H2 7916   3.127   3.239   5.366  1.7085 -1.8182  1.6246
 2659TIP3   OH2 7917   6.308   2.294   2.405  0.1406  0.0153  0.0940
 2659TIP3    H1 7918   6.265   2.267   2.486  0.4112  0.1125  0.2661
 2659TIP3    H2 7919   6.307   2.390   2.407  0.1881  0.0181  0.0018
 2660TIP3   OH2 7920   2.600   3.750   3.706  0.5711  0.2531 -0.1099
 2660TIP3    H1 7921   2.615   3.833   3.661 -0.3798  0.3181 -0.3223
 2660TIP3    H2 7922   2.583   3.688   3.636 -0.0903  0.1784  0.1145
 2661TIP3   OH2 7923   4.513   1.638   1.735 -0.0728  0.5055 -0.7035
 2661TIP3    H1 7924   4.589   1.649   1.792  0.2307 -0.5519 -0.8875
 2661TIP3    H2 7925   4.445   1.692   1.775  0.6959  1.2620 -0.3948
 2662TIP3   OH2 7926   5.045   2.099   2.545 -0.2238 -0.4036 -0.0672
 2662TIP3    H1 7927   4.953   2.090   2.519 -0.3744  1.5850 -0.3091
 2662TIP3    H2 7928   5.046   2.177   2.600  1.3823 -0.2381 -0.3217
 2663TIP3   OH2 7929   4.751   2.779   3.383 -0.0879  0.0162 -0.0199
 2663TIP3    H1 7930   4.701   2.801   3.462 -2.2273 -0.5866 -1.1738
 2663TIP3    H2 7931   4.756   2.862   3.335 -1.0095 -0.1788 -0.4593
 2664TIP3   OH2 7932   3.820   1.223   1.361 -0.3436 -0.0449 -0.0034
 2664TIP3    H1 7933   3.789   1.307   1.395  0.5528 -0.0851  0.9086
 2664TIP3    H2 7934   3.869   1.246   1.281 -1.6256  0.1284 -0.7558
 2665TIP3   OH2 7935   2.301   1.252   4.511 -0.2432  0.6869 -0.5308
 2665TIP3    H1 7936   2.247   1.310   4.457  0.7145  1.2339 -0.9066
 2665TIP3    H2 7937   2.354   1.311   4.564  1.2060  0.1623 -1.3913
 2666TIP3   OH2 7938   3.432   3.232   3.304 -0.1003 -0.4823  0.1422
 2666TIP3    H1 7939   3.351   3.227   3.255  0.7442 -0.9246 -1.2327
 2666TIP3    H2 7940   3.453   3.141   3.325  0.9465 -0.5400 -1.0537
 2667TIP3   OH2 7941   2.979   1.775   5.285 -0.2604  0.3618 -0.8487
 2667TIP3    H1 7942   2.897   1.758   5.239  0.7453 -2.2649 -1.7633
 2667TIP3    H2 7943   2.957   1.767   5.377 -1.0488 -0.2013 -1.0833
 2668TIP3   OH2 7944   1.625   7.216   2.193  0.1396  0.7513 -0.5924
 2668TIP3    H1 7945   1.664   7.294   2.232 -0.0896  0.9762 -0.8129
 2668TIP3    H2 7946   1.633   7.149   2.261  0.3402  0.9640 -0.4047
 2669TIP3   OH2 7947   3.285   0.691   2.969 -0.0647  0.4558  0.0527
 2669TIP3    H1 7948   3.366   0.703   2.920 -0.3768  1.0366 -0.3309
 2669TIP3    H2 7949   3.222   0.750   2.927 -0.3654  0.8847  1.0908
 2670TIP3   OH2 7950   7.768   8.102   2.041 -0.2969  0.0431  0.6628
 2670TIP3    H1 7951   7.791   8.011   2.060 -1.3954 -0.7803 -1.7808
 2670TIP3    H2 7952   7.676   8.098   2.015 -0.5774  1.9790  1.2586
 2671TIP3   OH2 7953   7.171   2.340   2.869  0.1262  0.0281 -0.1721
 2671TIP3    H1 7954   7.111   2.345   2.795  0.9056 -1.6569 -0.9588
 2671TIP3    H2 7955   7.238   2.406   2.850  1.0772 -1.3211 -1.7162
 2672TIP3   OH2 7956   3.997   2.652   3.116 -0.2414  0.3741  0.3555
 2672TIP3    H1 7957   4.070   2.710   3.137 -0.0611  0.4355 -0.4250
 2672TIP3    H2 7958   4.013   2.573   3.167  0.3952  0.3702  0.1456
 2673TIP3   OH2 7959   4.326   0.062   2.231 -1.2548 -0.2822  0.6059
 2673TIP3    H1 7960   4.309   0.034   2.141 -3.7943 -0.7919  1.2033
 2673TIP3    H2 7961   4.368   0.148   2.221 -0.0919 -0.9946 -1.0637
 2674TIP3   OH2 7962   4.239   2.042   4.103  0.6137  0.9351 -0.2478
 2674TIP3    H1 7963   4.183   2.046   4.181  0.8932  2.4361 -0.1077
 2674TIP3    H2 7964   4.201   1.971   4.050  0.1155  0.2439  1.0109
 2675TIP3   OH2 7965   2.388   1.312   3.509 -0.4860 -0.6897 -0.4557
 2675TIP3    H1 7966   2.469   1.260   3.511 -0.3154 -0.4566 -1.3589
 2675TIP3    H2 7967   2.371   1.333   3.601 -1.3643 -3.6014  0.1166
 2676TIP3   OH2 7968   3.659   3.059   3.973 -0.0121 -0.6113 -0.5339
 2676TIP3    H1 7969   3.741   3.009   3.967  0.2479 -0.6294  2.6456
 2676TIP3    H2 7970   3.600   3.003   4.024 -0.7616  1.0033  0.4188
 2677TIP3   OH2 7971   3.768   2.699   3.238 -0.4444 -0.2056 -0.1007
 2677TIP3    H1 7972   3.740   2.773   3.183 -0.4969 -0.3800 -0.3104
 2677TIP3    H2 7973   3.841   2.661   3.190 -1.0674 -0.9109 -0.5025
 2678TIP3   OH2 7974   2.952   2.661   1.832  0.4147 -0.3941 -0.1049
 2678TIP3    H1 7975   2.858   2.668   1.845  0.5374 -1.9324  1.8475
 2678TIP3    H2 7976   2.970   2.567   1.840  2.2028 -0.0436  0.1495
 2679TIP3   OH2 7977   3.770   2.111   3.821 -0.3426 -0.0380 -0.1830
 2679TIP3    H1 7978   3.865   2.101   3.815 -0.1192  2.0271 -0.6971
 2679TIP3    H2 7979   3.736   2.022   3.826  1.8077 -0.7605  3.2529
 2680TIP3   OH2 7980   3.708   1.185   4.269  0.2237  0.3415  0.1513
 2680TIP3    H1 7981   3.785   1.215   4.220  0.7655  0.7259  1.2316
 2680TIP3    H2 7982   3.660   1.131   4.206  0.8308  0.9561 -0.8578
 2681TIP3   OH2 7983   4.571   3.313   3.755 -0.4267  0.1920 -0.7393
 2681TIP3    H1 7984   4.638   3.374   3.785 -0.6479  0.8140 -1.4963
 2681TIP3    H2 7985   4.545   3.264   3.833  1.8861 -1.0113 -0.6990
 2682TIP3   OH2 7986   4.461   3.169   3.344  0.1658 -0.0429 -0.1087
 2682TIP3    H1 7987   4.466   3.243   3.283 -0.9839  1.0234  1.0546
 2682TIP3    H2 7988   4.371   3.139   3.337 -0.0661  0.2897  1.2776
 2683TIP3   OH2 7989   4.830   0.934   4.932  0.4882 -0.1215 -0.1799
 2683TIP3    H1 7990   4.881   0.869   4.981 -0.2972 -1.2631 -0.8462
 2683TIP3    H2 7991   4.784   0.984   4.999  1.2729 -0.0896  0.3509
 2684TIP3   OH2 7992   3.001   1.415   2.391  0.7997 -0.2559  0.2637
 2684TIP3    H1 7993   3.075   1.353   2.389  0.9229 -0.1117  0.3489
 2684TIP3    H2 7994   2.949   1.388   2.467  0.6222 -0.5223  0.0489
 2685TIP3   OH2 7995   4.758   2.634   1.099 -0.1880 -0.0010 -0.1447
 2685TIP3    H1 7996   4.844   2.645   1.058  0.2972 -0.3398  0.7808
 2685TIP3    H2 7997   4.767   2.557   1.155 -1.0249  0.1098  0.1565
 2686TIP3   OH2 7998   3.619   0.476   2.270  0.0175 -0.5017 -0.2521
 2686TIP3    H1 7999   3.622   0.564   2.306  0.3675 -0.5079 -0.2612
 2686TIP3    H2 8000   3.566   0.483   2.191  0.8236 -0.1170 -0.7622
 2687TIP3   OH2 8001   3.742   1.102   2.585  0.0775  0.0914 -0.6029
 2687TIP3    H1 8002   3.672   1.072   2.526 -0.8302 -0.4775  0.7314
 2687TIP3    H2 8003   3.746   1.034   2.652  0.6123  1.0897  0.3748
 2688TIP3   OH2 8004   8.221   8.076   1.178  0.0924 -0.6437  0.6086
 2688TIP3    H1 8005   8.246   8.118   1.261 -0.0747  1.7566 -0.5034
 2688TIP3    H2 8006   8.220   7.983   1.198  1.5761 -0.2246  2.9175
 2689TIP3   OH2 8007   3.078   1.840   1.851  0.3032  0.0470 -0.2177
 2689TIP3    H1 8008   3.052   1.775   1.916 -1.1829  0.2972 -0.5567
 2689TIP3    H2 8009   3.142   1.794   1.796 -0.4568 -1.0153 -0.2193
 2690TIP3   OH2 8010   5.910   2.713   4.029 -0.0194  0.1704  0.0052
 2690TIP3    H1 8011   5.849   2.652   4.071  2.2370 -1.8714  0.3892
 2690TIP3    H2 8012   5.929   2.779   4.096  1.1006 -1.2992  1.1538
 2691TIP3   OH2 8013   3.093   0.320   1.235 -0.0026 -0.7696  0.4417
 2691TIP3    H1 8014   3.152   0.367   1.294  0.0277 -1.0919  0.6696
 2691TIP3    H2 8015   3.147   0.297   1.160 -0.2309  0.3235 -0.0709
 2692TIP3   OH2 8016   5.470   3.366   5.165  0.0765 -0.4998  0.1979
 2692TIP3    H1 8017   5.428   3.415   5.235  0.8459 -1.8894  1.6636
 2692TIP3    H2 8018   5.543   3.422   5.137 -0.1082 -0.0297  0.6481
 2693TIP3   OH2 8019   1.327   2.650   0.950  0.2138 -0.4852  0.0593
 2693TIP3    H1 8020   1.270   2.579   0.922  0.9419 -1.1861  0.3633
 2693TIP3    H2 8021   1.269   2.708   1.001 -0.2585 -1.1279  0.2595
 2694TIP3   OH2 8022   6.462   3.940   4.197 -0.0039  0.2048 -0.3210
 2694TIP3    H1 8023   6.373   3.917   4.225  0.2696 -0.0371  0.3590
 2694TIP3    H2 8024   6.499   3.857   4.166  0.1402  0.2144 -0.1750
 2695TIP3   OH2 8025   4.377   1.837   0.047  0.0782 -0.1430  0.7974
 2695TIP3    H1 8026   4.360   1.929   0.027  0.3516 -0.3459 -0.3622
 2695TIP3    H2 8027   4.303   1.811   0.103  0.3453  0.9507  1.6847
 2696TIP3   OH2 8028   4.479   3.697   3.804 -0.2042  0.7204 -0.0030
 2696TIP3    H1 8029   4.428   3.707   3.723  0.9475 -0.6244 -0.9341
 2696TIP3    H2 8030   4.415   3.674   3.870 -0.9226 -0.0831 -0.9638
 2697TIP3   OH2 8031   4.783   3.138   3.580 -0.1685  0.0760  0.2571
 2697TIP3    H1 8032   4.801   3.142   3.674  1.2002 -1.2163  0.0861
 2697TIP3    H2 8033   4.815   3.221   3.545  0.6023 -0.0016  0.7591
 2698TIP3   OH2 8034   6.182   2.222   3.068 -0.1932 -0.0310  0.0788
 2698TIP3    H1 8035   6.175   2.154   3.135 -1.2913  0.5374  0.5548
 2698TIP3    H2 8036   6.192   2.303   3.117  0.1465  0.2636 -0.4721
 2699TIP3   OH2 8037   4.943   1.638   5.715 -0.0654  0.3994  0.4493
 2699TIP3    H1 8038   4.877   1.575   5.746 -1.4012  1.5043 -0.0705
 2699TIP3    H2 8039   5.026   1.604   5.748 -0.6772 -1.9668 -0.3416
 2700TIP3   OH2 8040   2.667   2.894   0.510  0.5125 -0.9743 -0.2723
 2700TIP3    H1 8041   2.697   2.919   0.423 -0.7422 -0.8524 -0.6812
 2700TIP3    H2 8042   2.607   2.821   0.494 -1.2308  0.3077  0.3081
 2701TIP3   OH2 8043   3.645   0.015   3.479 -0.3472  0.6121  0.5585
 2701TIP3    H1 8044   3.598  -0.029   3.408 -1.8839  1.0229  1.2956
 2701TIP3    H2 8045   3.602   0.100   3.486  0.7216  1.1158  1.0503
 2702TIP3   OH2 8046   2.969   3.185   2.863  0.5721  0.3324  0.1205
 2702TIP3    H1 8047   3.057   3.202   2.830  1.2360  0.3523  1.8246
 2702TIP3    H2 8048   2.933   3.271   2.881  0.3340  0.3104 -0.2498
 2703TIP3   OH2 8049   5.221   1.568   5.340 -0.2055 -1.0202 -0.2156
 2703TIP3    H1 8050   5.196   1.571   5.247 -0.5849 -1.9589 -0.1486
 2703TIP3    H2 8051   5.291   1.503   5.344  1.2999  0.5596 -0.1671
 2704TIP3   OH2 8052   5.708   2.700   3.334  0.0091  0.0099  0.4393
 2704TIP3    H1 8053   5.650   2.660   3.398 -0.9023 -0.3230 -0.5932
 2704TIP3    H2 8054   5.711   2.793   3.359 -0.7514 -0.0227  0.6581
 2705TIP3   OH2 8055   2.500   2.251   4.297 -0.5041  0.0852 -0.1825
 2705TIP3    H1 8056   2.451   2.326   4.262  0.7755  0.4419 -1.2461
 2705TIP3    H2 8057   2.513   2.194   4.221  0.9185  0.1030  0.0474
 2706TIP3   OH2 8058   0.829   2.406   3.085 -0.3189 -0.6648  0.0514
 2706TIP3    H1 8059   0.897   2.340   3.072  0.2169  0.1052 -1.0624
 2706TIP3    H2 8060   0.753   2.356   3.116  0.2631 -1.7221 -0.2146
 2707TIP3   OH2 8061   5.574   3.572   4.276  0.0566  0.4286  0.4746
 2707TIP3    H1 8062   5.529   3.565   4.192  0.5789 -0.7082  0.2937
 2707TIP3    H2 8063   5.518   3.525   4.337  0.0694  0.6022  0.6226
 2708TIP3   OH2 8064   3.294   1.292   3.714 -0.2641 -0.1050 -0.0430
 2708TIP3    H1 8065   3.297   1.369   3.658  2.2515 -0.6560 -0.7643
 2708TIP3    H2 8066   3.285   1.219   3.654 -3.2216 -0.3976  0.6731
 2709TIP3   OH2 8067   2.739   2.087   2.657 -0.2006 -0.0632 -0.0340
 2709TIP3    H1 8068   2.692   2.021   2.708 -1.3637 -0.1159 -1.1710
 2709TIP3    H2 8069   2.831   2.061   2.665 -0.6309 -1.7834 -0.3818
 2710TIP3   OH2 8070   5.499   3.506   3.535  0.2056  0.3995  0.1298
 2710TIP3    H1 8071   5.512   3.555   3.616  0.2115  0.3828  0.1390
 2710TIP3    H2 8072   5.428   3.552   3.491 -0.1456  0.1048  0.3825
 2711TIP3   OH2 8073   4.915   3.803   3.602 -0.1939  0.4872  0.0946
 2711TIP3    H1 8074   4.875   3.717   3.593  0.4708  0.1830 -0.0414
 2711TIP3    H2 8075   4.967   3.797   3.682  1.0104  0.2787 -0.6843
 2712TIP3   OH2 8076   4.949   3.682   1.793  0.3959 -0.0732  0.0948
 2712TIP3    H1 8077   5.030   3.631   1.790  0.5486  0.2448 -1.3215
 2712TIP3    H2 8078   4.921   3.689   1.702 -2.1030 -1.5501  0.7306
 2713TIP3   OH2 8079   2.519   0.591   2.405 -0.1513  0.4181  0.6825
 2713TIP3    H1 8080   2.458   0.519   2.420  0.8759 -0.7154 -0.3984
 2713TIP3    H2 8081   2.524   0.599   2.310 -0.9669  2.5576  0.8003
 2714TIP3   OH2 8082   5.153   3.466   3.582  0.4578 -0.2394 -0.2083
 2714TIP3    H1 8083   5.069   3.498   3.615  0.7298 -1.2906  1.5628
 2714TIP3    H2 8084   5.162   3.379   3.621  2.9321  0.3515  0.6211
 2715TIP3   OH2 8085   5.238   1.744   4.031 -0.2263 -0.8178 -0.6424
 2715TIP3    H1 8086   5.162   1.796   4.004 -1.4160 -2.4384 -0.4908
 2715TIP3    H2 8087   5.285   1.726   3.950  0.2266  0.5388 -0.6858
 2716TIP3   OH2 8088   6.916   1.853   4.605  0.4962 -0.0255  0.9036
 2716TIP3    H1 8089   6.958   1.922   4.656  0.4284  0.4717  0.2928
 2716TIP3    H2 8090   6.822   1.872   4.611  0.4847  0.0032  0.6367
 2717TIP3   OH2 8091   2.798   2.973   4.073  0.6468  0.2060 -0.2615
 2717TIP3    H1 8092   2.892   2.966   4.056  0.4883 -0.6203 -0.8320
 2717TIP3    H2 8093   2.769   3.048   4.021  0.4900 -1.2366 -2.3301
 2718TIP3   OH2 8094   4.991   0.179   3.099 -0.1448  0.4593  0.1048
 2718TIP3    H1 8095   5.002   0.098   3.048  0.7257  1.4106 -1.2196
 2718TIP3    H2 8096   5.044   0.165   3.177 -1.0909 -0.8055  0.5478
 2719TIP3   OH2 8097   1.870   2.574   1.308  0.3004  0.1998  0.1894
 2719TIP3    H1 8098   1.955   2.530   1.311  0.2817  0.1618  0.1629
 2719TIP3    H2 8099   1.870   2.631   1.385  0.8904  1.2107 -0.5488
 2720TIP3   OH2 8100   3.784   3.175   1.518  0.2900 -0.1228  0.1032
 2720TIP3    H1 8101   3.757   3.266   1.525  0.7213 -0.0853  1.3548
 2720TIP3    H2 8102   3.869   3.179   1.474  1.1267  0.2254  1.7077
 2721TIP3   OH2 8103   3.775   0.274   3.136 -0.3087  0.3072 -0.0476
 2721TIP3    H1 8104   3.857   0.234   3.106  0.1906  1.2888 -0.0545
 2721TIP3    H2 8105   3.725   0.291   3.056 -0.3056  0.1385 -0.0838
 2722TIP3   OH2 8106   4.016   0.704   1.932  0.6156 -0.2514 -0.2085
 2722TIP3    H1 8107   4.104   0.681   1.963  0.4133 -0.2313  0.4043
 2722TIP3    H2 8108   4.026   0.720   1.839  1.5074  1.0234  0.0983
 2723TIP3   OH2 8109   4.916   1.457   3.666  0.0629  0.1325  0.0858
 2723TIP3    H1 8110   4.996   1.434   3.619  0.8079  1.3421  0.7186
 2723TIP3    H2 8111   4.905   1.551   3.651 -0.9481  0.0818  0.4404
 2724TIP3   OH2 8112   3.297   2.557   4.565 -0.5748  0.0363  0.5748
 2724TIP3    H1 8113   3.232   2.614   4.523  1.2560  0.8519 -1.2095
 2724TIP3    H2 8114   3.286   2.574   4.659 -0.1262  3.3328  0.0947
 2725TIP3   OH2 8115   2.722   1.858   5.216 -0.2183 -0.4632  0.3114
 2725TIP3    H1 8116   2.689   1.878   5.304  0.2290  2.0988 -0.0673
 2725TIP3    H2 8117   2.647   1.821   5.170 -1.1396  0.4765  1.0357
 2726TIP3   OH2 8118   3.835   0.149   2.723 -0.9433  0.2744  0.3107
 2726TIP3    H1 8119   3.815   0.152   2.817  0.6967 -0.5738  0.7018
 2726TIP3    H2 8120   3.776   0.083   2.688 -2.2524  1.2969  0.5611
 2727TIP3   OH2 8121   3.622   2.245   4.779  0.7199 -0.0847  0.1058
 2727TIP3    H1 8122   3.654   2.212   4.696  2.3333 -3.0906  1.8385
 2727TIP3    H2 8123   3.699   2.285   4.820 -0.0820  1.4714  0.1194
 2728TIP3   OH2 8124   3.380   1.318   1.435  0.1237 -0.5014 -0.2094
 2728TIP3    H1 8125   3.298   1.274   1.457  0.3480 -0.7046  0.2177
 2728TIP3    H2 8126   3.352   1.400   1.394 -0.3061  0.1345  1.3108
 2729TIP3   OH2 8127   4.221   2.913   3.608  0.5950 -0.3975 -0.0133
 2729TIP3    H1 8128   4.147   2.933   3.551  0.2628  0.0818  0.5733
 2729TIP3    H2 8129   4.283   2.984   3.593  1.5974 -1.5809 -1.6025
 2730TIP3   OH2 8130   4.229   2.049   3.010 -0.2170 -0.6038 -0.0801
 2730TIP3    H1 8131   4.157   1.992   2.985  1.2792 -1.8639 -1.5813
 2730TIP3    H2 8132   4.292   1.991   3.052  1.3264 -0.0751 -1.6245
 2731TIP3   OH2 8133   0.736   4.976   1.024 -0.2281 -0.0866 -0.5498
 2731TIP3    H1 8134   0.707   4.892   0.987  2.5477  0.0142 -3.0756
 2731TIP3    H2 8135   0.691   5.042   0.971 -0.5675  0.0409 -0.1058
 2732TIP3   OH2 8136   4.587   0.119   4.266 -0.3606 -0.4973  0.2208
 2732TIP3    H1 8137   4.508   0.116   4.212 -1.4297 -0.8506  1.7515
 2732TIP3    H2 8138   4.583   0.037   4.317 -1.1474  1.3282  3.2186
 2733TIP3   OH2 8139   2.902   2.566   4.462 -0.2380  0.3781  0.1515
 2733TIP3    H1 8140   2.840   2.613   4.407 -1.8680 -0.1545  1.5067
 2733TIP3    H2 8141   2.876   2.474   4.454  0.4561  0.1338  0.6456
 2734TIP3   OH2 8142   1.976   2.999   1.370  0.1651 -0.4154  0.2449
 2734TIP3    H1 8143   1.979   3.073   1.431 -1.7487  0.8311 -1.1217
 2734TIP3    H2 8144   1.891   3.006   1.328  1.3394 -1.3846 -2.4071
 2735TIP3   OH2 8145   3.559   2.967   5.388  0.6489  0.5047 -0.5372
 2735TIP3    H1 8146   3.544   2.882   5.346  0.7671  0.5129 -0.5961
 2735TIP3    H2 8147   3.646   2.993   5.359  0.7626  0.4732 -0.2272
 2736TIP3   OH2 8148   3.723   2.177   3.144 -0.3123 -0.2675 -0.0071
 2736TIP3    H1 8149   3.661   2.105   3.132 -1.4419  0.7585 -0.3692
 2736TIP3    H2 8150   3.673   2.245   3.189  0.4602  0.6878 -0.5649
 2737TIP3   OH2 8151   3.556   1.966   1.502 -0.2057 -0.2444  0.6665
 2737TIP3    H1 8152   3.581   1.873   1.510 -1.2749 -0.4915  1.2938
 2737TIP3    H2 8153   3.465   1.963   1.471 -0.0237  0.6046  0.0633
 2738TIP3   OH2 8154   3.275   1.155   4.132 -0.4544 -0.2317  0.5076
 2738TIP3    H1 8155   3.328   1.225   4.092 -0.0725  0.1159  1.5965
 2738TIP3    H2 8156   3.196   1.151   4.077  0.4216 -0.3461 -0.7754
 2739TIP3   OH2 8157   0.220   2.379   2.088 -0.3094 -0.0295 -0.0348
 2739TIP3    H1 8158   0.254   2.295   2.058 -0.5464 -0.5505  1.1147
 2739TIP3    H2 8159   0.253   2.443   2.025 -0.9263 -1.1071 -1.4624
 2740TIP3   OH2 8160   5.039   4.030   0.916 -0.4597 -0.1046  0.2115
 2740TIP3    H1 8161   5.063   4.123   0.918 -2.2273  0.4167 -1.4590
 2740TIP3    H2 8162   4.950   4.027   0.951 -0.0763 -1.3137  1.1355
 2741TIP3   OH2 8163   4.281   1.248   2.570  0.4600 -0.3920 -0.1449
 2741TIP3    H1 8164   4.310   1.177   2.628 -2.3280  0.5994  2.6015
 2741TIP3    H2 8165   4.198   1.216   2.534 -0.8229  1.4455  1.1224
 2742TIP3   OH2 8166   3.716   4.390   3.781  0.1312  0.3608 -0.0131
 2742TIP3    H1 8167   3.666   4.310   3.799 -0.2045  0.5149 -0.2548
 2742TIP3    H2 8168   3.654   4.448   3.738  0.4655  0.6313 -0.1336
 2743TIP3   OH2 8169   3.222   4.373   4.054  0.4508  0.5412  0.3578
 2743TIP3    H1 8170   3.249   4.289   4.018 -1.5183 -0.4687  1.2088
 2743TIP3    H2 8171   3.235   4.364   4.149  1.7889  1.7838  0.3192
 2744TIP3   OH2 8172   5.023   2.964   1.948  0.4764  0.2377  0.5019
 2744TIP3    H1 8173   5.063   2.998   1.868 -0.8321 -0.3039 -0.3998
 2744TIP3    H2 8174   4.980   2.883   1.921 -1.3927  0.9009  1.3960
 2745TIP3   OH2 8175   2.320   1.845   2.249  0.2059  0.2253 -0.3617
 2745TIP3    H1 8176   2.343   1.777   2.186 -1.9333 -1.8602  1.0449
 2745TIP3    H2 8177   2.372   1.824   2.327 -1.1691 -0.4092  0.4060
 2746TIP3   OH2 8178   2.519   1.879   2.461 -0.2739 -0.0802  0.5346
 2746TIP3    H1 8179   2.576   1.946   2.423 -0.5774 -0.6237 -0.9138
 2746TIP3    H2 8180   2.539   1.881   2.555 -0.2773  2.0139  0.5154
 2747TIP3   OH2 8181   4.265   1.769   3.137  0.0246 -0.0800 -0.3901
 2747TIP3    H1 8182   4.198   1.729   3.082  0.0530 -0.0023 -0.4808
 2747TIP3    H2 8183   4.231   1.760   3.226  0.9199 -2.0891 -0.2052
 2748TIP3   OH2 8184   3.524   3.072   1.476 -0.5225 -0.0947 -0.4980
 2748TIP3    H1 8185   3.472   3.108   1.548 -0.7746 -0.0114 -0.7224
 2748TIP3    H2 8186   3.613   3.102   1.493 -0.5102 -0.4131  0.0049
 2749TIP3   OH2 8187   5.089   3.246   2.593  0.5657 -0.6691  0.1137
 2749TIP3    H1 8188   5.147   3.319   2.574  0.1266 -0.5091 -0.6371
 2749TIP3    H2 8189   5.140   3.188   2.649  0.8125  0.3537  0.9615
 2750TIP3   OH2 8190   4.853   4.560   3.054 -0.0861  0.1942 -0.0927
 2750TIP3    H1 8191   4.910   4.565   2.977  0.8668  1.5444  0.6694
 2750TIP3    H2 8192   4.767   4.539   3.019  0.7170 -1.1278 -1.3451
 2751TIP3   OH2 8193   7.665   6.133   6.536  0.5584 -0.1368  0.0847
 2751TIP3    H1 8194   7.602   6.189   6.492  1.5270  1.1839  0.3564
 2751TIP3    H2 8195   7.670   6.055   6.481 -0.8363  0.0101 -0.2703
 2752TIP3   OH2 8196   3.362   1.816   4.004  0.1942 -0.3780 -0.1055
 2752TIP3    H1 8197   3.357   1.911   4.018  1.0925  0.0297 -2.4060
 2752TIP3    H2 8198   3.360   1.805   3.909 -0.5659 -2.7224  0.1495
 2753TIP3   OH2 8199   4.526   3.197   4.011  0.2170  0.0953  0.2056
 2753TIP3    H1 8200   4.466   3.219   4.083 -1.3824 -0.4463 -0.9259
 2753TIP3    H2 8201   4.613   3.219   4.044 -0.2859 -1.8486  2.9990
 2754TIP3   OH2 8202   3.658   2.452   3.056  0.3830  0.3402  0.2543
 2754TIP3    H1 8203   3.739   2.405   3.038 -0.2565 -0.1613 -1.3714
 2754TIP3    H2 8204   3.591   2.405   3.007 -0.9333  0.6233  1.7629
 2755TIP3   OH2 8205   8.390   7.048   2.000  0.0204  0.3109 -0.6871
 2755TIP3    H1 8206   8.363   7.021   1.912 -0.4466  0.9858 -0.7519
 2755TIP3    H2 8207   8.474   7.004   2.014  0.4895  0.8421 -1.7855
 2756TIP3   OH2 8208   3.257   3.119   4.807  0.1690 -0.1175 -0.2633
 2756TIP3    H1 8209   3.178   3.142   4.856  0.4282 -0.6612  0.4231
 2756TIP3    H2 8210   3.234   3.038   4.761  0.1219  0.0664 -0.5634
 2757TIP3   OH2 8211   4.079   0.896   5.435  0.3388 -0.1480 -0.0135
 2757TIP3    H1 8212   4.037   0.866   5.516  1.0740 -0.4393  0.2726
 2757TIP3    H2 8213   4.008   0.904   5.372 -0.3826  0.9083  0.8988
 2758TIP3   OH2 8214   5.812   4.506   2.930  0.3687 -0.2713  0.0429
 2758TIP3    H1 8215   5.789   4.477   2.841 -0.2833  0.9976 -0.2182
 2758TIP3    H2 8216   5.732   4.547   2.963  0.8646  0.0242  0.8976
 2759TIP3   OH2 8217   4.387   0.705   3.605 -0.1113 -0.3673  0.3170
 2759TIP3    H1 8218   4.391   0.768   3.677  2.6561 -0.3371  0.1868
 2759TIP3    H2 8219   4.398   0.620   3.648  1.4247 -0.3566 -0.0126
 2760TIP3   OH2 8220   3.547   3.076   0.954 -0.4037 -0.4469  0.0384
 2760TIP3    H1 8221   3.593   3.154   0.923 -0.9313 -0.4426 -0.7458
 2760TIP3    H2 8222   3.558   3.078   1.049 -0.9412  0.9268  0.0809
 2761TIP3   OH2 8223   4.071   2.430   3.290  0.1661 -0.1911 -0.2178
 2761TIP3    H1 8224   4.157   2.410   3.326  0.6939  3.1271  0.5669
 2761TIP3    H2 8225   4.019   2.457   3.365 -1.2729 -1.1828 -0.8335
 2762TIP3   OH2 8226   6.065   3.914   1.799  0.2921 -0.2435 -0.1876
 2762TIP3    H1 8227   6.159   3.921   1.785  0.7750 -1.5057  2.1265
 2762TIP3    H2 8228   6.034   4.004   1.799  1.4009  0.1517 -1.5768
 2763TIP3   OH2 8229   4.089   2.687   4.759 -0.3453 -0.2864 -0.1576
 2763TIP3    H1 8230   3.996   2.687   4.737 -0.8939  3.1422  1.7534
 2763TIP3    H2 8231   4.125   2.763   4.713  1.2754 -0.8960  0.0632
 2764TIP3   OH2 8232   3.868   4.665   1.426 -0.4895 -0.1658 -0.3201
 2764TIP3    H1 8233   3.909   4.666   1.340 -1.3550  0.6818 -0.7369
 2764TIP3    H2 8234   3.789   4.719   1.416  0.1499  1.1457  1.3764
 2765TIP3   OH2 8235   4.356   1.073   2.842  1.0819 -0.2894  0.3684
 2765TIP3    H1 8236   4.400   1.000   2.887  3.5908  0.9401 -0.0330
 2765TIP3    H2 8237   4.338   1.136   2.912  0.9799 -0.2981  0.3496
 2766TIP3   OH2 8238   3.312   2.382   0.774  0.0524 -0.1007 -1.0230
 2766TIP3    H1 8239   3.307   2.477   0.763  0.9638  0.0996  0.1441
 2766TIP3    H2 8240   3.402   2.360   0.749 -0.6820 -0.9056 -2.9975
 2767TIP3   OH2 8241   3.838   1.038   3.133 -0.2627 -0.2088 -0.2873
 2767TIP3    H1 8242   3.744   1.051   3.124 -0.9421 -0.5581  4.7485
 2767TIP3    H2 8243   3.855   0.953   3.093 -1.8383  0.4070 -2.3240
 2768TIP3   OH2 8244   3.641   3.034   2.833  0.5892  0.1043  0.2182
 2768TIP3    H1 8245   3.546   3.042   2.830  0.6895  0.5789 -1.6972
 2768TIP3    H2 8246   3.673   3.124   2.833  1.0878 -0.0687 -1.0758
 2769TIP3   OH2 8247   4.642   2.868   3.604  0.5702 -0.4975  0.1018
 2769TIP3    H1 8248   4.638   2.845   3.696  1.3016 -0.6512  0.1004
 2769TIP3    H2 8249   4.664   2.961   3.603  1.1296 -0.6269  0.0823
 2770TIP3   OH2 8250   4.977   0.507   1.180 -0.1715  0.4379  0.2017
 2770TIP3    H1 8251   4.947   0.506   1.089  0.7487  0.7163 -0.1094
 2770TIP3    H2 8252   5.069   0.481   1.175 -0.5316 -1.1145  1.2127
 2771TIP3   OH2 8253   5.502   2.340   0.331 -0.5015  0.0409  0.2787
 2771TIP3    H1 8254   5.525   2.362   0.241 -2.2970  0.8758  0.0195
 2771TIP3    H2 8255   5.495   2.244   0.331 -0.4085  0.0298 -0.4340
 2772TIP3   OH2 8256   4.833   2.582   3.204 -0.2461 -0.6825  0.3440
 2772TIP3    H1 8257   4.804   2.657   3.255  0.6687  0.0112 -0.1482
 2772TIP3    H2 8258   4.762   2.566   3.142 -0.5605 -0.3958  0.6276
 2773TIP3   OH2 8259   6.426   2.485   4.052 -0.0655 -0.4191 -0.2962
 2773TIP3    H1 8260   6.397   2.395   4.069 -1.6096 -0.0854 -1.0519
 2773TIP3    H2 8261   6.345   2.532   4.031  0.9664  0.7235 -1.7544
 2774TIP3   OH2 8262   3.100   0.207   0.053  1.0429 -0.3672  0.1496
 2774TIP3    H1 8263   3.010   0.235   0.066  1.2049  0.7279 -0.9870
 2774TIP3    H2 8264   3.100   0.160  -0.031  1.4801 -0.5778  0.2614
 2775TIP3   OH2 8265   4.085   4.128   0.885  0.0913  0.1252 -0.6149
 2775TIP3    H1 8266   4.087   4.090   0.972 -2.1407 -0.2452 -0.6837
 2775TIP3    H2 8267   4.103   4.055   0.826  1.2786  0.3104 -0.4818
 2776TIP3   OH2 8268   3.299   1.487   2.700 -0.2102  0.8439 -0.1220
 2776TIP3    H1 8269   3.332   1.415   2.753  0.0846  1.9665  1.2598
 2776TIP3    H2 8270   3.351   1.484   2.619 -0.3219 -0.5733 -0.1420
 2777TIP3   OH2 8271   5.797   3.437   4.223  0.2662 -0.5168 -0.3865
 2777TIP3    H1 8272   5.719   3.488   4.247  1.3796  1.1420 -0.2754
 2777TIP3    H2 8273   5.790   3.358   4.277 -0.5029  0.3645  0.8459
 2778TIP3   OH2 8274   4.668   3.225   4.252 -0.3005  0.2830  0.5640
 2778TIP3    H1 8275   4.678   3.274   4.333 -0.3465 -0.0091  0.7449
 2778TIP3    H2 8276   4.620   3.147   4.276 -0.7118  0.4096  0.1724
 2779TIP3   OH2 8277   3.375   0.536   1.927 -0.2520  0.2163  0.1660
 2779TIP3    H1 8278   3.286   0.540   1.891 -0.2667  2.2752  0.3833
 2779TIP3    H2 8279   3.429   0.508   1.853 -1.3774 -3.5003  0.6508
 2780TIP3   OH2 8280   3.073   0.561   2.007 -0.4665 -0.6515 -0.5867
 2780TIP3    H1 8281   2.981   0.581   2.024 -0.1667 -0.4615  0.9522
 2780TIP3    H2 8282   3.084   0.472   2.042  0.2909 -0.0836  0.6203
 2781TIP3   OH2 8283   4.201   2.894   3.898 -0.4514 -0.3755 -0.5723
 2781TIP3    H1 8284   4.193   2.890   3.803 -1.7317  0.4178 -0.5198
 2781TIP3    H2 8285   4.169   2.981   3.921  1.5391  0.1217  0.4386
 2782TIP3   OH2 8286   3.813   2.303   3.462  0.0878 -0.1691  0.5147
 2782TIP3    H1 8287   3.748   2.297   3.532  0.7955 -2.6819  1.0373
 2782TIP3    H2 8288   3.845   2.393   3.466 -0.4075 -0.0524  2.9589
 2783TIP3   OH2 8289   3.127   3.249   2.293 -0.3520  0.1320  0.3707
 2783TIP3    H1 8290   3.186   3.300   2.239 -0.1155  2.8019  2.9943
 2783TIP3    H2 8291   3.170   3.244   2.378 -2.0994 -1.2745  1.2261
 2784TIP3   OH2 8292   2.952   3.122   4.520 -0.3263 -0.2348  0.0119
 2784TIP3    H1 8293   2.906   3.072   4.588  1.2121 -0.5097  0.8718
 2784TIP3    H2 8294   2.887   3.134   4.451 -2.4032  1.3265  2.1558
 2785TIP3   OH2 8295   5.028   3.894   2.871  0.1425  0.3216 -0.7174
 2785TIP3    H1 8296   5.084   3.841   2.815  0.9466  0.4324 -0.0359
 2785TIP3    H2 8297   4.939   3.878   2.839  0.5304 -0.1218 -1.5911
 2786TIP3   OH2 8298   4.457   1.011   2.577  0.9896  0.0267  0.0081
 2786TIP3    H1 8299   4.431   0.920   2.559 -0.3688  0.4846 -0.3426
 2786TIP3    H2 8300   4.438   1.023   2.670 -0.3390  0.4496 -0.3120
 2787TIP3   OH2 8301   4.018   3.289   4.198 -0.1033 -0.4391 -0.0518
 2787TIP3    H1 8302   3.937   3.312   4.152  0.2080 -1.2056 -1.0120
 2787TIP3    H2 8303   4.017   3.343   4.277 -1.6163 -0.5474  0.0190
 2788TIP3   OH2 8304   4.327   1.646   2.831  0.2872  0.5335  0.3049
 2788TIP3    H1 8305   4.352   1.567   2.880  1.3179  0.0509 -1.0036
 2788TIP3    H2 8306   4.242   1.624   2.793  0.0046  0.5056  0.9368
 2789TIP3   OH2 8307   5.157   2.885   6.218  0.0335  0.0827  0.1923
 2789TIP3    H1 8308   5.156   2.904   6.124 -0.3124  2.0487  0.5541
 2789TIP3    H2 8309   5.089   2.943   6.254  0.3629 -0.4409  1.6899
 2790TIP3   OH2 8310   2.453   0.859   3.379  0.0543  0.6457 -0.1620
 2790TIP3    H1 8311   2.452   0.883   3.287 -1.7179  0.9440 -0.0843
 2790TIP3    H2 8312   2.363   0.832   3.398  0.9978 -1.9448  0.8236
 2791TIP3   OH2 8313   3.829   0.651   4.010  0.6533 -0.9548 -0.3889
 2791TIP3    H1 8314   3.770   0.579   3.986  0.0454 -0.3485 -0.7278
 2791TIP3    H2 8315   3.779   0.703   4.073  0.3485  0.2501 -1.6018
 2792TIP3   OH2 8316   7.387   5.356   6.765 -0.3093 -0.2328  0.3230
 2792TIP3    H1 8317   7.329   5.288   6.800 -1.1910  1.4905  2.3332
 2792TIP3    H2 8318   7.465   5.352   6.821 -0.1411  0.0808  0.1121
 2793TIP3   OH2 8319   2.989   2.756   0.096  0.1536 -0.1842  0.2950
 2793TIP3    H1 8320   3.065   2.773   0.041  1.6021 -1.3124  1.8881
 2793TIP3    H2 8321   3.015   2.785   0.184 -1.6211  0.3438  0.6725
 2794TIP3   OH2 8322   4.687   1.878   4.845 -0.2597 -0.1362  0.0520
 2794TIP3    H1 8323   4.608   1.829   4.867 -0.9847  0.3423 -1.4020
 2794TIP3    H2 8324   4.664   1.969   4.865 -0.0777 -0.0039 -0.3340
 2795TIP3   OH2 8325   3.140   1.645   2.400 -0.3319 -0.2250 -0.1101
 2795TIP3    H1 8326   3.153   1.665   2.493  0.4989 -1.0159 -0.0548
 2795TIP3    H2 8327   3.105   1.556   2.398  1.4964 -0.9400 -0.6497
 2796TIP3   OH2 8328   3.900   1.855   3.635 -0.4156 -0.4017 -0.0407
 2796TIP3    H1 8329   3.817   1.879   3.678 -0.4880 -0.0212 -0.3808
 2796TIP3    H2 8330   3.884   1.872   3.542  0.1358 -0.0597 -0.0750
 2797TIP3   OH2 8331   5.671   3.021   2.405  0.0883  0.1286  0.4678
 2797TIP3    H1 8332   5.755   2.990   2.370  0.3072 -0.3894  1.4354
 2797TIP3    H2 8333   5.633   2.943   2.447 -1.4362  0.0380 -1.0145
 2798TIP3   OH2 8334   1.755   1.564   4.437  0.4535  0.5760  0.1398
 2798TIP3    H1 8335   1.823   1.563   4.505  0.8147  0.3803 -0.2278
 2798TIP3    H2 8336   1.724   1.473   4.432 -0.6244  0.8767  1.1006
 2799TIP3   OH2 8337   5.989   2.245   1.850  0.5330 -0.6140  0.0427
 2799TIP3    H1 8338   5.925   2.200   1.796  0.7364 -0.8085 -0.0383
 2799TIP3    H2 8339   5.954   2.240   1.939  0.6187 -1.0537  0.0539
 2800TIP3   OH2 8340   1.540   1.478   0.715  0.4945  0.4793 -0.2373
 2800TIP3    H1 8341   1.551   1.387   0.744  0.0738  0.3877 -0.3676
 2800TIP3    H2 8342   1.515   1.471   0.623 -0.0559  0.7090 -0.1087
 2801TIP3   OH2 8343   2.560   0.115   1.692  0.2317 -0.4774  0.0808
 2801TIP3    H1 8344   2.536   0.023   1.689  2.0188 -0.9482 -1.0420
 2801TIP3    H2 8345   2.553   0.144   1.601  2.1598 -0.2044 -0.0050
 2802TIP3   OH2 8346   5.134   0.678   2.443 -0.1338 -0.8789 -0.6162
 2802TIP3    H1 8347   5.187   0.663   2.522 -1.4620  0.5392  0.5759
 2802TIP3    H2 8348   5.176   0.754   2.401  0.0909 -1.1316 -0.8506
 2803TIP3   OH2 8349   3.266   1.014   4.436 -0.5505 -0.0271  0.3612
 2803TIP3    H1 8350   3.311   1.099   4.444  1.7582 -0.8849 -2.5779
 2803TIP3    H2 8351   3.205   1.027   4.362 -0.9150 -0.6261  0.5603
 2804TIP3   OH2 8352   4.119   1.028   4.331  0.7550  0.2895  0.3005
 2804TIP3    H1 8353   4.127   1.075   4.414 -0.0781  0.2490  0.4032
 2804TIP3    H2 8354   4.183   1.071   4.274 -0.0680  1.6285  0.3678
 2805TIP3   OH2 8355   4.602   2.969   4.339 -0.2239 -0.2352 -0.0954
 2805TIP3    H1 8356   4.506   2.968   4.334 -0.3415  1.3455  1.3287
 2805TIP3    H2 8357   4.621   2.988   4.431  1.4122  2.8446 -0.9953
 2806TIP3   OH2 8358   6.246   2.373   3.519 -0.0627 -0.2608  0.3348
 2806TIP3    H1 8359   6.264   2.467   3.529 -0.8006 -0.2340  1.6331
 2806TIP3    H2 8360   6.171   2.358   3.577  0.5367 -1.8074  0.7081
 2807TIP3   OH2 8361   3.951   1.227   4.096  0.3934  0.6524 -0.4276
 2807TIP3    H1 8362   3.979   1.136   4.106 -2.3205 -0.2830 -1.0761
 2807TIP3    H2 8363   3.994   1.273   4.169  0.2534 -1.5049  1.0649
 2808TIP3   OH2 8364   4.250   1.756   4.688 -0.0071 -0.1914 -0.2067
 2808TIP3    H1 8365   4.178   1.789   4.741 -0.4632 -1.1412 -0.2284
 2808TIP3    H2 8366   4.325   1.809   4.715 -0.2319 -0.6419  1.3690
 2809TIP3   OH2 8367   0.573   7.024   3.171  1.2813  0.4353  0.4231
 2809TIP3    H1 8368   0.556   7.052   3.261  0.7631  2.8192 -0.3661
 2809TIP3    H2 8369   0.572   7.105   3.121  1.3696 -0.8869 -1.7679
 2810TIP3   OH2 8370   5.490   1.763   2.873 -0.0224  0.1450 -0.3651
 2810TIP3    H1 8371   5.558   1.695   2.878  0.4036  0.5787 -0.1798
 2810TIP3    H2 8372   5.502   1.815   2.952 -0.2902  0.4900 -0.5493
 2811TIP3   OH2 8373   4.243   0.298   3.617 -0.2657 -1.0992  0.0422
 2811TIP3    H1 8374   4.178   0.250   3.566 -1.0790  0.4520 -0.4040
 2811TIP3    H2 8375   4.213   0.389   3.616  2.2176 -0.2298 -0.6814
 2812TIP3   OH2 8376   4.536   0.817   2.845 -0.0276 -0.6216 -0.0525
 2812TIP3    H1 8377   4.487   0.739   2.817 -0.0659  0.6206 -3.7282
 2812TIP3    H2 8378   4.626   0.787   2.854  0.0607 -1.0119 -2.0088
 2813TIP3   OH2 8379   3.675   4.345   2.773  0.2136  0.7096  0.3680
 2813TIP3    H1 8380   3.677   4.288   2.697 -0.3478  0.5187  0.4905
 2813TIP3    H2 8381   3.615   4.416   2.749 -0.9258  0.0034  1.0704
 2814TIP3   OH2 8382   6.267   6.377   5.766 -0.0682  0.3533  0.0428
 2814TIP3    H1 8383   6.263   6.394   5.672 -0.9170  0.6724  0.1340
 2814TIP3    H2 8384   6.275   6.282   5.773 -1.0267  0.2376 -0.3340
 2815TIP3   OH2 8385   6.065   1.250   4.191 -0.2787  0.2925 -0.4115
 2815TIP3    H1 8386   6.042   1.169   4.236  0.7804 -0.6696 -1.5641
 2815TIP3    H2 8387   6.108   1.304   4.257 -1.9397  0.3628  0.6400
 2816TIP3   OH2 8388   3.464   1.550   3.463  0.1604  0.5144 -0.2578
 2816TIP3    H1 8389   3.553   1.516   3.472 -0.1160 -0.1138  0.1050
 2816TIP3    H2 8390   3.432   1.557   3.554 -0.5376 -0.2672 -0.4367
 2817TIP3   OH2 8391   3.450   1.947   2.080  0.0252 -0.1795 -0.3157
 2817TIP3    H1 8392   3.394   2.003   2.027  1.5744  2.7463  1.0250
 2817TIP3    H2 8393   3.471   1.873   2.023 -1.5328  0.8946 -2.3663
 2818TIP3   OH2 8394   3.074   2.608   0.995 -0.2481 -0.0828 -0.0669
 2818TIP3    H1 8395   3.117   2.625   1.079 -0.7929 -1.2864  0.4616
 2818TIP3    H2 8396   3.128   2.654   0.931  1.0952 -0.5106  0.7427
 2819TIP3   OH2 8397   5.381   3.060   3.587  0.4907  0.4835  0.6983
 2819TIP3    H1 8398   5.442   3.108   3.532  0.6947 -1.0507 -0.4571
 2819TIP3    H2 8399   5.294   3.090   3.558  0.6282  0.6277  0.4293
 2820TIP3   OH2 8400   5.233   1.049   2.140 -0.0972  0.3167  0.3307
 2820TIP3    H1 8401   5.195   1.096   2.214 -4.0493 -1.2621 -0.5553
 2820TIP3    H2 8402   5.273   1.118   2.086 -0.2896  1.8946  2.1468
 2821TIP3   OH2 8403   2.870   1.409   2.133  0.1269 -0.2344 -0.1587
 2821TIP3    H1 8404   2.775   1.407   2.147 -0.0314  0.0691 -1.1036
 2821TIP3    H2 8405   2.906   1.442   2.215 -0.5817 -0.4288  0.2361
 2822TIP3   OH2 8406   2.929   1.448   3.686  0.3298  0.1411 -0.1772
 2822TIP3    H1 8407   2.989   1.476   3.755  0.4175 -1.5572  0.4463
 2822TIP3    H2 8408   2.842   1.466   3.721  0.3916  0.0222  0.0323
 2823TIP3   OH2 8409   5.089   3.058   3.177 -0.4175  0.0615  0.5700
 2823TIP3    H1 8410   5.116   3.126   3.238 -1.5976 -0.1452  1.3271
 2823TIP3    H2 8411   5.156   3.060   3.108  0.6606  0.6032  1.6219
 2824TIP3   OH2 8412   5.395   1.997   1.648 -0.4008  0.2135 -0.5091
 2824TIP3    H1 8413   5.367   2.029   1.562 -0.7419  0.7248 -0.2095
 2824TIP3    H2 8414   5.326   2.025   1.708  0.4288  0.9259  0.1277
 2825TIP3   OH2 8415   5.003   3.594   3.329  0.0434  0.0004  0.0834
 2825TIP3    H1 8416   4.979   3.678   3.368 -0.9726 -0.1345 -0.2146
 2825TIP3    H2 8417   5.000   3.611   3.234  0.6915 -0.1435  0.0381
 2826TIP3   OH2 8418   4.807   0.475   0.620 -0.3878  0.1433  0.0393
 2826TIP3    H1 8419   4.754   0.533   0.676 -1.2989 -1.2959  0.7180
 2826TIP3    H2 8420   4.877   0.445   0.677  0.6823  1.3707 -0.6137
 2827TIP3   OH2 8421   4.097   1.254   1.548  0.3979 -0.2435  1.0055
 2827TIP3    H1 8422   4.172   1.295   1.504 -1.8662  3.4085  0.3997
 2827TIP3    H2 8423   4.026   1.259   1.484 -0.9499 -1.7503  2.3507
 2828TIP3   OH2 8424   6.546   3.131   4.781 -0.3060 -0.2339 -0.0208
 2828TIP3    H1 8425   6.608   3.193   4.743 -0.0095 -0.3346  0.2992
 2828TIP3    H2 8426   6.466   3.182   4.793  0.1099  0.2402  0.7618
 2829TIP3   OH2 8427   7.233   3.204   2.554  0.6460  0.3479  0.8551
 2829TIP3    H1 8428   7.254   3.237   2.467  0.1095  1.1877  1.0381
 2829TIP3    H2 8429   7.316   3.173   2.589  1.0086  0.7793  0.3714
 2830TIP3   OH2 8430   5.106   3.021   0.881  0.1244  0.0202 -0.1375
 2830TIP3    H1 8431   5.061   2.995   0.961 -0.7518  1.4520 -0.1340
 2830TIP3    H2 8432   5.140   2.940   0.844  0.7084 -0.6374  1.7772
 2831TIP3   OH2 8433   4.732   2.081   4.361  0.2066 -0.6052 -0.0421
 2831TIP3    H1 8434   4.723   2.012   4.294  0.1937 -0.2838 -0.3747
 2831TIP3    H2 8435   4.732   2.034   4.444 -1.9820 -0.8711 -0.1429
 2832TIP3   OH2 8436   3.336   3.285   2.519  0.2455 -0.8068  0.5790
 2832TIP3    H1 8437   3.361   3.208   2.468  1.5471 -2.4402  3.5740
 2832TIP3    H2 8438   3.409   3.346   2.508 -1.0960  0.4079 -2.3704
 2833TIP3   OH2 8439   7.833   3.773   3.488 -0.1789 -0.4870  0.1297
 2833TIP3    H1 8440   7.813   3.777   3.394  1.6224 -0.9423 -0.2921
 2833TIP3    H2 8441   7.913   3.825   3.497  0.2775 -1.3909  1.2431
 2834TIP3   OH2 8442   4.364   3.335   4.216 -0.0787  0.5415  0.1144
 2834TIP3    H1 8443   4.305   3.404   4.245 -1.0489 -0.1228 -0.2413
 2834TIP3    H2 8444   4.313   3.254   4.226  0.8905 -0.0722  0.1319
 2835TIP3   OH2 8445   7.642   4.459   6.566  0.0115  0.6775  0.8092
 2835TIP3    H1 8446   7.635   4.368   6.594  0.5895  0.4659  0.2773
 2835TIP3    H2 8447   7.611   4.458   6.475  1.9009  0.6493  0.1459
 2836TIP3   OH2 8448   6.201   0.307   1.074  0.0746  0.0348  0.1162
 2836TIP3    H1 8449   6.296   0.314   1.080 -0.1278  2.1494  1.5199
 2836TIP3    H2 8450   6.168   0.370   1.139 -2.2763 -1.0551  0.0414
 2837TIP3   OH2 8451   4.726   2.071   3.932 -0.2503 -0.0527  0.2557
 2837TIP3    H1 8452   4.680   2.117   3.862  0.8660  0.1878 -0.3277
 2837TIP3    H2 8453   4.808   2.118   3.942 -1.0964  0.9298  2.8828
 2838TIP3   OH2 8454   1.563   2.277   3.098  0.1978  0.1003 -0.0326
 2838TIP3    H1 8455   1.648   2.257   3.060 -0.4388 -1.9660 -0.4302
 2838TIP3    H2 8456   1.579   2.354   3.153  2.1869  0.0851 -0.5481
 2839TIP3   OH2 8457   4.440   2.716   5.385  0.6989 -0.6629 -0.4402
 2839TIP3    H1 8458   4.355   2.706   5.344  1.7385 -2.2114 -2.2695
 2839TIP3    H2 8459   4.473   2.627   5.396  2.0648 -0.0931  0.2808
 2840TIP3   OH2 8460   4.681   0.845   1.464  0.1056  0.6647 -0.4535
 2840TIP3    H1 8461   4.723   0.791   1.531  0.7167  1.4975 -0.1487
 2840TIP3    H2 8462   4.716   0.811   1.381 -1.9600 -1.4937 -0.4856
 2841TIP3   OH2 8463   3.166   1.715   2.667  0.4625  0.0994 -0.4210
 2841TIP3    H1 8464   3.231   1.783   2.680  0.8245 -0.1047 -1.1865
 2841TIP3    H2 8465   3.213   1.633   2.681  0.4615 -0.0620 -1.3387
 2842TIP3   OH2 8466   4.000   1.640   2.511  0.1239  0.0002  0.0008
 2842TIP3    H1 8467   4.009   1.553   2.472  1.9273 -0.2393  0.9204
 2842TIP3    H2 8468   3.906   1.657   2.507 -0.0442 -1.1420 -1.9797
 2843TIP3   OH2 8469   4.427   1.165   3.916  0.6066  0.5595 -0.1911
 2843TIP3    H1 8470   4.378   1.227   3.863 -0.1963  1.2222  1.3187
 2843TIP3    H2 8471   4.420   1.082   3.867 -0.4794  1.0530 -0.8965
 2844TIP3   OH2 8472   5.405   2.396   2.659  0.9327 -0.1325  0.3771
 2844TIP3    H1 8473   5.384   2.331   2.592 -3.3277 -0.4675  1.9082
 2844TIP3    H2 8474   5.456   2.348   2.724  0.9378 -1.0101 -0.2666
 2845TIP3   OH2 8475   5.847   2.059   3.467  0.2031 -0.1085 -0.4016
 2845TIP3    H1 8476   5.869   1.985   3.411  1.8318  0.1241 -0.0951
 2845TIP3    H2 8477   5.841   2.022   3.555 -1.0295 -0.2289 -0.5188
 2846TIP3   OH2 8478   3.985   2.434   4.125  0.2087 -0.5762 -0.2306
 2846TIP3    H1 8479   4.028   2.520   4.127  0.3961 -0.5711 -2.8843
 2846TIP3    H2 8480   4.055   2.374   4.099 -0.4463 -1.1833 -0.5781
 2847TIP3   OH2 8481   3.174   1.915   4.387  0.2981 -0.2406 -0.3483
 2847TIP3    H1 8482   3.104   1.850   4.383  0.4629 -0.3904 -0.9042
 2847TIP3    H2 8483   3.153   1.975   4.316  0.5547 -0.0999 -0.3021
 2848TIP3   OH2 8484   4.183   1.590   4.167  0.0135  0.2778  0.6812
 2848TIP3    H1 8485   4.125   1.649   4.216 -0.0316 -0.5177  1.5938
 2848TIP3    H2 8486   4.142   1.504   4.175  1.4400 -0.3394  1.5263
 2849TIP3   OH2 8487   4.352   3.298   1.174 -0.1130 -0.6470  0.0990
 2849TIP3    H1 8488   4.413   3.372   1.182  1.1533 -1.7555  0.8360
 2849TIP3    H2 8489   4.265   3.338   1.183  0.6385  0.4160  3.0626
 2850TIP3   OH2 8490   4.082   2.716   4.088  0.3354 -0.6539  0.6040
 2850TIP3    H1 8491   4.037   2.764   4.158  0.5596  0.9383 -0.3249
 2850TIP3    H2 8492   4.112   2.784   4.028 -2.1043 -2.1227 -2.3904
 2851TIP3   OH2 8493   4.375   4.045   4.016  0.4320  0.1348 -0.1724
 2851TIP3    H1 8494   4.296   4.096   3.999 -0.0577 -0.7425 -0.5632
 2851TIP3    H2 8495   4.350   3.985   4.087  0.9091  0.2390  0.0818
 2852TIP3   OH2 8496   4.279   4.221   3.428  0.0526  0.1352 -0.5745
 2852TIP3    H1 8497   4.296   4.311   3.456 -0.8728 -0.1774  1.0894
 2852TIP3    H2 8498   4.221   4.230   3.353  1.7048  0.9745 -1.7897
 2853TIP3   OH2 8499   4.987   4.011   4.631 -0.0241 -0.1733  0.3566
 2853TIP3    H1 8500   4.985   3.978   4.541 -1.1631 -1.2944  0.7642
 2853TIP3    H2 8501   4.908   3.974   4.671  0.0754  0.9293  1.6039
 2854TIP3   OH2 8502   4.687   4.178   2.458  0.8722 -0.1549  0.0643
 2854TIP3    H1 8503   4.652   4.234   2.527 -1.2924 -0.4478 -0.7445
 2854TIP3    H2 8504   4.712   4.239   2.388  2.2750  0.0766  0.7520
 2855TIP3   OH2 8505   5.669   4.290   3.316  0.3963 -0.3237 -0.2993
 2855TIP3    H1 8506   5.689   4.276   3.408 -0.1888 -1.1812 -0.2966
 2855TIP3    H2 8507   5.586   4.245   3.302 -0.3202  1.1561 -0.8674
 2856TIP3   OH2 8508   6.063   1.818   2.791 -0.2774 -0.7638 -0.3319
 2856TIP3    H1 8509   6.078   1.911   2.807 -0.9396 -0.6054 -0.6134
 2856TIP3    H2 8510   6.100   1.774   2.867 -2.4756 -0.1001  1.1580
 2857TIP3   OH2 8511   3.567   0.358   0.788  0.6837  0.0067  0.3057
 2857TIP3    H1 8512   3.496   0.310   0.745 -0.0210  0.4274  0.9920
 2857TIP3    H2 8513   3.624   0.289   0.823  1.7116 -0.3708 -1.9535
 2858TIP3   OH2 8514   5.326   0.243   3.572 -0.2894  0.1958 -0.0005
 2858TIP3    H1 8515   5.380   0.261   3.650 -0.8617  0.4077  0.3544
 2858TIP3    H2 8516   5.361   0.301   3.505  0.3781 -0.1763  0.0249
 2859TIP3   OH2 8517   4.670   1.617   5.261  0.1218 -0.1079  0.5502
 2859TIP3    H1 8518   4.757   1.583   5.282 -0.1949 -0.2781  1.5972
 2859TIP3    H2 8519   4.685   1.676   5.187  0.8114 -1.7680 -0.6541
 2860TIP3   OH2 8520   4.655   0.989   3.035 -0.0812  0.3252 -0.0902
 2860TIP3    H1 8521   4.749   0.971   3.036 -0.1144  0.1510  2.3032
 2860TIP3    H2 8522   4.616   0.909   2.998  0.5161 -0.6823  1.4022
 2861TIP3   OH2 8523   4.428   2.739   3.449 -0.4213 -0.3578 -0.3129
 2861TIP3    H1 8524   4.346   2.779   3.481 -0.1013  0.9762 -1.0871
 2861TIP3    H2 8525   4.495   2.773   3.508 -0.2660 -0.4612 -0.4319
 2862TIP3   OH2 8526   6.095   0.863   1.242 -0.5231 -0.1345  0.0236
 2862TIP3    H1 8527   6.098   0.864   1.147  0.4491 -1.7387  0.0080
 2862TIP3    H2 8528   6.035   0.790   1.263 -1.4237  0.7679  0.6376
 2863TIP3   OH2 8529   5.062   2.250   4.405  0.3457  0.0191 -0.3498
 2863TIP3    H1 8530   5.058   2.159   4.432  1.2865  0.3264  0.8462
 2863TIP3    H2 8531   5.042   2.300   4.484  1.2983  0.8721 -0.6286
 2864TIP3   OH2 8532   2.311   1.547   2.449  0.0274 -0.6521  0.0035
 2864TIP3    H1 8533   2.403   1.524   2.465  0.2490  1.4253  1.9257
 2864TIP3    H2 8534   2.263   1.501   2.517 -0.2366 -0.8604 -0.3263
 2865TIP3   OH2 8535   2.590   0.630   3.766  0.2407 -0.7559 -0.1520
 2865TIP3    H1 8536   2.631   0.544   3.774 -0.9259 -1.3231 -0.2292
 2865TIP3    H2 8537   2.501   0.612   3.734  0.3105  0.5432 -1.1115
 2866TIP3   OH2 8538   3.454   0.913   2.510  0.4523 -0.0708 -0.0019
 2866TIP3    H1 8539   3.472   0.959   2.592  0.5986 -0.2100  0.0451
 2866TIP3    H2 8540   3.396   0.841   2.535 -2.8829  2.3025 -0.6588
 2867TIP3   OH2 8541   3.549   4.426   0.424  0.3212 -0.1914  0.6113
 2867TIP3    H1 8542   3.469   4.475   0.441  1.2449  1.0441  1.4430
 2867TIP3    H2 8543   3.582   4.462   0.342  0.1008 -0.6424  0.3151
 2868TIP3   OH2 8544   3.899   2.918   2.754 -0.1375  0.2838 -0.2198
 2868TIP3    H1 8545   3.842   2.973   2.808 -0.8982 -1.6051  0.9673
 2868TIP3    H2 8546   3.889   2.954   2.666 -1.0190  1.7116  0.4290
 2869TIP3   OH2 8547   4.972   4.219   3.807  0.0147  0.0703 -0.3662
 2869TIP3    H1 8548   4.908   4.241   3.738 -1.5219  1.0058  1.3116
 2869TIP3    H2 8549   4.938   4.139   3.847  0.6705 -0.2237 -0.3928
 2870TIP3   OH2 8550   1.084   6.698   4.266  0.3463  0.0908 -0.4711
 2870TIP3    H1 8551   1.102   6.604   4.270  0.9757  0.1473 -1.5892
 2870TIP3    H2 8552   0.989   6.705   4.271  0.4399 -0.4142  2.5832
 2871TIP3   OH2 8553   4.130   0.365   4.167 -0.0755  0.4301 -0.1865
 2871TIP3    H1 8554   4.072   0.422   4.218  1.0772  1.0834  0.4184
 2871TIP3    H2 8555   4.141   0.411   4.084  1.1193  1.2981  0.4215
 2872TIP3   OH2 8556   2.292   2.695   2.250 -0.2302 -0.5107 -0.2926
 2872TIP3    H1 8557   2.221   2.759   2.255 -0.0690 -0.3232 -0.3761
 2872TIP3    H2 8558   2.351   2.730   2.183 -0.2805 -0.8887 -0.5310
 2873TIP3   OH2 8559   4.422   3.115   3.622 -0.2085 -0.1442  0.7269
 2873TIP3    H1 8560   4.428   3.131   3.528 -0.3097  0.1694  0.7721
 2873TIP3    H2 8561   4.484   3.178   3.661 -0.6652  0.1900  0.9144
 2874TIP3   OH2 8562   7.622   6.507   6.689 -0.4393  0.0036 -0.3765
 2874TIP3    H1 8563   7.636   6.465   6.773 -1.4645  0.4430  0.0179
 2874TIP3    H2 8564   7.703   6.558   6.674  0.0393 -0.6441 -0.0089
 2875TIP3   OH2 8565   5.353   1.569   0.258  0.2026  0.0330 -0.1359
 2875TIP3    H1 8566   5.275   1.570   0.203 -1.5176 -0.1571  2.2374
 2875TIP3    H2 8567   5.425   1.549   0.197 -1.8372 -1.7983 -2.0244
 2876TIP3   OH2 8568   6.249   2.592   2.428  0.0901 -0.4963  0.1390
 2876TIP3    H1 8569   6.218   2.668   2.378  0.1622 -0.7518 -0.3019
 2876TIP3    H2 8570   6.182   2.578   2.494 -0.0285 -0.1740  0.0915
 2877TIP3   OH2 8571   5.756   2.172   1.789  0.4611  0.2246 -0.0554
 2877TIP3    H1 8572   5.716   2.138   1.709 -1.5248  1.3934  0.3928
 2877TIP3    H2 8573   5.682   2.207   1.839  0.8821 -4.8901  4.6031
 2878TIP3   OH2 8574   6.077   1.446   3.506  0.1972 -0.2339  0.3571
 2878TIP3    H1 8575   6.118   1.526   3.473  0.7215 -0.6545 -0.0264
 2878TIP3    H2 8576   5.984   1.458   3.491  0.3593 -0.0690 -0.5365
 2879TIP3   OH2 8577   6.710   2.713   2.518 -0.1984 -0.8360 -0.5848
 2879TIP3    H1 8578   6.629   2.750   2.554 -0.0977 -2.6879  1.6303
 2879TIP3    H2 8579   6.680   2.643   2.460 -0.2775  0.7656 -2.5309
 2880TIP3   OH2 8580   3.776   1.839   1.943  0.4260  0.0829 -0.1926
 2880TIP3    H1 8581   3.767   1.827   2.038 -1.9228 -0.4017 -0.4412
 2880TIP3    H2 8582   3.760   1.752   1.906  3.2855 -0.1505 -0.9506
 2881TIP3   OH2 8583   4.846   2.078   5.315  0.3519 -0.4142  0.4712
 2881TIP3    H1 8584   4.911   2.054   5.382 -1.7204 -0.6730  2.4693
 2881TIP3    H2 8585   4.774   2.016   5.329 -0.3992 -0.0298 -1.5921
 2882TIP3   OH2 8586   0.090   2.915   2.473 -0.1499  0.7797 -0.3028
 2882TIP3    H1 8587   0.014   2.862   2.494 -0.0368  0.3829 -0.9093
 2882TIP3    H2 8588   0.068   3.002   2.508 -0.2991  0.3287  0.7526
 2883TIP3   OH2 8589   7.848   6.376   0.856 -0.0076 -0.0301 -0.3003
 2883TIP3    H1 8590   7.760   6.404   0.883 -0.9296 -1.1082 -2.0804
 2883TIP3    H2 8591   7.871   6.308   0.920  0.1267  1.1930  0.9850
 2884TIP3   OH2 8592   0.154   0.822   4.492  0.4680 -0.0597  0.0135
 2884TIP3    H1 8593   0.071   0.848   4.533  0.6813  0.0941  0.3466
 2884TIP3    H2 8594   0.127   0.770   4.416  0.0632  0.1269  0.0260
 2885TIP3   OH2 8595   5.564   1.410   3.265  0.1159  0.1893 -0.0096
 2885TIP3    H1 8596   5.569   1.395   3.171  1.1632 -0.4778  0.1497
 2885TIP3    H2 8597   5.654   1.403   3.296 -0.3332 -0.6150  1.1879
 2886TIP3   OH2 8598   5.516   2.624   4.252 -0.2573 -0.1987 -0.1723
 2886TIP3    H1 8599   5.517   2.566   4.329 -0.2629  0.6496  0.4707
 2886TIP3    H2 8600   5.449   2.690   4.272  0.0855  0.3139 -0.6978
 2887TIP3   OH2 8601   6.271   0.091   2.750 -0.3411 -0.3800  0.1971
 2887TIP3    H1 8602   6.303   0.103   2.840  0.6146  1.0773 -0.3347
 2887TIP3    H2 8603   6.349   0.074   2.698 -0.6936  0.5774 -0.6616
 2888TIP3   OH2 8604   7.745   5.337   1.478  0.1731 -0.1676  0.1253
 2888TIP3    H1 8605   7.749   5.332   1.574 -1.9424 -1.0834  0.1985
 2888TIP3    H2 8606   7.652   5.346   1.459  0.5829  0.0501 -1.8607
 2889TIP3   OH2 8607   8.172   2.987   3.467  0.2793 -0.4205 -0.2187
 2889TIP3    H1 8608   8.174   3.082   3.473 -1.1417 -0.2855 -1.6522
 2889TIP3    H2 8609   8.181   2.957   3.558 -0.4513  1.1028  0.3677
 2890TIP3   OH2 8610   6.151   2.938   3.381  0.4142 -0.0022  0.1791
 2890TIP3    H1 8611   6.121   2.847   3.372  0.7263 -0.0752 -0.1992
 2890TIP3    H2 8612   6.110   2.970   3.461 -2.7496  0.7409 -1.6432
 2891TIP3   OH2 8613   5.787   1.843   2.795  0.2367  0.0208  0.3765
 2891TIP3    H1 8614   5.751   1.756   2.811  0.2351  0.1404  1.0131
 2891TIP3    H2 8615   5.873   1.827   2.757  1.2977 -0.2633  2.8297
 2892TIP3   OH2 8616   7.162   2.522   0.639 -0.3318 -0.2314  0.2636
 2892TIP3    H1 8617   7.108   2.443   0.635  0.4400 -0.7637  0.1868
 2892TIP3    H2 8618   7.099   2.594   0.647 -1.0574 -0.8221 -0.0520
 2893TIP3   OH2 8619   8.020   6.085   2.525  0.2345  0.0343  0.3261
 2893TIP3    H1 8620   8.062   6.171   2.523  0.5461 -0.1222  0.2223
 2893TIP3    H2 8621   8.090   6.023   2.508 -0.4520 -0.0764 -2.3127
 2894TIP3   OH2 8622   7.736   1.306   1.379 -0.2172 -0.5086  0.0622
 2894TIP3    H1 8623   7.654   1.355   1.386 -0.0182 -0.2769  0.8683
 2894TIP3    H2 8624   7.803   1.367   1.410  0.4177 -0.2957 -1.7017
 2895TIP3   OH2 8625   5.592   0.516   3.550  0.0389  0.4504 -0.5595
 2895TIP3    H1 8626   5.539   0.564   3.614 -0.1838 -0.3760 -0.1190
 2895TIP3    H2 8627   5.533   0.498   3.477  0.2815  1.3553 -0.9935
 2896TIP3   OH2 8628   6.023   4.103   2.502 -0.2677  0.0376  0.1930
 2896TIP3    H1 8629   6.091   4.074   2.562 -1.2526  0.7948  1.7049
 2896TIP3    H2 8630   6.008   4.195   2.526 -1.0625  0.1850 -0.8514
 2897TIP3   OH2 8631   4.852   1.232   2.415  0.3529  0.0062  0.2143
 2897TIP3    H1 8632   4.793   1.230   2.340 -0.9716  0.9607  1.2037
 2897TIP3    H2 8633   4.824   1.158   2.470  1.0773 -0.4650 -0.0358
 2898TIP3   OH2 8634   7.453   3.817   3.404 -0.0324 -0.2314  0.0186
 2898TIP3    H1 8635   7.483   3.806   3.314  0.3392 -0.1990  0.1392
 2898TIP3    H2 8636   7.490   3.901   3.432 -0.5468 -0.0069  0.0401
 2899TIP3   OH2 8637   5.181   2.301   1.333  0.1703  0.3313 -0.7330
 2899TIP3    H1 8638   5.120   2.371   1.312 -0.4303 -0.1292 -0.5487
 2899TIP3    H2 8639   5.255   2.315   1.275  0.1065  1.1877 -0.6126
 2900TIP3   OH2 8640   5.096   1.023   3.089  0.1093  0.4279  0.0876
 2900TIP3    H1 8641   5.043   1.014   3.168 -1.6338  2.6112 -0.7619
 2900TIP3    H2 8642   5.033   1.018   3.017  1.5718 -0.7490 -1.1447
 2901TIP3   OH2 8643   5.955   3.052   1.988 -0.1715 -0.1262 -0.3044
 2901TIP3    H1 8644   6.023   3.091   1.933  0.8143 -1.4341 -0.0525
 2901TIP3    H2 8645   5.875   3.058   1.936  0.4569 -0.0026 -1.2713
 2902TIP3   OH2 8646   6.369   2.705   3.247  0.0022 -0.0686 -0.5776
 2902TIP3    H1 8647   6.354   2.613   3.225 -0.0543 -0.4782  1.1288
 2902TIP3    H2 8648   6.320   2.719   3.328  0.2009  1.4107 -0.6864
 2903TIP3   OH2 8649   8.267   1.796   2.779 -0.5476 -0.2779  0.4278
 2903TIP3    H1 8650   8.189   1.851   2.792  0.2400  0.9345  0.0975
 2903TIP3    H2 8651   8.289   1.807   2.686  1.9304  2.0077  1.2190
 2904TIP3   OH2 8652   6.121   1.456   2.572  0.2421  0.3934 -0.3608
 2904TIP3    H1 8653   6.127   1.380   2.514  0.8026 -0.4913  0.8283
 2904TIP3    H2 8654   6.211   1.473   2.598  0.2390  2.0845 -1.3746
 2905TIP3   OH2 8655   6.767   2.527   2.894  0.5902  0.1259 -0.1917
 2905TIP3    H1 8656   6.723   2.445   2.872 -0.0683  0.4559 -0.0943
 2905TIP3    H2 8657   6.774   2.574   2.811  1.1465 -0.1089 -0.2838
 2906TIP3   OH2 8658   7.770   2.109   1.867  0.1478  0.6473  0.2020
 2906TIP3    H1 8659   7.816   2.077   1.945  0.4774  1.5653  0.3833
 2906TIP3    H2 8660   7.768   2.204   1.877 -1.0541  0.6704 -0.2262
 2907TIP3   OH2 8661   7.457   2.241   3.300 -0.2099 -0.5438  0.0946
 2907TIP3    H1 8662   7.405   2.224   3.222 -0.8494  0.5298  0.2790
 2907TIP3    H2 8663   7.422   2.323   3.335  0.1144 -0.9715  1.4663
 2908TIP3   OH2 8664   6.143   2.608   2.079 -0.4798 -0.1521  0.4905
 2908TIP3    H1 8665   6.064   2.553   2.084 -0.8337  0.2662 -0.4596
 2908TIP3    H2 8666   6.129   2.675   2.146 -1.3033  0.3875 -0.2127
 2909TIP3   OH2 8667   5.133   3.049   2.171  0.4660 -0.0605 -0.2347
 2909TIP3    H1 8668   5.060   3.084   2.223 -0.5758 -1.3980 -0.7520
 2909TIP3    H2 8669   5.093   3.026   2.087  1.9524  1.2705 -1.3332
 2910TIP3   OH2 8670   7.261   5.693   2.470 -0.3998 -0.6181 -0.3119
 2910TIP3    H1 8671   7.331   5.731   2.523 -0.7558  0.8288 -0.8433
 2910TIP3    H2 8672   7.209   5.642   2.532 -1.3679  1.8139  0.9601
 2911TIP3   OH2 8673   0.396   2.398   0.264  0.4438  0.7182  0.4802
 2911TIP3    H1 8674   0.309   2.400   0.223  0.8486  1.0806 -0.3731
 2911TIP3    H2 8675   0.441   2.474   0.228  1.6507 -0.3383 -0.2890
 2912TIP3   OH2 8676   5.985   4.333   5.345 -0.1473 -0.3509  0.3648
 2912TIP3    H1 8677   6.076   4.303   5.351 -0.3538 -0.9170  0.7995
 2912TIP3    H2 8678   5.982   4.410   5.401  0.0510 -0.3691  0.4023
 2913TIP3   OH2 8679   6.014   2.781   0.923 -0.3818 -0.1513  0.1342
 2913TIP3    H1 8680   6.025   2.850   0.989  2.5555  0.4019 -0.8253
 2913TIP3    H2 8681   5.992   2.828   0.842  0.4884 -0.4147 -0.2653
 2914TIP3   OH2 8682   6.585   2.689   1.866  0.6748 -0.6343 -0.1449
 2914TIP3    H1 8683   6.598   2.596   1.845 -0.8912 -0.4268 -2.1658
 2914TIP3    H2 8684   6.502   2.691   1.913  1.2749 -0.3698  0.9297
 2915TIP3   OH2 8685   6.317   2.433   3.247  0.3513 -0.1030  0.2549
 2915TIP3    H1 8686   6.272   2.402   3.326 -1.2126 -1.7370 -1.1953
 2915TIP3    H2 8687   6.385   2.368   3.231  0.5793  0.1510  0.1888
 2916TIP3   OH2 8688   4.511   0.244   1.724 -0.1647  0.7638  0.4445
 2916TIP3    H1 8689   4.554   0.226   1.640 -1.9912  0.8311 -0.5121
 2916TIP3    H2 8690   4.488   0.157   1.758  1.6235  0.6553  1.4726
 2917TIP3   OH2 8691   5.802   3.413   2.900  0.0679  0.0990 -0.3005
 2917TIP3    H1 8692   5.715   3.447   2.876  0.2718  0.6995 -0.1643
 2917TIP3    H2 8693   5.837   3.476   2.962  1.7940  1.3972 -2.4947
 2918TIP3   OH2 8694   5.873   0.609   2.635 -0.1670 -0.3564  0.7474
 2918TIP3    H1 8695   5.810   0.674   2.665  0.8848  0.5850  0.9380
 2918TIP3    H2 8696   5.838   0.525   2.667 -1.2437  0.1623  0.9595
 2919TIP3   OH2 8697   5.157   3.789   2.522 -0.0724  0.0025  0.5683
 2919TIP3    H1 8698   5.203   3.796   2.605  0.1806 -1.0487  0.5198
 2919TIP3    H2 8699   5.209   3.729   2.470  1.4730  3.0212 -1.5283
 2920TIP3   OH2 8700   6.578   2.550   2.311 -0.7851  0.1422  0.1773
 2920TIP3    H1 8701   6.653   2.499   2.279 -1.3060 -0.7282  0.3335
 2920TIP3    H2 8702   6.509   2.536   2.247 -0.7232  1.2128 -0.1373
 2921TIP3   OH2 8703   5.788   3.917   3.666  0.3298 -0.2702  0.1697
 2921TIP3    H1 8704   5.757   4.007   3.662  2.7861  0.6670  1.2841
 2921TIP3    H2 8705   5.860   3.914   3.603 -1.2979 -2.1667 -1.7174
 2922TIP3   OH2 8706   6.276   4.187   2.069  0.1843 -0.2658  0.2642
 2922TIP3    H1 8707   6.281   4.281   2.081 -3.1250 -0.0135  0.2521
 2922TIP3    H2 8708   6.283   4.175   1.974  1.2005 -0.1140  0.3106
 2923TIP3   OH2 8709   8.373   2.338   1.384 -0.2567 -0.1865  0.2136
 2923TIP3    H1 8710   8.389   2.387   1.303  0.7535 -0.7899  0.0360
 2923TIP3    H2 8711   8.375   2.246   1.356  2.3468 -0.5000  1.2843
 2924TIP3   OH2 8712   7.023   4.325   2.893 -0.0250 -0.3696 -0.0226
 2924TIP3    H1 8713   7.002   4.273   2.970 -0.2626  0.4297  0.4639
 2924TIP3    H2 8714   6.968   4.288   2.823  0.1350 -1.0416  0.2074
 2925TIP3   OH2 8715   5.625   3.735   0.772 -0.1371  0.0673 -0.4443
 2925TIP3    H1 8716   5.611   3.796   0.699 -0.4827 -0.1429 -0.5591
 2925TIP3    H2 8717   5.686   3.780   0.830  1.1660 -0.3024 -1.5079
 2926TIP3   OH2 8718   5.837   4.572   3.465 -0.5513  0.2014 -0.4519
 2926TIP3    H1 8719   5.876   4.638   3.408 -0.5307  0.8618  0.3076
 2926TIP3    H2 8720   5.896   4.498   3.461  1.1229  1.3992  1.1193
 2927TIP3   OH2 8721   7.141   4.292   1.483 -0.2112 -0.3270 -0.0762
 2927TIP3    H1 8722   7.202   4.231   1.442 -0.5878 -0.9681  0.3003
 2927TIP3    H2 8723   7.189   4.375   1.487 -0.0588 -0.3348 -1.5101
 2928TIP3   OH2 8724   0.284   2.883   4.152 -0.0809 -0.1354  0.4762
 2928TIP3    H1 8725   0.377   2.902   4.137 -0.1479  0.2751  0.5625
 2928TIP3    H2 8726   0.250   2.862   4.065 -0.6773  3.1936 -0.1662
 2929TIP3   OH2 8727   6.389   1.644   1.146 -0.2021  0.2575  0.2595
 2929TIP3    H1 8728   6.399   1.739   1.152  2.2419  0.0736 -0.2369
 2929TIP3    H2 8729   6.471   1.610   1.182 -0.8722 -1.6532 -0.0141
 2930TIP3   OH2 8730   2.980   0.216   0.543  0.2870 -0.1553  0.1761
 2930TIP3    H1 8731   2.908   0.159   0.515  0.9140 -0.2200 -1.3199
 2930TIP3    H2 8732   3.058   0.179   0.502  0.8308  1.2886 -0.1281
 2931TIP3   OH2 8733   6.228   1.908   2.563  0.2893  0.4484 -0.7655
 2931TIP3    H1 8734   6.183   1.860   2.632 -0.9159  3.8222  0.8959
 2931TIP3    H2 8735   6.317   1.921   2.597 -0.3806  2.3359  0.2860
 2932TIP3   OH2 8736   6.629   2.528   3.776 -0.7071  0.5196  0.4699
 2932TIP3    H1 8737   6.555   2.468   3.770  1.3986 -2.2694  1.3424
 2932TIP3    H2 8738   6.622   2.565   3.864  0.5766 -2.0165  1.6756
 2933TIP3   OH2 8739   2.511   7.390   4.098 -0.3206  0.1277  0.5246
 2933TIP3    H1 8740   2.551   7.305   4.081 -0.2802  0.1500  0.5083
 2933TIP3    H2 8741   2.537   7.412   4.188  0.1290  0.3739  0.3395
 2934TIP3   OH2 8742   3.709   0.793   0.798  0.3959  0.1405 -0.3406
 2934TIP3    H1 8743   3.798   0.771   0.770  0.9278  0.3121  1.2246
 2934TIP3    H2 8744   3.677   0.713   0.841  0.5986  0.8064  1.0638
 2935TIP3   OH2 8745   5.840   0.387   1.700 -0.4649 -0.1035  0.2790
 2935TIP3    H1 8746   5.926   0.412   1.733 -0.9479 -0.1658  1.6266
 2935TIP3    H2 8747   5.829   0.439   1.620  1.5989 -1.5219 -0.9710
 2936TIP3   OH2 8748   6.264   2.090   1.487 -0.3853 -0.2605  0.1839
 2936TIP3    H1 8749   6.238   2.147   1.414  0.7732  0.2006  0.1315
 2936TIP3    H2 8750   6.227   2.133   1.565  0.1119  0.3357  0.0973
 2937TIP3   OH2 8751   7.561   2.391   4.595 -0.1268  0.5727 -0.1077
 2937TIP3    H1 8752   7.466   2.380   4.593  0.0366 -0.9829  0.0248
 2937TIP3    H2 8753   7.589   2.371   4.506 -0.1009  2.9962 -0.6786
 2938TIP3   OH2 8754   6.948   1.281   2.775 -0.8074  0.0852 -0.7097
 2938TIP3    H1 8755   6.995   1.253   2.697 -1.3626  1.5400 -1.5830
 2938TIP3    H2 8756   6.999   1.353   2.810 -1.2868  0.3213 -0.4870
 2939TIP3   OH2 8757   6.100   1.109   4.575  0.0982  0.1024 -0.3014
 2939TIP3    H1 8758   6.053   1.071   4.500  0.6629 -2.0537  0.3957
 2939TIP3    H2 8759   6.035   1.164   4.618 -0.8803 -0.3944 -1.1140
 2940TIP3   OH2 8760   5.860   1.945   1.204  0.0430 -0.1453 -0.2213
 2940TIP3    H1 8761   5.839   2.037   1.187  0.2349 -0.4141 -1.9325
 2940TIP3    H2 8762   5.851   1.936   1.299  0.6136  1.7822  0.0331
 2941TIP3   OH2 8763   4.782   0.626   3.157 -0.2162 -0.2453  0.3784
 2941TIP3    H1 8764   4.793   0.542   3.112 -0.4575 -1.4754  2.5614
 2941TIP3    H2 8765   4.690   0.627   3.182 -0.3538  0.9635 -0.1472
 2942TIP3   OH2 8766   5.082   2.510   0.663  0.1013  0.7100  1.0032
 2942TIP3    H1 8767   5.134   2.560   0.599  0.9988 -0.7826  0.5456
 2942TIP3    H2 8768   5.112   2.541   0.748  1.2915  0.3205  0.7297
 2943TIP3   OH2 8769   4.376   1.723   2.503 -0.4241 -0.1477  0.2525
 2943TIP3    H1 8770   4.453   1.689   2.457 -1.0237  0.4560 -1.2350
 2943TIP3    H2 8771   4.393   1.704   2.595  0.8794 -1.2390 -0.1935
 2944TIP3   OH2 8772   5.617   1.501   1.277 -0.1964 -0.5313  0.7882
 2944TIP3    H1 8773   5.607   1.419   1.326  1.5361 -1.1241  0.1771
 2944TIP3    H2 8774   5.689   1.485   1.216  1.2896  1.9973  1.7980
 2945TIP3   OH2 8775   6.609   0.528   2.218 -0.0244 -0.4963  0.0667
 2945TIP3    H1 8776   6.681   0.473   2.189  0.8296  0.6963 -0.0987
 2945TIP3    H2 8777   6.532   0.491   2.175  0.7830 -0.5717 -1.3490
 2946TIP3   OH2 8778   5.102   1.294   2.911  0.2794 -0.3272  0.0592
 2946TIP3    H1 8779   5.103   1.201   2.931 -1.0736 -0.6150 -1.1412
 2946TIP3    H2 8780   5.015   1.310   2.875  0.3147  1.5134  0.7547
 2947TIP3   OH2 8781   5.061   2.708   2.814 -0.0183  0.0278 -0.0083
 2947TIP3    H1 8782   5.141   2.676   2.773  0.3374  0.2470  0.5107
 2947TIP3    H2 8783   5.051   2.797   2.779  0.1498  0.1242  0.1874
 2948TIP3   OH2 8784   5.919   2.447   2.145  0.1212 -0.0613 -0.3015
 2948TIP3    H1 8785   5.926   2.433   2.239 -0.1833  2.3961  0.1211
 2948TIP3    H2 8786   5.895   2.361   2.110  0.9372 -1.1793  1.7550
 2949TIP3   OH2 8787   6.913   1.676   2.604 -0.3548  0.5398  0.2764
 2949TIP3    H1 8788   6.983   1.706   2.662  1.4073  0.2669 -1.6403
 2949TIP3    H2 8789   6.859   1.620   2.660  1.9711 -0.6947  1.4108
 2950TIP3   OH2 8790   5.328   0.524   2.679 -0.6558  0.4112 -0.1283
 2950TIP3    H1 8791   5.341   0.454   2.615  1.9598 -0.0422  0.8216
 2950TIP3    H2 8792   5.368   0.601   2.639  1.0769  0.1020  0.9608
 2951TIP3   OH2 8793   6.171   3.373   3.084 -0.3289 -0.3100 -0.1877
 2951TIP3    H1 8794   6.165   3.297   3.025 -1.5828 -0.4149  0.0672
 2951TIP3    H2 8795   6.138   3.341   3.168  0.7244  0.0590  0.3870
 2952TIP3   OH2 8796   3.967   3.447   4.624 -0.2568  0.0185 -0.0438
 2952TIP3    H1 8797   3.983   3.526   4.675  0.3955  0.3093 -0.6935
 2952TIP3    H2 8798   4.000   3.376   4.680 -1.8047  0.0859  0.9919
 2953TIP3   OH2 8799   6.112   2.151   3.318  0.1693  0.2422 -0.1580
 2953TIP3    H1 8800   6.117   2.107   3.403  1.9956  1.4693  0.3944
 2953TIP3    H2 8801   6.080   2.239   3.338 -0.7900  0.0688 -0.9183
 2954TIP3   OH2 8802   5.869   1.188   3.049 -0.2026  0.2533  0.2164
 2954TIP3    H1 8803   5.926   1.173   3.125  0.7054  0.5131 -0.4140
 2954TIP3    H2 8804   5.789   1.226   3.087  0.9877  2.1858  0.8410
 2955TIP3   OH2 8805   6.264   1.183   2.930  0.4967 -0.1887  0.0277
 2955TIP3    H1 8806   6.208   1.156   3.003 -0.7588  0.3548 -0.7226
 2955TIP3    H2 8807   6.326   1.110   2.919  1.0170 -0.0669  1.9311
 2956TIP3   OH2 8808   6.151   1.678   3.020 -0.2444 -0.4430  0.0310
 2956TIP3    H1 8809   6.206   1.630   2.959 -1.4112 -1.9065  0.1034
 2956TIP3    H2 8810   6.167   1.637   3.105  0.1468  0.5152  0.4311
 2957TIP3   OH2 8811   8.060   3.000   2.863 -0.3085  0.3503  0.7142
 2957TIP3    H1 8812   8.056   2.914   2.904  1.1454  0.5659  1.3154
 2957TIP3    H2 8813   8.010   3.057   2.921 -0.3067  0.1503  0.9112
 2958TIP3   OH2 8814   8.064   2.212   1.776  0.1551 -0.9023 -0.2430
 2958TIP3    H1 8815   8.129   2.272   1.814  0.5270 -2.0043  0.8957
 2958TIP3    H2 8816   7.980   2.253   1.795  0.4258 -0.4616  0.0240
 2959TIP3   OH2 8817   8.033   6.452   3.864 -0.0475  1.3046  0.0402
 2959TIP3    H1 8818   8.065   6.363   3.848  2.2086  1.2673  4.1139
 2959TIP3    H2 8819   7.967   6.442   3.932 -0.6638  2.6375 -0.3455
 2960TIP3   OH2 8820   5.795   1.028   2.412  0.3965  0.4346  0.1162
 2960TIP3    H1 8821   5.738   0.952   2.404  0.4606  0.5515 -1.5740
 2960TIP3    H2 8822   5.755   1.080   2.482  0.0757 -0.8927  0.9401
 2961TIP3   OH2 8823   3.505   0.647   2.798 -0.3374 -0.1407  0.1895
 2961TIP3    H1 8824   3.586   0.648   2.848 -1.0391 -1.1982  1.3723
 2961TIP3    H2 8825   3.520   0.582   2.729 -0.0237 -0.0206  0.1443
 2962TIP3   OH2 8826   0.069   3.703   3.376 -0.4683 -0.5001 -0.0612
 2962TIP3    H1 8827   0.086   3.775   3.437  0.6518  0.0449 -1.0053
 2962TIP3    H2 8828   0.102   3.735   3.292 -2.3877 -1.0671 -1.0592
 2963TIP3   OH2 8829   5.536   1.917   3.430 -0.1198  0.3469  0.3355
 2963TIP3    H1 8830   5.502   1.853   3.368  1.5321  0.2246 -0.4781
 2963TIP3    H2 8831   5.499   2.001   3.401  1.0712  0.3705 -1.1560
 2964TIP3   OH2 8832   5.443   2.050   2.709 -0.3505 -0.3069  0.3093
 2964TIP3    H1 8833   5.452   2.091   2.795  2.3752 -0.3561  0.0856
 2964TIP3    H2 8834   5.414   1.960   2.729 -1.0768  0.0819  1.0717
 2965TIP3   OH2 8835   7.225   4.538   1.602  0.2354  0.3384 -0.1184
 2965TIP3    H1 8836   7.256   4.504   1.687  0.3843 -0.1441 -0.3637
 2965TIP3    H2 8837   7.222   4.633   1.614 -0.9004  0.1925  0.8129
 2966TIP3   OH2 8838   3.268   7.765   0.908 -0.2075 -0.1055  0.0246
 2966TIP3    H1 8839   3.243   7.812   0.829 -1.8925 -1.7995 -0.4996
 2966TIP3    H2 8840   3.219   7.807   0.978 -0.1785  0.1769 -0.1234
 2967TIP3   OH2 8841   5.728   1.889   1.847 -0.1350 -0.1616 -0.1484
 2967TIP3    H1 8842   5.726   1.975   1.803 -0.2189 -0.2503 -0.3187
 2967TIP3    H2 8843   5.690   1.906   1.933  1.0634  0.2527  0.3197
 2968TIP3   OH2 8844   6.848   4.577   2.780  0.3623 -0.2472 -0.2216
 2968TIP3    H1 8845   6.898   4.570   2.699  1.2439  0.6049  0.2458
 2968TIP3    H2 8846   6.911   4.607   2.846 -0.1300 -1.8131  0.9988
 2969TIP3   OH2 8847   5.703   1.631   1.699 -0.5426 -0.4425 -0.1888
 2969TIP3    H1 8848   5.724   1.696   1.766 -1.8128  0.1231 -0.3328
 2969TIP3    H2 8849   5.779   1.631   1.641 -0.0050  0.0064  0.5083
 2970TIP3   OH2 8850   4.581   2.636   1.693 -0.1547  0.5059  0.4716
 2970TIP3    H1 8851   4.545   2.552   1.724 -0.9730  0.6283 -0.1416
 2970TIP3    H2 8852   4.622   2.615   1.609 -0.9162  0.8443  0.0135
 2971TIP3   OH2 8853   2.866   0.932   3.178  0.2732 -0.1476 -0.4052
 2971TIP3    H1 8854   2.859   1.027   3.181 -1.0084 -0.2297 -0.4435
 2971TIP3    H2 8855   2.866   0.911   3.084  0.1958 -0.2026 -0.3931
 2972TIP3   OH2 8856   5.195   2.968   0.550 -0.0307 -0.1051  0.1192
 2972TIP3    H1 8857   5.154   2.941   0.468 -0.1745 -2.6803  0.9801
 2972TIP3    H2 8858   5.151   3.050   0.573  0.6119  1.0695 -2.7704
 2973TIP3   OH2 8859   6.917   3.196   2.979 -0.0233  0.3935  0.3452
 2973TIP3    H1 8860   6.859   3.268   2.953 -0.1274 -0.3625 -1.6181
 2973TIP3    H2 8861   6.970   3.179   2.901  0.3676 -1.2957  0.9693
 2974TIP3   OH2 8862   5.460   4.890   2.114 -0.1542 -0.7361  0.0840
 2974TIP3    H1 8863   5.497   4.898   2.202  1.3337 -2.5158 -0.3529
 2974TIP3    H2 8864   5.483   4.972   2.070 -0.8406  0.1290  1.3185
 2975TIP3   OH2 8865   8.313   3.570   2.383 -0.5368 -0.1423 -0.0817
 2975TIP3    H1 8866   8.394   3.594   2.426 -0.5088  0.4524 -0.4702
 2975TIP3    H2 8867   8.340   3.533   2.299 -0.6445 -0.4366  0.0100
 2976TIP3   OH2 8868   5.379   1.854   1.001  0.3348  0.3355 -0.6281
 2976TIP3    H1 8869   5.329   1.936   1.000  1.4275  1.0162 -0.7068
 2976TIP3    H2 8870   5.441   1.865   1.074 -1.3120 -1.5314  1.0809
 2977TIP3   OH2 8871   5.649   2.098   1.520 -0.2703  0.2406 -0.2314
 2977TIP3    H1 8872   5.701   2.030   1.477 -0.4068  1.0950 -1.7694
 2977TIP3    H2 8873   5.566   2.053   1.542  0.7331 -0.8655  1.4123
 2978TIP3   OH2 8874   7.113   1.598   2.169  0.3025 -0.1220 -0.0648
 2978TIP3    H1 8875   7.065   1.516   2.183 -1.6053  0.6028 -1.9890
 2978TIP3    H2 8876   7.096   1.649   2.248  0.1210 -0.9490  0.4365
 2979TIP3   OH2 8877   5.919   2.871   2.698 -0.3383 -0.2487 -0.3409
 2979TIP3    H1 8878   5.875   2.956   2.696  1.6267  0.7890 -1.5320
 2979TIP3    H2 8879   5.948   2.862   2.789 -2.0716 -0.4832  0.2137
 2980TIP3   OH2 8880   7.378   2.711   2.073  0.1577  0.3329 -0.0941
 2980TIP3    H1 8881   7.297   2.688   2.119 -0.3164  0.6447 -0.7696
 2980TIP3    H2 8882   7.350   2.738   1.986  0.7023  3.0374  0.5098
 2981TIP3   OH2 8883   5.257   3.017   0.210 -0.0666  0.4189 -0.3496
 2981TIP3    H1 8884   5.265   3.102   0.253 -0.0760  0.7414 -0.9799
 2981TIP3    H2 8885   5.186   2.973   0.255 -0.7107  1.1361 -0.6619
 2982TIP3   OH2 8886   4.982   1.005   2.807 -0.6315  0.3194 -0.3814
 2982TIP3    H1 8887   5.001   0.915   2.781 -1.2336 -0.1770  0.8319
 2982TIP3    H2 8888   4.895   1.022   2.770 -1.2340 -0.1812  0.7913
 2983TIP3   OH2 8889   3.482   2.789   0.510 -0.3231  1.1377  0.1168
 2983TIP3    H1 8890   3.529   2.847   0.571  0.6838 -0.0093  0.4485
 2983TIP3    H2 8891   3.390   2.814   0.520  0.1005  2.7101  0.2192
 2984TIP3   OH2 8892   5.676   1.160   2.803  0.4210 -0.2164  0.0574
 2984TIP3    H1 8893   5.636   1.085   2.848 -0.1134  0.4851  0.7647
 2984TIP3    H2 8894   5.639   1.157   2.715  0.7314 -1.0373 -0.0440
 2985TIP3   OH2 8895   4.710   3.029   5.058  0.0406  0.1206  0.4514
 2985TIP3    H1 8896   4.696   2.947   5.106 -0.6609 -0.0238 -0.0000
 2985TIP3    H2 8897   4.801   3.024   5.030 -0.6929 -1.6784 -1.7648
 2986TIP3   OH2 8898   6.950   2.629   3.513 -0.0278 -0.2465  0.0605
 2986TIP3    H1 8899   6.947   2.543   3.469 -1.7990 -0.0507 -0.2487
 2986TIP3    H2 8900   6.943   2.608   3.606 -3.1971 -0.3735 -0.1228
 2987TIP3   OH2 8901   3.577   2.004   0.777  0.0367  0.0139  0.3882
 2987TIP3    H1 8902   3.584   2.088   0.822 -1.0361  1.4789 -2.0583
 2987TIP3    H2 8903   3.507   2.018   0.712  0.7337 -2.3617 -0.9221
 2988TIP3   OH2 8904   7.427   2.171   0.673 -0.7554  0.5312 -0.5159
 2988TIP3    H1 8905   7.447   2.120   0.751 -0.7547  0.8703 -0.2911
 2988TIP3    H2 8906   7.510   2.177   0.625 -0.4824  1.2990  0.0372
 2989TIP3   OH2 8907   5.289   1.651   1.616  0.3315 -0.0068  0.0385
 2989TIP3    H1 8908   5.201   1.677   1.588 -0.1382 -0.2150  1.2860
 2989TIP3    H2 8909   5.340   1.732   1.611  0.1129  0.0740 -0.8818
 2990TIP3   OH2 8910   4.098   2.359   1.321 -0.6076  0.1068 -0.5660
 2990TIP3    H1 8911   4.140   2.421   1.381  2.0422 -1.5314 -0.6659
 2990TIP3    H2 8912   4.149   2.366   1.240 -1.8012 -0.4680 -1.3883
 2991TIP3   OH2 8913   6.937   2.444   3.304  0.1629  0.4206  0.1508
 2991TIP3    H1 8914   6.944   2.509   3.234  2.8928  0.0710  0.0273
 2991TIP3    H2 8915   6.843   2.428   3.313 -0.3662  2.1355 -1.8749
 2992TIP3   OH2 8916   3.785   1.983   1.260  0.0982 -0.4086  0.2575
 2992TIP3    H1 8917   3.868   1.942   1.284  0.5367  0.5817  0.4543
 2992TIP3    H2 8918   3.789   2.070   1.300 -0.6507 -0.0318 -0.4795
 2993TIP3   OH2 8919   5.777   3.181   4.305  0.2747  0.4281 -0.1639
 2993TIP3    H1 8920   5.746   3.191   4.395 -0.1915 -1.2516 -0.1293
 2993TIP3    H2 8921   5.706   3.134   4.260  2.0279 -1.9400 -0.5158
 2994TIP3   OH2 8922   2.332   7.468   1.932 -0.1385 -0.2161 -0.7928
 2994TIP3    H1 8923   2.367   7.420   1.857  1.0161 -0.7997  0.1023
 2994TIP3    H2 8924   2.407   7.481   1.990 -0.5714  2.0549 -0.6818
 2995TIP3   OH2 8925   5.678   2.498   1.887 -0.1483 -0.0710  0.5330
 2995TIP3    H1 8926   5.683   2.403   1.878  0.0872  0.0983 -1.3274
 2995TIP3    H2 8927   5.602   2.513   1.943  0.9789 -1.4079  2.5121
 2996TIP3   OH2 8928   6.658   2.148   1.749  0.1192  0.4953  0.2358
 2996TIP3    H1 8929   6.643   2.053   1.753 -1.0465  0.6286 -0.7508
 2996TIP3    H2 8930   6.663   2.167   1.655  0.5107  1.3956  0.4371
 2997TIP3   OH2 8931   5.751   3.995   4.129  0.0966 -0.1441 -0.0138
 2997TIP3    H1 8932   5.672   3.946   4.154  0.3764 -0.1903  0.7901
 2997TIP3    H2 8933   5.717   4.075   4.088 -0.3668 -0.6022 -0.5173
 2998TIP3   OH2 8934   2.918   1.662   0.781  0.1720  0.5063 -0.1770
 2998TIP3    H1 8935   2.898   1.740   0.832 -0.7138 -1.9352  3.4218
 2998TIP3    H2 8936   3.008   1.639   0.808  0.2410  0.0082 -0.8292
 2999TIP3   OH2 8937   5.428   2.690   1.545  0.1249  0.2868 -0.1336
 2999TIP3    H1 8938   5.472   2.729   1.621  0.6522  0.1882 -0.3858
 2999TIP3    H2 8939   5.371   2.623   1.583  1.9639 -1.2392  0.0430
 3000TIP3   OH2 8940   3.467   5.403   3.005  0.2300 -0.0871  0.5129
 3000TIP3    H1 8941   3.446   5.312   3.024 -0.1664 -0.2353 -0.5903
 3000TIP3    H2 8942   3.481   5.405   2.910  0.4972  0.9449  0.5700
 3001TIP3   OH2 8943   6.861   1.047   1.883  0.1748 -0.0711  0.3338
 3001TIP3    H1 8944   6.863   1.027   1.977 -1.5145  2.9370  1.0657
 3001TIP3    H2 8945   6.932   1.110   1.871 -0.3989  0.4836 -0.1670
 3002TIP3   OH2 8946   6.795   1.946   1.514 -0.2040 -0.5869  0.3874
 3002TIP3    H1 8947   6.718   2.000   1.533  0.6299  0.3781  0.9929
 3002TIP3    H2 8948   6.813   1.899   1.595  0.6625  0.1957  0.6494
 3003TIP3   OH2 8949   6.730   4.004   3.693 -0.3439 -0.1073  0.9793
 3003TIP3    H1 8950   6.797   4.060   3.732 -0.9994  1.2688  0.1565
 3003TIP3    H2 8951   6.777   3.923   3.671  0.8966  0.5781  1.0526
 3004TIP3   OH2 8952   5.204   2.596   2.083  0.2256  0.2629 -0.0015
 3004TIP3    H1 8953   5.121   2.643   2.097 -0.0757 -0.2828  0.0872
 3004TIP3    H2 8954   5.182   2.528   2.019  1.0362  1.2400 -1.3287
 3005TIP3   OH2 8955   7.530   4.063   4.675  0.2226 -0.2433 -0.5192
 3005TIP3    H1 8956   7.555   4.138   4.729  2.1437 -1.0806 -0.2014
 3005TIP3    H2 8957   7.554   3.986   4.728 -2.6459 -1.1320 -0.3999
 3006TIP3   OH2 8958   3.952   0.766   1.109  0.2929 -0.3653  0.3286
 3006TIP3    H1 8959   3.912   0.679   1.104  1.7714 -1.0826  0.8160
 3006TIP3    H2 8960   3.901   0.811   1.177 -1.7316 -0.1551 -1.2907
 3007TIP3   OH2 8961   6.269   2.693   2.827  0.1370  0.4892  0.3938
 3007TIP3    H1 8962   6.202   2.711   2.761 -0.2310  1.3833  1.0153
 3007TIP3    H2 8963   6.261   2.764   2.890  0.1729 -0.6244  1.6596
 3008TIP3   OH2 8964   7.771   2.311   0.728  0.3638  0.5997  0.0903
 3008TIP3    H1 8965   7.798   2.219   0.716  1.6584  0.9088  0.5761
 3008TIP3    H2 8966   7.695   2.320   0.671  0.4515 -0.6779 -0.2649
 3009TIP3   OH2 8967   6.182   2.213   2.627  1.1474 -0.3078  0.2606
 3009TIP3    H1 8968   6.110   2.169   2.673  1.6002 -3.5331 -1.9165
 3009TIP3    H2 8969   6.250   2.222   2.693 -0.3112  0.5188  1.7041
 3010TIP3   OH2 8970   4.317   3.554   3.034 -0.2991  0.5077  0.0834
 3010TIP3    H1 8971   4.383   3.491   3.062 -1.0950 -0.3214  0.1210
 3010TIP3    H2 8972   4.325   3.626   3.095  0.3648  0.2763  0.2758
 3011TIP3   OH2 8973   6.389   2.456   0.019 -0.5959 -0.5538  0.3524
 3011TIP3    H1 8974   6.301   2.493   0.031 -1.1456 -1.1864 -1.4757
 3011TIP3    H2 8975   6.439   2.526  -0.022 -0.6074 -0.6069  0.2458
 3012TIP3   OH2 8976   5.830   4.078   5.081 -0.3467 -0.5506 -0.4917
 3012TIP3    H1 8977   5.821   4.174   5.085 -1.3196 -0.5722 -1.6636
 3012TIP3    H2 8978   5.867   4.062   4.994 -1.8601 -1.3388 -0.9962
 3013TIP3   OH2 8979   6.888   2.914   2.723  0.4385  0.2807 -0.4891
 3013TIP3    H1 8980   6.956   2.965   2.768 -0.0167  1.8612 -1.5527
 3013TIP3    H2 8981   6.821   2.978   2.702 -0.7756 -1.0307 -0.6676
 3014TIP3   OH2 8982   6.418   2.484   2.718 -0.6026 -0.1178 -0.2552
 3014TIP3    H1 8983   6.411   2.483   2.813 -0.1805 -0.3936 -0.2284
 3014TIP3    H2 8984   6.352   2.548   2.690 -0.1674  0.5589  0.2672
 3015TIP3   OH2 8985   8.312   1.753   2.493  0.2396 -0.2855  0.7694
 3015TIP3    H1 8986   8.219   1.773   2.479  0.6584  0.9587 -0.2641
 3015TIP3    H2 8987   8.320   1.660   2.475 -0.3560  0.0918 -1.4888
 3016TIP3   OH2 8988   4.977   2.070   1.565  0.3332 -0.4068 -0.4229
 3016TIP3    H1 8989   4.887   2.037   1.569  0.5147 -0.9358 -0.8239
 3016TIP3    H2 8990   4.967   2.165   1.578 -0.0461 -0.7716  2.2918
 3017TIP3   OH2 8991   7.250   3.587   1.019  0.1111  0.2110  0.8083
 3017TIP3    H1 8992   7.170   3.535   1.015  1.2147 -1.5240  0.9942
 3017TIP3    H2 8993   7.254   3.619   1.109  0.1562 -0.5413  1.0709
 3018TIP3   OH2 8994   6.612   4.279   2.337  0.1808 -0.0803 -0.2883
 3018TIP3    H1 8995   6.582   4.284   2.246  0.0090 -1.2444 -0.3023
 3018TIP3    H2 8996   6.594   4.365   2.373 -3.9925 -0.9774 -0.0479
 3019TIP3   OH2 8997   2.523   7.595   1.608 -0.0359  0.1648  0.0560
 3019TIP3    H1 8998   2.530   7.535   1.682  1.4339 -1.8822 -1.6950
 3019TIP3    H2 8999   2.432   7.586   1.579 -0.4546  0.5376  1.2141
 3020TIP3   OH2 9000   6.169   3.683   3.511  0.4660 -0.5130  0.3600
 3020TIP3    H1 9001   6.149   3.706   3.602  2.3048 -0.3149  0.7459
 3020TIP3    H2 9002   6.258   3.717   3.497  0.3999 -1.0081 -1.3432
 3021TIP3   OH2 9003   6.010   1.888   5.578  0.0071  0.1529  0.0619
 3021TIP3    H1 9004   6.020   1.793   5.575 -0.3642  0.0913  0.7988
 3021TIP3    H2 9005   6.100   1.921   5.577  0.1719 -0.2542  1.4271
 3022TIP3   OH2 9006   5.180   1.392   3.638  0.2952  0.8473 -0.1018
 3022TIP3    H1 9007   5.217   1.378   3.726 -1.5526 -0.3191  0.5210
 3022TIP3    H2 9008   5.254   1.376   3.579  0.8954 -1.1366  1.1140
 3023TIP3   OH2 9009   5.947   0.615   2.300  0.0636 -0.3336  0.3362
 3023TIP3    H1 9010   5.898   0.536   2.325  1.7158 -0.5592  3.0568
 3023TIP3    H2 9011   5.961   0.606   2.206 -0.5926 -2.8517  0.4500
 3024TIP3   OH2 9012   6.480   3.030   5.083  0.1025  0.1823 -0.3683
 3024TIP3    H1 9013   6.410   2.985   5.131  1.0520 -0.4923  0.3920
 3024TIP3    H2 9014   6.438   3.058   5.001 -0.7255 -1.3142 -0.4793
 3025TIP3   OH2 9015   4.662   2.334   3.631  0.4529  0.4571 -0.6795
 3025TIP3    H1 9016   4.600   2.276   3.585  0.0646 -1.1609  1.7505
 3025TIP3    H2 9017   4.725   2.360   3.564  0.5000 -2.6273 -1.9521
 3026TIP3   OH2 9018   5.922   3.139   5.222  0.3549 -0.3899  0.3238
 3026TIP3    H1 9019   5.945   3.221   5.267  1.8694 -0.1019 -0.9219
 3026TIP3    H2 9020   5.892   3.081   5.292 -0.9262  1.2802  1.2133
 3027TIP3   OH2 9021   4.799   0.311   4.253  0.2090 -0.2833 -0.1219
 3027TIP3    H1 9022   4.753   0.391   4.228 -1.5752 -0.4231  2.4481
 3027TIP3    H2 9023   4.733   0.242   4.247  0.9604 -1.0695  0.4069
 3028TIP3   OH2 9024   6.211   2.859   3.704 -0.1507  0.1084  0.0074
 3028TIP3    H1 9025   6.281   2.924   3.711  0.4403 -0.5684  0.4761
 3028TIP3    H2 9026   6.148   2.885   3.771 -0.2250  0.5710 -0.2423
 3029TIP3   OH2 9027   6.743   2.381   3.115 -0.5461  0.2017 -0.2640
 3029TIP3    H1 9028   6.801   2.317   3.073 -2.1008 -0.5303 -1.3194
 3029TIP3    H2 9029   6.745   2.457   3.057  0.3132  0.6528  0.3422
 3030TIP3   OH2 9030   5.812   2.531   0.815  0.0300  0.2441 -0.0054
 3030TIP3    H1 9031   5.868   2.486   0.752 -0.2351  0.7451 -0.6038
 3030TIP3    H2 9032   5.871   2.590   0.862  0.2310 -0.1465  0.2401
 3031TIP3   OH2 9033   2.993   1.830   2.900  0.2634 -0.8067  0.3435
 3031TIP3    H1 9034   3.012   1.882   2.822 -0.6564 -0.3355  0.4279
 3031TIP3    H2 9035   3.065   1.767   2.905  1.5048  0.6029  0.3725
 3032TIP3   OH2 9036   1.102   7.003   1.367  0.2574 -0.2345  0.2328
 3032TIP3    H1 9037   1.133   6.919   1.400 -0.0663 -0.2021  0.6144
 3032TIP3    H2 9038   1.013   6.986   1.337  0.3629 -0.1409 -0.1469
 3033TIP3   OH2 9039   7.450   3.421   2.704 -0.4486 -0.5064 -0.8263
 3033TIP3    H1 9040   7.410   3.380   2.627  0.2572 -1.7215 -0.5424
 3033TIP3    H2 9041   7.543   3.426   2.683 -0.5323  1.1487 -0.9375
 3034TIP3   OH2 9042   4.995   2.515   1.894  0.2170 -0.3669 -0.0919
 3034TIP3    H1 9043   4.988   2.450   1.964 -0.4123  2.3797  2.5064
 3034TIP3    H2 9044   4.908   2.555   1.891 -0.5866 -2.1302 -4.2778
 3035TIP3   OH2 9045   4.032   3.921   2.640 -0.8909  0.0221  0.0606
 3035TIP3    H1 9046   3.997   3.878   2.562  1.3637 -0.8602 -0.5269
 3035TIP3    H2 9047   4.041   3.851   2.704 -2.4108  0.6834  1.0230
 3036TIP3   OH2 9048   6.543   4.389   1.814 -0.1542 -0.1282  0.3293
 3036TIP3    H1 9049   6.495   4.462   1.853 -1.9684 -0.2249 -1.6671
 3036TIP3    H2 9050   6.625   4.428   1.783  0.6125  0.2520  2.7281
 3037TIP3   OH2 9051   8.314   2.768   3.353  0.3676 -0.8610  0.3803
 3037TIP3    H1 9052   8.254   2.825   3.401  0.9994 -0.6155  0.8859
 3037TIP3    H2 9053   8.377   2.738   3.418  0.3785 -1.6899 -0.0004
 3038TIP3   OH2 9054   7.521   2.573   2.296  0.2727 -0.0849  0.2568
 3038TIP3    H1 9055   7.603   2.622   2.306 -0.0854  0.5791 -0.0235
 3038TIP3    H2 9056   7.452   2.637   2.313 -0.2504 -0.0247 -1.9366
 3039TIP3   OH2 9057   8.476   3.875   2.538  0.3169  0.1171  0.6510
 3039TIP3    H1 9058   8.409   3.814   2.569 -0.2363  1.4866  2.2514
 3039TIP3    H2 9059   8.503   3.922   2.617  1.9536  0.7503 -0.2683
 3040TIP3   OH2 9060   5.709   1.385   2.258 -0.7832  0.4313 -0.2181
 3040TIP3    H1 9061   5.682   1.370   2.168 -1.6193  1.4857 -0.1627
 3040TIP3    H2 9062   5.651   1.456   2.288 -0.4210  0.1801  1.0913
 3041TIP3   OH2 9063   6.497   3.333   3.812  0.5586 -0.1635  0.3778
 3041TIP3    H1 9064   6.541   3.263   3.860  1.4523  0.0030 -0.1812
 3041TIP3    H2 9065   6.557   3.407   3.818 -0.6020  0.7194  1.3778
 3042TIP3   OH2 9066   3.432   1.941   0.227 -0.1182 -0.1349  0.1319
 3042TIP3    H1 9067   3.421   1.959   0.320 -0.1223 -1.5954  0.4139
 3042TIP3    H2 9068   3.526   1.940   0.213 -0.1199  0.4380  0.0339
 3043TIP3   OH2 9069   5.101   2.081   4.173  0.5805  0.3411 -0.0788
 3043TIP3    H1 9070   5.099   2.115   4.262  0.7172 -0.4491  0.2292
 3043TIP3    H2 9071   5.041   2.005   4.175 -0.8329  1.3995 -1.0989
 3044TIP3   OH2 9072   6.570   3.143   1.740 -0.5585  0.1414  0.5611
 3044TIP3    H1 9073   6.538   3.092   1.814 -2.1959  0.2268 -0.0640
 3044TIP3    H2 9074   6.548   3.233   1.760  1.3696  0.5121  1.1645
 3045TIP3   OH2 9075   2.294   2.189   4.000  0.4389 -0.2878 -0.2495
 3045TIP3    H1 9076   2.319   2.263   3.945 -1.1212 -1.4424 -2.6051
 3045TIP3    H2 9077   2.377   2.151   4.029  1.2448  2.3596  0.9694
 3046TIP3   OH2 9078   7.201   1.106   0.267  0.3164 -0.3461  0.2818
 3046TIP3    H1 9079   7.295   1.112   0.253  0.2948 -1.3938 -0.3029
 3046TIP3    H2 9080   7.165   1.086   0.181 -0.6849  2.5395 -0.0288
 3047TIP3   OH2 9081   4.328   8.112   2.123 -0.1008  0.5413  0.0314
 3047TIP3    H1 9082   4.417   8.138   2.102  0.2020  0.3139  0.9909
 3047TIP3    H2 9083   4.338   8.033   2.178 -0.8168  1.5116  1.6014
 3048TIP3   OH2 9084   0.380   0.637   3.677  0.1428 -0.1759  0.2453
 3048TIP3    H1 9085   0.323   0.714   3.682  1.3339  0.7551 -0.0678
 3048TIP3    H2 9086   0.366   0.591   3.760  0.2056  0.9629  0.9014
 3049TIP3   OH2 9087   5.765   0.114   2.080  0.9794  0.4594  0.0913
 3049TIP3    H1 9088   5.769   0.113   2.176  0.1721  0.5125  0.1301
 3049TIP3    H2 9089   5.809   0.195   2.055 -0.6349  1.4939  0.5250
 3050TIP3   OH2 9090   4.991   2.551   3.618  0.5354  0.0248  0.1906
 3050TIP3    H1 9091   5.062   2.494   3.648 -0.1014 -1.1707 -0.5334
 3050TIP3    H2 9092   4.939   2.496   3.561 -1.0914  0.8382  0.8632
 3051TIP3   OH2 9093   4.427   0.786   1.960  0.5109  0.1996 -0.3534
 3051TIP3    H1 9094   4.518   0.756   1.962  1.3057  2.5383  0.4886
 3051TIP3    H2 9095   4.419   0.835   1.879  0.5390  1.5383  0.4376
 3052TIP3   OH2 9096   5.901   2.507   1.429 -0.4818 -0.2095  0.0459
 3052TIP3    H1 9097   5.985   2.512   1.474 -0.1698  0.4004 -0.6002
 3052TIP3    H2 9098   5.922   2.473   1.342 -0.9113 -0.1221 -0.0926
 3053TIP3   OH2 9099   5.432   1.452   3.509  0.0626  0.2500 -0.0325
 3053TIP3    H1 9100   5.471   1.411   3.432 -0.7355 -0.0976 -0.2636
 3053TIP3    H2 9101   5.481   1.532   3.522  0.8776 -0.2049 -0.2852
 3054TIP3   OH2 9102   5.245   2.157   0.594 -0.4017  0.4796  0.4448
 3054TIP3    H1 9103   5.241   2.188   0.503  0.1044  1.7176  0.8311
 3054TIP3    H2 9104   5.325   2.106   0.599 -0.0794  0.9684  0.3556
 3055TIP3   OH2 9105   8.273   2.395   0.811  0.1414 -0.0373 -0.1147
 3055TIP3    H1 9106   8.219   2.343   0.752 -0.4313  0.5672 -0.1367
 3055TIP3    H2 9107   8.249   2.365   0.899  1.0850 -1.0225 -0.1934
 3056TIP3   OH2 9108   5.564   0.449   1.588  0.3044  0.0297  0.3156
 3056TIP3    H1 9109   5.613   0.425   1.510 -1.2403 -3.6055  0.3743
 3056TIP3    H2 9110   5.480   0.483   1.555 -0.1448 -1.0200  0.3626
 3057TIP3   OH2 9111   5.599   1.253   1.950 -0.0437 -0.5035 -0.0131
 3057TIP3    H1 9112   5.671   1.197   1.978  3.0386  2.6672 -1.1789
 3057TIP3    H2 9113   5.602   1.250   1.854 -0.4617  0.9021 -0.0821
 3058TIP3   OH2 9114   8.341   4.854   0.457  0.3121  0.7019  0.6578
 3058TIP3    H1 9115   8.281   4.916   0.499 -2.1338 -0.9906 -0.2646
 3058TIP3    H2 9116   8.348   4.782   0.519 -1.0028 -0.4671 -0.5217
 3059TIP3   OH2 9117   5.507   2.384   3.936 -0.5792 -0.4086  0.0945
 3059TIP3    H1 9118   5.474   2.326   4.006  1.5777 -0.7236  0.8777
 3059TIP3    H2 9119   5.456   2.464   3.946 -1.0272 -0.8344  1.3741
 3060TIP3   OH2 9120   6.020   5.006   2.404 -0.2539  0.5028  0.5382
 3060TIP3    H1 9121   6.062   5.071   2.461 -0.2026 -0.0772  1.1748
 3060TIP3    H2 9122   6.087   4.938   2.394 -1.0611 -0.4744  1.6312
 3061TIP3   OH2 9123   6.377   2.980   1.886 -0.1912  0.1405  0.0586
 3061TIP3    H1 9124   6.312   3.045   1.915 -0.8571 -0.4155 -0.1715
 3061TIP3    H2 9125   6.420   2.951   1.966 -1.9423 -1.3048  0.5084
 3062TIP3   OH2 9126   5.229   2.363   3.012 -0.0173 -0.1499 -0.4496
 3062TIP3    H1 9127   5.155   2.414   3.044  2.7447  1.7643  3.2113
 3062TIP3    H2 9128   5.196   2.273   3.007 -2.5644  0.6557  1.0082
 3063TIP3   OH2 9129   7.392   4.798   4.722 -0.0639  0.3764  0.3151
 3063TIP3    H1 9130   7.441   4.717   4.734 -0.3225  0.5863  3.1246
 3063TIP3    H2 9131   7.431   4.838   4.645  2.5257 -0.6696  1.0307
 3064TIP3   OH2 9132   7.058   0.826   3.208  0.0362  0.1158 -0.2573
 3064TIP3    H1 9133   7.029   0.899   3.262  1.3055 -1.3045  2.4504
 3064TIP3    H2 9134   7.118   0.865   3.144  0.4835  1.4608  0.9700
 3065TIP3   OH2 9135   5.540   2.495   3.508  0.1437  0.1204  0.1641
 3065TIP3    H1 9136   5.576   2.422   3.558  0.6521  1.4050  1.7587
 3065TIP3    H2 9137   5.494   2.548   3.574 -1.0367  0.7402 -1.1229
 3066TIP3   OH2 9138   5.781   3.725   4.923  0.4462  0.5730  0.0878
 3066TIP3    H1 9139   5.873   3.730   4.897  0.6220 -2.2055  0.1081
 3066TIP3    H2 9140   5.733   3.750   4.844  1.1622 -0.2653 -0.6228
 3067TIP3   OH2 9141   6.843   4.915   2.291  0.4282 -0.1666  0.5453
 3067TIP3    H1 9142   6.845   5.010   2.275 -0.2452  0.1237  2.0267
 3067TIP3    H2 9143   6.816   4.908   2.383 -2.8722 -1.8751 -0.4954
 3068TIP3   OH2 9144   6.826   3.681   4.144 -0.4414  0.7400  0.3716
 3068TIP3    H1 9145   6.843   3.593   4.177 -1.3381 -0.0482 -1.2541
 3068TIP3    H2 9146   6.758   3.715   4.202  0.6068  0.7576  1.6230
 3069TIP3   OH2 9147   6.593   3.834   1.816  0.1193 -0.2386  0.0202
 3069TIP3    H1 9148   6.644   3.775   1.871  0.6903 -1.1313 -1.4329
 3069TIP3    H2 9149   6.506   3.794   1.812 -0.5494  0.9774  2.0257
 3070TIP3   OH2 9150   7.241   3.403   2.914  0.1415 -1.0110 -0.3604
 3070TIP3    H1 9151   7.318   3.434   2.867  1.1528 -1.8642  0.6848
 3070TIP3    H2 9152   7.201   3.338   2.856 -0.6151  0.4482 -1.5106
 3071TIP3   OH2 9153   5.864   2.931   2.229 -0.5912  0.1259  0.2938
 3071TIP3    H1 9154   5.891   2.990   2.158  1.0686 -1.6604 -0.6387
 3071TIP3    H2 9155   5.798   2.874   2.189 -3.4773  2.3924  1.6733
 3072TIP3   OH2 9156   3.953   4.055   3.405 -0.4230  0.3880  0.7173
 3072TIP3    H1 9157   4.005   4.068   3.484  0.8149 -1.3326  0.2064
 3072TIP3    H2 9158   3.988   4.118   3.342 -0.1557  0.4640  0.9449
 3073TIP3   OH2 9159   7.353   1.849   0.869  0.3691  0.0686 -0.0420
 3073TIP3    H1 9160   7.311   1.807   0.794 -0.5266  0.8677  0.0012
 3073TIP3    H2 9161   7.392   1.777   0.918  1.3023 -0.4132 -1.4780
 3074TIP3   OH2 9162   4.902   0.831   2.563  0.0371  0.2767  0.2238
 3074TIP3    H1 9163   4.837   0.761   2.573  0.5099 -0.0384  1.2016
 3074TIP3    H2 9164   4.976   0.789   2.519  0.6407 -0.0640  1.5220
 3075TIP3   OH2 9165   7.958   1.626   2.476 -0.1288  0.1016 -0.1184
 3075TIP3    H1 9166   7.983   1.718   2.486 -0.6058  0.2857 -0.6211
 3075TIP3    H2 9167   7.931   1.618   2.385  0.6107 -0.7137 -0.2755
 3076TIP3   OH2 9168   6.339   1.067   3.719 -0.1632  0.5343 -0.2334
 3076TIP3    H1 9169   6.357   0.986   3.670 -0.7507  0.2919 -0.0574
 3076TIP3    H2 9170   6.399   1.064   3.793 -0.1256  0.2960 -0.2709
 3077TIP3   OH2 9171   6.620   7.162   6.644  0.2376 -0.2791  0.1272
 3077TIP3    H1 9172   6.580   7.234   6.595  1.4645  0.1747 -0.2512
 3077TIP3    H2 9173   6.641   7.199   6.729 -1.2735 -0.8730  0.7608
 3078TIP3   OH2 9174   6.097   1.822   0.825 -1.0893 -0.0246  0.2279
 3078TIP3    H1 9175   6.006   1.836   0.849 -2.1108 -0.9244 -2.9310
 3078TIP3    H2 9176   6.105   1.727   0.811  0.6317 -0.1149  1.5566
 3079TIP3   OH2 9177   6.412   1.881   3.216  0.8198 -0.2773  0.6076
 3079TIP3    H1 9178   6.391   1.788   3.223 -2.0109  0.2210 -0.4914
 3079TIP3    H2 9179   6.421   1.897   3.122 -0.6511  0.9195  0.6555
 3080TIP3   OH2 9180   7.475   1.716   2.575 -0.2473  0.0344  0.4120
 3080TIP3    H1 9181   7.537   1.652   2.542 -0.4836  0.0330 -0.0393
 3080TIP3    H2 9182   7.414   1.730   2.502  0.6342  1.8389 -0.0178
 3081TIP3   OH2 9183   1.726   7.454   2.282  1.0063 -0.1533  0.3419
 3081TIP3    H1 9184   1.685   7.491   2.360  1.1681  0.1853  0.2696
 3081TIP3    H2 9185   1.731   7.528   2.221  1.3345 -0.2936  0.1968
 3082TIP3   OH2 9186   4.261   1.168   2.089 -0.0880  0.0505 -0.3633
 3082TIP3    H1 9187   4.207   1.094   2.060 -0.0609 -0.6726  1.3102
 3082TIP3    H2 9188   4.260   1.160   2.185 -0.7501  2.6958 -0.1285
 3083TIP3   OH2 9189   4.086   1.910   1.895  0.1099  0.0457  0.2230
 3083TIP3    H1 9190   4.004   1.874   1.861  0.6390  1.4304 -2.6705
 3083TIP3    H2 9191   4.072   1.917   1.989 -2.7687 -0.5575 -0.1156
 3084TIP3   OH2 9192   5.928   4.191   1.312  0.2161 -0.0618 -0.1746
 3084TIP3    H1 9193   5.980   4.265   1.342 -0.6961  0.2012  0.7873
 3084TIP3    H2 9194   5.974   4.114   1.345 -0.0395  0.1732  0.7506
 3085TIP3   OH2 9195   7.264   3.020   3.153 -0.9420  0.8718 -0.1468
 3085TIP3    H1 9196   7.313   3.012   3.235  0.4779  1.0512 -0.9658
 3085TIP3    H2 9197   7.178   2.981   3.173  0.4181 -1.9325  0.5378
 3086TIP3   OH2 9198   6.902   0.771   5.383  0.0627 -0.5670 -0.1107
 3086TIP3    H1 9199   6.824   0.825   5.374  0.0470 -0.3260  1.3452
 3086TIP3    H2 9200   6.973   0.833   5.399 -0.0981 -0.9976  2.4551
 3087TIP3   OH2 9201   3.849   2.453   1.779  0.0322  0.2823 -0.1850
 3087TIP3    H1 9202   3.782   2.402   1.824  0.1329 -0.1461 -0.5221
 3087TIP3    H2 9203   3.853   2.416   1.691  0.6882  0.3288 -0.1770
 3088TIP3   OH2 9204   0.752   6.750   6.918 -0.4657  0.1411 -0.4710
 3088TIP3    H1 9205   0.844   6.769   6.934 -0.1229 -2.1643  0.3853
 3088TIP3    H2 9206   0.750   6.713   6.830 -0.3052 -1.6214  0.2570
 3089TIP3   OH2 9207   5.916   2.614   3.127 -0.1592  0.4073 -0.3786
 3089TIP3    H1 9208   5.825   2.621   3.099 -0.1891 -0.3288 -0.4817
 3089TIP3    H2 9209   5.928   2.521   3.147  0.8349  0.3210 -1.2941
 3090TIP3   OH2 9210   5.970   2.399   3.330  0.5952 -0.2711 -0.6097
 3090TIP3    H1 9211   5.936   2.373   3.415 -3.0884  0.8685 -1.6266
 3090TIP3    H2 9212   6.000   2.489   3.343  1.7852 -0.7308 -0.0970
 3091TIP3   OH2 9213   7.860   2.065   0.665  0.4225 -0.0681  0.6614
 3091TIP3    H1 9214   7.887   2.047   0.575 -0.9099 -0.1912  0.2773
 3091TIP3    H2 9215   7.830   1.981   0.698 -0.2197  0.2261  0.8234
 3092TIP3   OH2 9216   7.845   2.812   1.960  0.1484 -0.3279 -0.0824
 3092TIP3    H1 9217   7.817   2.846   1.875 -1.6614 -0.2436  0.5279
 3092TIP3    H2 9218   7.765   2.811   2.013  1.6049  1.3376  2.2007
 3093TIP3   OH2 9219   0.341   2.162   1.754  0.1446 -0.1631  0.1306
 3093TIP3    H1 9220   0.269   2.222   1.737 -0.3321 -0.8633 -0.3177
 3093TIP3    H2 9221   0.326   2.088   1.695 -0.1390 -1.4495  1.7864
 3094TIP3   OH2 9222   7.862   1.571   2.879  0.1328  0.3395  0.0543
 3094TIP3    H1 9223   7.913   1.635   2.928 -0.8491  1.7940 -0.8057
 3094TIP3    H2 9224   7.826   1.512   2.946  0.7775  0.8634  0.8639
 3095TIP3   OH2 9225   6.813   2.531   1.387  0.1017  0.0107 -0.6128
 3095TIP3    H1 9226   6.855   2.445   1.377  0.8625  0.5110 -1.8442
 3095TIP3    H2 9227   6.729   2.512   1.429  0.3145 -1.3194 -0.7657
 3096TIP3   OH2 9228   8.325   2.456   0.478 -0.1590 -0.0199  0.0601
 3096TIP3    H1 9229   8.279   2.378   0.509  1.4780 -0.3644  1.7177
 3096TIP3    H2 9230   8.260   2.526   0.483 -1.3116 -1.0484 -0.3440
 3097TIP3   OH2 9231   6.187   1.992   1.056  0.5600 -1.1097  0.5284
 3097TIP3    H1 9232   6.103   2.033   1.039  2.4437  2.5212 -0.4506
 3097TIP3    H2 9233   6.211   1.951   0.973  1.3240  0.8573 -0.2449
 3098TIP3   OH2 9234   6.366   0.950   0.986  0.0576  0.3446  0.0148
 3098TIP3    H1 9235   6.345   1.034   1.025  1.2404  0.6202  0.0667
 3098TIP3    H2 9236   6.289   0.928   0.934 -0.8413  0.7692  1.1360
 3099TIP3   OH2 9237   5.226   2.996   4.553  0.5347 -0.6071  0.4411
 3099TIP3    H1 9238   5.194   2.918   4.507 -2.6552  0.3948  0.8000
 3099TIP3    H2 9239   5.211   2.976   4.646 -0.1541  0.3333  0.5449
 3100TIP3   OH2 9240   7.561   2.256   2.363  0.1262 -0.3749  0.5711
 3100TIP3    H1 9241   7.574   2.276   2.270  0.4611 -1.2376  0.4349
 3100TIP3    H2 9242   7.615   2.320   2.408  1.9755 -1.5660  0.1035
 3101TIP3   OH2 9243   7.499   0.551   4.078 -0.2992 -0.2408  0.5465
 3101TIP3    H1 9244   7.517   0.601   4.158  1.5400 -1.6689  1.0806
 3101TIP3    H2 9245   7.410   0.519   4.088 -0.3180  0.1756  1.7241
 3102TIP3   OH2 9246   2.895   5.005   1.602 -0.8851 -0.4719  0.2872
 3102TIP3    H1 9247   2.918   5.093   1.572 -0.9111  0.0178  1.6312
 3102TIP3    H2 9248   2.933   4.946   1.537 -3.1700  0.6067 -2.0812
 3103TIP3   OH2 9249   0.367   3.692   3.159 -0.2136  0.2877  0.2405
 3103TIP3    H1 9250   0.379   3.697   3.254  2.1262  2.0264 -0.1002
 3103TIP3    H2 9251   0.337   3.779   3.133 -1.3665 -0.3345 -0.5759
 3104TIP3   OH2 9252   6.592   1.861   2.194  0.3918 -0.2693  0.4592
 3104TIP3    H1 9253   6.533   1.829   2.126 -0.6348 -0.0100  1.2155
 3104TIP3    H2 9254   6.562   1.950   2.211  0.5891 -0.3624  1.3104
 3105TIP3   OH2 9255   8.472   2.192   2.773  0.6598 -0.5957  0.2137
 3105TIP3    H1 9256   8.501   2.281   2.791  1.1191 -1.0305  1.6672
 3105TIP3    H2 9257   8.493   2.143   2.852 -2.9166 -1.2067  0.8633
 3106TIP3   OH2 9258   7.886   2.845   0.297 -0.0543 -0.0643  0.0780
 3106TIP3    H1 9259   7.812   2.858   0.357 -0.0065 -1.7781  0.5262
 3106TIP3    H2 9260   7.955   2.901   0.330 -0.6559  0.4016  0.5424
 3107TIP3   OH2 9261   8.544   1.727   1.743 -0.1616 -0.7248 -0.4908
 3107TIP3    H1 9262   8.614   1.663   1.729 -0.4841 -1.9034  2.8072
 3107TIP3    H2 9263   8.477   1.678   1.792 -2.4277  0.9391 -1.8072
 3108TIP3   OH2 9264   0.627   2.469   1.331  0.4466  0.1743  0.0718
 3108TIP3    H1 9265   0.631   2.506   1.243 -2.3224  2.1047  0.6876
 3108TIP3    H2 9266   0.687   2.522   1.382 -0.2081  1.0190 -0.0225
 3109TIP3   OH2 9267   7.008   3.418   1.550  0.6372  0.3649 -0.4244
 3109TIP3    H1 9268   6.933   3.423   1.608  1.5206  2.1886  0.5886
 3109TIP3    H2 9269   7.031   3.509   1.531  2.7715 -0.1383 -0.4710
 3110TIP3   OH2 9270   1.396   1.873   2.610  0.0572 -0.2038 -0.0015
 3110TIP3    H1 9271   1.322   1.930   2.630 -0.9747 -1.4331 -0.2289
 3110TIP3    H2 9272   1.434   1.911   2.531 -1.6731 -0.7787 -1.1509
 3111TIP3   OH2 9273   7.958   0.205   1.938  0.2844 -0.0187 -0.9357
 3111TIP3    H1 9274   7.884   0.183   1.881  1.5672 -0.0455 -2.6626
 3111TIP3    H2 9275   7.924   0.196   2.027 -1.8979  0.3809 -1.6907
 3112TIP3   OH2 9276   5.843   2.133   2.113 -0.1174 -0.3835  0.1468
 3112TIP3    H1 9277   5.773   2.071   2.090  1.1627 -1.0833 -1.9556
 3112TIP3    H2 9278   5.890   2.090   2.184 -0.2095 -1.1314 -0.2369
 3113TIP3   OH2 9279   3.240   7.547   1.926 -0.1700  0.1646 -0.8935
 3113TIP3    H1 9280   3.233   7.454   1.944 -0.6292  0.3809  0.0656
 3113TIP3    H2 9281   3.302   7.553   1.854 -0.8231 -0.9375 -1.5446
 3114TIP3   OH2 9282   5.401   6.714   6.369  0.1915 -0.8432 -0.0398
 3114TIP3    H1 9283   5.449   6.790   6.404 -2.0183 -0.1718  1.6480
 3114TIP3    H2 9284   5.311   6.745   6.360 -0.2129 -2.4887 -1.9282
 3115TIP3   OH2 9285   5.735   3.096   3.839 -0.7078 -0.1566 -0.3311
 3115TIP3    H1 9286   5.765   3.154   3.909 -0.3419 -0.4642 -0.2323
 3115TIP3    H2 9287   5.753   3.145   3.759 -0.2124 -0.2147 -0.2584
 3116TIP3   OH2 9288   8.404   3.213   0.527 -0.3901  0.1978 -0.7272
 3116TIP3    H1 9289   8.316   3.211   0.490 -0.9112 -0.5667  0.5371
 3116TIP3    H2 9290   8.400   3.278   0.596 -0.2248 -0.5343 -0.0220
 3117TIP3   OH2 9291   8.187   2.795   2.321 -0.3945 -0.3578 -0.6011
 3117TIP3    H1 9292   8.268   2.846   2.328 -0.2312 -0.9124  1.6770
 3117TIP3    H2 9293   8.213   2.705   2.339 -1.5216 -0.5373  0.1740
 3118TIP3   OH2 9294   4.737   2.559   1.495  0.0220 -0.2972 -0.1052
 3118TIP3    H1 9295   4.815   2.611   1.516  0.2694 -1.3801  1.7827
 3118TIP3    H2 9296   4.763   2.506   1.420  0.2688  1.1684 -1.0769
 3119TIP3   OH2 9297   5.330   2.678   1.074  0.0633 -0.1056  0.4243
 3119TIP3    H1 9298   5.243   2.646   1.097  0.7217 -1.4706  1.0810
 3119TIP3    H2 9299   5.373   2.695   1.158  0.3856  0.7291  0.1046
 3120TIP3   OH2 9300   2.251   5.983   6.591  0.2278  0.1265  0.3422
 3120TIP3    H1 9301   2.256   5.963   6.498 -1.3553 -2.1677  0.6997
 3120TIP3    H2 9302   2.257   6.078   6.596  4.0138  0.0857 -1.7924
 3121TIP3   OH2 9303   5.244   3.497   2.061 -0.9374  0.5251  0.1658
 3121TIP3    H1 9304   5.228   3.529   1.972  1.6733  0.2208 -0.4644
 3121TIP3    H2 9305   5.209   3.566   2.118 -1.6480  1.2301 -1.0981
 3122TIP3   OH2 9306   8.496   2.089   2.529 -0.1524  0.1625 -0.1288
 3122TIP3    H1 9307   8.472   2.134   2.609 -0.2958 -1.8577  0.9893
 3122TIP3    H2 9308   8.591   2.099   2.523 -0.1662  0.4786  0.1897
 3123TIP3   OH2 9309   7.050   1.821   1.524 -0.4601 -0.4705  0.0202
 3123TIP3    H1 9310   7.049   1.876   1.602 -0.2338 -1.8170  1.0005
 3123TIP3    H2 9311   6.995   1.867   1.461  2.2197  2.4829 -0.3288
 3124TIP3   OH2 9312   5.491   2.224   2.921  0.0027  0.0678 -0.3611
 3124TIP3    H1 9313   5.564   2.263   2.969 -0.5871  0.4974  0.1931
 3124TIP3    H2 9314   5.414   2.273   2.949 -0.4243  0.0073 -1.3907
 3125TIP3   OH2 9315   4.181   2.751   1.788 -0.0079  0.4107  0.4349
 3125TIP3    H1 9316   4.106   2.774   1.732  1.1845  1.4615 -0.7771
 3125TIP3    H2 9317   4.170   2.658   1.806 -0.8888  0.2576 -0.8384
 3126TIP3   OH2 9318   7.224   2.593   0.904  0.1089 -0.2640 -0.3264
 3126TIP3    H1 9319   7.211   2.519   0.963  0.0027  1.4831  1.9042
 3126TIP3    H2 9320   7.193   2.562   0.819  0.2600 -2.8267  0.5138
 3127TIP3   OH2 9321   7.386   1.347   2.773  0.0996  0.0254  0.3690
 3127TIP3    H1 9322   7.321   1.418   2.777  1.0527  0.8465  2.1884
 3127TIP3    H2 9323   7.443   1.372   2.700  1.0189  1.6947  1.6168
 3128TIP3   OH2 9324   0.026   0.645   1.346  0.3671 -0.4080 -0.1342
 3128TIP3    H1 9325   0.121   0.643   1.355  0.4431  0.6285 -0.7567
 3128TIP3    H2 9326  -0.005   0.589   1.418  1.5273 -2.8019 -1.4194
 3129TIP3   OH2 9327   0.212   2.575   0.876 -0.5334  0.4141  0.6431
 3129TIP3    H1 9328   0.247   2.629   0.805 -0.4086  0.0408  0.4207
 3129TIP3    H2 9329   0.150   2.632   0.921 -2.5478 -0.1335 -1.3348
 3130TIP3   OH2 9330   6.204   1.075   3.170  0.3510  0.1843 -0.3680
 3130TIP3    H1 9331   6.240   1.030   3.246  0.9798  0.4554 -0.5092
 3130TIP3    H2 9332   6.142   1.013   3.133 -0.0071  0.0734  0.4018
 3131TIP3   OH2 9333   6.948   2.663   2.664 -0.1795 -0.1108 -0.0346
 3131TIP3    H1 9334   6.955   2.751   2.701 -1.0727 -0.2730  0.5515
 3131TIP3    H2 9335   6.883   2.671   2.594  2.3710  0.4446 -2.4186
 3132TIP3   OH2 9336   5.665   0.344   2.562 -0.3127  0.0447  0.6472
 3132TIP3    H1 9337   5.709   0.332   2.646  0.3018 -1.3686  0.1343
 3132TIP3    H2 9338   5.734   0.375   2.503 -0.7545  1.0854  0.6718
 3133TIP3   OH2 9339   7.083   0.705   2.584 -0.1378  0.7460  0.2184
 3133TIP3    H1 9340   7.107   0.623   2.540 -0.2279  0.4520  0.7085
 3133TIP3    H2 9341   7.112   0.692   2.675  2.7285  2.4799 -0.3718
 3134TIP3   OH2 9342   8.346   0.498   1.941  0.0581 -0.4815 -0.3689
 3134TIP3    H1 9343   8.334   0.543   1.858 -1.8828  0.8670  0.6167
 3134TIP3    H2 9344   8.432   0.528   1.972  0.3177 -0.1710 -1.3596
 3135TIP3   OH2 9345   5.520   0.877   1.206  0.2984 -0.6645 -0.3250
 3135TIP3    H1 9346   5.562   0.928   1.137 -1.0243  0.0197 -0.6375
 3135TIP3    H2 9347   5.444   0.929   1.231  0.4040 -1.2329  1.1895
 3136TIP3   OH2 9348   6.952   2.378   4.199 -0.2155  0.1015  0.2848
 3136TIP3    H1 9349   6.861   2.349   4.201 -0.4705  0.9643  1.4673
 3136TIP3    H2 9350   6.976   2.376   4.106 -0.5395 -2.8562  0.2045
 3137TIP3   OH2 9351   7.275   4.173   4.648  0.1383 -0.0260 -0.1053
 3137TIP3    H1 9352   7.279   4.256   4.601  2.2039  0.3808  0.7359
 3137TIP3    H2 9353   7.364   4.139   4.643 -1.0008 -2.9348 -1.7133
 3138TIP3   OH2 9354   0.158   2.618   1.684  0.2910  0.0114 -0.0802
 3138TIP3    H1 9355   0.175   2.649   1.595 -0.7289 -0.5898 -0.4855
 3138TIP3    H2 9356   0.126   2.695   1.731 -2.8250 -0.5263 -1.2441
 3139TIP3   OH2 9357   0.683   4.045   0.358  0.0738  0.3322 -0.6775
 3139TIP3    H1 9358   0.622   3.971   0.364 -1.2602  1.0585 -3.9350
 3139TIP3    H2 9359   0.762   4.007   0.319  0.6042  0.0094  0.6805
 3140TIP3   OH2 9360   5.020   1.675   1.498  0.4885 -0.2795  0.1283
 3140TIP3    H1 9361   4.968   1.673   1.579  1.5034  0.1207  0.8125
 3140TIP3    H2 9362   4.993   1.755   1.453 -0.4296 -0.7562 -0.1598
 3141TIP3   OH2 9363   8.013   1.709   3.041 -0.2479  0.0531 -0.4991
 3141TIP3    H1 9364   8.063   1.710   3.123  0.3095 -0.9097 -0.8057
 3141TIP3    H2 9365   7.969   1.793   3.038  0.3355  0.4005  0.4248
 3142TIP3   OH2 9366   7.509   1.262   2.136 -0.1718 -0.4168  0.0168
 3142TIP3    H1 9367   7.454   1.340   2.144  0.2371  0.0016 -1.1765
 3142TIP3    H2 9368   7.454   1.191   2.169 -1.9983 -0.2245 -2.4697
 3143TIP3   OH2 9369   8.400   1.891   1.575  0.1707 -0.3190  0.6852
 3143TIP3    H1 9370   8.464   1.843   1.627 -0.2231 -1.3174  0.2459
 3143TIP3    H2 9371   8.323   1.896   1.631  0.6426  0.9664  1.2519
 3144TIP3   OH2 9372   5.572   1.899   3.701 -0.3327  0.1996  0.2179
 3144TIP3    H1 9373   5.562   1.912   3.607 -0.3688  0.1279  0.2122
 3144TIP3    H2 9374   5.663   1.869   3.711  0.1310  1.6303  0.3521
 3145TIP3   OH2 9375   8.283   3.276   2.936 -0.0830 -0.0168 -0.0693
 3145TIP3    H1 9376   8.309   3.276   3.028  1.0448  0.1030 -0.3802
 3145TIP3    H2 9377   8.200   3.229   2.935  0.7653 -1.5984  0.7871
 3146TIP3   OH2 9378   1.214   2.673   4.174 -0.1370  0.1031  0.6385
 3146TIP3    H1 9379   1.273   2.724   4.230 -0.1545  0.2315  0.5379
 3146TIP3    H2 9380   1.198   2.593   4.224 -1.2248  0.7998  1.4301
 3147TIP3   OH2 9381   7.879   3.557   2.156 -0.1718 -0.2374 -0.0468
 3147TIP3    H1 9382   7.827   3.479   2.137  1.3032 -1.1662 -0.3489
 3147TIP3    H2 9383   7.915   3.583   2.072  0.6448 -0.1924  0.3087
 3148TIP3   OH2 9384   6.521   0.504   1.500 -0.3645 -0.0783 -0.3916
 3148TIP3    H1 9385   6.506   0.588   1.543 -0.4485 -0.8380  1.0727
 3148TIP3    H2 9386   6.614   0.488   1.510  0.1547  1.0823 -2.9904
 3149TIP3   OH2 9387   7.752   3.136   2.037 -0.1853 -0.3990 -0.3025
 3149TIP3    H1 9388   7.782   3.103   1.952 -0.1442 -0.6956 -0.1748
 3149TIP3    H2 9389   7.706   3.062   2.076 -1.7659  0.2951 -0.8286
 3150TIP3   OH2 9390   7.855   3.340   3.960  0.2334 -0.1887  0.0609
 3150TIP3    H1 9391   7.905   3.302   4.033  0.5988  0.7388  0.2944
 3150TIP3    H2 9392   7.916   3.339   3.886 -0.3042 -1.6189 -0.3922
 3151TIP3   OH2 9393   3.817   7.771   2.545  0.4184 -0.3480  0.1504
 3151TIP3    H1 9394   3.867   7.773   2.462  0.8482 -0.5686  0.3988
 3151TIP3    H2 9395   3.726   7.777   2.518  0.5943  0.3252 -0.2994
 3152TIP3   OH2 9396   4.872   1.629   2.471 -0.7377  0.5721  0.8620
 3152TIP3    H1 9397   4.920   1.711   2.486  1.1751 -0.4267  0.4557
 3152TIP3    H2 9398   4.925   1.563   2.516 -1.3456 -0.6732 -0.2468
 3153TIP3   OH2 9399   7.014   4.387   1.700  0.2778 -0.0349 -0.0743
 3153TIP3    H1 9400   7.089   4.396   1.759  0.4434 -1.1927 -0.0936
 3153TIP3    H2 9401   7.051   4.353   1.618 -0.0064  1.1847 -0.7274
 3154TIP3   OH2 9402   5.537   0.282   6.844  0.1623  0.0251 -0.3322
 3154TIP3    H1 9403   5.447   0.301   6.869  0.5245  0.1885  0.8283
 3154TIP3    H2 9404   5.555   0.196   6.883  0.0900 -0.5997 -1.6377
 3155TIP3   OH2 9405   8.228   5.237   3.062 -0.3086  0.0367  0.6455
 3155TIP3    H1 9406   8.323   5.234   3.064 -0.2729  1.1071  1.3580
 3155TIP3    H2 9407   8.205   5.305   3.126 -1.5340 -0.0188  0.2817
 3156TIP3   OH2 9408   8.095   1.683   1.414 -0.2094  0.1693 -0.1327
 3156TIP3    H1 9409   8.016   1.736   1.428  0.2198  1.0019 -0.8487
 3156TIP3    H2 9410   8.145   1.731   1.348 -0.1841 -1.5181 -1.3832
 3157TIP3   OH2 9411   1.358   3.620   2.877 -0.0566 -0.1932  0.6735
 3157TIP3    H1 9412   1.279   3.672   2.891 -0.1609 -0.8023  2.4491
 3157TIP3    H2 9413   1.331   3.530   2.896  0.6167 -0.6503 -0.4567
 3158TIP3   OH2 9414   8.512   4.358   2.269  0.1323 -0.1285 -0.9143
 3158TIP3    H1 9415   8.487   4.277   2.312  0.5183 -0.4108 -1.2165
 3158TIP3    H2 9416   8.480   4.350   2.179  0.0368  0.1132 -0.9022
 3159TIP3   OH2 9417   7.153   3.055   1.950  0.0764 -1.2204  0.0113
 3159TIP3    H1 9418   7.168   3.134   2.003 -0.4419 -1.3904  0.4138
 3159TIP3    H2 9419   7.061   3.059   1.927  0.2227 -1.3345 -0.5873
 3160TIP3   OH2 9420   7.330   3.612   0.757 -0.6147 -0.4040  0.0325
 3160TIP3    H1 9421   7.301   3.584   0.844 -0.0228 -0.5384  0.1840
 3160TIP3    H2 9422   7.402   3.672   0.774  0.0456 -1.0763 -0.3961
 3161TIP3   OH2 9423   6.574   4.054   3.189  0.3495  0.3458  0.2741
 3161TIP3    H1 9424   6.613   4.063   3.102  0.8709  0.0642  0.4769
 3161TIP3    H2 9425   6.493   4.004   3.173  0.3521  0.4506 -0.0721
 3162TIP3   OH2 9426   8.402   2.453   2.248  0.0686  0.3288 -0.5029
 3162TIP3    H1 9427   8.426   2.507   2.173  0.5709  1.0898  0.2098
 3162TIP3    H2 9428   8.469   2.385   2.251 -0.1388  0.0996 -0.9415
 3163TIP3   OH2 9429   6.454   3.205   0.757  0.0526  0.2148 -0.1810
 3163TIP3    H1 9430   6.544   3.203   0.789  0.2468  1.6845 -0.6126
 3163TIP3    H2 9431   6.460   3.244   0.670 -1.0304  0.5218 -0.1232
 3164TIP3   OH2 9432   0.042   3.705   2.202  0.1205  0.2708 -0.1702
 3164TIP3    H1 9433   0.025   3.628   2.257 -0.0420 -0.5060 -1.2802
 3164TIP3    H2 9434   0.137   3.706   2.190  0.0894  0.0509 -0.4312
 3165TIP3   OH2 9435   3.600   6.159   5.670  0.0025 -0.4924 -0.5317
 3165TIP3    H1 9436   3.545   6.094   5.715  1.2134  0.4131  2.3652
 3165TIP3    H2 9437   3.647   6.109   5.604 -1.1213 -2.0569 -0.1706
 3166TIP3   OH2 9438   3.725   7.033   5.130  0.6235 -0.2752 -0.2824
 3166TIP3    H1 9439   3.716   7.117   5.175  1.4980  0.5117 -1.5359
 3166TIP3    H2 9440   3.679   7.045   5.047  0.0613 -1.3049 -0.1257
 3167TIP3   OH2 9441   7.234   5.855   4.077 -0.1995 -0.2596 -0.0696
 3167TIP3    H1 9442   7.196   5.797   4.143 -0.4907  3.0894  2.8983
 3167TIP3    H2 9443   7.287   5.798   4.022 -1.5731 -3.5087  1.8131
 3168TIP3   OH2 9444   0.087   2.974   1.666  0.6151  0.7430  0.8628
 3168TIP3    H1 9445  -0.005   2.987   1.644  0.3433 -1.9036  0.2397
 3168TIP3    H2 9446   0.110   3.049   1.720 -1.2943  2.5816 -0.7694
 3169TIP3   OH2 9447   0.662   2.439   2.402 -0.0936  0.2097 -0.4202
 3169TIP3    H1 9448   0.733   2.430   2.465 -0.5175 -0.5095 -0.0444
 3169TIP3    H2 9449   0.665   2.531   2.375  0.3683  0.4079  0.3104
 3170TIP3   OH2 9450   7.241   1.515   0.830 -0.7071  0.1888 -0.2314
 3170TIP3    H1 9451   7.214   1.566   0.906  0.8348 -0.0970  0.5161
 3170TIP3    H2 9452   7.197   1.430   0.841  0.1587 -0.1373  0.7694
 3171TIP3   OH2 9453   7.116   0.639   2.155  0.1014  0.2917 -0.5959
 3171TIP3    H1 9454   7.063   0.718   2.142 -1.0130 -0.1013  1.3323
 3171TIP3    H2 9455   7.051   0.570   2.171  1.1299 -0.7125 -0.7085
 3172TIP3   OH2 9456   1.830   2.181   2.570  0.3337  0.1700 -0.6710
 3172TIP3    H1 9457   1.761   2.195   2.635  0.9397 -0.7809  0.1799
 3172TIP3    H2 9458   1.883   2.110   2.606 -0.3806 -1.6337 -3.0468
 3173TIP3   OH2 9459   0.045   2.346   1.415 -0.5433 -0.4007 -0.0838
 3173TIP3    H1 9460   0.045   2.251   1.400 -0.9461 -0.2485 -1.1025
 3173TIP3    H2 9461  -0.046   2.372   1.399 -0.2578  0.2826 -0.5750
 3174TIP3   OH2 9462   0.271   2.301   0.957  0.0155 -0.5580 -0.0945
 3174TIP3    H1 9463   0.222   2.263   0.885  0.9533 -1.3091 -0.3494
 3174TIP3    H2 9464   0.273   2.395   0.939  0.5690 -0.7865 -1.2435
 3175TIP3   OH2 9465   8.471   2.604   3.049 -0.1027  0.2041 -0.8627
 3175TIP3    H1 9466   8.440   2.681   3.002 -0.8077 -0.8460 -2.1594
 3175TIP3    H2 9467   8.481   2.537   2.982  0.7228 -0.7799  0.2084
 3176TIP3   OH2 9468   6.400   2.749   0.979  0.6302  0.1061 -0.0977
 3176TIP3    H1 9469   6.402   2.661   0.940  0.4154  0.5907 -1.2162
 3176TIP3    H2 9470   6.307   2.769   0.988  0.6283 -0.7723  2.4884
 3177TIP3   OH2 9471   1.206   3.914   2.326 -0.3970  0.4094 -0.8848
 3177TIP3    H1 9472   1.233   3.832   2.367 -1.1090  0.4178 -0.3918
 3177TIP3    H2 9473   1.184   3.891   2.236 -2.0689 -0.2215 -0.3238
 3178TIP3   OH2 9474   4.260   1.779   1.465  0.3023  0.1502 -0.2516
 3178TIP3    H1 9475   4.274   1.859   1.415  2.3050  1.3366  2.0711
 3178TIP3    H2 9476   4.326   1.783   1.535 -0.9816 -2.4616  1.1761
 3179TIP3   OH2 9477   7.140   3.067   3.567  0.4849 -0.1576  0.0134
 3179TIP3    H1 9478   7.107   3.140   3.514  1.0298  0.9663  1.1990
 3179TIP3    H2 9479   7.075   3.055   3.636  0.4791 -0.6991 -0.0796
 3180TIP3   OH2 9480   4.870   7.575   2.077  0.1520 -0.3484 -0.0463
 3180TIP3    H1 9481   4.787   7.595   2.120 -0.0364 -1.9627  0.3872
 3180TIP3    H2 9482   4.856   7.597   1.985 -0.7720 -0.6510  0.0210
 3181TIP3   OH2 9483   7.824   0.276   3.242 -0.6764  0.4653  0.1809
 3181TIP3    H1 9484   7.801   0.222   3.318  0.4445  0.1730  0.3205
 3181TIP3    H2 9485   7.862   0.214   3.179 -2.1546  0.5975 -0.8810
 3182TIP3   OH2 9486   5.584   1.335   3.010  0.3985 -0.4691 -0.5196
 3182TIP3    H1 9487   5.505   1.378   2.978  0.4839 -0.5525 -0.8487
 3182TIP3    H2 9488   5.628   1.303   2.931  1.2795  0.4551 -0.4073
 3183TIP3   OH2 9489   2.079   7.688   6.931 -0.0328 -0.1572 -0.1866
 3183TIP3    H1 9490   2.028   7.634   6.991 -0.2223 -1.6826 -1.6780
 3183TIP3    H2 9491   2.031   7.770   6.925  0.8258  0.6343  2.9566
 3184TIP3   OH2 9492   8.563   3.172   2.496 -0.0130  0.3161  0.0791
 3184TIP3    H1 9493   8.479   3.142   2.463  0.3665 -1.2592  0.4815
 3184TIP3    H2 9494   8.545   3.198   2.587  0.6237 -3.5997  1.4137
 3185TIP3   OH2 9495   7.452   2.122   4.666 -0.3748 -0.2710  0.7320
 3185TIP3    H1 9496   7.521   2.061   4.639  0.3168  1.0433 -0.5931
 3185TIP3    H2 9497   7.499   2.203   4.686 -1.7209  1.4756 -2.7512
 3186TIP3   OH2 9498   1.877   2.657   1.736 -0.4928 -0.2157 -0.4543
 3186TIP3    H1 9499   1.908   2.725   1.796  0.3790  0.3854 -1.5636
 3186TIP3    H2 9500   1.841   2.590   1.793 -2.5369  1.7264  0.6367
 3187TIP3   OH2 9501   8.505   1.766   2.271  0.2222 -0.0666  0.4886
 3187TIP3    H1 9502   8.458   1.785   2.190 -0.1372 -1.6680  0.3016
 3187TIP3    H2 9503   8.437   1.749   2.335  0.5244  0.0967  0.8550
 3188TIP3   OH2 9504   7.083   3.122   2.767 -0.2242 -0.0802 -0.0034
 3188TIP3    H1 9505   7.166   3.089   2.800  0.2451  1.4860  0.4507
 3188TIP3    H2 9506   7.095   3.128   2.672 -0.3464 -1.2405 -0.1046
 3189TIP3   OH2 9507   7.483   2.284   1.485  0.0805 -0.0705 -0.3295
 3189TIP3    H1 9508   7.525   2.296   1.400  0.2535  0.0507 -0.2273
 3189TIP3    H2 9509   7.553   2.299   1.549  0.2235 -1.2785 -0.1913
 3190TIP3   OH2 9510   0.269   3.694   3.877 -0.4697 -0.1126  0.4916
 3190TIP3    H1 9511   0.356   3.660   3.898 -0.4012 -0.4175 -0.2801
 3190TIP3    H2 9512   0.280   3.789   3.881  0.0903 -0.1353 -0.3525
 3191TIP3   OH2 9513   7.308   1.823   0.215  0.2614  0.3190  0.3724
 3191TIP3    H1 9514   7.285   1.758   0.282 -0.5750 -1.3903 -1.5030
 3191TIP3    H2 9515   7.249   1.896   0.232  0.1996  0.0077  1.6094
 3192TIP3   OH2 9516   0.153   0.784   2.547 -0.5175  0.4256  0.0744
 3192TIP3    H1 9517   0.177   0.803   2.637 -0.2102  0.3639  0.0058
 3192TIP3    H2 9518   0.129   0.868   2.509  2.3518  0.9476 -0.6919
 3193TIP3   OH2 9519   6.429   4.874   2.709  0.4745 -0.2534 -0.0356
 3193TIP3    H1 9520   6.442   4.798   2.764 -1.1153 -0.7557 -0.3262
 3193TIP3    H2 9521   6.358   4.923   2.751 -0.7057 -0.6085 -1.5842
 3194TIP3   OH2 9522   0.377   5.126   2.186 -0.0246  0.0988  0.7492
 3194TIP3    H1 9523   0.294   5.173   2.178 -1.0155 -1.5066  1.1411
 3194TIP3    H2 9524   0.440   5.179   2.139 -1.8408  0.0344 -1.8647
 3195TIP3   OH2 9525   0.912   2.172   2.678 -0.2690  0.2703 -0.0620
 3195TIP3    H1 9526   0.918   2.268   2.684 -0.0723  0.2262  0.4606
 3195TIP3    H2 9527   0.842   2.149   2.739 -2.5340  0.3561 -2.5445
 3196TIP3   OH2 9528   8.144   1.015   0.805 -0.5714 -0.5631 -0.4764
 3196TIP3    H1 9529   8.192   0.990   0.884 -0.8096  1.6429  0.4051
 3196TIP3    H2 9530   8.206   1.002   0.733  1.4402  2.2947  0.6410
 3197TIP3   OH2 9531   8.518   3.618   0.690  0.4645 -0.0050  0.3072
 3197TIP3    H1 9532   8.479   3.557   0.753 -0.5455  0.6621  0.3392
 3197TIP3    H2 9533   8.561   3.562   0.626 -1.3054 -0.8056 -0.2157
 3198TIP3   OH2 9534   7.597   2.942   3.851 -0.1121 -0.1817 -0.0955
 3198TIP3    H1 9535   7.554   2.958   3.767 -0.3499  0.9167  0.2311
 3198TIP3    H2 9536   7.592   3.025   3.898  1.1231 -0.4252  0.5170
 3199TIP3   OH2 9537   1.543   2.906   1.671  0.1428 -0.2321  0.5262
 3199TIP3    H1 9538   1.555   2.868   1.584 -1.0748  0.6572 -0.0444
 3199TIP3    H2 9539   1.561   2.834   1.731 -1.7837 -1.6477 -0.5342
 3200TIP3   OH2 9540   7.351   2.720   2.914  0.1416  0.6194  0.5679
 3200TIP3    H1 9541   7.323   2.717   3.006  0.2241  0.3759  0.5843
 3200TIP3    H2 9542   7.398   2.638   2.900  0.1374  0.6607  0.3091
 3201TIP3   OH2 9543   7.846   2.575   0.634 -0.3500  0.2143  0.3025
 3201TIP3    H1 9544   7.860   2.487   0.670  0.5041  0.1804 -0.0998
 3201TIP3    H2 9545   7.776   2.612   0.688 -1.6068 -1.1760 -0.3158
 3202TIP3   OH2 9546   5.682   2.757   1.042 -0.7507  0.0599  0.0845
 3202TIP3    H1 9547   5.693   2.821   0.971  0.2893  0.0527  0.2311
 3202TIP3    H2 9548   5.616   2.696   1.010  0.6076 -0.6655 -1.3976
 3203TIP3   OH2 9549   6.551   0.951   0.786 -0.1950  0.0318 -0.4812
 3203TIP3    H1 9550   6.488   0.958   0.858  1.5911  0.3703  1.1159
 3203TIP3    H2 9551   6.540   1.031   0.736 -1.8965 -0.4918 -0.9526
 3204TIP3   OH2 9552   6.141   0.428   0.824 -0.0451  0.4528  0.0803
 3204TIP3    H1 9553   6.224   0.428   0.776 -1.0794 -2.9318 -1.8949
 3204TIP3    H2 9554   6.157   0.368   0.897 -0.8980 -0.5999 -0.5963
 3205TIP3   OH2 9555   4.627   7.934   1.873  0.9102 -0.2400  0.6327
 3205TIP3    H1 9556   4.555   7.874   1.894 -0.9999  1.3995 -1.0128
 3205TIP3    H2 9557   4.619   8.004   1.937 -0.1694  0.8989 -0.7166
 3206TIP3   OH2 9558   8.058   2.151   1.269  0.2123 -0.3219  0.5597
 3206TIP3    H1 9559   7.973   2.113   1.287 -0.6233  1.9520  1.6888
 3206TIP3    H2 9560   8.084   2.192   1.352  0.9631  1.6486 -0.6008
 3207TIP3   OH2 9561   6.707   5.986   1.145  0.1037 -0.4689 -0.0926
 3207TIP3    H1 9562   6.736   5.934   1.220  2.6330  1.2929  0.2209
 3207TIP3    H2 9563   6.689   5.922   1.076  2.4583 -1.8048  0.4993
 3208TIP3   OH2 9564   5.512   1.590   2.291  0.1146  0.7086  0.3606
 3208TIP3    H1 9565   5.483   1.679   2.274  0.0912  0.6050 -0.1420
 3208TIP3    H2 9566   5.435   1.536   2.277  0.3051  0.5358 -0.0216
 3209TIP3   OH2 9567   0.144   5.413   6.915  0.4847  0.0346  0.2375
 3209TIP3    H1 9568   0.053   5.434   6.899  0.2050 -2.1129 -1.1930
 3209TIP3    H2 9569   0.193   5.466   6.853  0.0061 -1.0175 -1.0490
 3210TIP3   OH2 9570   5.942   1.652   1.528  0.1521  0.3719 -0.2090
 3210TIP3    H1 9571   5.977   1.594   1.460  0.2748 -3.1850  2.7632
 3210TIP3    H2 9572   6.019   1.701   1.559  0.1412  1.8319 -2.3474
 3211TIP3   OH2 9573   2.261   3.298   2.679  0.4937  0.3915 -0.0585
 3211TIP3    H1 9574   2.314   3.336   2.750  0.0534  1.9727 -0.5562
 3211TIP3    H2 9575   2.200   3.240   2.724  1.2044  0.2339  0.7252
 3212TIP3   OH2 9576   7.254   2.478   1.431  0.1343  0.0277 -0.3069
 3212TIP3    H1 9577   7.326   2.418   1.452 -0.8731 -1.0823  0.0278
 3212TIP3    H2 9578   7.289   2.565   1.452  1.7794 -0.3824 -1.2498
 3213TIP3   OH2 9579   3.200   3.926   3.423  0.4774  0.3591  0.4265
 3213TIP3    H1 9580   3.107   3.942   3.403  0.6703  2.0601  0.7932
 3213TIP3    H2 9581   3.216   3.837   3.394 -0.3976  1.2281 -2.9152
 3214TIP3   OH2 9582   0.083   2.152   3.932 -0.0034 -0.3464 -0.1095
 3214TIP3    H1 9583   0.056   2.076   3.880 -0.0316  0.2835 -1.0390
 3214TIP3    H2 9584   0.012   2.215   3.921  0.2627  0.0148  0.2251
 3215TIP3   OH2 9585   7.358   3.946   5.013  0.3733 -0.2660 -0.3498
 3215TIP3    H1 9586   7.283   3.960   4.956  0.3488  0.3211 -0.1843
 3215TIP3    H2 9587   7.334   3.870   5.066 -0.2539  0.1228 -0.0635
 3216TIP3   OH2 9588   0.586   4.078   3.868 -0.1034  0.0585  0.4307
 3216TIP3    H1 9589   0.596   4.106   3.959 -0.2482 -2.2961  1.2034
 3216TIP3    H2 9590   0.655   4.123   3.821 -0.5870  2.0251  1.5259
 3217TIP3   OH2 9591   8.279   2.961   3.706 -0.4000  0.1229  0.1071
 3217TIP3    H1 9592   8.295   2.882   3.758 -0.4993 -0.8332 -1.2788
 3217TIP3    H2 9593   8.312   3.033   3.760  2.6630 -1.1746  0.0421
 3218TIP3   OH2 9594   7.904   4.826   3.269 -0.2704  0.0279 -0.3488
 3218TIP3    H1 9595   7.944   4.913   3.273 -0.2253  0.1456 -2.6882
 3218TIP3    H2 9596   7.979   4.767   3.262 -0.2843 -0.2635  1.6081
 3219TIP3   OH2 9597   0.618   4.080   2.535 -0.0427 -0.0907 -0.0689
 3219TIP3    H1 9598   0.561   4.094   2.610  0.0261  1.0544 -0.2227
 3219TIP3    H2 9599   0.699   4.045   2.573 -0.5086 -0.8373  0.2405
 3220TIP3   OH2 9600   0.785   1.951   4.510  0.3225  0.5149  0.0158
 3220TIP3    H1 9601   0.848   2.021   4.494  2.5195 -1.3149  0.3112
 3220TIP3    H2 9602   0.753   1.926   4.424 -1.3499  2.6034 -0.0117
 3221TIP3   OH2 9603   3.586   3.940   3.783 -0.2011 -0.1050 -0.0243
 3221TIP3    H1 9604   3.601   4.021   3.734 -0.6707  0.6783  1.1048
 3221TIP3    H2 9605   3.662   3.932   3.839  0.8455 -1.5599 -1.5945
 3222TIP3   OH2 9606   8.143   4.674   3.333 -0.3634  0.1819 -0.3459
 3222TIP3    H1 9607   8.093   4.594   3.320 -0.2770 -0.0453  0.6578
 3222TIP3    H2 9608   8.153   4.680   3.428 -0.6207  1.5320 -0.3934
 3223TIP3   OH2 9609   0.089   1.022   2.890 -0.4749 -0.0744  0.9244
 3223TIP3    H1 9610   0.055   1.027   2.980 -1.4242  0.3511  0.5508
 3223TIP3    H2 9611   0.046   1.095   2.845  1.0421  0.5559  0.4690
 3224TIP3   OH2 9612   0.315   3.357   4.358 -0.3952  0.1155  0.2062
 3224TIP3    H1 9613   0.380   3.339   4.425 -0.5184  2.5107  1.0417
 3224TIP3    H2 9614   0.241   3.300   4.380 -0.6947  1.3317  2.5531
 3225TIP3   OH2 9615   1.132   2.936   2.667 -0.2432 -0.0139  0.2168
 3225TIP3    H1 9616   1.168   2.848   2.659 -1.5196 -0.6357  1.0906
 3225TIP3    H2 9617   1.104   2.942   2.759  1.0050  1.7699  0.4985
 3226TIP3   OH2 9618   1.425   3.601   4.020  0.0091  0.1417 -0.2134
 3226TIP3    H1 9619   1.514   3.575   3.995 -0.3267 -1.8596  0.5682
 3226TIP3    H2 9620   1.373   3.522   4.008 -1.1528  0.5549  1.8836
 3227TIP3   OH2 9621   2.889   3.202   3.581 -0.1968  0.1535 -0.1613
 3227TIP3    H1 9622   2.889   3.217   3.676  0.4630  0.8742 -0.2755
 3227TIP3    H2 9623   2.901   3.107   3.572  4.1870  0.5734  0.4155
 3228TIP3   OH2 9624   0.200   2.726   3.617  0.4335  0.2598  0.5115
 3228TIP3    H1 9625   0.174   2.699   3.529 -2.0220  0.9446  0.9655
 3228TIP3    H2 9626   0.295   2.734   3.613  0.6280 -2.2054 -1.3672
 3229TIP3   OH2 9627   0.667   3.414   2.868 -0.5658 -0.1929  0.2098
 3229TIP3    H1 9628   0.677   3.484   2.932 -1.1944 -0.1300  0.2447
 3229TIP3    H2 9629   0.702   3.450   2.786  0.1612 -0.2463  0.4895
 3230TIP3   OH2 9630   6.336   3.814   2.847  0.1706 -0.8452 -0.0819
 3230TIP3    H1 9631   6.347   3.749   2.916  0.2098 -0.8131 -0.0575
 3230TIP3    H2 9632   6.280   3.772   2.783 -3.6400  0.6689  2.0440
 3231TIP3   OH2 9633   7.837   4.511   4.520  0.2255 -0.2101  0.0986
 3231TIP3    H1 9634   7.832   4.571   4.445  1.8159  0.2850  0.3691
 3231TIP3    H2 9635   7.892   4.557   4.583  0.5436 -1.4857  0.7640
 3232TIP3   OH2 9636   7.915   3.041   2.639 -0.0865 -0.0368  1.1295
 3232TIP3    H1 9637   7.978   3.022   2.708  0.3114 -0.1438  0.7406
 3232TIP3    H2 9638   7.830   3.042   2.684  0.0245 -1.3488  1.4100
 3233TIP3   OH2 9639   7.769   2.723   2.390 -0.3481 -0.1990 -0.2414
 3233TIP3    H1 9640   7.837   2.737   2.455 -0.1970 -0.0060 -0.4405
 3233TIP3    H2 9641   7.724   2.807   2.383 -2.0744 -0.9397  1.5465
 3234TIP3   OH2 9642   2.541   3.142   3.908 -0.2754 -0.6912 -0.4538
 3234TIP3    H1 9643   2.475   3.210   3.921 -0.0297 -0.6591  0.6232
 3234TIP3    H2 9644   2.494   3.060   3.925 -0.8561 -0.8858 -2.8058
 3235TIP3   OH2 9645   7.976   3.976   5.498  0.3137 -0.1350 -0.1407
 3235TIP3    H1 9646   7.891   4.011   5.474 -0.8304 -1.8363  1.3467
 3235TIP3    H2 9647   8.005   3.927   5.421  0.5751  1.5548 -1.1307
 3236TIP3   OH2 9648   0.843   4.324   4.008 -0.3433  0.4865 -0.2623
 3236TIP3    H1 9649   0.800   4.269   3.944 -0.0945  0.3317 -0.2954
 3236TIP3    H2 9650   0.879   4.397   3.958 -1.6428  1.2656 -0.0741
 3237TIP3   OH2 9651   0.797   2.812   1.163  0.3366  0.3888  0.1241
 3237TIP3    H1 9652   0.840   2.860   1.092 -0.6170 -1.6797 -1.9109
 3237TIP3    H2 9653   0.869   2.789   1.222  1.1405  2.1638 -0.1237
 3238TIP3   OH2 9654   1.993   2.689   2.669 -0.8420 -0.0399 -0.3459
 3238TIP3    H1 9655   2.035   2.604   2.681 -1.3060 -0.2754 -0.3841
 3238TIP3    H2 9656   2.053   2.738   2.613  0.4727  0.4258  1.4141
 3239TIP3   OH2 9657   7.687   2.222   3.432 -0.5101 -0.2117  0.2519
 3239TIP3    H1 9658   7.612   2.213   3.374  1.3491  1.0697 -2.4343
 3239TIP3    H2 9659   7.684   2.312   3.462  0.8331  0.3207 -1.1550
 3240TIP3   OH2 9660   8.142   2.603   4.015  0.0126  0.0333 -0.1786
 3240TIP3    H1 9661   8.117   2.680   4.066  0.3179  0.4970 -0.7231
 3240TIP3    H2 9662   8.074   2.596   3.948 -0.1611 -0.3339  0.0324
 3241TIP3   OH2 9663   1.309   2.857   3.794  0.6063 -0.3423 -0.6145
 3241TIP3    H1 9664   1.367   2.876   3.868  0.5616  1.6861 -1.0721
 3241TIP3    H2 9665   1.350   2.900   3.719 -0.8330  0.0613 -1.1967
 3242TIP3   OH2 9666   0.512   4.149   2.245 -0.5814  0.1032  0.1600
 3242TIP3    H1 9667   0.522   4.077   2.183 -0.3385  1.7941 -1.8167
 3242TIP3    H2 9668   0.430   4.192   2.220 -0.9101  0.3070  1.5441
 3243TIP3   OH2 9669   1.152   3.164   3.629 -0.4723 -0.7497 -0.0560
 3243TIP3    H1 9670   1.128   3.144   3.719 -2.3691 -0.8563 -0.5519
 3243TIP3    H2 9671   1.171   3.258   3.629 -2.0153 -0.4293  0.1433
 3244TIP3   OH2 9672   0.858   4.040   3.555 -0.5307  0.1854 -0.5726
 3244TIP3    H1 9673   0.922   3.968   3.557 -1.6482 -0.8222  0.2803
 3244TIP3    H2 9674   0.795   4.013   3.489  0.0077  1.2620 -1.5334
 3245TIP3   OH2 9675   1.344   3.644   4.591  0.4065 -0.3150  0.5705
 3245TIP3    H1 9676   1.379   3.656   4.503  1.3458 -1.9151  0.7144
 3245TIP3    H2 9677   1.253   3.618   4.577  0.0735  1.0527  0.1271
 3246TIP3   OH2 9678   2.847   5.591   0.963  0.5170  0.2054  0.1122
 3246TIP3    H1 9679   2.850   5.513   1.018  0.0024 -0.4333 -0.7478
 3246TIP3    H2 9680   2.851   5.557   0.873  0.3394  1.1752 -0.2729
 3247TIP3   OH2 9681   7.877   5.191   5.039 -0.1186  0.0076  0.8434
 3247TIP3    H1 9682   7.861   5.274   4.995 -1.3204  0.2836  1.7755
 3247TIP3    H2 9683   7.811   5.187   5.109  0.2724 -1.4677  1.1586
 3248TIP3   OH2 9684   8.513   5.136   3.374 -0.1313  0.3075 -0.0909
 3248TIP3    H1 9685   8.592   5.087   3.353  0.1861  1.3341 -1.3492
 3248TIP3    H2 9686   8.486   5.176   3.291 -1.7514  0.2815  0.4002
 3249TIP3   OH2 9687  -0.012   2.464   2.499  0.9611 -0.3098  0.7268
 3249TIP3    H1 9688   0.079   2.477   2.525  1.1942  2.7066 -1.3552
 3249TIP3    H2 9689  -0.010   2.395   2.433  1.9599  0.7442 -0.3658
 3250TIP3   OH2 9690   6.131   3.735   3.765 -0.3558  0.0393 -0.5563
 3250TIP3    H1 9691   6.069   3.691   3.823 -0.5502  0.9917 -0.0320
 3250TIP3    H2 9692   6.151   3.817   3.809  0.6213  0.1264 -1.1389
 3251TIP3   OH2 9693   7.829   4.938   3.620  0.3165 -0.1589  0.1657
 3251TIP3    H1 9694   7.841   4.845   3.603 -1.5117 -0.5069  0.6453
 3251TIP3    H2 9695   7.885   4.982   3.557  1.3398 -1.5900  0.0699
 3252TIP3   OH2 9696   8.350   3.810   4.032 -0.1722 -0.3028  0.6502
 3252TIP3    H1 9697   8.396   3.871   3.974 -1.8727 -0.7268 -1.2201
 3252TIP3    H2 9698   8.292   3.865   4.084 -1.4471 -0.2679 -0.7864
 3253TIP3   OH2 9699   0.664   0.244   2.028 -0.7435  0.0984  0.4509
 3253TIP3    H1 9700   0.677   0.309   2.098 -2.1601  0.6483  0.2200
 3253TIP3    H2 9701   0.662   0.160   2.074  0.7141  0.2389  0.7978
 3254TIP3   OH2 9702   7.883   3.572   1.871 -0.0277 -0.1438 -0.2422
 3254TIP3    H1 9703   7.882   3.667   1.877 -1.2951 -0.1872  0.4076
 3254TIP3    H2 9704   7.790   3.547   1.866  0.2749 -1.3617 -0.0332
 3255TIP3   OH2 9705   0.661   3.919   3.093  0.3667 -0.0165  0.1436
 3255TIP3    H1 9706   0.628   3.860   3.025 -0.2969 -0.2177  0.6450
 3255TIP3    H2 9707   0.626   4.005   3.070  0.1891 -0.0744  0.1978
 3256TIP3   OH2 9708   1.508   4.571   5.097 -0.5529  0.0724  0.3534
 3256TIP3    H1 9709   1.431   4.592   5.150 -0.4470 -0.0274  0.5491
 3256TIP3    H2 9710   1.582   4.609   5.146 -0.2716 -1.3684  1.0845
 3257TIP3   OH2 9711   7.587   6.059   4.623  0.6222  0.0021 -0.0307
 3257TIP3    H1 9712   7.645   5.997   4.668  0.7127  0.3303  0.3048
 3257TIP3    H2 9713   7.519   6.003   4.584  2.9481 -0.6950 -3.2308
 3258TIP3   OH2 9714   1.563   4.800   2.957  0.0568  0.8914  0.0658
 3258TIP3    H1 9715   1.509   4.721   2.951  1.1621  0.1392 -0.0771
 3258TIP3    H2 9716   1.618   4.786   3.033 -0.2737  1.8750  0.4960
 3259TIP3   OH2 9717   0.498   2.972   3.757 -0.1311 -0.0779  0.0538
 3259TIP3    H1 9718   0.477   2.889   3.713  1.0558 -1.0207  1.2419
 3259TIP3    H2 9719   0.513   2.947   3.848 -0.1359  1.5156  0.4904
 3260TIP3   OH2 9720   1.066   6.082   2.651 -0.3649  0.0129  0.0034
 3260TIP3    H1 9721   0.972   6.099   2.649 -0.2549  0.5100 -1.3990
 3260TIP3    H2 9722   1.078   6.004   2.596  0.0835  0.1745 -0.1318
 3261TIP3   OH2 9723   1.508   2.997   3.082 -0.0053  0.0812  0.4657
 3261TIP3    H1 9724   1.428   3.050   3.079  0.4403  0.7374  0.0800
 3261TIP3    H2 9725   1.576   3.058   3.109  0.8959  0.1825 -1.9769
 3262TIP3   OH2 9726   7.931   0.694   3.552 -0.4681 -0.1874 -0.1056
 3262TIP3    H1 9727   7.870   0.761   3.581 -1.1654 -0.7846 -0.1612
 3262TIP3    H2 9728   7.972   0.662   3.633 -0.4258  0.0340 -0.0411
 3263TIP3   OH2 9729   8.191   3.266   3.471 -0.2176 -0.0378 -0.0144
 3263TIP3    H1 9730   8.157   3.309   3.392  0.6178  1.6257  0.4913
 3263TIP3    H2 9731   8.255   3.329   3.506  1.7704 -2.1600  0.2287
 3264TIP3   OH2 9732   0.968   3.146   3.150  0.1139 -0.5048  0.1609
 3264TIP3    H1 9733   0.893   3.194   3.116  0.6572  0.7158  0.6556
 3264TIP3    H2 9734   0.956   3.057   3.118 -1.9105 -0.4957  0.8407
 3265TIP3   OH2 9735   0.277   0.434   3.371 -0.2058 -0.2414  0.1265
 3265TIP3    H1 9736   0.354   0.405   3.322  0.1213  1.0782 -0.1537
 3265TIP3    H2 9737   0.217   0.469   3.305  0.4950  2.1201  0.6903
 3266TIP3   OH2 9738   0.517   3.257   3.704 -0.3079  0.2287 -0.7029
 3266TIP3    H1 9739   0.597   3.270   3.653  0.0560  1.1065  0.0616
 3266TIP3    H2 9740   0.506   3.163   3.709  1.0630  0.0793 -0.2395
 3267TIP3   OH2 9741   0.551   2.929   6.142 -0.1064  0.4232 -0.2583
 3267TIP3    H1 9742   0.642   2.902   6.126 -0.0971 -0.7922  1.7559
 3267TIP3    H2 9743   0.559   3.016   6.181  0.1744  0.5675 -0.6375
 3268TIP3   OH2 9744   0.804   3.172   2.444  0.2136 -0.4597  0.0229
 3268TIP3    H1 9745   0.738   3.226   2.401 -1.2861 -0.6118  2.0754
 3268TIP3    H2 9746   0.764   3.147   2.527  3.1044 -0.0070  1.6039
 3269TIP3   OH2 9747   0.834   3.086   4.459 -0.3561 -0.0165  0.2376
 3269TIP3    H1 9748   0.769   3.101   4.527  0.2413  0.3612  0.7254
 3269TIP3    H2 9749   0.857   2.994   4.467 -2.2266 -0.6442 -1.1784
 3270TIP3   OH2 9750   8.386   2.871   4.007 -0.6926  0.7135 -0.4016
 3270TIP3    H1 9751   8.444   2.946   4.017 -1.3268  1.0493  0.9485
 3270TIP3    H2 9752   8.330   2.874   4.085 -1.4142 -0.5545 -0.8579
 3271TIP3   OH2 9753   3.155   1.502   3.847 -0.5137  0.2677  0.0671
 3271TIP3    H1 9754   3.186   1.511   3.937 -1.9928  1.4400  0.4741
 3271TIP3    H2 9755   3.179   1.412   3.823 -1.3819 -0.5551  2.1366
 3272TIP3   OH2 9756   0.269   4.082   4.578 -0.2928  0.3197 -0.0504
 3272TIP3    H1 9757   0.237   4.088   4.668  0.2263 -1.1928  0.2542
 3272TIP3    H2 9758   0.198   4.039   4.531 -0.3609  0.6588 -0.2564
 3273TIP3   OH2 9759   7.614   3.218   3.900 -0.3470 -0.3114 -0.1469
 3273TIP3    H1 9760   7.692   3.265   3.929  0.7887 -1.1750 -1.7581
 3273TIP3    H2 9761   7.581   3.268   3.826 -1.8754  0.5524  1.0765
 3274TIP3   OH2 9762   1.775   5.537   4.954 -0.2673 -0.5062 -0.3355
 3274TIP3    H1 9763   1.718   5.614   4.960  0.4596 -0.0771  1.1835
 3274TIP3    H2 9764   1.851   5.558   5.008 -0.3605 -2.5454  0.6577
 3275TIP3   OH2 9765   8.256   2.625   4.444 -0.2071 -0.1909 -0.3028
 3275TIP3    H1 9766   8.181   2.573   4.415 -0.8310  0.5611 -0.0761
 3275TIP3    H2 9767   8.325   2.562   4.460 -0.7661 -0.8868 -0.6172
 3276TIP3   OH2 9768   0.253   2.268   2.830  0.6599  0.2648  0.4553
 3276TIP3    H1 9769   0.233   2.231   2.916  2.2035 -0.6669  0.4248
 3276TIP3    H2 9770   0.293   2.352   2.849  0.5948  0.2585  0.6269
 3277TIP3   OH2 9771   1.690   2.801   3.821 -0.0271 -0.0493 -0.3470
 3277TIP3    H1 9772   1.666   2.821   3.912  0.1006 -0.3180 -0.2552
 3277TIP3    H2 9773   1.730   2.715   3.825  1.4505  0.6186 -0.4152
 3278TIP3   OH2 9774   1.554   3.719   5.658  0.0932  0.0564  0.0454
 3278TIP3    H1 9775   1.519   3.735   5.746 -0.3650  0.5156 -0.2140
 3278TIP3    H2 9776   1.538   3.626   5.643  0.1899 -0.0282  0.4567
 3279TIP3   OH2 9777   8.550   1.621   1.077 -0.1315 -0.1174 -0.0637
 3279TIP3    H1 9778   8.582   1.658   0.995  1.4305 -0.8326  0.2118
 3279TIP3    H2 9779   8.594   1.536   1.084  0.9082  0.5892  2.2537
 3280TIP3   OH2 9780   2.315   3.798   3.768 -0.1220 -0.8800  0.1284
 3280TIP3    H1 9781   2.311   3.893   3.776  0.0184 -0.8457 -0.2214
 3280TIP3    H2 9782   2.407   3.779   3.748 -0.7954 -0.8236 -3.2335
 3281TIP3   OH2 9783   1.968   2.544   5.444  0.3683 -0.0303 -0.3200
 3281TIP3    H1 9784   2.055   2.576   5.419  0.9528 -0.0792  1.5696
 3281TIP3    H2 9785   1.968   2.545   5.539 -1.8329  0.2519 -0.2892
 3282TIP3   OH2 9786   8.443   4.011   3.849  0.3795 -0.5608  0.5195
 3282TIP3    H1 9787   8.475   4.022   3.759  0.1702  2.3237  0.7509
 3282TIP3    H2 9788   8.502   4.065   3.902 -0.8233 -0.5279  1.8366
 3283TIP3   OH2 9789   8.030   3.573   4.630  0.0055 -0.0710 -0.1591
 3283TIP3    H1 9790   8.104   3.515   4.646  0.0186  0.0508  0.2259
 3283TIP3    H2 9791   7.961   3.516   4.596  0.2821 -0.1806 -0.5469
 3284TIP3   OH2 9792   1.338   4.587   4.717 -0.1964  0.1520  0.4903
 3284TIP3    H1 9793   1.366   4.502   4.684 -0.3457  0.1487  0.3718
 3284TIP3    H2 9794   1.294   4.629   4.643  1.5180  1.1050 -0.0221
 3285TIP3   OH2 9795   7.034   1.482   4.512 -0.3323  0.2725 -0.0727
 3285TIP3    H1 9796   7.011   1.389   4.508 -1.3857  0.4304  1.6211
 3285TIP3    H2 9797   7.075   1.500   4.428 -1.0276 -1.4855 -0.8192
 3286TIP3   OH2 9798   2.172   3.845   5.314  0.3398  0.1875 -0.2463
 3286TIP3    H1 9799   2.194   3.902   5.240 -0.9262  1.9863  0.7365
 3286TIP3    H2 9800   2.077   3.836   5.311  0.5110 -1.8640 -0.3475
 3287TIP3   OH2 9801   1.163   2.199   3.748 -0.0438 -0.6522  0.5729
 3287TIP3    H1 9802   1.162   2.288   3.784  0.4825 -0.8187  1.0176
 3287TIP3    H2 9803   1.100   2.151   3.802 -1.7592 -0.0944 -0.8974
 3288TIP3   OH2 9804   1.357   5.753   3.184 -0.0316 -0.0432 -0.4776
 3288TIP3    H1 9805   1.313   5.836   3.204 -1.0188 -0.6231 -0.2756
 3288TIP3    H2 9806   1.336   5.737   3.092 -1.0734 -0.8307 -0.1050
 3289TIP3   OH2 9807   7.806   0.549   2.499  0.3252  0.5171  0.0874
 3289TIP3    H1 9808   7.800   0.603   2.420 -0.9556  0.2554 -0.0204
 3289TIP3    H2 9809   7.812   0.611   2.571 -1.2745  0.8252 -0.0239
 3290TIP3   OH2 9810   1.944   4.593   4.045  0.6601 -0.1253 -0.6472
 3290TIP3    H1 9811   1.905   4.511   4.075  2.5035 -0.8782 -0.2280
 3290TIP3    H2 9812   1.982   4.632   4.124  0.2123  0.9112 -0.9285
 3291TIP3   OH2 9813   0.854   2.422   5.263  0.7516 -0.1241 -0.3332
 3291TIP3    H1 9814   0.797   2.468   5.324  0.4261  0.5983 -1.1697
 3291TIP3    H2 9815   0.919   2.488   5.237  1.0796 -0.5152 -0.5116
 3292TIP3   OH2 9816   1.522   4.378   4.168  0.0646 -0.1435  0.3881
 3292TIP3    H1 9817   1.535   4.296   4.215 -3.1493 -1.7001 -1.3087
 3292TIP3    H2 9818   1.494   4.440   4.236  0.6755 -0.9254  1.3748
 3293TIP3   OH2 9819   1.469   2.359   4.279 -0.2155 -0.4924  0.4652
 3293TIP3    H1 9820   1.490   2.350   4.186  0.0795 -2.8523  0.7350
 3293TIP3    H2 9821   1.515   2.439   4.306  0.2450 -0.1534 -1.2407
 3294TIP3   OH2 9822   8.350   4.871   4.131 -0.1709 -0.0411 -0.3882
 3294TIP3    H1 9823   8.411   4.920   4.187  0.8506 -1.6929 -0.0089
 3294TIP3    H2 9824   8.263   4.891   4.167  0.4012 -0.2607  1.1623
 3295TIP3   OH2 9825   2.767   4.164   5.337 -0.4385  0.1650  0.6961
 3295TIP3    H1 9826   2.852   4.196   5.368 -0.2649  0.5812 -0.1979
 3295TIP3    H2 9827   2.763   4.074   5.367 -0.1676  0.4819  1.7164
 3296TIP3   OH2 9828   0.538   2.810   1.293 -0.0165 -0.5261 -0.4235
 3296TIP3    H1 9829   0.491   2.787   1.213  1.2498 -0.8590 -1.0833
 3296TIP3    H2 9830   0.630   2.815   1.267  0.1858  1.4282  0.5696
 3297TIP3   OH2 9831   1.571   2.608   4.344  0.5214  0.0670 -0.3134
 3297TIP3    H1 9832   1.610   2.665   4.278  0.5826 -0.3959 -0.6832
 3297TIP3    H2 9833   1.638   2.601   4.412  1.2685 -1.0671 -1.1466
 3298TIP3   OH2 9834   7.166   4.900   4.728 -0.1050 -0.4049 -0.0662
 3298TIP3    H1 9835   7.165   4.966   4.798 -0.1243 -0.0807 -0.3712
 3298TIP3    H2 9836   7.254   4.864   4.730  0.2886  0.4973 -0.7053
 3299TIP3   OH2 9837   0.899   0.692   3.952 -0.2163  0.5897 -0.4632
 3299TIP3    H1 9838   0.857   0.746   4.019 -0.1222  1.5392 -1.1631
 3299TIP3    H2 9839   0.827   0.658   3.899 -0.2524  0.3045 -0.2330
 3300TIP3   OH2 9840   8.427   5.655   4.065  0.1608  0.2238  0.0778
 3300TIP3    H1 9841   8.459   5.745   4.068  0.1608  0.2466 -0.6204
 3300TIP3    H2 9842   8.425   5.633   3.972 -3.0917  0.6454 -0.0130
 3301TIP3   OH2 9843   0.635   3.564   3.316  0.0367 -0.2745  0.5095
 3301TIP3    H1 9844   0.608   3.627   3.383  0.6342  0.6658 -0.1108
 3301TIP3    H2 9845   0.724   3.539   3.341  0.0568 -0.3373  0.3739
 3302TIP3   OH2 9846   1.097   3.378   2.709  0.5693  0.0416 -0.0873
 3302TIP3    H1 9847   1.095   3.316   2.635  2.6788 -2.0182  1.5119
 3302TIP3    H2 9848   1.083   3.464   2.668  1.0855 -1.1042 -2.8020
 3303TIP3   OH2 9849   0.980   2.041   5.736 -0.3467  0.4285 -0.3834
 3303TIP3    H1 9850   0.991   2.135   5.724 -1.1369  0.4239 -1.1355
 3303TIP3    H2 9851   0.994   2.003   5.649 -1.9051  0.0206 -0.4721
 3304TIP3   OH2 9852   8.463   5.032   4.438 -0.2858  0.1195 -0.4233
 3304TIP3    H1 9853   8.442   5.123   4.459 -1.9062  0.0034 -1.4229
 3304TIP3    H2 9854   8.501   5.036   4.350 -0.5764 -0.1853 -0.5645
 3305TIP3   OH2 9855   1.365   5.729   4.129  0.6544  0.3212  0.5686
 3305TIP3    H1 9856   1.306   5.803   4.113 -1.1895 -1.1457  0.4121
 3305TIP3    H2 9857   1.332   5.659   4.072  1.7789 -0.9273  1.4201
 3306TIP3   OH2 9858   0.699   1.876   5.426  0.4473  0.0791  0.0018
 3306TIP3    H1 9859   0.694   1.835   5.340  0.5202  0.1694 -0.0454
 3306TIP3    H2 9860   0.791   1.899   5.436  0.1409  1.6429 -0.6355
 3307TIP3   OH2 9861   8.322   5.134   1.658  0.3517  0.6099  0.3415
 3307TIP3    H1 9862   8.268   5.119   1.580  0.7144 -1.4872  0.4641
 3307TIP3    H2 9863   8.263   5.175   1.721 -0.4612  0.5201 -0.3530
 3308TIP3   OH2 9864   8.471   4.102   2.407  0.3189 -0.3126  0.2740
 3308TIP3    H1 9865   8.479   4.006   2.413  0.9891 -0.2406  0.6051
 3308TIP3    H2 9866   8.382   4.120   2.439 -0.9582 -1.0765 -2.6723
 3309TIP3   OH2 9867   0.283   2.585   1.933 -0.1830  0.3520  0.1874
 3309TIP3    H1 9868   0.303   2.676   1.953 -3.0650  0.6327  2.0318
 3309TIP3    H2 9869   0.260   2.585   1.841 -0.8279  1.6253  0.3405
 3310TIP3   OH2 9870   7.289   2.003   1.113 -0.2415  0.0227  0.3892
 3310TIP3    H1 9871   7.372   2.025   1.157 -0.3674  2.3557 -0.4908
 3310TIP3    H2 9872   7.316   1.966   1.029 -0.0805 -1.6609  1.1376
 3311TIP3   OH2 9873   1.843   2.402   3.006 -0.2363 -0.0724 -0.3308
 3311TIP3    H1 9874   1.783   2.476   2.998 -0.9466 -0.6962 -0.8282
 3311TIP3    H2 9875   1.927   2.441   3.029 -0.3799  0.9650 -1.5312
 3312TIP3   OH2 9876   7.362   2.433   3.103 -0.0384 -0.1400  1.1220
 3312TIP3    H1 9877   7.332   2.517   3.138 -0.1881  1.2763 -2.2118
 3312TIP3    H2 9878   7.283   2.393   3.067  0.8204  0.4042 -1.4201
 3313TIP3   OH2 9879   0.117   3.056   4.258  0.9452  0.2305  0.4184
 3313TIP3    H1 9880   0.089   3.102   4.179  0.0146  0.2884  0.7683
 3313TIP3    H2 9881   0.181   2.992   4.227  1.4847  1.0706 -0.2119
 3314TIP3   OH2 9882   7.486   4.990   3.983 -0.4846  0.3333  0.8185
 3314TIP3    H1 9883   7.401   5.031   3.964 -0.3898  0.1927  0.0876
 3314TIP3    H2 9884   7.490   4.916   3.924  0.8383  1.2470 -0.2550
 3315TIP3   OH2 9885   1.088   4.191   3.343  0.5549 -0.3698 -0.2720
 3315TIP3    H1 9886   1.077   4.102   3.376  0.3752  0.6944  2.6859
 3315TIP3    H2 9887   0.999   4.227   3.340  0.7658  0.1921  0.0072
 3316TIP3   OH2 9888   0.913   1.706   4.437 -0.2163 -0.3951  0.2085
 3316TIP3    H1 9889   0.861   1.631   4.466 -0.7536 -0.4214 -0.8023
 3316TIP3    H2 9890   0.884   1.778   4.492  0.2083 -0.8828  1.0982
 3317TIP3   OH2 9891   0.045   2.798   1.918 -0.1938 -0.5236 -0.2933
 3317TIP3    H1 9892   0.105   2.829   1.986 -1.0685 -3.3102  1.8508
 3317TIP3    H2 9893   0.044   2.868   1.852  1.2759  1.8986  2.1830
 3318TIP3   OH2 9894   8.343   3.591   4.197  0.2392 -0.0753  0.2913
 3318TIP3    H1 9895   8.281   3.527   4.162  0.5883 -0.6873  0.7665
 3318TIP3    H2 9896   8.347   3.660   4.131  0.7290 -1.1025 -0.7759
 3319TIP3   OH2 9897   0.710   1.882   4.240 -0.3326  0.2352 -0.1108
 3319TIP3    H1 9898   0.636   1.869   4.299 -0.4283 -1.7483 -0.6565
 3319TIP3    H2 9899   0.672   1.882   4.153  0.3467 -1.0135 -0.4046
 3320TIP3   OH2 9900   2.269   4.325   2.281  0.0837 -0.3914 -0.2847
 3320TIP3    H1 9901   2.179   4.352   2.297 -0.0546 -1.5789  1.0829
 3320TIP3    H2 9902   2.264   4.230   2.272  1.2983 -0.5513  0.5937
 3321TIP3   OH2 9903   1.433   4.374   3.414  0.5760 -0.6363 -0.1679
 3321TIP3    H1 9904   1.405   4.307   3.352 -1.4063  0.6138 -0.6677
 3321TIP3    H2 9905   1.369   4.368   3.485  2.4030 -1.5727  1.4647
 3322TIP3   OH2 9906   7.237   2.615   2.694 -0.4708 -0.2905  0.5065
 3322TIP3    H1 9907   7.147   2.622   2.662 -0.6258  0.9403  1.2193
 3322TIP3    H2 9908   7.244   2.680   2.763 -0.1753 -3.0054  3.1301
 3323TIP3   OH2 9909   8.157   4.427   2.692  0.1113 -0.4797  0.3979
 3323TIP3    H1 9910   8.070   4.467   2.700 -0.0492 -0.7376 -0.0758
 3323TIP3    H2 9911   8.217   4.499   2.712 -0.2020 -0.2286  0.4544
 3324TIP3   OH2 9912   2.499   3.963   2.415  0.0723 -0.2184  0.9306
 3324TIP3    H1 9913   2.510   3.964   2.320  2.4569 -0.7856  1.1655
 3324TIP3    H2 9914   2.427   4.025   2.431  0.0852  0.3927 -1.1813
 3325TIP3   OH2 9915   2.802   4.267   4.218  0.1248 -0.3587  0.1117
 3325TIP3    H1 9916   2.848   4.188   4.249  1.2763  0.0799 -0.4262
 3325TIP3    H2 9917   2.712   4.255   4.247  0.1012 -2.2574 -0.6472
 3326TIP3   OH2 9918   8.155   4.840   3.561  0.0330 -0.0099 -0.3865
 3326TIP3    H1 9919   8.099   4.899   3.511  0.7553  0.0916 -1.0781
 3326TIP3    H2 9920   8.242   4.879   3.557 -0.2664  1.0876  2.6671
 3327TIP3   OH2 9921   7.968   0.729   2.657 -0.0210  0.1737 -0.2234
 3327TIP3    H1 9922   8.039   0.709   2.596  0.5250  1.4185  0.0025
 3327TIP3    H2 9923   7.955   0.823   2.648 -1.2272  0.0519  0.1958
 3328TIP3   OH2 9924   7.484   4.099   3.451  0.1028 -0.1491 -0.4052
 3328TIP3    H1 9925   7.561   4.156   3.450  0.6083 -0.8085 -0.1603
 3328TIP3    H2 9926   7.419   4.147   3.501 -0.2557  1.1938 -2.1126
 3329TIP3   OH2 9927   8.303   4.079   2.013  0.1640  0.0689  0.1415
 3329TIP3    H1 9928   8.332   4.009   2.072  2.1202  1.0338  0.3654
 3329TIP3    H2 9929   8.254   4.139   2.068 -1.4058 -1.0214 -0.0237
 3330TIP3   OH2 9930   8.528   4.036   3.214 -0.2895 -0.1195 -0.3186
 3330TIP3    H1 9931   8.529   4.115   3.268  0.9852 -0.4436  0.1502
 3330TIP3    H2 9932   8.501   4.066   3.127  1.0585  0.9791 -0.3700
 3331TIP3   OH2 9933   0.792   2.550   3.349  0.0715 -0.0069  0.2427
 3331TIP3    H1 9934   0.810   2.510   3.264  0.3410  0.6443 -0.0110
 3331TIP3    H2 9935   0.871   2.533   3.400 -0.3282 -0.9307  0.5766
 3332TIP3   OH2 9936   7.683   2.932   2.774  0.3924 -0.6414 -0.3673
 3332TIP3    H1 9937   7.697   2.838   2.771  0.4846 -0.6180 -0.6730
 3332TIP3    H2 9938   7.697   2.956   2.866 -3.0893 -1.4616  0.4269
 3333TIP3   OH2 9939   7.381   5.009   4.962  0.6453 -0.8138  0.4006
 3333TIP3    H1 9940   7.441   5.014   5.037  1.6747 -0.8630 -0.3978
 3333TIP3    H2 9941   7.430   4.959   4.896  0.3258  0.4574 -0.8177
 3334TIP3   OH2 9942   6.641   3.417   4.086 -0.6116 -0.5736  0.6316
 3334TIP3    H1 9943   6.654   3.337   4.036  0.4107 -1.1216  1.7389
 3334TIP3    H2 9944   6.584   3.392   4.159  2.6666 -1.2191  3.0818
 3335TIP3   OH2 9945   7.308   3.569   3.147  0.2214  0.2575 -0.1284
 3335TIP3    H1 9946   7.301   3.474   3.155  2.0518  0.1493  0.2349
 3335TIP3    H2 9947   7.401   3.587   3.138 -0.0679  2.0432  0.0738
 3336TIP3   OH2 9948   0.121   1.603   3.861 -0.8462 -0.2372  0.1822
 3336TIP3    H1 9949   0.078   1.677   3.820 -1.3173  0.5493  2.0401
 3336TIP3    H2 9950   0.213   1.612   3.838 -1.1690 -0.1454 -1.1398
 3337TIP3   OH2 9951   0.335   4.592   4.918  0.2027  0.0128  0.5474
 3337TIP3    H1 9952   0.242   4.585   4.897  0.0146  0.0036  1.3661
 3337TIP3    H2 9953   0.369   4.656   4.856 -0.4721  0.4624  0.6350
 3338TIP3   OH2 9954   0.167   0.918   3.977  0.2232 -0.6368  0.2118
 3338TIP3    H1 9955   0.130   0.960   4.055  1.2669  2.4957 -0.8830
 3338TIP3    H2 9956   0.245   0.873   4.008 -0.5723 -1.2520  1.3388
 3339TIP3   OH2 9957   1.881   3.986   4.112  0.2150 -0.6095 -0.4589
 3339TIP3    H1 9958   1.796   4.017   4.082  1.3019  1.1664 -1.8351
 3339TIP3    H2 9959   1.870   3.970   4.205 -1.0606  1.6410 -0.1889
 3340TIP3   OH2 9960   0.367   3.728   5.868 -0.1054  1.0241 -0.0305
 3340TIP3    H1 9961   0.414   3.811   5.869 -0.5962  1.2986  0.2075
 3340TIP3    H2 9962   0.276   3.751   5.883 -0.4430  0.5711 -1.3309
 3341TIP3   OH2 9963   8.004   1.415   4.391  0.5219 -0.3860 -0.2232
 3341TIP3    H1 9964   8.002   1.321   4.374  0.6809 -0.3703 -0.3378
 3341TIP3    H2 9965   8.090   1.430   4.431  1.3908  0.0141 -2.1274
 3342TIP3   OH2 9966   0.718   2.095   2.851  0.0989  0.0733 -0.1334
 3342TIP3    H1 9967   0.744   2.004   2.867  1.6773  0.3532 -1.0652
 3342TIP3    H2 9968   0.637   2.106   2.901  0.9998 -1.2261  1.6296
 3343TIP3   OH2 9969   0.886   3.512   3.415 -0.1473 -0.0534 -0.1118
 3343TIP3    H1 9970   0.906   3.534   3.506 -0.5061 -1.7322  0.4015
 3343TIP3    H2 9971   0.963   3.541   3.366  0.2291  0.4968  0.7890
 3344TIP3   OH2 9972   0.408   3.003   4.935  0.6608  0.6203 -0.6250
 3344TIP3    H1 9973   0.418   3.097   4.926 -0.2367  0.5308 -3.1287
 3344TIP3    H2 9974   0.318   2.990   4.964  0.2741  0.5058 -1.8249
 3345TIP3   OH2 9975   4.775   3.173   2.741 -0.0414  0.0952  0.1950
 3345TIP3    H1 9976   4.767   3.223   2.660  1.2697  0.7989  0.4820
 3345TIP3    H2 9977   4.820   3.093   2.715 -0.0809  0.0916  0.1374
 3346TIP3   OH2 9978   8.500   1.046   3.714  0.1146  0.2947  0.4851
 3346TIP3    H1 9979   8.495   1.075   3.805 -0.1532  1.0151  0.2422
 3346TIP3    H2 9980   8.426   0.985   3.704 -1.0368  1.7139  0.2188
 3347TIP3   OH2 9981   0.010   3.346   3.912  0.6588 -0.4456  0.3233
 3347TIP3    H1 9982   0.088   3.320   3.862  0.5138 -1.0770  0.4151
 3347TIP3    H2 9983   0.011   3.442   3.911  0.3662 -0.4375 -1.3747
 3348TIP3   OH2 9984   0.729   2.344   4.429  0.1696 -0.5297 -0.2973
 3348TIP3    H1 9985   0.754   2.382   4.513  0.2281 -3.6431  1.1683
 3348TIP3    H2 9986   0.808   2.299   4.399 -0.2631 -0.5868 -1.3664
 3349TIP3   OH2 9987   1.047   2.260   3.048 -0.2896  0.0852  0.2487
 3349TIP3    H1 9988   1.110   2.304   3.105  0.0649 -1.1006  0.7772
 3349TIP3    H2 9989   1.090   2.258   2.963 -0.8485  1.9177 -0.1090
 3350TIP3   OH2 9990   1.895   4.113   3.084 -0.3573 -0.4642 -0.0685
 3350TIP3    H1 9991   1.802   4.100   3.101 -0.0130  1.0013  3.1604
 3350TIP3    H2 9992   1.920   4.188   3.137  3.1179 -2.0527  0.7172
 3351TIP3   OH2 9993   1.786   4.004   3.626  0.4180 -0.1650 -0.0153
 3351TIP3    H1 9994   1.862   4.016   3.682 -0.1758  1.4458  0.4785
 3351TIP3    H2 9995   1.755   3.916   3.646  0.9961 -0.1001  1.2133
 3352TIP3   OH2 9996   2.150   3.042   4.018 -0.6286  0.4682 -0.1797
 3352TIP3    H1 9997   2.184   3.024   3.930 -1.2224 -0.2192 -0.2727
 3352TIP3    H2 9998   2.216   3.005   4.077 -0.8850 -0.2631 -0.3502
 3353TIP3   OH2 9999   0.792   4.102   2.284 -0.5525 -0.3473  0.5067
 3353TIP3    H110000   0.817   4.012   2.264  1.5576  0.1422  0.8399
 3353TIP3    H210001   0.819   4.152   2.207 -0.2334  0.2413  0.9962
 3354TIP3   OH210002   3.970   3.537   3.995  0.0742  0.7044 -0.1038
 3354TIP3    H110003   3.877   3.540   4.015 -0.1807 -2.8991 -0.3589
 3354TIP3    H210004   3.974   3.499   3.907  1.8147 -0.9949  0.6698
 3355TIP3   OH210005   1.462   3.251   5.293 -0.1356  0.3017 -0.7577
 3355TIP3    H110006   1.438   3.205   5.213 -0.6747  0.0816 -0.4748
 3355TIP3    H210007   1.515   3.326   5.264  0.1045 -0.0721 -1.2728
 3356TIP3   OH210008   3.796   3.830   3.925  0.5818 -0.6525 -0.5427
 3356TIP3    H110009   3.887   3.813   3.950  0.6203 -1.2319 -1.0494
 3356TIP3    H210010   3.751   3.845   4.008  1.1965 -0.0641 -0.3069
 3357TIP3   OH210011   0.433   1.894   1.936  0.0528 -0.2438  0.0287
 3357TIP3    H110012   0.449   1.987   1.954 -1.6274  0.1586 -0.4031
 3357TIP3    H210013   0.517   1.860   1.907  0.3320  1.5461 -1.3722
 3358TIP3   OH210014   6.395   2.387   3.748  0.2787 -0.0402  0.2635
 3358TIP3    H110015   6.356   2.378   3.661  1.0568  0.5714 -0.1622
 3358TIP3    H210016   6.339   2.450   3.793 -0.4385 -0.7731  0.3906
 3359TIP3   OH210017   0.479   5.683   5.934 -0.3661  0.2664 -0.3211
 3359TIP3    H110018   0.563   5.709   5.971 -0.4427 -0.3231  0.2745
 3359TIP3    H210019   0.416   5.700   6.004 -0.6648  0.1637 -0.5658
 3360TIP3   OH210020   1.522   3.250   3.531  0.6864  0.1228 -0.2109
 3360TIP3    H110021   1.434   3.219   3.507  0.1386 -0.3202  2.1819
 3360TIP3    H210022   1.581   3.189   3.488 -0.3003 -1.7799  1.0405
 3361TIP3   OH210023   1.536   2.826   2.856 -0.3887 -0.0279 -0.2139
 3361TIP3    H110024   1.524   2.885   2.931  1.3752  0.9938 -0.6959
 3361TIP3    H210025   1.567   2.883   2.785 -0.0105 -1.3079 -1.1010
 3362TIP3   OH210026   7.814   2.412   2.403  0.2518  0.5310 -0.3363
 3362TIP3    H110027   7.870   2.473   2.452  1.1886 -0.5574 -0.0209
 3362TIP3    H210028   7.859   2.328   2.410  0.9050  0.5176 -3.9037
 3363TIP3   OH210029   1.146   3.898   4.214 -0.2592 -0.3149 -0.2350
 3363TIP3    H110030   1.100   3.862   4.289 -0.7789  0.0488 -0.3783
 3363TIP3    H210031   1.120   3.990   4.212  0.7256 -0.0271 -0.1208
 3364TIP3   OH210032   0.748   3.082   4.121  0.0335  0.4142  0.2360
 3364TIP3    H110033   0.679   3.148   4.117 -1.8170 -1.3951  1.4383
 3364TIP3    H210034   0.819   3.124   4.170 -1.2116  1.4384  1.1898
 3365TIP3   OH210035   7.744   3.363   3.139 -0.0177 -0.8862  0.1717
 3365TIP3    H110036   7.832   3.400   3.126 -0.7197  0.6727 -0.2326
 3365TIP3    H210037   7.719   3.329   3.053 -0.6870  0.6336 -0.2451
 3366TIP3   OH210038   1.101   1.006   4.996 -0.4087  0.2192  0.2643
 3366TIP3    H110039   1.051   0.932   5.030 -0.2473 -0.1160 -0.2159
 3366TIP3    H210040   1.182   1.005   5.046 -0.0143 -0.4973 -0.3662
 3367TIP3   OH210041   7.255   2.866   0.472  0.3210 -0.2789  0.0094
 3367TIP3    H110042   7.206   2.911   0.541 -1.8165 -0.2783 -1.4518
 3367TIP3    H210043   7.313   2.806   0.518 -1.3371 -0.5422  1.8060
 3368TIP3   OH210044   4.500   3.225   1.810  0.2757  0.5575  0.2776
 3368TIP3    H110045   4.554   3.301   1.788 -0.7775  0.9446 -0.9939
 3368TIP3    H210046   4.415   3.242   1.768 -0.8075 -0.1066  2.1350
 3369TIP3   OH210047   1.831   3.460   6.650 -0.4255 -0.0529 -0.1537
 3369TIP3    H110048   1.908   3.515   6.661 -0.6799  0.5415 -1.2366
 3369TIP3    H210049   1.846   3.413   6.568 -0.1731 -1.6764  0.7998
 3370TIP3   OH210050   1.818   1.414   2.288 -0.7766 -0.0347 -0.3678
 3370TIP3    H110051   1.896   1.447   2.333  0.1888 -1.8275 -0.6576
 3370TIP3    H210052   1.745   1.463   2.325  0.3425  0.6206  0.9838
 3371TIP3   OH210053   4.522   2.368   6.622 -0.6699 -0.0923  0.1274
 3371TIP3    H110054   4.476   2.302   6.674 -2.0065 -1.5586 -2.7603
 3371TIP3    H210055   4.459   2.392   6.554  1.5961  0.4293 -1.8473
 3372TIP3   OH210056   1.911   1.520   6.316  0.4269 -0.0366  0.1220
 3372TIP3    H110057   1.988   1.568   6.283  1.1386 -0.0009  1.7783
 3372TIP3    H210058   1.866   1.584   6.371  0.9066 -0.9887  1.6462
 3373TIP3   OH210059   0.333   3.953   3.981  0.6770 -0.4361  0.0822
 3373TIP3    H110060   0.419   3.949   4.023 -0.1140  0.4079  1.8363
 3373TIP3    H210061   0.277   3.997   4.045 -1.0712 -0.9844 -1.0355
 3374TIP3   OH210062   1.024   4.807   3.764 -0.8043 -0.3528  0.8092
 3374TIP3    H110063   1.096   4.813   3.827  1.3381 -1.3411 -1.4907
 3374TIP3    H210064   1.013   4.896   3.731 -0.8560 -0.1485  1.3693
 3375TIP3   OH210065   6.969   4.010   3.982 -0.0566 -0.6780 -0.0624
 3375TIP3    H110066   6.901   3.950   3.952  0.9253 -0.7837 -2.1566
 3375TIP3    H210067   6.926   4.095   3.983 -0.4497 -0.8642 -0.5890
 3376TIP3   OH210068   0.505   2.466   5.288 -0.6871 -0.0016  0.1118
 3376TIP3    H110069   0.565   2.482   5.361 -1.0379 -0.7266  0.5677
 3376TIP3    H210070   0.437   2.409   5.325 -0.0981 -1.5648 -1.1443
 3377TIP3   OH210071   0.238   2.307   3.579  0.1343  0.1112 -0.4180
 3377TIP3    H110072   0.286   2.248   3.637 -2.1315  0.8101  2.3187
 3377TIP3    H210073   0.228   2.258   3.498  2.5393 -1.3111  0.1081
 3378TIP3   OH210074   1.580   4.883   3.510  0.5475  0.6628  0.0240
 3378TIP3    H110075   1.650   4.891   3.446  0.3702  0.7731 -0.1574
 3378TIP3    H210076   1.502   4.914   3.464  0.3985  0.6317  0.2548
 3379TIP3   OH210077   7.536   5.584   3.617  0.3513 -0.3162 -0.4675
 3379TIP3    H110078   7.571   5.518   3.557 -0.7655 -1.0231 -0.3484
 3379TIP3    H210079   7.503   5.654   3.559  0.3974 -0.4344 -0.6366
 3380TIP3   OH210080   8.251   6.339   3.379  0.0419 -0.2103  0.3967
 3380TIP3    H110081   8.227   6.431   3.370  0.8538 -0.1183 -1.0000
 3380TIP3    H210082   8.326   6.339   3.438  0.5489  0.1051 -0.2470
 3381TIP3   OH210083   8.560   1.956   0.952  0.2361  0.1565  0.4190
 3381TIP3    H110084   8.481   1.904   0.938  1.2088 -1.4036  0.5489
 3381TIP3    H210085   8.529   2.038   0.990 -1.3603 -0.2115 -0.0468
 3382TIP3   OH210086   0.284   2.471   1.344  0.1629  0.2707  0.1472
 3382TIP3    H110087   0.343   2.424   1.402 -1.4500 -1.6372  0.2862
 3382TIP3    H210088   0.196   2.448   1.374 -0.6915  0.8386 -1.7970
 3383TIP3   OH210089   7.492   0.596   2.612 -0.3877 -0.0288 -0.0183
 3383TIP3    H110090   7.485   0.615   2.706  1.4199 -0.5835  0.2587
 3383TIP3    H210091   7.514   0.680   2.572 -4.5576  0.9579 -0.4418
 3384TIP3   OH210092   7.521   2.501   2.869  0.0897 -0.4151  0.4282
 3384TIP3    H110093   7.533   2.478   2.961 -0.0772  0.9018  0.7901
 3384TIP3    H210094   7.610   2.520   2.838  0.0829 -0.3170  0.4666
 3385TIP3   OH210095   8.340   1.310   5.988  0.3541  0.5272 -0.0716
 3385TIP3    H110096   8.301   1.302   5.901  1.0435 -0.1808 -0.3180
 3385TIP3    H210097   8.379   1.224   6.005 -0.5821  0.3472  1.3256
 3386TIP3   OH210098   8.382   4.815   3.002  0.3539  0.1142 -0.2250
 3386TIP3    H110099   8.394   4.844   3.093  0.5172 -0.7272  0.0292
 3386TIP3    H210100   8.397   4.893   2.950 -0.7932  0.8465  0.5345
 3387TIP3   OH210101   7.768   4.737   2.809  0.2317 -0.4415  0.0314
 3387TIP3    H110102   7.690   4.784   2.778  0.5647 -0.1522 -0.3764
 3387TIP3    H210103   7.768   4.752   2.903 -0.9182 -1.5298  0.2118
 3388TIP3   OH210104   1.600   3.321   4.661 -0.0038  0.3477 -0.8084
 3388TIP3    H110105   1.582   3.407   4.700 -0.4795 -0.1619  0.1143
 3388TIP3    H210106   1.669   3.338   4.597 -0.3731  1.4865 -0.9145
 3389TIP3   OH210107   0.270   1.973   1.563  0.0840 -0.2061  0.3296
 3389TIP3    H110108   0.286   1.879   1.555  0.0915 -0.2162  0.4751
 3389TIP3    H210109   0.313   2.011   1.486  0.0741 -0.3213  0.2663
 3390TIP3   OH210110   1.275   1.694   3.242  0.3071 -0.4889 -0.7633
 3390TIP3    H110111   1.361   1.667   3.274  0.0740 -1.1266 -0.6638
 3390TIP3    H210112   1.270   1.787   3.263 -0.6176 -1.2780  2.7893
 3391TIP3   OH210113   2.235   4.048   2.243  0.5618  0.0721 -0.0181
 3391TIP3    H110114   2.144   4.065   2.217  0.2923 -2.2981 -0.7398
 3391TIP3    H210115   2.277   4.018   2.162  1.5931 -0.3439  0.6684
 3392TIP3   OH210116   0.654   4.370   2.422 -0.2630 -0.0278  0.2717
 3392TIP3    H110117   0.607   4.454   2.417 -0.1573  0.0606  0.6933
 3392TIP3    H210118   0.736   4.392   2.466  0.2560 -0.1504 -0.6420
 3393TIP3   OH210119   0.801   4.583   4.360  0.0690 -0.5719 -0.4744
 3393TIP3    H110120   0.742   4.567   4.434 -0.7434  0.8725 -0.7947
 3393TIP3    H210121   0.842   4.498   4.343 -1.0913 -1.3313  0.4645
 3394TIP3   OH210122   1.116   3.217   4.195 -0.1118  0.4483 -0.4372
 3394TIP3    H110123   1.140   3.309   4.209  0.6109  0.3833 -1.2197
 3394TIP3    H210124   1.168   3.169   4.260 -0.0447  0.5374 -0.4245
 3395TIP3   OH210125   0.296   2.661   4.717 -0.5176  0.5407 -0.1448
 3395TIP3    H110126   0.351   2.632   4.789  0.6085 -1.6162 -1.8254
 3395TIP3    H210127   0.206   2.652   4.749 -0.0045  1.2117  1.5407
 3396TIP3   OH210128   1.410   3.914   2.946  0.0918  0.0988  0.3569
 3396TIP3    H110129   1.394   3.934   3.038  0.2705  0.2286  0.3616
 3396TIP3    H210130   1.402   3.819   2.941  2.8060 -0.2238  1.0781
 3397TIP3   OH210131   2.404   3.348   3.656  0.4280  0.0416  0.7867
 3397TIP3    H110132   2.343   3.374   3.725 -0.0995 -1.1620  0.7831
 3397TIP3    H210133   2.491   3.367   3.692  0.0283  5.2191 -0.5989
 3398TIP3   OH210134   3.460   2.804   3.833 -0.2961  0.5193 -0.3413
 3398TIP3    H110135   3.376   2.835   3.801 -0.5696  1.1566  0.9529
 3398TIP3    H210136   3.467   2.839   3.922  0.8882 -0.3481 -0.0661
 3399TIP3   OH210137   0.981   2.782   3.240  0.5467  0.0224  0.8248
 3399TIP3    H110138   0.913   2.782   3.307 -1.1801 -0.8110 -0.8849
 3399TIP3    H210139   0.937   2.814   3.161  2.3406  0.2174 -0.1315
 3400TIP3   OH210140   2.863   1.677   2.561 -0.3122 -0.0236  0.0752
 3400TIP3    H110141   2.858   1.702   2.654 -1.0299 -1.0304  0.3208
 3400TIP3    H210142   2.954   1.692   2.537 -0.0244 -0.1483  1.0613
 3401TIP3   OH210143   0.616   4.899   4.996  0.0095 -0.1762 -0.0070
 3401TIP3    H110144   0.538   4.911   4.941 -0.1100  0.8996  0.3882
 3401TIP3    H210145   0.655   4.817   4.965 -0.3590  0.1411 -1.3395
 3402TIP3   OH210146   1.082   3.910   3.391  0.3184  0.2469  0.5886
 3402TIP3    H110147   1.073   3.891   3.298 -0.2538 -1.4204  0.9536
 3402TIP3    H210148   1.140   3.841   3.424  2.4416  2.1770  1.0560
 3403TIP3   OH210149   0.157   4.374   3.616  0.0968  0.0221 -0.2406
 3403TIP3    H110150   0.226   4.313   3.590  1.4205  1.7727 -1.0431
 3403TIP3    H210151   0.147   4.362   3.710  0.3381 -1.4061 -0.3894
 3404TIP3   OH210152   2.719   4.826   1.715  0.2669 -0.1295 -0.3281
 3404TIP3    H110153   2.781   4.898   1.702 -0.4200  0.4587 -0.3956
 3404TIP3    H210154   2.767   4.748   1.689  0.5622  0.4656 -1.6042
 3405TIP3   OH210155   7.789   5.743   5.366 -0.6735  0.0302  0.1773
 3405TIP3    H110156   7.794   5.650   5.343 -3.6257 -0.1153 -0.0606
 3405TIP3    H210157   7.880   5.773   5.366  0.2817 -2.7758 -0.0813
 3406TIP3   OH210158   4.343   3.883   0.543 -0.0167 -0.1364 -0.5519
 3406TIP3    H110159   4.418   3.926   0.584 -1.6339  0.8638  1.4275
 3406TIP3    H210160   4.277   3.952   0.535 -1.0652 -1.2216 -1.4041
 3407TIP3   OH210161   7.984   4.546   4.096 -0.4615  0.0687 -0.3016
 3407TIP3    H110162   8.075   4.563   4.070 -0.7096  0.2457 -1.0783
 3407TIP3    H210163   7.941   4.520   4.014 -1.2125  0.4180 -0.0166
 3408TIP3   OH210164   2.420   4.331   1.108 -0.1591 -0.6036 -0.4821
 3408TIP3    H110165   2.478   4.388   1.057  0.4500  1.3357  2.3030
 3408TIP3    H210166   2.477   4.262   1.142  0.1781  0.2217  0.6579
 3409TIP3   OH210167   5.691   3.957   3.055  0.4628  0.1775  0.0049
 3409TIP3    H110168   5.667   4.038   3.010  1.6798  0.2628 -0.5137
 3409TIP3    H210169   5.609   3.908   3.062 -0.0015  0.7846 -1.0589
 3410TIP3   OH210170   2.972   3.490   1.862  0.3782  0.3769  0.1115
 3410TIP3    H110171   2.908   3.539   1.810  1.1962  0.9541 -0.3434
 3410TIP3    H210172   2.930   3.482   1.948 -0.5458  0.2802 -0.3341
 3411TIP3   OH210173   3.232   4.647   4.082 -0.2903  0.3948  0.0859
 3411TIP3    H110174   3.242   4.659   4.176 -0.5049  0.4889  0.0989
 3411TIP3    H210175   3.251   4.555   4.067 -1.3500  0.1212  0.3769
 3412TIP3   OH210176   6.648   6.472   6.560  0.0901  0.4820  0.0286
 3412TIP3    H110177   6.609   6.495   6.476 -0.7662  1.3252  0.6323
 3412TIP3    H210178   6.629   6.548   6.616  1.0568  0.1328  0.8414
 3413TIP3   OH210179   3.332   2.299   6.184  0.1730  0.4580  0.1306
 3413TIP3    H110180   3.332   2.302   6.089  1.1682  0.3605  0.1226
 3413TIP3    H210181   3.254   2.248   6.207  0.9860 -1.1620 -0.6774
 3414TIP3   OH210182   0.662   4.252   3.439 -0.1683  0.5160  0.1226
 3414TIP3    H110183   0.742   4.271   3.488 -0.6212 -1.2139  1.5684
 3414TIP3    H210184   0.657   4.157   3.437 -1.7048  0.5978 -0.7790
 3415TIP3   OH210185   2.327   4.168   4.329 -0.7029  0.6671 -0.3394
 3415TIP3    H110186   2.274   4.178   4.409 -0.0196 -0.7426  0.3131
 3415TIP3    H210187   2.360   4.078   4.334  1.2649  1.3410 -1.0425
 3416TIP3   OH210188   2.752   2.462   4.111  0.2009 -0.4037  0.7853
 3416TIP3    H110189   2.756   2.489   4.202  0.4774 -1.4576  1.0909
 3416TIP3    H210190   2.658   2.460   4.091  0.1585  0.3765  0.8690
 3417TIP3   OH210191   2.355   2.977   2.552 -0.1111  0.2635  0.0237
 3417TIP3    H110192   2.421   2.977   2.482 -0.8394 -0.9050 -0.6757
 3417TIP3    H210193   2.389   3.039   2.617  2.1442 -1.0012  0.1036
 3418TIP3   OH210194   2.264   2.691   2.540  0.2525  0.5592  0.0250
 3418TIP3    H110195   2.289   2.781   2.517 -1.7828  0.8952 -0.9438
 3418TIP3    H210196   2.263   2.644   2.457 -1.9454  0.4811  0.0579
 3419TIP3   OH210197   2.060   3.391   4.532 -0.1132  0.6883 -0.4545
 3419TIP3    H110198   2.125   3.444   4.485 -0.1452  0.6346 -0.5606
 3419TIP3    H210199   1.977   3.436   4.518  0.1663  1.7703  1.2107
 3420TIP3   OH210200   2.884   2.937   2.972 -0.1274 -0.7413 -0.1578
 3420TIP3    H110201   2.894   3.031   2.959  1.1277 -1.0712 -1.8291
 3420TIP3    H210202   2.799   2.917   2.933 -1.6134  0.0894  2.5698
 3421TIP3   OH210203   4.037   1.081   2.495  0.2453 -0.1363 -0.0654
 3421TIP3    H110204   4.001   1.048   2.577  0.9256 -0.0356  0.2709
 3421TIP3    H210205   4.014   1.014   2.430 -2.5251  0.9698 -0.3074
 3422TIP3   OH210206   0.519   2.304   1.910 -0.0193  0.0558  0.3529
 3422TIP3    H110207   0.502   2.384   1.860  2.0322  1.0203  1.1403
 3422TIP3    H210208   0.457   2.240   1.875 -0.7359  1.5926 -1.2596
 3423TIP3   OH210209   3.952   3.408   1.653 -0.2397 -0.0775  0.0619
 3423TIP3    H110210   3.859   3.433   1.650 -0.3506 -0.4788  0.1043
 3423TIP3    H210211   3.997   3.477   1.604 -0.5526  0.1530  0.0949
 3424TIP3   OH210212   3.901   7.118   2.957  0.6536  0.0342  0.0079
 3424TIP3    H110213   3.839   7.107   2.885 -1.6937 -1.1659  2.1240
 3424TIP3    H210214   3.892   7.211   2.982 -1.2652 -0.4066  1.0920
 3425TIP3   OH210215   4.688   3.040   3.280  0.5123 -0.2008 -0.5095
 3425TIP3    H110216   4.749   3.070   3.347 -0.9500 -1.4598  1.4479
 3425TIP3    H210217   4.616   3.104   3.283  0.5275 -0.1545 -1.0286
 3426TIP3   OH210218   3.304   4.062   1.379 -0.6280  0.4046  0.5479
 3426TIP3    H110219   3.238   4.130   1.390 -0.0570  0.8802  1.0408
 3426TIP3    H210220   3.331   4.039   1.467  0.9031  1.2449  0.3263
 3427TIP3   OH210221   1.647   3.928   2.507  0.7564 -0.5752 -0.7738
 3427TIP3    H110222   1.658   3.889   2.420  1.4082  0.0657 -0.9854
 3427TIP3    H210223   1.660   4.022   2.493 -1.4565 -0.1752 -0.3923
 3428TIP3   OH210224   6.664   7.920   3.523 -0.4160  0.2347  0.2004
 3428TIP3    H110225   6.737   7.906   3.583 -0.6835  0.5359  0.5910
 3428TIP3    H210226   6.625   7.833   3.512 -0.2009  0.1323  0.2460
 3429TIP3   OH210227   0.915   7.232   2.402 -0.0015  0.3483  0.3478
 3429TIP3    H110228   0.915   7.294   2.329  0.9848  0.7137  0.6442
 3429TIP3    H210229   0.882   7.283   2.476  1.0737  0.6231  0.6576
 3430TIP3   OH210230   1.902   4.276   4.496  0.1792  0.0450  0.5102
 3430TIP3    H110231   1.966   4.308   4.432 -1.2728  0.4116 -0.7876
 3430TIP3    H210232   1.919   4.182   4.503  0.9991  0.1776  0.3633
 3431TIP3   OH210233   2.036   4.583   4.320  0.0994  0.5909  0.2492
 3431TIP3    H110234   2.052   4.494   4.289 -0.0575  0.5119  0.3984
 3431TIP3    H210235   1.970   4.574   4.389 -0.7352  0.9470 -0.5033
 3432TIP3   OH210236   2.824   3.213   1.994 -0.2439  0.6870 -0.0203
 3432TIP3    H110237   2.834   3.166   1.912  1.9879  0.2056  0.5021
 3432TIP3    H210238   2.855   3.152   2.061 -0.0149  1.8645  0.9681
 3433TIP3   OH210239   2.822   2.731   4.254  0.0147  0.3087 -0.0505
 3433TIP3    H110240   2.906   2.695   4.226  1.2819  1.6085  1.9108
 3433TIP3    H210241   2.835   2.826   4.254 -1.4990  0.5333  0.1410
 3434TIP3   OH210242   3.027   4.742   3.941  0.2716  0.0724  0.9353
 3434TIP3    H110243   3.098   4.692   3.979  1.4048  0.2642 -0.8563
 3434TIP3    H210244   3.007   4.697   3.859  0.5357  1.8580 -0.1468
 3435TIP3   OH210245   1.701   4.268   2.200 -0.0697 -0.5009  0.1526
 3435TIP3    H110246   1.741   4.300   2.119  0.5330  0.0448  0.6613
 3435TIP3    H210247   1.669   4.180   2.178 -0.6780 -0.0277 -0.9151
 3436TIP3   OH210248   0.891   2.913   1.552  0.1966 -0.2354 -0.3538
 3436TIP3    H110249   0.973   2.903   1.600  0.4422 -0.8870 -0.9143
 3436TIP3    H210250   0.824   2.882   1.613  0.3880  0.0262 -0.0051
 3437TIP3   OH210251   3.125   3.471   4.008 -0.0334  0.0510 -0.0650
 3437TIP3    H110252   3.137   3.524   3.929 -0.4298  2.0619  1.2154
 3437TIP3    H210253   3.213   3.460   4.043  0.1054 -0.5716 -0.5878
 3438TIP3   OH210254   4.463   4.351   1.791  0.6094 -0.0610 -0.7123
 3438TIP3    H110255   4.453   4.339   1.885 -1.5690  0.6117 -0.8125
 3438TIP3    H210256   4.477   4.445   1.780  1.7384 -0.2626 -0.9982
 3439TIP3   OH210257   2.644   2.489   1.873 -0.0247  0.0963 -0.4004
 3439TIP3    H110258   2.613   2.399   1.862  0.2817 -0.4205  2.7369
 3439TIP3    H210259   2.565   2.542   1.868 -0.5692 -0.6081  0.6674
 3440TIP3   OH210260   3.478   0.924   2.785  0.4472  0.7972  0.6117
 3440TIP3    H110261   3.456   0.957   2.872 -2.6506 -1.3406  0.7400
 3440TIP3    H210262   3.486   0.829   2.797 -0.2025  0.4557 -1.4411
 3441TIP3   OH210263   8.101   4.355   3.887  0.5345 -0.1270 -0.1557
 3441TIP3    H110264   8.171   4.311   3.934  1.7571  0.9947 -0.8987
 3441TIP3    H210265   8.137   4.372   3.800 -0.3090  1.3290 -0.2392
 3442TIP3   OH210266   2.491   2.409   1.157  0.4214  0.5474  0.2510
 3442TIP3    H110267   2.536   2.350   1.095  1.7468  1.5561  0.2404
 3442TIP3    H210268   2.472   2.487   1.106 -2.6963 -0.3967 -0.1534
 3443TIP3   OH210269   3.399   3.469   1.829 -0.5380 -0.3960 -0.0866
 3443TIP3    H110270   3.337   3.442   1.760 -0.4076 -0.3194 -0.2350
 3443TIP3    H210271   3.458   3.531   1.785 -0.6303 -0.1280  0.1680
 3444TIP3   OH210272   1.517   3.714   3.369  0.5201 -0.4513 -0.2974
 3444TIP3    H110273   1.549   3.667   3.292 -0.7126  1.1918 -1.8436
 3444TIP3    H210274   1.558   3.800   3.364 -1.6810  0.6092 -0.6190
 3445TIP3   OH210275   1.803   3.975   5.103 -0.3715 -0.1997 -0.4557
 3445TIP3    H110276   1.765   3.907   5.159 -0.1437  0.0072 -0.0508
 3445TIP3    H210277   1.857   3.926   5.040  1.5419 -0.2764  1.1847
 3446TIP3   OH210278   2.121   5.613   2.737 -0.2414  0.3622 -0.2923
 3446TIP3    H110279   2.140   5.585   2.647 -1.0542  1.3783 -0.7945
 3446TIP3    H210280   2.130   5.534   2.789 -1.2555 -0.5737 -1.5059
 3447TIP3   OH210281   2.339   4.181   3.458  1.0293  0.3208  0.1446
 3447TIP3    H110282   2.248   4.198   3.432  0.9060  0.5061  0.6923
 3447TIP3    H210283   2.391   4.226   3.391  0.7409 -1.0522 -1.0335
 3448TIP3   OH210284   0.953   5.746   3.858 -0.2603 -0.1365  0.0921
 3448TIP3    H110285   0.897   5.742   3.935  0.0761  1.2828  0.4281
 3448TIP3    H210286   0.893   5.766   3.786 -0.4754 -0.7333  0.1066
 3449TIP3   OH210287   2.647   3.413   3.130 -0.3459 -0.5199 -0.2058
 3449TIP3    H110288   2.670   3.429   3.039  0.2278  1.0690  0.1907
 3449TIP3    H210289   2.727   3.433   3.179 -1.5420  1.7513  0.8926
 3450TIP3   OH210290   2.874   4.036   2.147  0.2221  0.0955 -0.1292
 3450TIP3    H110291   2.831   3.953   2.169  0.7944 -0.7081 -1.9164
 3450TIP3    H210292   2.804   4.101   2.150 -0.1071 -0.3300  1.9065
 3451TIP3   OH210293   3.795   0.428   4.591  0.7227 -0.5613 -0.0688
 3451TIP3    H110294   3.843   0.389   4.519 -1.4824 -0.9638 -1.3732
 3451TIP3    H210295   3.839   0.396   4.670  3.5316  0.3542 -1.1869
 3452TIP3   OH210296   0.145   2.604   3.141  0.0126  0.4524  0.0941
 3452TIP3    H110297   0.054   2.607   3.112  0.4530  2.1345 -1.1494
 3452TIP3    H210298   0.142   2.639   3.230 -0.5994  0.0519  0.2404
 3453TIP3   OH210299   4.679   1.369   3.783 -0.2292 -0.4519 -0.3307
 3453TIP3    H110300   4.742   1.435   3.753  0.7174 -0.4586  1.5772
 3453TIP3    H210301   4.659   1.318   3.704  0.3190  1.0588 -1.4669
 3454TIP3   OH210302   2.884   5.113   3.414  0.3778 -0.8868 -0.8093
 3454TIP3    H110303   2.817   5.046   3.405 -1.2594  0.5336  0.4264
 3454TIP3    H210304   2.923   5.096   3.500  0.8654 -1.0496 -1.0602
 3455TIP3   OH210305   1.825   4.240   5.176  0.4376  0.9084 -0.4917
 3455TIP3    H110306   1.750   4.282   5.219  1.6929  1.6749  1.0438
 3455TIP3    H210307   1.794   4.153   5.152 -0.7668  0.9989  0.6683
 3456TIP3   OH210308   2.601   3.873   1.664  0.0230  0.0499  0.0292
 3456TIP3    H110309   2.525   3.861   1.720 -0.1480  1.0163  0.0081
 3456TIP3    H210310   2.647   3.948   1.701  0.3173  0.2175 -0.6704
 3457TIP3   OH210311   2.423   2.572   3.421  0.1327 -0.1356 -0.1929
 3457TIP3    H110312   2.491   2.508   3.397  0.0531 -0.2795 -0.0393
 3457TIP3    H210313   2.345   2.519   3.436 -0.0020  0.0247 -0.3190
 3458TIP3   OH210314   2.051   2.155   2.167 -0.3296 -0.0345 -0.0093
 3458TIP3    H110315   2.066   2.112   2.251  0.2851 -0.1490 -0.1773
 3458TIP3    H210316   1.957   2.173   2.166 -0.2124  0.6813  1.0456
 3459TIP3   OH210317   1.413   1.868   1.454  0.0245  0.3781 -0.3427
 3459TIP3    H110318   1.458   1.823   1.383 -2.3383 -0.8962 -1.1173
 3459TIP3    H210319   1.378   1.947   1.413  0.1680  0.5263 -0.1737
 3460TIP3   OH210320   3.073   5.738   4.588  1.1161 -0.4054  0.0634
 3460TIP3    H110321   2.995   5.788   4.563 -0.0905 -1.7480  1.0505
 3460TIP3    H210322   3.134   5.751   4.516 -0.6589 -0.6873 -1.5394
 3461TIP3   OH210323   2.148   3.168   4.361 -0.6597 -0.0490 -0.2483
 3461TIP3    H110324   2.203   3.217   4.422 -0.2422 -0.8894  0.0534
 3461TIP3    H210325   2.070   3.223   4.351  0.3395  1.2925 -0.9095
 3462TIP3   OH210326   4.115   1.480   2.735  0.2123 -0.2789  0.3255
 3462TIP3    H110327   4.144   1.449   2.649  0.4328  0.2503  0.2056
 3462TIP3    H210328   4.022   1.497   2.724  0.4443  0.7311 -0.0844
 3463TIP3   OH210329   1.640   2.559   3.295  0.1343  0.1788 -0.1634
 3463TIP3    H110330   1.570   2.624   3.299 -2.6686 -2.6967 -0.5233
 3463TIP3    H210331   1.682   2.574   3.211 -1.2330  0.8042 -0.7455
 3464TIP3   OH210332   1.962   3.326   3.321  0.2616 -0.0162 -0.1351
 3464TIP3    H110333   2.033   3.360   3.376  0.0769 -0.9071  0.6664
 3464TIP3    H210334   1.914   3.267   3.379 -0.2361 -0.5767 -1.1197
 3465TIP3   OH210335   0.980   2.401   3.495  0.3732 -0.3112 -0.1211
 3465TIP3    H110336   0.984   2.410   3.590 -0.7643  0.1018 -0.1052
 3465TIP3    H210337   1.070   2.380   3.469  1.6382  3.7357  0.6108
 3466TIP3   OH210338   2.326   3.952   1.710  0.3657 -0.3167  0.1115
 3466TIP3    H110339   2.248   4.002   1.686  0.3803 -0.4508 -0.2225
 3466TIP3    H210340   2.293   3.863   1.724  0.4756 -0.4024 -0.1567
 3467TIP3   OH210341   2.463   2.955   3.518 -0.2682 -0.2992  0.0966
 3467TIP3    H110342   2.436   2.891   3.584 -1.4056  0.7816  0.6944
 3467TIP3    H210343   2.396   3.024   3.522 -0.4195 -0.2811 -2.2869
 3468TIP3   OH210344   2.338   2.155   2.527  0.5450  0.2817 -0.0411
 3468TIP3    H110345   2.378   2.242   2.534 -0.2449  0.6961 -0.4642
 3468TIP3    H210346   2.406   2.100   2.489  1.7544  0.2050  2.1679
 3469TIP3   OH210347   2.276   2.111   3.452 -0.1732 -0.1404  0.0779
 3469TIP3    H110348   2.211   2.166   3.410 -0.7678 -0.0201  1.1523
 3469TIP3    H210349   2.359   2.139   3.414 -0.5283  1.1120  0.2152
 3470TIP3   OH210350   5.704   2.103   4.086  0.0662 -0.0065  0.2453
 3470TIP3    H110351   5.667   2.019   4.059 -0.3112  0.3818 -0.4677
 3470TIP3    H210352   5.799   2.090   4.080 -0.0051  0.0815 -1.3534
 3471TIP3   OH210353   2.276   3.428   3.412 -0.4517 -0.0743 -0.5330
 3471TIP3    H110354   2.205   3.484   3.443 -2.5408 -2.1528 -1.4219
 3471TIP3    H210355   2.338   3.424   3.485 -0.8232  2.4352 -0.0469
 3472TIP3   OH210356   0.409   2.999   2.362  0.3956 -0.4854 -0.1083
 3472TIP3    H110357   0.395   2.921   2.416 -0.7620  1.0680  1.9328
 3472TIP3    H210358   0.321   3.033   2.347  0.8838  0.3840 -1.0520
 3473TIP3   OH210359   2.960   3.757   3.631  0.0635  0.1624 -0.4582
 3473TIP3    H110360   2.990   3.803   3.709 -1.6677  0.9505 -0.2335
 3473TIP3    H210361   2.875   3.796   3.611 -0.6416 -1.7280 -1.2827
 3474TIP3   OH210362   1.858   3.411   4.945 -0.0506 -0.4064  0.0735
 3474TIP3    H110363   1.838   3.489   4.894  0.5150 -0.3572 -0.0719
 3474TIP3    H210364   1.895   3.350   4.882  0.9202 -0.2403  0.4728
 3475TIP3   OH210365   2.836   3.473   2.126  0.4206 -0.5199  0.4649
 3475TIP3    H110366   2.851   3.380   2.110  0.7802 -0.1588 -1.4190
 3475TIP3    H210367   2.868   3.488   2.215  0.6396 -2.1270  0.6686
 3476TIP3   OH210368   0.790   3.574   1.694 -0.1200 -0.6814 -0.0972
 3476TIP3    H110369   0.748   3.488   1.701  0.0850 -0.6804  1.2033
 3476TIP3    H210370   0.871   3.565   1.744  0.6161 -0.1668 -1.1767
 3477TIP3   OH210371   3.641   2.132   2.739  0.1993 -0.7801 -0.3088
 3477TIP3    H110372   3.631   2.037   2.753  0.8064 -0.5786  1.6689
 3477TIP3    H210373   3.727   2.152   2.775 -1.0234  0.9633  1.7215
 3478TIP3   OH210374   0.798   5.372   1.662 -0.0358 -0.0059 -0.4438
 3478TIP3    H110375   0.856   5.446   1.679  1.3239 -1.2364  0.3357
 3478TIP3    H210376   0.727   5.409   1.608  0.1609  2.0297  0.6653
 3479TIP3   OH210377   2.308   2.305   3.148 -0.2053 -0.1785 -0.2409
 3479TIP3    H110378   2.388   2.340   3.187 -1.0584  0.0812  1.3175
 3479TIP3    H210379   2.311   2.334   3.057  0.3115  1.8567  0.3974
 3480TIP3   OH210380   0.873   2.456   2.752 -0.0640  0.3364 -0.2223
 3480TIP3    H110381   0.906   2.482   2.667  0.8660  0.2236  0.0990
 3480TIP3    H210382   0.933   2.497   2.815 -0.2104 -0.3130  0.3486
 3481TIP3   OH210383   2.422   3.363   2.897  0.2140  0.3660  0.0073
 3481TIP3    H110384   2.503   3.409   2.876  0.7987 -1.0074 -0.7743
 3481TIP3    H210385   2.402   3.390   2.987  1.6152  0.5938  0.2556
 3482TIP3   OH210386   4.832   3.904   3.320  0.1239 -0.3763 -0.1206
 3482TIP3    H110387   4.738   3.890   3.309  0.3682 -1.0007 -1.5686
 3482TIP3    H210388   4.866   3.910   3.230  1.4007  0.2916  0.3968
 3483TIP3   OH210389   3.631   3.192   4.785 -0.1076  0.0757  0.2979
 3483TIP3    H110390   3.568   3.256   4.752  1.1679  1.4906  0.5476
 3483TIP3    H210391   3.596   3.164   4.869 -1.1558 -0.2632 -0.2450
 3484TIP3   OH210392   0.846   4.316   4.288  0.0781 -0.3506  0.8750
 3484TIP3    H110393   0.838   4.221   4.281  1.5111 -0.4574  0.5953
 3484TIP3    H210394   0.822   4.349   4.202 -2.4547 -0.2965  1.5524
 3485TIP3   OH210395   0.294   3.387   3.241  0.5303  0.6252  0.0397
 3485TIP3    H110396   0.312   3.412   3.150 -1.3950  0.7617 -0.3102
 3485TIP3    H210397   0.335   3.457   3.292  1.0162  0.9234 -0.7315
 3486TIP3   OH210398   1.999   2.948   1.667 -0.8814 -0.1933  0.0778
 3486TIP3    H110399   2.090   2.969   1.648 -0.9501 -0.2039 -0.2545
 3486TIP3    H210400   1.996   2.852   1.668 -0.9247 -0.1924 -0.0650
 3487TIP3   OH210401   2.387   7.094   5.996  0.4625  0.2000  0.8182
 3487TIP3    H110402   2.449   7.031   6.032  2.1155  0.8226 -0.8570
 3487TIP3    H210403   2.419   7.179   6.025 -0.2018  0.4647  0.7955
 3488TIP3   OH210404   3.007   2.785   2.089  0.3409 -0.4655 -0.2696
 3488TIP3    H110405   2.957   2.749   2.015  0.7898 -3.9970  1.0566
 3488TIP3    H210406   2.940   2.805   2.155  0.3424 -1.7745  0.1371
 3489TIP3   OH210407   4.060   3.739   3.065 -0.1958 -0.3071  0.2507
 3489TIP3    H110408   4.032   3.828   3.046 -0.8169 -0.4234  0.5915
 3489TIP3    H210409   4.059   3.734   3.161 -1.2021 -0.9985  0.2109
 3490TIP3   OH210410   0.933   3.164   3.424  0.0097 -0.5614 -0.2533
 3490TIP3    H110411   1.019   3.166   3.466 -0.3492  1.6006  0.4283
 3490TIP3    H210412   0.952   3.156   3.331  0.9508 -0.1312 -0.1053
 3491TIP3   OH210413   4.922   2.779   4.239  0.1994 -0.0535 -0.1425
 3491TIP3    H110414   4.852   2.767   4.175  0.2155 -3.9094  0.4784
 3491TIP3    H210415   4.978   2.703   4.228  1.7884  0.6786  2.4946
 3492TIP3   OH210416   2.623   2.119   3.289 -0.6731  0.2376 -0.7456
 3492TIP3    H110417   2.660   2.117   3.201  0.7894 -1.7600 -0.1244
 3492TIP3    H210418   2.694   2.089   3.346 -1.4764  1.8819  1.1740
 3493TIP3   OH210419   0.175   2.094   2.625  0.0827  0.2985  0.1339
 3493TIP3    H110420   0.185   1.999   2.633  1.0042  0.1814 -1.9146
 3493TIP3    H210421   0.196   2.128   2.711  2.0881 -1.2140  0.2708
 3494TIP3   OH210422   1.303   3.125   2.573  0.3438 -0.1917 -0.1647
 3494TIP3    H110423   1.225   3.180   2.565  0.0491 -0.7756 -1.5448
 3494TIP3    H210424   1.281   3.061   2.640  0.5196  1.0837  1.1271
 3495TIP3   OH210425   1.850   3.628   4.145  0.2108  0.1953  0.8047
 3495TIP3    H110426   1.941   3.619   4.174  0.2265  0.0948  0.7241
 3495TIP3    H210427   1.811   3.689   4.207  0.5797  0.9566  0.2920
 3496TIP3   OH210428   1.571   4.400   3.090 -0.3055  0.6081  0.2168
 3496TIP3    H110429   1.611   4.355   3.164 -0.8733 -1.7580 -0.8885
 3496TIP3    H210430   1.587   4.343   3.015 -0.9810  2.2831 -1.2501
 3497TIP3   OH210431   4.203   2.779   3.272  0.7827  0.6467 -0.3762
 3497TIP3    H110432   4.266   2.800   3.204 -0.9237  0.3259 -2.0865
 3497TIP3    H210433   4.234   2.696   3.309  0.3171 -0.5250 -2.5367
 3498TIP3   OH210434   2.929   4.765   2.943  0.5830  0.2485  0.0341
 3498TIP3    H110435   2.915   4.683   2.990  0.5557 -0.0392 -0.4775
 3498TIP3    H210436   3.001   4.807   2.989 -0.2156  0.5181  1.0696
 3499TIP3   OH210437   4.713   2.710   4.041  0.2127 -0.0119  0.3512
 3499TIP3    H110438   4.714   2.655   3.963  0.4097 -0.8541  0.9301
 3499TIP3    H210439   4.711   2.800   4.008  0.4350 -0.3573 -0.6155
 3500TIP3   OH210440   2.064   4.210   2.583 -0.0442 -0.1016  0.0118
 3500TIP3    H110441   2.008   4.135   2.605  1.2325 -1.4739 -1.3157
 3500TIP3    H210442   2.115   4.226   2.662  2.3895 -3.0973 -0.8715
 3501TIP3   OH210443   3.396   3.079   2.330 -0.5010 -0.1406 -0.1610
 3501TIP3    H110444   3.456   3.111   2.263  0.0016 -1.6474 -0.4435
 3501TIP3    H210445   3.411   2.985   2.333 -3.2066 -0.6405 -0.6190
 3502TIP3   OH210446   2.257   3.753   3.267 -0.5380  0.1807  0.0960
 3502TIP3    H110447   2.317   3.679   3.263 -0.0610  0.4569  1.6549
 3502TIP3    H210448   2.277   3.806   3.190  1.3652  0.3656  0.6938
 3503TIP3   OH210449   8.516   4.027   3.551  0.8020  0.0138  0.0510
 3503TIP3    H110450   8.531   4.110   3.506 -1.9585  0.6715  0.2761
 3503TIP3    H210451   8.437   3.991   3.511  1.8709 -2.4677  0.0618
 3504TIP3   OH210452   1.933   1.005   2.934 -0.6730 -0.2630 -0.4370
 3504TIP3    H110453   1.993   1.011   2.861  0.4924 -0.6926  0.4742
 3504TIP3    H210454   1.846   1.018   2.895 -0.2489 -2.4292 -2.1851
 3505TIP3   OH210455   2.659   4.392   0.970  0.1570  0.2089  0.0794
 3505TIP3    H110456   2.647   4.485   0.988 -0.5684  0.2649 -0.6373
 3505TIP3    H210457   2.745   4.371   1.006  0.9463  1.4828 -0.9986
 3506TIP3   OH210458   2.002   3.810   3.358  0.2316 -0.1994 -0.1617
 3506TIP3    H110459   2.082   3.777   3.317  0.5856  1.4157 -0.8177
 3506TIP3    H210460   2.031   3.844   3.443 -0.3463 -2.6978  1.0712
 3507TIP3   OH210461   3.768   3.574   2.857  0.1669  0.0511  0.1934
 3507TIP3    H110462   3.781   3.556   2.950 -0.8401 -0.5494  0.2232
 3507TIP3    H210463   3.832   3.518   2.813  0.3209 -0.0220  0.5079
 3508TIP3   OH210464   3.246   2.620   2.180 -0.5700 -0.3960 -0.1930
 3508TIP3    H110465   3.257   2.704   2.134  0.4784 -1.0553 -1.1700
 3508TIP3    H210466   3.152   2.615   2.197 -0.9981 -0.1287 -2.2711
 3509TIP3   OH210467   3.301   4.089   4.014  0.1544 -0.0940 -0.2262
 3509TIP3    H110468   3.345   4.070   4.097 -1.2015  1.6498  0.9295
 3509TIP3    H210469   3.244   4.014   3.999  0.6402 -0.5584  0.2429
 3510TIP3   OH210470   4.130   3.768   2.007  0.4015  0.0251 -0.1530
 3510TIP3    H110471   4.225   3.772   2.018  0.3543  2.6885 -0.4513
 3510TIP3    H210472   4.096   3.824   2.077 -0.8943 -0.1455 -0.6389
 3511TIP3   OH210473   2.295   2.826   5.074 -0.7090 -0.2553 -0.0634
 3511TIP3    H110474   2.374   2.772   5.075 -2.2635 -2.5680  0.9142
 3511TIP3    H210475   2.225   2.766   5.047 -2.4357  1.3322  0.7858
 3512TIP3   OH210476   3.711   3.406   1.322 -0.2422  0.3802 -0.5680
 3512TIP3    H110477   3.750   3.332   1.277  0.6524 -0.0728  0.9286
 3512TIP3    H210478   3.617   3.389   1.319 -0.0512 -0.7490 -0.3693
 3513TIP3   OH210479   1.783   5.491   3.035 -0.3760 -0.2076 -0.0322
 3513TIP3    H110480   1.852   5.425   3.045 -0.2350  0.0958  1.1351
 3513TIP3    H210481   1.823   5.571   3.070 -1.6389 -0.2373  1.5360
 3514TIP3   OH210482   1.626   3.509   2.887  0.2222  0.0950 -0.1099
 3514TIP3    H110483   1.688   3.554   2.830  2.3857 -1.7759  0.6674
 3514TIP3    H210484   1.540   3.544   2.863  1.6192  3.1336 -0.8562
 3515TIP3   OH210485   2.777   1.678   1.848  0.5692  0.0988 -0.3578
 3515TIP3    H110486   2.821   1.730   1.915 -0.2001 -1.5240  1.4560
 3515TIP3    H210487   2.684   1.701   1.857  0.3814 -0.6168 -0.4178
 3516TIP3   OH210488   2.882   4.524   3.089  0.3450  0.2560  0.2600
 3516TIP3    H110489   2.865   4.431   3.074 -1.3560  0.1972  2.2738
 3516TIP3    H210490   2.941   4.525   3.164  0.7899  0.7808 -0.1017
 3517TIP3   OH210491   0.152   4.502   2.700 -0.9274 -0.0352 -0.0528
 3517TIP3    H110492   0.128   4.532   2.612 -1.4288  1.5453  0.6114
 3517TIP3    H210493   0.125   4.573   2.758  1.1853 -0.1992  1.1908
 3518TIP3   OH210494   7.813   1.895   2.956  0.0842  0.4728 -0.1213
 3518TIP3    H110495   7.777   1.983   2.954 -1.3041 -0.0449  0.9011
 3518TIP3    H210496   7.751   1.843   2.904  0.9414  0.1140 -0.7948
 3519TIP3   OH210497   5.582   3.999   1.156 -0.0188  0.4375 -0.1943
 3519TIP3    H110498   5.498   3.999   1.110  1.1659 -1.4288 -2.4334
 3519TIP3    H210499   5.564   3.954   1.239 -0.7444 -2.0603 -1.6568
 3520TIP3   OH210500   3.073   4.303   3.241  0.1539 -0.0510  0.4240
 3520TIP3    H110501   3.122   4.334   3.165  0.9033 -0.2322  0.8251
 3520TIP3    H210502   3.134   4.246   3.287  0.3127  1.4361  2.0983
 3521TIP3   OH210503   1.686   3.706   2.685 -0.0198 -0.3839  0.0035
 3521TIP3    H110504   1.661   3.791   2.648  2.5648  0.4488  0.0573
 3521TIP3    H210505   1.755   3.674   2.627  1.6838 -0.6603  2.1441
 3522TIP3   OH210506   1.964   6.133   4.001 -0.4759  0.0944 -0.3315
 3522TIP3    H110507   1.950   6.180   3.920  0.6504 -1.0851 -1.2328
 3522TIP3    H210508   1.931   6.192   4.070 -1.3712  1.1148 -1.6160
 3523TIP3   OH210509   0.143   5.827   5.425 -0.3101 -0.0227  0.2585
 3523TIP3    H110510   0.212   5.804   5.363 -0.8594  0.3155 -0.4807
 3523TIP3    H210511   0.105   5.743   5.451  0.3472 -0.2051  0.6326
 3524TIP3   OH210512   1.530   4.473   2.090  0.6886  0.6766 -0.0089
 3524TIP3    H110513   1.494   4.385   2.079  1.0914  0.5470 -0.3056
 3524TIP3    H210514   1.590   4.465   2.164  1.6851  0.4061 -0.8478
 3525TIP3   OH210515   2.633   4.806   4.543 -0.2994 -0.2365  1.0340
 3525TIP3    H110516   2.640   4.711   4.549 -0.8795 -0.4494 -1.2377
 3525TIP3    H210517   2.597   4.822   4.456  0.4332  2.0942  1.1184
 3526TIP3   OH210518   3.345   4.030   1.667  0.1633 -0.1590 -0.3431
 3526TIP3    H110519   3.323   3.984   1.748 -2.1549 -0.3521 -1.0259
 3526TIP3    H210520   3.318   4.121   1.684 -0.6398 -0.2716 -1.0068
 3527TIP3   OH210521   4.416   3.790   3.134 -0.0503 -0.3210 -0.2916
 3527TIP3    H110522   4.384   3.836   3.212  0.7292 -0.3232  0.0382
 3527TIP3    H210523   4.368   3.830   3.061 -1.7660 -1.2474  0.3219
 3528TIP3   OH210524   3.564   3.446   3.218 -0.4833 -0.3802  0.3363
 3528TIP3    H110525   3.573   3.496   3.299 -0.5750 -1.5201  1.0634
 3528TIP3    H210526   3.524   3.363   3.245 -3.3148  0.3639 -1.2844
 3529TIP3   OH210527   3.685   3.112   4.269  0.6766 -0.1386  0.0301
 3529TIP3    H110528   3.720   3.142   4.353  0.7681 -0.8388  0.2480
 3529TIP3    H210529   3.595   3.086   4.289 -0.4460  2.8672 -0.7854
 3530TIP3   OH210530   3.357   3.075   1.995 -0.0167 -0.0375 -0.2370
 3530TIP3    H110531   3.376   3.098   2.086  0.2314 -1.9310  0.2053
 3530TIP3    H210532   3.285   3.133   1.971  0.9162  1.5312  0.6706
 3531TIP3   OH210533   4.103   3.462   2.392  0.3296  0.2288 -0.1046
 3531TIP3    H110534   4.011   3.477   2.370  0.0950 -2.3818 -1.0140
 3531TIP3    H210535   4.152   3.499   2.318 -0.1775 -2.0561 -1.6249
 3532TIP3   OH210536   2.854   4.542   4.686 -0.3293  0.0583 -0.8054
 3532TIP3    H110537   2.912   4.485   4.736  0.2727  1.4067  0.0308
 3532TIP3    H210538   2.912   4.594   4.630 -0.9403 -0.8270 -2.3106
 3533TIP3   OH210539   0.351   3.368   1.816 -0.1454  0.5146  0.0457
 3533TIP3    H110540   0.316   3.456   1.810  0.7429  0.8689 -0.1058
 3533TIP3    H210541   0.429   3.376   1.871  2.0305  0.5115 -2.9155
 3534TIP3   OH210542   1.202   4.840   3.996  0.4165  0.2839 -0.0367
 3534TIP3    H110543   1.264   4.786   3.947 -0.2684  1.4017 -2.1780
 3534TIP3    H210544   1.253   4.874   4.069  1.6306 -0.8877 -0.3118
 3535TIP3   OH210545   3.963   3.223   3.030 -0.1136 -0.0042  0.2238
 3535TIP3    H110546   3.967   3.312   3.064 -0.1419 -0.4959  1.5310
 3535TIP3    H210547   4.054   3.199   3.013 -0.1436  0.4498 -0.6319
 3536TIP3   OH210548   2.826   4.991   3.997  0.1949  0.0524  0.3838
 3536TIP3    H110549   2.805   5.082   4.014  2.9493  0.5020  1.6443
 3536TIP3    H210550   2.860   4.958   4.080 -1.3212 -2.3298  0.1400
 3537TIP3   OH210551   2.923   1.498   1.729 -0.5972  0.7449 -0.5182
 3537TIP3    H110552   2.866   1.562   1.772  1.2457  1.2613  1.2557
 3537TIP3    H210553   2.887   1.413   1.755  0.5093  1.0421  2.2430
 3538TIP3   OH210554   2.385   3.496   3.145 -0.2406  0.2142 -0.0004
 3538TIP3    H110555   2.330   3.443   3.202 -1.4843  0.1444 -1.2252
 3538TIP3    H210556   2.470   3.450   3.143 -0.5296 -0.3671  0.9053
 3539TIP3   OH210557   1.286   5.709   3.461  0.6125 -0.1033  1.0420
 3539TIP3    H110558   1.205   5.756   3.483  0.7383  0.3924  0.4555
 3539TIP3    H210559   1.293   5.717   3.366  1.3658 -0.1239  1.0932
 3540TIP3   OH210560   1.916   4.538   2.186 -0.3472  0.8850  0.6670
 3540TIP3    H110561   1.840   4.567   2.236 -0.6856  0.4811  0.3838
 3540TIP3    H210562   1.960   4.474   2.242 -0.7974  0.3368  0.4027
 3541TIP3   OH210563   3.489   3.716   4.301  0.2905 -0.0766  0.2170
 3541TIP3    H110564   3.413   3.660   4.316  0.2212 -0.3676 -1.1408
 3541TIP3    H210565   3.562   3.655   4.294  0.2873  0.0182 -0.7831
 3542TIP3   OH210566   2.969   5.247   3.173  0.1813  0.6466  0.1908
 3542TIP3    H110567   2.964   5.338   3.201 -0.8684  0.7236 -0.2183
 3542TIP3    H210568   2.963   5.197   3.254  2.6393  0.9444  0.6157
 3543TIP3   OH210569   4.061   3.124   3.983 -0.3583  0.2961 -0.4969
 3543TIP3    H110570   4.058   3.180   4.061 -1.9413 -1.6440  0.9069
 3543TIP3    H210571   3.969   3.098   3.969 -0.0162  0.2455 -2.7334
 3544TIP3   OH210572   0.665   4.257   4.778  0.9038 -0.1921 -0.2714
 3544TIP3    H110573   0.726   4.312   4.729 -0.7746  0.5224 -1.6070
 3544TIP3    H210574   0.610   4.318   4.826 -0.3550 -0.7136 -1.0168
 3545TIP3   OH210575   6.690   1.443   1.010 -0.2082  0.0173 -0.4196
 3545TIP3    H110576   6.693   1.377   1.079  1.3737  0.6253  0.1187
 3545TIP3    H210577   6.759   1.506   1.033 -1.2073  1.4695 -1.3085
 3546TIP3   OH210578   0.891   1.634   4.174 -0.3258 -0.1651  0.5827
 3546TIP3    H110579   0.895   1.633   4.269  0.2763  1.1014  0.5740
 3546TIP3    H210580   0.851   1.719   4.152 -0.3224 -0.3795 -0.2925
 3547TIP3   OH210581   2.406   0.662   3.962 -0.0548 -0.2724  0.7869
 3547TIP3    H110582   2.408   0.747   4.006 -0.1278 -0.2518  0.7513
 3547TIP3    H210583   2.478   0.665   3.900  0.5843 -0.6269  1.5002
 3548TIP3   OH210584   7.217   3.387   6.095  0.2928 -0.6599  0.0716
 3548TIP3    H110585   7.240   3.427   6.178  0.1221 -0.0820 -0.1575
 3548TIP3    H210586   7.128   3.353   6.108 -1.0266  2.2617 -0.8582
 3549TIP3   OH210587   1.810   2.361   4.392 -0.3167  0.3373 -0.3573
 3549TIP3    H110588   1.799   2.316   4.308  0.8118  0.1245 -0.3919
 3549TIP3    H210589   1.770   2.302   4.456 -0.7642  0.2874 -0.6774
 3550TIP3   OH210590   4.421   3.440   3.528 -0.8474  0.1745 -0.4386
 3550TIP3    H110591   4.430   3.410   3.619  3.2863 -0.1514 -0.8810
 3550TIP3    H210592   4.407   3.360   3.477 -0.6993  0.1122 -0.3805
 3551TIP3   OH210593   0.995   4.332   2.711  0.3404  0.4176  0.3388
 3551TIP3    H110594   1.072   4.283   2.740  0.7084  1.7270  1.6046
 3551TIP3    H210595   0.933   4.324   2.784 -0.0323  0.8940  0.0729
 3552TIP3   OH210596   8.179   4.491   1.942 -0.5520 -0.1707  0.0539
 3552TIP3    H110597   8.246   4.433   1.978 -0.2397 -0.7960 -1.4911
 3552TIP3    H210598   8.112   4.431   1.907 -1.3557  0.4336  0.5389
 3553TIP3   OH210599   8.584   4.260   3.389  0.0346 -0.3023  0.7310
 3553TIP3    H110600   8.535   4.333   3.351  0.6617 -0.0558  0.4019
 3553TIP3    H210601   8.632   4.299   3.461  1.9847  0.0276 -0.7209
 3554TIP3   OH210602   7.233   4.282   3.303  0.2210  0.1905 -0.0508
 3554TIP3    H110603   7.161   4.236   3.346 -0.9183  1.1887 -0.8461
 3554TIP3    H210604   7.262   4.222   3.234  2.0667 -1.4193  2.0666
 3555TIP3   OH210605   2.826   5.867   3.313  0.1037  0.7069  0.6862
 3555TIP3    H110606   2.824   5.863   3.217  1.7194  2.4022  0.5526
 3555TIP3    H210607   2.874   5.947   3.333  0.9319 -0.2929  2.9132
 3556TIP3   OH210608   4.666   3.422   1.697 -0.2231  0.0483 -0.1053
 3556TIP3    H110609   4.672   3.490   1.764 -1.5384  1.0806 -1.0025
 3556TIP3    H210610   4.756   3.396   1.681  0.3354  1.8691 -0.0327
 3557TIP3   OH210611   3.831   3.824   3.655  0.2839  0.1472  0.1899
 3557TIP3    H110612   3.819   3.828   3.750 -0.1629  1.6553  0.0855
 3557TIP3    H210613   3.853   3.914   3.630 -3.3274  0.5871 -1.6462
 3558TIP3   OH210614   3.810   3.547   3.128 -0.3584 -0.1260  0.3895
 3558TIP3    H110615   3.813   3.637   3.160 -2.8004  0.3455 -0.6255
 3558TIP3    H210616   3.723   3.515   3.152 -0.2027 -1.6074 -0.8929
 3559TIP3   OH210617   0.754   2.008   3.516 -0.1348  0.5794  0.4232
 3559TIP3    H110618   0.844   1.975   3.527 -0.5267 -0.5968  0.1320
 3559TIP3    H210619   0.765   2.101   3.495  1.0232  0.4077  0.2401
 3560TIP3   OH210620   2.914   2.200   1.447 -0.0207  0.0885 -0.4829
 3560TIP3    H110621   2.947   2.154   1.524 -1.3275 -0.1227 -0.0446
 3560TIP3    H210622   2.860   2.135   1.402 -1.0297  0.8864 -0.4168
 3561TIP3   OH210623   1.595   3.241   3.120  0.9479  0.4786 -0.5030
 3561TIP3    H110624   1.561   3.291   3.046  1.4371  0.1345 -0.9645
 3561TIP3    H210625   1.541   3.268   3.194 -1.0367 -0.8565 -1.4237
 3562TIP3   OH210626   3.292   4.126   3.244 -0.5430  0.5215  0.3659
 3562TIP3    H110627   3.268   4.056   3.305  0.7501 -1.1633 -0.9776
 3562TIP3    H210628   3.388   4.125   3.245 -0.5242  1.4821 -0.5706
 3563TIP3   OH210629   3.283   0.713   2.518 -0.0419 -0.0262 -0.0838
 3563TIP3    H110630   3.308   0.672   2.435 -2.4691 -0.0147 -0.8473
 3563TIP3    H210631   3.233   0.646   2.564 -1.1156  0.9293  0.1447
 3564TIP3   OH210632   2.619   2.755   3.426  0.6047  0.2627 -0.4555
 3564TIP3    H110633   2.558   2.685   3.404  1.3613 -0.8139  0.7549
 3564TIP3    H210634   2.564   2.831   3.445 -0.2822 -0.3158 -0.7043
 3565TIP3   OH210635   7.883   4.505   2.706  0.5994  0.2489 -0.2077
 3565TIP3    H110636   7.862   4.511   2.613  0.7875 -0.6261 -0.3175
 3565TIP3    H210637   7.852   4.587   2.743 -2.1427 -0.5869 -0.5224
 3566TIP3   OH210638   3.951   3.723   5.657 -0.2740 -0.0788 -0.1934
 3566TIP3    H110639   3.927   3.789   5.722 -3.1392 -0.6672 -0.5870
 3566TIP3    H210640   3.939   3.768   5.573  1.7799  0.1612 -0.3634
 3567TIP3   OH210641   4.136   3.042   1.833 -0.3230  0.1425  0.0936
 3567TIP3    H110642   4.174   3.107   1.774 -2.1197  1.4123  0.2988
 3567TIP3    H210643   4.175   2.959   1.806  2.5512  1.3788  0.2670
 3568TIP3   OH210644   8.514   1.529   3.506 -0.4564 -0.2259  0.6697
 3568TIP3    H110645   8.430   1.574   3.505 -0.4245 -0.1775 -0.1269
 3568TIP3    H210646   8.528   1.505   3.598 -0.3619  1.6253  1.1663
 3569TIP3   OH210647   3.675   2.714   4.328  0.5463  0.8060  0.9482
 3569TIP3    H110648   3.612   2.662   4.277  0.8514  0.0387  1.3386
 3569TIP3    H210649   3.648   2.703   4.419  2.2524 -0.9735  1.2806
 3570TIP3   OH210650   2.602   0.826   2.187 -0.0659  0.1209 -0.3682
 3570TIP3    H110651   2.546   0.813   2.110  0.4123  1.6655 -0.9864
 3570TIP3    H210652   2.673   0.763   2.176  0.4587  0.9016 -1.6459
 3571TIP3   OH210653   1.273   4.323   1.641 -0.3654  0.6938 -0.0058
 3571TIP3    H110654   1.287   4.345   1.549 -0.5092  0.0794 -0.1750
 3571TIP3    H210655   1.335   4.253   1.660 -0.5978  0.5540  0.2558
 3572TIP3   OH210656   1.981   1.926   4.208 -0.0859  0.2919 -1.1399
 3572TIP3    H110657   1.940   1.904   4.125 -0.6695 -1.5486 -0.3963
 3572TIP3    H210658   1.992   1.841   4.252 -0.0129  1.2648  0.7491
 3573TIP3   OH210659   4.820   2.552   2.803 -0.5753 -0.2462 -0.2460
 3573TIP3    H110660   4.899   2.603   2.787 -0.4718 -0.1707  0.5063
 3573TIP3    H210661   4.752   2.594   2.751 -0.3895  0.3940  0.0307
 3574TIP3   OH210662   1.924   3.528   1.000  0.0898 -0.1882  0.3626
 3574TIP3    H110663   1.893   3.617   1.019 -1.5002 -0.9118  1.1646
 3574TIP3    H210664   1.952   3.533   0.908 -0.8830  0.8983  0.1062
 3575TIP3   OH210665   2.099   2.909   4.515 -0.4208  0.6161 -0.3574
 3575TIP3    H110666   2.133   2.978   4.458 -1.8084  0.1465 -1.8083
 3575TIP3    H210667   2.159   2.836   4.502 -0.7161  0.5195 -1.2333
 3576TIP3   OH210668   2.899   3.045   2.210 -0.0125 -0.2439  0.2030
 3576TIP3    H110669   2.981   2.997   2.222  0.9430  1.0358 -1.1109
 3576TIP3    H210670   2.907   3.121   2.268  0.3196  0.5929 -0.9164
 3577TIP3   OH210671   1.582   0.958   5.244 -0.7630  0.1609 -0.2066
 3577TIP3    H110672   1.595   1.042   5.200 -1.2044  0.5347  0.3689
 3577TIP3    H210673   1.580   0.980   5.338 -1.4216 -0.4172 -0.0833
 3578TIP3   OH210674   3.157   1.146   2.708  0.2740 -0.2412 -0.1250
 3578TIP3    H110675   3.127   1.112   2.624  1.0264  0.1167 -0.5462
 3578TIP3    H210676   3.185   1.236   2.689 -1.2113  0.4513  0.8667
 3579TIP3   OH210677   1.365   2.830   4.617  0.1177 -0.2191 -0.6198
 3579TIP3    H110678   1.319   2.904   4.578 -1.3492 -1.5386 -1.4875
 3579TIP3    H210679   1.332   2.825   4.706 -0.8686 -0.6936 -1.0052
 3580TIP3   OH210680   2.167   3.672   2.021  0.0172 -0.3490 -0.5275
 3580TIP3    H110681   2.221   3.602   2.058 -0.4283 -0.6328 -0.4097
 3580TIP3    H210682   2.111   3.628   1.957 -1.6932 -0.4454  0.9999
 3581TIP3   OH210683   3.343   2.505   5.060 -0.1919  0.3318 -0.0470
 3581TIP3    H110684   3.252   2.527   5.082 -0.4160  0.2777 -0.8939
 3581TIP3    H210685   3.385   2.490   5.145 -1.1291 -0.2567  0.3310
 3582TIP3   OH210686   1.693   3.529   3.965  0.0429 -0.3904 -0.1496
 3582TIP3    H110687   1.733   3.551   4.049  0.0686 -0.4295 -0.1513
 3582TIP3    H210688   1.760   3.477   3.920  0.6245  0.8862 -0.8015
 3583TIP3   OH210689   2.697   5.853   4.253  0.2124 -0.1422  0.0655
 3583TIP3    H110690   2.650   5.884   4.331  1.8718  0.7539  0.7326
 3583TIP3    H210691   2.737   5.932   4.217  1.1446 -0.8864 -0.5325
 3584TIP3   OH210692   3.727   4.442   2.481 -0.4941 -0.3995  0.1987
 3584TIP3    H110693   3.696   4.488   2.403 -0.3315 -0.5288  0.0586
 3584TIP3    H210694   3.685   4.488   2.554 -2.1257 -1.4433 -0.0512
 3585TIP3   OH210695   3.973   4.414   3.904  0.1398  0.0396  0.1725
 3585TIP3    H110696   4.007   4.480   3.844 -0.3553 -1.2783 -1.6030
 3585TIP3    H210697   3.878   4.415   3.889  0.0836 -0.7591  0.4305
 3586TIP3   OH210698   2.323   1.833   4.083 -0.3490  0.4453 -0.0098
 3586TIP3    H110699   2.328   1.870   4.171 -0.6972  0.0395  0.1767
 3586TIP3    H210700   2.258   1.886   4.037 -0.3873  0.4636  0.0675
 3587TIP3   OH210701   3.489   2.601   4.174  0.0245  0.1153  0.3855
 3587TIP3    H110702   3.514   2.574   4.086  2.0379  0.5788  0.7814
 3587TIP3    H210703   3.450   2.523   4.213 -0.8798 -0.0930 -0.8911
 3588TIP3   OH210704   2.831   5.859   3.034 -0.1066 -0.0436 -0.2478
 3588TIP3    H110705   2.895   5.842   2.965 -1.1398 -1.2002 -0.9450
 3588TIP3    H210706   2.781   5.778   3.040 -1.9069  1.0691 -0.1231
 3589TIP3   OH210707   3.343   2.793   3.272  0.7331 -0.1530 -0.4372
 3589TIP3    H110708   3.365   2.707   3.236 -0.1955 -0.0406 -1.3055
 3589TIP3    H210709   3.275   2.827   3.213  2.2187  1.8629 -1.0430
 3590TIP3   OH210710   2.807   4.437   2.582  0.0510 -0.4112 -0.0117
 3590TIP3    H110711   2.895   4.451   2.618  0.3905  0.5333 -1.1826
 3590TIP3    H210712   2.814   4.464   2.491 -1.0868 -1.7339 -0.4980
 3591TIP3   OH210713   0.759   5.512   2.978  0.2301 -0.1215 -0.5053
 3591TIP3    H110714   0.775   5.425   3.014  0.3960 -0.5422 -1.5812
 3591TIP3    H210715   0.726   5.495   2.890 -1.7152  0.8465  0.0006
 3592TIP3   OH210716   1.940   5.219   3.799  0.0361 -0.1176  0.0429
 3592TIP3    H110717   1.851   5.183   3.801  0.5143 -1.2922  0.0868
 3592TIP3    H210718   1.996   5.148   3.830  1.0209  0.5512 -0.1807
 3593TIP3   OH210719   1.416   4.059   3.880 -0.7889  0.0006  0.3458
 3593TIP3    H110720   1.354   3.990   3.904 -2.4473  0.1004 -3.3153
 3593TIP3    H210721   1.360   4.134   3.859  0.6635  0.6358 -1.3126
 3594TIP3   OH210722   0.385   5.313   3.626  0.0999 -0.0072 -0.7721
 3594TIP3    H110723   0.305   5.296   3.577 -1.5337  0.9957  1.4376
 3594TIP3    H210724   0.401   5.407   3.614 -1.2068  0.5962  1.7788
 3595TIP3   OH210725   2.605   3.586   4.530 -0.7212 -0.8180 -0.3261
 3595TIP3    H110726   2.667   3.608   4.599 -1.3517  0.6704 -0.2261
 3595TIP3    H210727   2.534   3.540   4.576 -0.4862 -1.0636 -0.2040
 3596TIP3   OH210728   2.982   1.998   3.669  0.3085  0.8101 -0.7930
 3596TIP3    H110729   2.893   2.008   3.702  1.0717  0.1369  1.6197
 3596TIP3    H210730   3.030   2.073   3.705  0.9126  0.6672 -1.2805
 3597TIP3   OH210731   3.171   1.188   3.246 -0.4850 -0.2819  0.6265
 3597TIP3    H110732   3.138   1.275   3.222  0.3675 -0.0444  0.3015
 3597TIP3    H210733   3.200   1.198   3.336  0.8066  0.1310  0.1852
 3598TIP3   OH210734   2.080   2.926   3.275 -0.0667  0.3746 -0.2342
 3598TIP3    H110735   2.073   2.836   3.306 -0.9133  0.4456 -0.2301
 3598TIP3    H210736   1.992   2.949   3.246  0.1299  1.2302 -0.1634
 3599TIP3   OH210737   1.455   2.460   2.384  0.1303 -0.3706 -0.0534
 3599TIP3    H110738   1.403   2.511   2.446  1.5670  1.0386  0.0286
 3599TIP3    H210739   1.545   2.475   2.410  0.7011 -0.6878 -1.7570
 3600TIP3   OH210740   2.662   3.509   4.062  0.1182  0.4399 -0.2342
 3600TIP3    H110741   2.687   3.426   4.101  0.0518 -0.2667 -1.6767
 3600TIP3    H210742   2.740   3.538   4.014  0.0933  1.1272  0.1305
 3601TIP3   OH210743   2.532   1.599   2.807  0.1135 -0.1370  0.1063
 3601TIP3    H110744   2.456   1.584   2.863 -0.3559  3.1571  0.4503
 3601TIP3    H210745   2.603   1.618   2.868  0.7244 -1.0774 -0.2971
 3602TIP3   OH210746   1.989   1.403   3.607 -0.6691 -0.1002 -0.6328
 3602TIP3    H110747   1.897   1.405   3.634 -0.4282 -1.5806  0.3993
 3602TIP3    H210748   2.022   1.321   3.644  0.7538 -0.1783 -2.0435
 3603TIP3   OH210749   3.011   4.308   3.897 -0.3457 -0.0521  0.2837
 3603TIP3    H110750   2.936   4.354   3.934 -0.8617  0.5003 -1.4157
 3603TIP3    H210751   3.087   4.346   3.942 -1.1586 -1.8043  3.2433
 3604TIP3   OH210752   0.441   0.833   1.444 -0.3271 -0.8089  0.2788
 3604TIP3    H110753   0.426   0.748   1.486 -2.1832 -1.1750 -1.0552
 3604TIP3    H210754   0.364   0.885   1.467  0.3828  0.2170  0.3576
 3605TIP3   OH210755   2.778   3.334   1.410 -0.4323  0.5927  0.2458
 3605TIP3    H110756   2.696   3.285   1.406 -0.6477  1.0792 -1.9315
 3605TIP3    H210757   2.756   3.414   1.458 -1.5083  1.1982 -1.2197
 3606TIP3   OH210758   3.239   7.275   3.769  0.4905 -0.1088 -0.0117
 3606TIP3    H110759   3.326   7.277   3.730  0.5309 -0.2200  0.0752
 3606TIP3    H210760   3.224   7.365   3.799  0.8056 -0.2258  0.4883
 3607TIP3   OH210761   5.425   3.347   1.229 -0.7805  0.4623 -0.1011
 3607TIP3    H110762   5.341   3.336   1.185 -1.4769 -0.5860  1.4486
 3607TIP3    H210763   5.424   3.437   1.261 -0.8232  0.8146 -1.0851
 3608TIP3   OH210764   0.243   1.655   5.039 -0.2268  0.5794  0.4628
 3608TIP3    H110765   0.228   1.590   5.108  0.7984  0.4398  0.5652
 3608TIP3    H210766   0.272   1.603   4.964  1.0662  0.9569  0.6917
 3609TIP3   OH210767   0.765   3.541   2.637  0.4472 -0.3135  0.5055
 3609TIP3    H110768   0.781   3.499   2.552  0.8956 -1.0143  0.9259
 3609TIP3    H210769   0.743   3.631   2.615 -0.3634 -0.7230 -0.4125
 3610TIP3   OH210770   1.235   1.880   2.055 -0.3341 -0.1806 -0.0403
 3610TIP3    H110771   1.164   1.900   1.993 -0.1077  2.0545  0.3670
 3610TIP3    H210772   1.252   1.787   2.044 -1.2911 -0.1035 -2.3057
 3611TIP3   OH210773   3.500   2.883   4.111 -0.0674  0.3252 -0.2464
 3611TIP3    H110774   3.480   2.941   4.185  1.1490 -0.0314  0.3864
 3611TIP3    H210775   3.512   2.796   4.151  1.0065  0.2052 -0.7966
 3612TIP3   OH210776   2.270   4.415   1.936 -0.0156  0.4108 -0.3475
 3612TIP3    H110777   2.194   4.376   1.892 -0.7789 -1.2769  2.3467
 3612TIP3    H210778   2.337   4.422   1.867 -1.5992 -0.8829 -2.0690
 3613TIP3   OH210779   4.072   2.404   0.251  0.1390  0.2461  0.8003
 3613TIP3    H110780   4.112   2.448   0.326  0.3302 -0.8988  1.3851
 3613TIP3    H210781   4.062   2.313   0.280 -0.3784 -0.0590 -0.3337
 3614TIP3   OH210782   3.830   3.794   2.473  0.1854  0.2238 -0.4466
 3614TIP3    H110783   3.774   3.866   2.501  0.5275  0.4024 -0.2079
 3614TIP3    H210784   3.782   3.715   2.498 -0.2120  0.3686 -0.7530
 3615TIP3   OH210785   3.006   2.473   4.005 -0.3136  0.1662  0.0098
 3615TIP3    H110786   2.971   2.512   3.925 -0.6562 -2.3100 -1.0942
 3615TIP3    H210787   2.930   2.461   4.062 -0.0282  2.2027  0.8759
 3616TIP3   OH210788   2.917   5.624   2.004 -0.0337  0.6433 -0.3773
 3616TIP3    H110789   2.966   5.684   1.947 -0.0414  0.0288 -1.0306
 3616TIP3    H210790   2.828   5.627   1.970 -0.2321  0.9533  0.1613
 3617TIP3   OH210791   3.266   3.427   2.054 -0.7285  0.0266  0.0479
 3617TIP3    H110792   3.215   3.357   2.013 -1.3174  0.9461 -0.8076
 3617TIP3    H210793   3.319   3.463   1.982 -0.7268  0.7230  0.4017
 3618TIP3   OH210794   2.653   3.454   0.911 -0.5627 -0.1733  0.0423
 3618TIP3    H110795   2.712   3.461   0.986 -0.3358  1.1528 -0.2447
 3618TIP3    H210796   2.572   3.420   0.948 -0.3416  0.1386  0.8325
 3619TIP3   OH210797   3.877   3.435   3.760  0.2730 -0.2776  0.3401
 3619TIP3    H110798   3.965   3.418   3.726 -0.4690 -1.9660 -0.8005
 3619TIP3    H210799   3.826   3.460   3.683 -0.3789  0.1428  0.9019
 3620TIP3   OH210800   5.205   5.027   1.886  0.4113  0.1944  0.3050
 3620TIP3    H110801   5.280   5.080   1.858 -1.5695  2.3637 -1.0599
 3620TIP3    H210802   5.186   4.972   1.811 -1.0060  1.5535 -0.3480
 3621TIP3   OH210803   3.790   2.448   2.774 -0.3222  0.1205  0.5206
 3621TIP3    H110804   3.857   2.512   2.796  0.4060 -0.1016 -0.9931
 3621TIP3    H210805   3.828   2.363   2.798 -0.9167  0.1756  1.6608
 3622TIP3   OH210806   4.331   3.952   2.934  0.7668 -0.0511  0.0803
 3622TIP3    H110807   4.357   3.988   2.849 -0.6686 -2.6429 -1.5053
 3622TIP3    H210808   4.270   4.017   2.969 -1.1100 -0.4604 -2.3276
 3623TIP3   OH210809   4.705   3.895   2.412 -0.2504 -0.1358  0.1549
 3623TIP3    H110810   4.622   3.846   2.413 -1.0540  1.1363 -2.1286
 3623TIP3    H210811   4.683   3.979   2.452  0.1409 -0.0814  0.2555
 3624TIP3   OH210812   4.407   3.003   2.793 -0.2996 -0.4003 -0.7211
 3624TIP3    H110813   4.347   3.071   2.824  1.3870  1.2981 -1.0509
 3624TIP3    H210814   4.378   2.985   2.703  0.2021  1.0566 -1.1960
 3625TIP3   OH210815   3.667   2.856   0.343 -0.1148  0.2408  0.7193
 3625TIP3    H110816   3.646   2.841   0.251  0.2574  2.8505  0.1516
 3625TIP3    H210817   3.594   2.819   0.391 -0.5748 -0.6848 -0.6609
 3626TIP3   OH210818   2.090   3.272   3.064 -0.3317 -0.0970  0.2207
 3626TIP3    H110819   2.079   3.270   3.160 -0.0332 -1.1102  0.2419
 3626TIP3    H210820   2.003   3.250   3.030 -0.7363  1.4227  0.2297
 3627TIP3   OH210821   3.245   4.638   2.257  0.3310  0.1387 -0.0547
 3627TIP3    H110822   3.257   4.582   2.333 -1.0370 -0.8958 -0.5762
 3627TIP3    H210823   3.183   4.590   2.201 -1.5609  2.5421 -0.1115
 3628TIP3   OH210824   5.832   3.428   1.844 -0.0922  0.3996 -0.0560
 3628TIP3    H110825   5.858   3.421   1.936  0.0340  0.4749 -0.0859
 3628TIP3    H210826   5.737   3.414   1.845  0.1813 -1.7013 -0.1485
 3629TIP3   OH210827   3.677   5.591   2.571 -0.1975  0.5024  0.7886
 3629TIP3    H110828   3.759   5.640   2.562 -0.2527  0.4526  0.0100
 3629TIP3    H210829   3.679   5.557   2.661  0.3097  1.0844  0.9980
 3630TIP3   OH210830   4.097   3.490   1.934  0.1607 -0.2385 -0.0541
 3630TIP3    H110831   4.048   3.432   1.992  0.6244 -0.5521  0.0212
 3630TIP3    H210832   4.093   3.576   1.977 -1.3709  0.0220 -0.6576
 3631TIP3   OH210833   3.251   3.919   2.684  0.2839  0.2164  0.8314
 3631TIP3    H110834   3.198   3.969   2.745 -0.1775  0.2835  0.3862
 3631TIP3    H210835   3.339   3.922   2.719  0.7018  3.2482 -0.3652
 3632TIP3   OH210836   7.068   5.078   2.833 -0.4474 -0.0981  0.0769
 3632TIP3    H110837   7.143   5.075   2.774  0.7553  1.1885  1.5091
 3632TIP3    H210838   7.078   5.000   2.888  0.5467  0.7498  1.1036
 3633TIP3   OH210839   3.218   1.239   2.354  0.6438 -0.4759  0.1064
 3633TIP3    H110840   3.257   1.171   2.410  0.1877  0.2482  1.3275
 3633TIP3    H210841   3.259   1.226   2.269 -0.7845 -3.4821 -0.2094
 3634TIP3   OH210842   6.439   3.755   1.429  0.0886 -0.1741  0.4939
 3634TIP3    H110843   6.452   3.698   1.505  0.1865 -0.1225  0.5168
 3634TIP3    H210844   6.408   3.697   1.360  2.6207 -0.7155 -0.2310
 3635TIP3   OH210845   4.042   5.241   1.309  0.4545  0.3303 -0.1675
 3635TIP3    H110846   4.067   5.266   1.398 -0.0599 -0.4438  0.2037
 3635TIP3    H210847   4.120   5.201   1.272  0.8676  1.2508 -0.2913
 3636TIP3   OH210848   5.646   4.058   1.834  0.0693  0.2734 -0.3730
 3636TIP3    H110849   5.601   4.142   1.843 -0.0633  0.1487  0.1220
 3636TIP3    H210850   5.618   4.007   1.909  3.2642  1.2126  1.5804
 3637TIP3   OH210851   4.981   5.000   4.212  0.2995 -0.0262 -0.0163
 3637TIP3    H110852   5.003   4.907   4.215 -0.8457 -0.2767  1.4312
 3637TIP3    H210853   4.941   5.013   4.126  1.1047 -0.7237 -0.4905
 3638TIP3   OH210854   3.999   0.838   2.360  0.3120 -0.5553 -0.1537
 3638TIP3    H110855   3.916   0.796   2.382 -1.1593  1.6731 -1.1930
 3638TIP3    H210856   4.054   0.767   2.327 -1.0059 -2.1415  0.9628
 3639TIP3   OH210857   3.916   4.741   3.068  0.5913  0.3803  0.1562
 3639TIP3    H110858   3.823   4.722   3.051  0.7268  0.3777 -0.5956
 3639TIP3    H210859   3.944   4.792   2.993  1.3422 -0.0726  0.1272
 3640TIP3   OH210860   1.026   3.282   0.661 -0.2959  0.2603 -0.2438
 3640TIP3    H110861   1.041   3.265   0.568  2.9831 -0.7202  0.4075
 3640TIP3    H210862   1.041   3.198   0.704 -0.1160  1.0943  1.3537
 3641TIP3   OH210863   5.963   2.969   0.737 -0.2838 -0.1422  0.5090
 3641TIP3    H110864   6.018   3.039   0.703 -2.3446  2.3493  2.0840
 3641TIP3    H210865   5.874   3.004   0.733 -1.3748 -2.6614  1.3655
 3642TIP3   OH210866   2.701   2.113   3.007  0.0361 -0.0459  0.0846
 3642TIP3    H110867   2.704   2.087   2.914  0.6732  3.4899 -0.9515
 3642TIP3    H210868   2.782   2.080   3.044  0.0485 -0.9844 -0.7532
 3643TIP3   OH210869   4.062   5.919   0.704 -0.4063  0.5405  0.2452
 3643TIP3    H110870   4.013   5.903   0.784 -0.2101  0.5458  0.3668
 3643TIP3    H210871   3.998   5.958   0.644 -1.0130 -1.1919 -0.2440
 3644TIP3   OH210872   0.115   0.840   6.650 -0.1503  0.3929 -0.1634
 3644TIP3    H110873   0.043   0.779   6.634 -0.7493  0.2944  2.5265
 3644TIP3    H210874   0.075   0.927   6.647  0.2777  0.5322 -1.8965
 3645TIP3   OH210875   6.044   3.392   2.784 -0.4923  0.4933  0.2005
 3645TIP3    H110876   5.960   3.368   2.826 -0.3325 -0.9727 -0.2988
 3645TIP3    H210877   6.018   3.442   2.707 -0.8440  1.8332  1.1792
 3646TIP3   OH210878   4.383   4.005   3.298  0.0777  0.1698  0.0461
 3646TIP3    H110879   4.339   4.073   3.349 -0.3780  0.4568 -0.7301
 3646TIP3    H210880   4.441   4.053   3.240 -0.0054 -0.1240 -0.2766
 3647TIP3   OH210881   2.431   4.553   1.383  0.6235 -0.2099 -0.4701
 3647TIP3    H110882   2.478   4.471   1.368  0.1841 -0.4897 -0.3092
 3647TIP3    H210883   2.469   4.589   1.463  0.8358 -0.2372 -0.5571
 3648TIP3   OH210884   2.757   4.622   2.075  0.2712 -0.0876  0.1455
 3648TIP3    H110885   2.697   4.690   2.044  1.6804  0.9363 -0.3478
 3648TIP3    H210886   2.769   4.642   2.168  0.1853 -0.0510  0.1491
 3649TIP3   OH210887   2.846   4.330   2.878  0.0452 -0.7374  0.1239
 3649TIP3    H110888   2.795   4.385   2.819 -0.1045  1.0635  1.8934
 3649TIP3    H210889   2.835   4.241   2.843  1.3055  0.4608 -3.5011
 3650TIP3   OH210890   4.641   6.375   3.045 -0.2409  0.8115  0.3825
 3650TIP3    H110891   4.546   6.378   3.061 -0.1097 -1.1203  1.7605
 3650TIP3    H210892   4.649   6.381   2.950 -1.6841  1.9773  0.3161
 3651TIP3   OH210893   1.549   4.198   5.329  0.2507  0.4093 -0.0152
 3651TIP3    H110894   1.505   4.116   5.308 -2.8741  2.0297 -0.1839
 3651TIP3    H210895   1.609   4.176   5.400  1.4956 -2.5354 -1.8858
 3652TIP3   OH210896   2.696   2.542   2.513  0.1754  0.3273 -0.5715
 3652TIP3    H110897   2.676   2.509   2.425 -0.9421 -0.5064 -0.0116
 3652TIP3    H210898   2.682   2.637   2.506  0.0791  0.2675 -1.2920
 3653TIP3   OH210899   5.045   0.840   3.545 -0.1486  0.2889  0.6507
 3653TIP3    H110900   5.050   0.842   3.450  2.2431 -1.2680  0.7098
 3653TIP3    H210901   5.074   0.927   3.573 -1.2647  0.8949 -0.0258
 3654TIP3   OH210902   3.117   5.059   2.582  0.2888  0.8494 -0.0075
 3654TIP3    H110903   3.119   4.963   2.586  1.2810  0.8846  0.4413
 3654TIP3    H210904   3.134   5.079   2.490  1.0290  0.6238  0.0818
 3655TIP3   OH210905   3.566   6.444   4.670  0.2286  0.3012 -0.2466
 3655TIP3    H110906   3.508   6.400   4.733 -0.0463  0.8941 -0.0900
 3655TIP3    H210907   3.650   6.400   4.682 -0.2626 -0.7794 -0.7014
 3656TIP3   OH210908   2.911   3.037   1.790  0.0614 -0.5497 -0.1898
 3656TIP3    H110909   2.939   3.107   1.731 -3.2489 -0.6290 -1.9869
 3656TIP3    H210910   2.893   2.963   1.733 -1.8745 -1.0699  1.0449
 3657TIP3   OH210911   3.736   1.783   2.488  0.2766 -0.2859  0.0154
 3657TIP3    H110912   3.723   1.831   2.569 -1.7685 -0.5219 -0.1421
 3657TIP3    H210913   3.656   1.799   2.438  1.3511 -0.4437 -1.8030
 3658TIP3   OH210914   4.291   5.116   0.881  0.2663  0.1715  0.2173
 3658TIP3    H110915   4.215   5.059   0.889 -0.1627  0.2886 -2.4574
 3658TIP3    H210916   4.292   5.141   0.788  3.1695  0.7090  0.3555
 3659TIP3   OH210917   3.180   6.032   3.239 -0.5968 -0.1835 -0.1750
 3659TIP3    H110918   3.259   6.075   3.207 -1.1725  0.5572 -0.6168
 3659TIP3    H210919   3.212   5.956   3.287  0.3568 -0.1741 -0.7869
 3660TIP3   OH210920   4.117   3.655   0.208  0.4988  0.0795  0.8944
 3660TIP3    H110921   4.033   3.610   0.213 -0.7004  2.0509 -1.0163
 3660TIP3    H210922   4.148   3.659   0.299 -2.0975  0.4935  1.7804
 3661TIP3   OH210923   2.203   6.810   5.161  0.1052 -0.3624 -0.0164
 3661TIP3    H110924   2.237   6.873   5.097 -1.5223 -1.7130 -2.3120
 3661TIP3    H210925   2.247   6.727   5.139  1.3756 -0.2985  2.2295
 3662TIP3   OH210926   3.248   4.788   4.965  0.3777  0.2293  0.4514
 3662TIP3    H110927   3.212   4.706   4.998 -0.9307 -0.2346 -1.9705
 3662TIP3    H210928   3.171   4.838   4.938  1.2803  1.4252  0.0770
 3663TIP3   OH210929   3.224   4.234   0.628  0.7374 -0.2357 -0.5807
 3663TIP3    H110930   3.165   4.166   0.595  0.1625  0.4360 -0.9621
 3663TIP3    H210931   3.165   4.299   0.667  1.4107 -1.3135  2.3849
 3664TIP3   OH210932   3.177   2.827   3.494  0.0016 -0.8302  0.9885
 3664TIP3    H110933   3.169   2.738   3.530 -0.5269 -1.9613 -1.7658
 3664TIP3    H210934   3.250   2.821   3.432 -0.3835  0.5271  0.3971
 3665TIP3   OH210935   3.888   3.180   1.848 -0.0912  0.9033  0.0927
 3665TIP3    H110936   3.966   3.125   1.850 -0.4940  0.3660  1.7287
 3665TIP3    H210937   3.917   3.262   1.809  1.1276  0.4581  0.0667
 3666TIP3   OH210938   3.879   2.092   2.891  0.0530  0.0203  0.2013
 3666TIP3    H110939   3.955   2.141   2.860  0.1944  0.0320  0.5671
 3666TIP3    H210940   3.862   2.128   2.978 -0.9757  0.7186 -0.2733
 3667TIP3   OH210941   4.180   4.361   6.240  0.0636  0.2740  0.0673
 3667TIP3    H110942   4.146   4.408   6.165  1.5594  0.9948 -0.1857
 3667TIP3    H210943   4.139   4.402   6.316 -1.2322 -0.2757 -0.3246
 3668TIP3   OH210944   4.574   3.639   3.444  0.3083 -0.1832  0.4774
 3668TIP3    H110945   4.537   3.724   3.467  1.2625 -0.1906  2.0581
 3668TIP3    H210946   4.518   3.575   3.489  1.2395 -0.2674  1.5166
 3669TIP3   OH210947   4.481   2.949   2.348  0.7322  0.3787 -0.4473
 3669TIP3    H110948   4.452   2.860   2.329  3.0481 -0.5141  0.0307
 3669TIP3    H210949   4.453   2.965   2.438 -0.6889  0.6013 -0.9015
 3670TIP3   OH210950   5.206   5.150   4.169  0.4338  0.0465  0.1196
 3670TIP3    H110951   5.131   5.091   4.181  0.0983 -0.1586 -2.6474
 3670TIP3    H210952   5.278   5.108   4.216 -0.4489 -1.2425  0.3360
 3671TIP3   OH210953   6.421   4.070   5.374 -0.4374 -0.1456  0.4677
 3671TIP3    H110954   6.442   4.120   5.296 -0.7126  0.2662  0.6511
 3671TIP3    H210955   6.417   4.136   5.444 -0.1513 -0.5144  0.8321
 3672TIP3   OH210956   0.811   3.460   2.050  0.5535  0.1241  0.2873
 3672TIP3    H110957   0.839   3.547   2.023 -1.8738  0.1694 -2.3190
 3672TIP3    H210958   0.873   3.401   2.008  0.3495  0.4518 -0.4690
 3673TIP3   OH210959   5.239   3.270   3.298 -0.0012  0.1124  0.2972
 3673TIP3    H110960   5.230   3.365   3.297  1.6616  0.2780 -2.6701
 3673TIP3    H210961   5.329   3.255   3.327 -0.0730 -0.5335  0.1874
 3674TIP3   OH210962   4.512   4.997   1.976  0.9831  0.6272 -0.3951
 3674TIP3    H110963   4.501   4.931   1.907  1.1627  2.2921 -2.0441
 3674TIP3    H210964   4.432   4.990   2.028  0.2073  0.3137 -1.6023
 3675TIP3   OH210965   3.346   2.663   0.783 -0.3762  0.1530 -0.8494
 3675TIP3    H110966   3.433   2.636   0.755 -0.1659  0.0169 -0.0588
 3675TIP3    H210967   3.358   2.749   0.821 -0.8262  0.7690 -2.0660
 3676TIP3   OH210968   5.003   5.666   2.775 -0.1240  0.5939 -0.5355
 3676TIP3    H110969   4.995   5.629   2.863  0.2962 -1.1400 -1.2085
 3676TIP3    H210970   4.995   5.760   2.788 -0.8253  0.3102  1.2731
 3677TIP3   OH210971   4.694   4.078   1.625  0.6168  0.2234 -0.2315
 3677TIP3    H110972   4.680   3.988   1.654  0.2838 -0.1779 -1.6049
 3677TIP3    H210973   4.622   4.127   1.664  0.7106 -0.1301  0.3981
 3678TIP3   OH210974   5.991   2.808   2.954  0.4847  0.5094 -0.1597
 3678TIP3    H110975   5.947   2.732   2.992 -1.2714  1.8673  0.5960
 3678TIP3    H210976   6.073   2.815   3.003  0.7449 -0.9868 -0.3628
 3679TIP3   OH210977   4.813   4.323   2.265  0.2324  0.6644 -0.9148
 3679TIP3    H110978   4.743   4.365   2.216 -0.4732  1.4488  0.7116
 3679TIP3    H210979   4.860   4.396   2.308  1.4673  0.0844 -1.2445
 3680TIP3   OH210980   3.353   2.491   1.372  0.3532  0.2513  0.3120
 3680TIP3    H110981   3.422   2.556   1.356 -0.4213  1.6318  2.3382
 3680TIP3    H210982   3.362   2.468   1.464 -2.0210  0.6187  0.6749
 3681TIP3   OH210983   3.821   3.550   3.462 -0.4356  0.5774 -0.1652
 3681TIP3    H110984   3.872   3.604   3.402 -0.0412 -0.3470 -0.6684
 3681TIP3    H210985   3.782   3.613   3.523  1.3891  1.2822  0.2908
 3682TIP3   OH210986   2.246   7.517   1.589  0.0412 -0.1934  0.0836
 3682TIP3    H110987   2.242   7.477   1.502  0.1175  2.0792 -1.0147
 3682TIP3    H210988   2.168   7.571   1.594  0.6314  0.6052  0.9539
 3683TIP3   OH210989   3.700   4.863   1.366  0.5295  0.0412  0.4044
 3683TIP3    H110990   3.768   4.930   1.373  0.1789  0.2878  1.5512
 3683TIP3    H210991   3.621   4.911   1.340  0.5689 -0.1031  0.0166
 3684TIP3   OH210992   4.876   3.411   5.858  0.0336  0.4949  0.3615
 3684TIP3    H110993   4.887   3.506   5.869 -0.8877  0.8024 -1.1432
 3684TIP3    H210994   4.902   3.374   5.942  0.1042  2.1066  1.0813
 3685TIP3   OH210995   3.825   2.954   1.686  0.2905 -0.2094  0.1629
 3685TIP3    H110996   3.788   2.990   1.767 -2.4272 -0.2205 -1.0157
 3685TIP3    H210997   3.829   3.029   1.627  0.0222 -0.6808 -0.4518
 3686TIP3   OH210998   8.267   7.269   6.994  0.7111 -0.1316 -0.0820
 3686TIP3    H110999   8.330   7.216   6.945  0.0804 -2.0901  1.1747
 3686TIP3    H211000   8.193   7.210   7.008  0.4952  0.7031  2.3762
 3687TIP3   OH211001   3.722   3.288   0.966 -0.3527  0.3431 -0.0670
 3687TIP3    H111002   3.709   3.367   1.018 -1.7478  1.3291 -1.8749
 3687TIP3    H211003   3.816   3.287   0.946 -0.2448  1.2742  0.4022
 3688TIP3   OH211004   2.224   3.073   3.491 -0.5926 -0.0271  0.1119
 3688TIP3    H111005   2.189   3.032   3.412 -1.2029  1.1919 -0.2518
 3688TIP3    H211006   2.236   3.165   3.468 -0.4558  0.2750  1.3298
 3689TIP3   OH211007   4.219   6.563   1.522  0.1259  0.0599  0.0085
 3689TIP3    H111008   4.201   6.657   1.523 -0.8643 -0.1106 -0.6649
 3689TIP3    H211009   4.229   6.542   1.429 -0.5711 -0.6647  0.0942
 3690TIP3   OH211010   4.384   3.598   2.772 -0.4820  0.2052 -0.2575
 3690TIP3    H111011   4.377   3.601   2.868 -3.0271 -0.7744 -0.3822
 3690TIP3    H211012   4.466   3.552   2.756 -1.0830 -1.5591  1.4767
 3691TIP3   OH211013   3.604   2.343   0.971  0.8393 -0.1827  0.1460
 3691TIP3    H111014   3.559   2.339   0.886 -0.1913 -1.5093  0.7261
 3691TIP3    H211015   3.695   2.361   0.949  0.1701  1.8987 -1.1101
 3692TIP3   OH211016   3.243   2.944   3.738 -0.3475 -0.2964 -0.3549
 3692TIP3    H111017   3.220   2.905   3.654  0.1425  1.1532 -1.1805
 3692TIP3    H211018   3.225   3.037   3.727 -0.6822 -0.1454  1.2997
 3693TIP3   OH211019   4.315   4.465   3.581  0.1452  0.2217 -0.3370
 3693TIP3    H111020   4.225   4.488   3.603  0.0576 -1.5640  1.3000
 3693TIP3    H211021   4.364   4.547   3.590 -1.1837  1.0749 -0.6498
 3694TIP3   OH211022   3.142   3.216   3.744 -0.2486  0.5267 -0.1135
 3694TIP3    H111023   3.114   3.262   3.823 -0.0170  0.9659 -0.2847
 3694TIP3    H211024   3.060   3.196   3.698 -0.5892 -2.3332  1.6528
 3695TIP3   OH211025   3.746   5.354   2.415 -0.0730  0.1434  0.1891
 3695TIP3    H111026   3.725   5.304   2.494 -1.6722  1.6896  0.7788
 3695TIP3    H211027   3.710   5.442   2.432 -0.5215  0.4691 -2.2969
 3696TIP3   OH211028   3.180   0.982   2.475  0.1301  0.3395 -0.6197
 3696TIP3    H111029   3.246   0.913   2.485 -0.0677  0.3503  0.8170
 3696TIP3    H211030   3.117   0.945   2.413  0.9391 -0.0795 -1.2072
 3697TIP3   OH211031   4.436   3.856   5.135 -0.2140  0.8351  0.0767
 3697TIP3    H111032   4.512   3.910   5.155  0.9103  0.0933 -2.0664
 3697TIP3    H211033   4.411   3.881   5.046 -0.8114 -0.8438 -0.2440
 3698TIP3   OH211034   4.646   3.605   3.019  0.2540 -0.0399 -0.0133
 3698TIP3    H111035   4.663   3.600   2.925  0.7103  2.3008 -0.0952
 3698TIP3    H211036   4.576   3.670   3.027 -1.0782 -1.5651  1.1519
 3699TIP3   OH211037   1.445   2.190   3.330  0.0650  0.6417 -0.1527
 3699TIP3    H111038   1.500   2.198   3.252 -0.0300  2.1741 -0.0893
 3699TIP3    H211039   1.477   2.259   3.388 -1.0609  0.6983  0.4077
 3700TIP3   OH211040   2.343   3.967   0.455 -0.7403  0.3915 -0.2819
 3700TIP3    H111041   2.251   3.969   0.478 -0.8106 -0.6477 -0.4486
 3700TIP3    H211042   2.385   4.028   0.517 -1.3163 -0.2854  0.7816
 3701TIP3   OH211043   4.103   3.536   4.407 -0.4403  0.0784 -0.0713
 3701TIP3    H111044   4.052   3.511   4.484 -0.2479  1.5258  0.5423
 3701TIP3    H211045   4.191   3.555   4.440 -0.6706  1.9300 -0.4104
 3702TIP3   OH211046   3.104   4.582   5.070 -0.2739  0.2762 -0.0198
 3702TIP3    H111047   3.050   4.503   5.064 -0.5986  0.4883  0.0481
 3702TIP3    H211048   3.066   4.630   5.144  0.4298  0.1145  0.4475
 3703TIP3   OH211049   5.225   5.054   0.061 -0.1973 -0.2241  0.0566
 3703TIP3    H111050   5.189   5.032   0.147  1.7794 -1.8867  0.4951
 3703TIP3    H211051   5.210   4.976   0.007  0.3528  0.0561 -0.5170
 3704TIP3   OH211052   4.123   3.009   1.040  0.3629 -0.0655  0.2301
 3704TIP3    H111053   4.195   3.017   1.102  0.5200 -0.9460  0.1673
 3704TIP3    H211054   4.166   3.006   0.954  0.2135 -0.0473  0.1555
 3705TIP3   OH211055   3.268   4.276   2.477 -0.4563 -0.3481  0.2719
 3705TIP3    H111056   3.323   4.345   2.442  0.9426 -1.3750  0.4253
 3705TIP3    H211057   3.328   4.205   2.499 -1.6859 -0.9940  1.6526
 3706TIP3   OH211058   5.713   3.457   2.256 -0.1781 -0.5886  0.5556
 3706TIP3    H111059   5.638   3.515   2.244  0.0931 -0.3554 -0.0243
 3706TIP3    H211060   5.676   3.377   2.295 -1.1106 -1.4271 -1.9436
 3707TIP3   OH211061   3.566   2.888   1.884 -0.4255  0.2194  0.1888
 3707TIP3    H111062   3.565   2.976   1.922 -2.5815  1.2593 -2.1707
 3707TIP3    H211063   3.513   2.835   1.945 -0.1839  0.8490  0.9473
 3708TIP3   OH211064   3.669   4.617   3.067 -0.3470 -0.4362 -0.2587
 3708TIP3    H111065   3.642   4.617   3.158  0.0312 -1.3310 -0.1367
 3708TIP3    H211066   3.588   4.611   3.017 -0.5589  0.1752  0.0117
 3709TIP3   OH211067   3.509   2.327   3.394 -0.0107 -0.2240  0.2454
 3709TIP3    H111068   3.515   2.409   3.345 -1.9993  0.0382  0.4060
 3709TIP3    H211069   3.564   2.342   3.471 -1.3351  1.4589  0.9161
 3710TIP3   OH211070   1.925   3.773   2.127 -1.0838  0.3440 -0.3105
 3710TIP3    H111071   1.972   3.690   2.128 -1.6789  0.0113  1.2556
 3710TIP3    H211072   1.885   3.777   2.040 -0.0907 -0.4541 -0.8154
 3711TIP3   OH211073   2.321   5.612   2.224 -0.2156 -0.0780 -0.2427
 3711TIP3    H111074   2.300   5.527   2.185 -0.4380  0.0911 -0.4960
 3711TIP3    H211075   2.413   5.604   2.249 -0.5170 -0.7378  0.6596
 3712TIP3   OH211076   3.195   4.596   3.786 -0.2556 -0.2584  0.2787
 3712TIP3    H111077   3.257   4.662   3.816 -1.0669  0.6968 -0.1137
 3712TIP3    H211078   3.250   4.526   3.749  0.5924  0.3827  0.3202
 3713TIP3   OH211079   4.808   4.799   2.514 -0.3677 -0.4015 -0.1665
 3713TIP3    H111080   4.750   4.836   2.448 -1.1189 -0.6043  0.3722
 3713TIP3    H211081   4.803   4.859   2.588  1.2879  0.3861 -0.6720
 3714TIP3   OH211082   4.392   4.613   0.940 -0.0265  0.2887 -0.1634
 3714TIP3    H111083   4.402   4.518   0.938  0.4492  0.2657  1.8738
 3714TIP3    H211084   4.458   4.642   1.003  0.3663  2.0517 -1.3659
 3715TIP3   OH211085   4.819   4.936   4.487  0.2463  0.4090 -0.4818
 3715TIP3    H111086   4.806   4.849   4.524 -1.3586 -0.1008 -2.1555
 3715TIP3    H211087   4.865   4.920   4.405 -0.6885  1.0605 -1.1471
 3716TIP3   OH211088   6.490   3.966   0.238 -0.0709  0.0270 -0.3400
 3716TIP3    H111089   6.549   3.946   0.310 -0.2876  0.3797 -0.0620
 3716TIP3    H211090   6.500   4.060   0.223  0.1404 -0.0856 -0.9199
 3717TIP3   OH211091   4.010   3.761   3.350  0.2220  0.1472  0.6119
 3717TIP3    H111092   3.963   3.845   3.347  1.4769  0.8349 -0.1052
 3717TIP3    H211093   4.059   3.765   3.432  0.9374  0.4721  0.1675
 3718TIP3   OH211094   3.765   3.318   4.078  0.2289 -0.2431 -0.2614
 3718TIP3    H111095   3.736   3.233   4.112 -3.4865  0.5972 -1.1041
 3718TIP3    H211096   3.750   3.313   3.983  0.7558  1.0792 -0.4336
 3719TIP3   OH211097   3.814   6.257   3.005 -0.5090  0.1638 -0.1881
 3719TIP3    H111098   3.830   6.320   3.075 -2.1881 -0.4628  0.8111
 3719TIP3    H211099   3.879   6.277   2.938 -0.4495  2.3411  0.5039
 3720TIP3   OH211100   1.427   0.245   6.888  0.2909 -0.2165  0.2524
 3720TIP3    H111101   1.377   0.326   6.877 -1.9765 -1.5707  0.3098
 3720TIP3    H211102   1.516   0.268   6.861 -0.6718  1.8763 -1.2982
 3721TIP3   OH211103   4.314   6.678   2.593 -0.3246 -0.0718 -0.1582
 3721TIP3    H111104   4.275   6.664   2.507  4.1508  1.1184 -2.4948
 3721TIP3    H211105   4.332   6.772   2.596  0.6884 -0.3075  1.5903
 3722TIP3   OH211106   2.819   1.875   0.865 -0.1146 -0.0832 -0.0383
 3722TIP3    H111107   2.725   1.870   0.883 -0.1091  1.2175  0.3918
 3722TIP3    H211108   2.852   1.940   0.927  0.7742  0.7625 -1.3665
 3723TIP3   OH211109   3.804   4.844   3.342  0.2763  0.3362  0.4116
 3723TIP3    H111110   3.740   4.912   3.319 -0.4665  0.4839  2.7625
 3723TIP3    H211111   3.769   4.764   3.303  1.0421  1.2116 -2.2065
 3724TIP3   OH211112   4.932   4.555   2.052 -0.0084  0.2168  0.2457
 3724TIP3    H111113   4.841   4.534   2.073 -0.3547  1.3902 -0.0497
 3724TIP3    H211114   4.937   4.650   2.059  1.0902  0.1984 -0.1812
 3725TIP3   OH211115   4.461   3.301   0.311  0.8418  0.0440 -0.2177
 3725TIP3    H111116   4.553   3.322   0.295  0.0223  1.6962 -3.1440
 3725TIP3    H211117   4.432   3.368   0.373  1.1100  0.7029 -0.8026
 3726TIP3   OH211118   4.987   3.303   0.951 -0.1240  0.3134 -0.1819
 3726TIP3    H111119   4.903   3.282   0.992 -1.1585  2.1677 -1.2632
 3726TIP3    H211120   4.965   3.321   0.859  1.4906  0.7173 -0.5134
 3727TIP3   OH211121   3.066   5.251   4.283 -0.6562  0.2541 -0.2984
 3727TIP3    H111122   3.088   5.219   4.370  1.7351  1.7469 -0.3110
 3727TIP3    H211123   3.079   5.176   4.225  0.0360 -0.1032  0.3130
 3728TIP3   OH211124   4.854   2.621   2.496  0.0421  0.3838 -0.0256
 3728TIP3    H111125   4.836   2.704   2.540 -0.3597  0.5539 -0.4964
 3728TIP3    H211126   4.820   2.634   2.407  2.0147  0.5141 -0.7947
 3729TIP3   OH211127   2.496   3.209   1.995 -0.3980 -0.5545  0.2611
 3729TIP3    H111128   2.486   3.114   1.989 -0.0064 -0.5474 -0.4934
 3729TIP3    H211129   2.574   3.222   2.049  0.7749 -0.6854 -1.3769
 3730TIP3   OH211130   4.870   2.200   0.073  0.1456 -0.0979 -0.2148
 3730TIP3    H111131   4.822   2.118   0.086  0.5198 -0.2982 -0.0909
 3730TIP3    H211132   4.883   2.234   0.161 -0.8917  0.6068 -0.3258
 3731TIP3   OH211133   4.075   3.457   3.149 -0.3042  0.2785  0.2630
 3731TIP3    H111134   4.144   3.490   3.091 -1.0818 -0.0104 -0.8433
 3731TIP3    H211135   4.007   3.525   3.146 -1.0291 -0.4700 -0.4151
 3732TIP3   OH211136   1.754   3.458   2.092  0.1538  0.3415  0.0627
 3732TIP3    H111137   1.839   3.431   2.125  0.0591 -0.0445 -0.0076
 3732TIP3    H211138   1.698   3.460   2.170  0.3419  1.0381  0.1771
 3733TIP3   OH211139   2.316   2.829   0.453 -0.1867  0.0224 -0.0677
 3733TIP3    H111140   2.325   2.924   0.456  0.9679 -0.0189 -1.4989
 3733TIP3    H211141   2.289   2.804   0.541  0.6496  1.5717  0.6429
 3734TIP3   OH211142   3.254   2.826   1.913  0.2152  0.2061  0.1384
 3734TIP3    H111143   3.168   2.789   1.933  0.3519 -0.6476 -0.8104
 3734TIP3    H211144   3.242   2.921   1.921 -0.8023  0.0905  0.0393
 3735TIP3   OH211145   3.892   5.492   1.563  0.2059  0.1438  0.2576
 3735TIP3    H111146   3.800   5.472   1.547  0.8883 -1.6177 -1.7388
 3735TIP3    H211147   3.913   5.443   1.643 -0.2557 -0.5409 -0.0311
 3736TIP3   OH211148   3.878   2.109   2.509  0.0820 -0.0277  0.4000
 3736TIP3    H111149   3.919   2.024   2.522  0.6562  0.2629  0.4810
 3736TIP3    H211150   3.895   2.157   2.590  2.1307  1.1495 -0.6904
 3737TIP3   OH211151   3.148   2.037   2.055  0.4347 -0.6277  0.3534
 3737TIP3    H111152   3.169   1.988   2.135  1.6198  0.5879  0.8045
 3737TIP3    H211153   3.139   1.970   1.987 -0.4665 -1.6687  1.4658
 3738TIP3   OH211154   2.388   4.625   4.676 -0.1067 -0.2368  0.3411
 3738TIP3    H111155   2.396   4.534   4.648  1.0749 -0.0370 -0.0064
 3738TIP3    H211156   2.294   4.642   4.677 -0.2682 -0.9981 -1.0549
 3739TIP3   OH211157   3.337   4.327   1.760  0.1990 -0.0553  0.3531
 3739TIP3    H111158   3.404   4.282   1.812 -0.9871 -0.5468  1.4710
 3739TIP3    H211159   3.282   4.370   1.824 -0.4658  0.4993 -0.5801
 3740TIP3   OH211160   4.339   4.531   0.104 -0.4043  0.3549 -0.3457
 3740TIP3    H111161   4.304   4.470   0.040 -1.6669  0.7310 -0.0202
 3740TIP3    H211162   4.378   4.602   0.052  0.8239 -0.5743 -0.7169
 3741TIP3   OH211163   4.199   3.089   3.301 -0.0163 -0.4332 -0.4898
 3741TIP3    H111164   4.171   2.998   3.303 -0.2606 -0.3409  1.1362
 3741TIP3    H211165   4.181   3.118   3.212 -0.3938 -1.8261 -0.8769
 3742TIP3   OH211166   3.182   3.225   3.132 -0.2025  0.1338  0.1390
 3742TIP3    H111167   3.112   3.216   3.197  0.0791 -1.5813  0.2353
 3742TIP3    H211168   3.137   3.224   3.047 -0.5716  2.3868  0.2771
 3743TIP3   OH211169   3.217   3.205   1.146 -0.2615  0.2364 -0.5974
 3743TIP3    H111170   3.175   3.179   1.228  1.7812 -0.4797  0.2562
 3743TIP3    H211171   3.161   3.168   1.078 -2.1574  1.1098  0.4335
 3744TIP3   OH211172   3.905   2.570   3.459 -0.0351  0.2557  0.2060
 3744TIP3    H111173   3.933   2.617   3.538 -0.2965  0.6466  0.0717
 3744TIP3    H211174   3.908   2.637   3.390  0.8621 -0.2575 -0.2523
 3745TIP3   OH211175   3.036   5.319   1.629 -0.7836  1.1947  0.1897
 3745TIP3    H111176   2.949   5.345   1.597 -0.3804  1.1373 -0.9804
 3745TIP3    H211177   3.095   5.383   1.592 -0.4178  1.7361  1.6993
 3746TIP3   OH211178   3.304   2.408   1.627 -0.0104 -0.0475 -0.0217
 3746TIP3    H111179   3.352   2.472   1.679 -0.8511  1.1870 -0.7544
 3746TIP3    H211180   3.212   2.432   1.638 -0.3396 -1.1967 -0.2107
 3747TIP3   OH211181   4.437   5.155   2.400  0.3753  0.3043  0.4470
 3747TIP3    H111182   4.475   5.237   2.432 -0.7972  1.5311 -1.2604
 3747TIP3    H211183   4.438   5.163   2.304 -0.3822 -1.3953  0.2704
 3748TIP3   OH211184   3.006   3.542   3.494  0.0938  0.3531 -0.3485
 3748TIP3    H111185   3.010   3.624   3.542 -2.1400  0.4194 -0.2120
 3748TIP3    H211186   3.053   3.480   3.548 -0.9761  0.8166  1.1411
 3749TIP3   OH211187   2.876   1.242   1.845  0.5094 -0.1456 -0.5200
 3749TIP3    H111188   2.929   1.226   1.923  0.7181  1.1261 -0.3889
 3749TIP3    H211189   2.788   1.215   1.871  0.5403  0.4350  0.2329
 3750TIP3   OH211190   4.632   4.824   2.921  0.4176  0.6131  0.1924
 3750TIP3    H111191   4.568   4.823   2.993  0.4604  1.4669  0.2500
 3750TIP3    H211192   4.612   4.904   2.873  0.2629 -0.0612 -0.8693
 3751TIP3   OH211193   5.560   4.750   2.892  0.1598 -0.2615 -0.4005
 3751TIP3    H111194   5.549   4.845   2.883 -1.8427 -0.2588  1.5740
 3751TIP3    H211195   5.651   4.738   2.918  0.2099  1.1683  0.1000
 3752TIP3   OH211196   4.257   3.250   2.553 -0.1010 -0.4211 -0.1328
 3752TIP3    H111197   4.191   3.299   2.504  0.7248  0.5911 -0.2611
 3752TIP3    H211198   4.246   3.279   2.643  0.3660 -0.0239 -0.2026
 3753TIP3   OH211199   5.497   3.682   1.770 -0.5235  0.0567  0.0621
 3753TIP3    H111200   5.556   3.664   1.697 -2.1343 -2.0259 -0.7732
 3753TIP3    H211201   5.440   3.752   1.737 -0.5801 -0.1475 -0.2725
 3754TIP3   OH211202   2.173   4.180   4.043  0.3208  0.1343  0.7301
 3754TIP3    H111203   2.193   4.235   3.968 -1.4775 -1.7073 -1.1685
 3754TIP3    H211204   2.255   4.135   4.063  0.8510  0.7827  0.0125
 3755TIP3   OH211205   3.216   4.350   2.007  0.1243  0.3302 -0.2445
 3755TIP3    H111206   3.241   4.264   2.040 -0.4903 -0.2167 -1.2067
 3755TIP3    H211207   3.173   4.393   2.081  0.3672 -0.2131  0.2132
 3756TIP3   OH211208   4.613   6.482   1.176  0.1931  0.0320 -0.3156
 3756TIP3    H111209   4.604   6.555   1.237  1.2455 -0.6562  0.6827
 3756TIP3    H211210   4.659   6.415   1.226 -0.9797 -1.4175 -1.1228
 3757TIP3   OH211211   2.884   5.467   4.271 -0.3143 -0.2055  0.4204
 3757TIP3    H111212   2.937   5.395   4.306  0.2770 -0.6312 -1.3112
 3757TIP3    H211213   2.856   5.516   4.349  2.9473  0.2719  1.3633
 3758TIP3   OH211214   3.654   4.202   2.237 -0.2528  0.1709  0.4611
 3758TIP3    H111215   3.634   4.124   2.186 -1.3097 -0.0245  1.1550
 3758TIP3    H211216   3.571   4.227   2.277  0.1249  1.5129  0.4392
 3759TIP3   OH211217   2.204   1.699   3.419 -0.1227  0.1163  0.5639
 3759TIP3    H111218   2.146   1.639   3.372  1.5083 -0.8133 -0.3290
 3759TIP3    H211219   2.174   1.786   3.395 -0.6791 -0.3570 -0.4925
 3760TIP3   OH211220   4.190   3.753   3.604  0.3957 -0.1718 -0.1198
 3760TIP3    H111221   4.130   3.680   3.624  1.3657 -0.8345  0.4160
 3760TIP3    H211222   4.196   3.802   3.686  1.1250 -0.5064  0.0303
 3761TIP3   OH211223   4.215   3.819   5.672 -0.5441 -0.0170  0.7419
 3761TIP3    H111224   4.240   3.812   5.579  0.4345  0.5545  0.9588
 3761TIP3    H211225   4.121   3.797   5.673 -0.9108  1.4211 -0.5909
 3762TIP3   OH211226   5.432   4.242   3.205 -0.0718 -0.3312 -0.5509
 3762TIP3    H111227   5.376   4.316   3.181 -1.6634 -1.4090 -0.2603
 3762TIP3    H211228   5.465   4.209   3.122  0.4156  0.5151 -0.7034
 3763TIP3   OH211229   5.111   3.166   3.553 -0.6182  0.1247 -0.0478
 3763TIP3    H111230   5.066   3.103   3.610 -0.9195  1.0139  0.7098
 3763TIP3    H211231   5.044   3.195   3.491 -1.3255  2.0192  1.5567
 3764TIP3   OH211232   3.778   3.904   4.428  0.2213 -0.2327 -0.1756
 3764TIP3    H111233   3.780   3.999   4.414 -1.2896 -0.5692 -2.9616
 3764TIP3    H211234   3.869   3.876   4.415  0.4815  0.6839 -0.3984
 3765TIP3   OH211235   3.574   3.554   4.881  0.5188 -0.0856  0.4427
 3765TIP3    H111236   3.637   3.513   4.940 -0.5003 -0.8549  0.9991
 3765TIP3    H211237   3.535   3.481   4.834  0.5517  0.4454 -0.4215
 3766TIP3   OH211238   5.880   4.952   4.134 -0.7148 -0.2763  0.1877
 3766TIP3    H111239   5.869   4.932   4.227 -1.6257  0.1976  0.1988
 3766TIP3    H211240   5.950   4.895   4.105  0.4542  0.4821  1.4661
 3767TIP3   OH211241   8.563   0.130   6.720 -1.0440  0.6510  0.0189
 3767TIP3    H111242   8.582   0.123   6.627 -1.7497 -1.8619  0.0234
 3767TIP3    H211243   8.468   0.116   6.726 -0.5994 -2.0062  1.3392
 3768TIP3   OH211244   4.014   3.918   2.216 -0.2258  0.4672 -0.4581
 3768TIP3    H111245   3.951   3.875   2.274  0.8653  0.3978  0.6815
 3768TIP3    H211246   3.959   3.961   2.150 -1.4555  0.0254  0.2545
 3769TIP3   OH211247   2.459   4.730   1.181  0.0854  0.3414 -0.0823
 3769TIP3    H111248   2.447   4.656   1.240  0.7128  1.0116  0.8843
 3769TIP3    H211249   2.397   4.714   1.110  0.4062 -1.2525 -0.0230
 3770TIP3   OH211250   2.262   3.649   2.723  0.0267  0.2628 -0.1238
 3770TIP3    H111251   2.313   3.623   2.800 -0.2002 -0.7551 -0.3049
 3770TIP3    H211252   2.296   3.736   2.700  2.0521 -0.5990 -0.5484
 3771TIP3   OH211253   4.769   3.650   0.328 -0.2841  0.4771  0.6101
 3771TIP3    H111254   4.765   3.739   0.361  0.2167  0.0247  1.8963
 3771TIP3    H211255   4.788   3.660   0.234  2.7506  1.6692  1.2860
 3772TIP3   OH211256   3.687   4.907   1.631 -0.1877 -0.0157  0.2487
 3772TIP3    H111257   3.687   4.891   1.537  0.8066 -0.1112  0.2657
 3772TIP3    H211258   3.622   4.845   1.666 -1.0391  0.4873 -0.4452
 3773TIP3   OH211259   5.570   4.815   2.407  0.2068 -0.0303 -0.5199
 3773TIP3    H111260   5.560   4.904   2.442 -2.1617  0.3692 -2.0505
 3773TIP3    H211261   5.498   4.766   2.447 -1.1629 -0.1323 -3.0031
 3774TIP3   OH211262   4.411   1.862   2.157 -0.1527 -0.4591  0.6224
 3774TIP3    H111263   4.483   1.840   2.097 -0.8574 -0.7905 -0.1046
 3774TIP3    H211264   4.353   1.918   2.106 -1.7006 -2.2154  0.3741
 3775TIP3   OH211265   4.984   3.626   0.855 -0.0590 -0.1609  0.0904
 3775TIP3    H111266   4.995   3.550   0.798  0.3889 -0.0312  0.0093
 3775TIP3    H211267   5.060   3.681   0.838 -0.3776  0.3032  0.1586
 3776TIP3   OH211268   6.217   3.898   0.243  0.5694  0.8413  0.4263
 3776TIP3    H111269   6.310   3.910   0.222  0.9980 -0.5853  1.4170
 3776TIP3    H211270   6.214   3.895   0.338 -0.1585 -1.4945  0.3646
 3777TIP3   OH211271   2.538   5.902   3.272 -0.0057  0.1273 -0.4799
 3777TIP3    H111272   2.615   5.904   3.330 -0.4291 -0.5636  0.1211
 3777TIP3    H211273   2.535   5.812   3.240 -0.7402  0.0748 -0.2613
 3778TIP3   OH211274   5.398   3.935   0.961  0.5966 -0.3639  0.3154
 3778TIP3    H111275   5.465   3.893   0.907  0.6545  0.0704  0.0492
 3778TIP3    H211276   5.315   3.907   0.923  0.6264 -0.6738  0.4724
 3779TIP3   OH211277   4.040   2.168   1.750 -0.2505  0.6553  0.4994
 3779TIP3    H111278   3.978   2.175   1.823  1.3862 -1.2488  2.1373
 3779TIP3    H211279   4.119   2.131   1.789  0.7061 -0.3349 -2.2590
 3780TIP3   OH211280   5.972   4.433   0.383  1.1918  0.2103 -0.2884
 3780TIP3    H111281   5.929   4.475   0.309 -0.3515 -0.6212  0.1042
 3780TIP3    H211282   5.920   4.458   0.459  1.8697 -0.1734  0.3116
 3781TIP3   OH211283   5.784   6.271   6.876  0.1554 -0.0919  0.7272
 3781TIP3    H111284   5.838   6.261   6.954  1.4589  3.4997  0.3759
 3781TIP3    H211285   5.697   6.294   6.909  0.4618  0.4316  1.1825
 3782TIP3   OH211286   4.780   4.336   3.630  0.1674  0.2629  0.4069
 3782TIP3    H111287   4.695   4.361   3.666 -0.7981  0.2899 -1.8336
 3782TIP3    H211288   4.822   4.419   3.608  1.2466  0.3078  2.4197
 3783TIP3   OH211289   3.902   2.386   2.440  0.5888  0.5818  0.5022
 3783TIP3    H111290   3.993   2.414   2.456  0.8271 -0.6004  1.3537
 3783TIP3    H211291   3.905   2.291   2.450 -0.5831  0.4444 -0.3512
 3784TIP3   OH211292   6.183   4.597   0.736  0.3518 -0.8628  0.3278
 3784TIP3    H111293   6.226   4.639   0.661  1.1044 -1.6414  0.3102
 3784TIP3    H211294   6.225   4.637   0.813 -0.2397 -0.2514  0.3403
 3785TIP3   OH211295   5.441   3.893   3.084 -0.1122 -0.1100 -0.3299
 3785TIP3    H111296   5.368   3.955   3.076 -0.2959 -0.6589 -3.3244
 3785TIP3    H211297   5.399   3.808   3.099  0.0059 -0.0996  0.0710
 3786TIP3   OH211298   4.588   4.052   3.744 -0.3163 -0.0572  0.1405
 3786TIP3    H111299   4.516   4.004   3.703  0.0660 -0.0993 -0.4883
 3786TIP3    H211300   4.547   4.133   3.775 -1.3371 -1.5580  2.8181
 3787TIP3   OH211301   4.242   3.917   1.094  0.5296 -0.1846  0.0036
 3787TIP3    H111302   4.265   3.988   1.152  0.3655  0.6329 -0.9181
 3787TIP3    H211303   4.146   3.919   1.090  0.5322 -0.3418 -0.1612
 3788TIP3   OH211304   4.564   3.309   4.716  0.1012 -0.4626  0.4877
 3788TIP3    H111305   4.521   3.272   4.793 -0.1475 -1.2492 -0.0184
 3788TIP3    H211306   4.605   3.389   4.747 -1.5929  0.2118  1.0190
 3789TIP3   OH211307   3.838   4.127   3.737  0.4583  0.0594  0.4569
 3789TIP3    H111308   3.926   4.111   3.703 -0.2141  0.1449 -1.3885
 3789TIP3    H211309   3.842   4.216   3.772  0.4254  1.1176 -2.0781
 3790TIP3   OH211310   2.946   3.541   2.643 -0.2700 -0.3891 -0.1866
 3790TIP3    H111311   3.019   3.507   2.694  0.1779  0.2660 -0.3864
 3790TIP3    H211312   2.964   3.635   2.635 -0.1450 -0.5369 -1.8561
 3791TIP3   OH211313   2.616   3.531   1.982  0.3163  0.3986  0.3511
 3791TIP3    H111314   2.698   3.526   2.031  0.5544  2.8880  0.2659
 3791TIP3    H211315   2.628   3.469   1.910  1.6167 -0.1981  1.0626
 3792TIP3   OH211316   3.448   2.834   1.209 -0.3550 -0.3309 -0.6411
 3792TIP3    H111317   3.512   2.904   1.205 -0.0958 -0.5640 -0.5868
 3792TIP3    H211318   3.391   2.850   1.134 -1.2557  0.8506  0.2755
 3793TIP3   OH211319   4.196   3.904   3.825  0.9069  0.4018 -0.0142
 3793TIP3    H111320   4.144   3.844   3.878 -1.2176  3.2134  1.1521
 3793TIP3    H211321   4.272   3.925   3.879 -0.2403  1.6744  1.1307
 3794TIP3   OH211322   3.875   2.867   1.076  0.6841 -0.0325  0.3537
 3794TIP3    H111323   3.870   2.863   1.172  0.8378 -0.2984  0.3512
 3794TIP3    H211324   3.928   2.944   1.058  1.1013 -0.2820  0.4961
 3795TIP3   OH211325   3.506   2.557   3.247  0.0440 -0.5898 -0.2429
 3795TIP3    H111326   3.554   2.536   3.167  0.4860  0.3117 -0.2120
 3795TIP3    H211327   3.551   2.633   3.283 -0.5022 -0.6483  0.5663
 3796TIP3   OH211328   4.438   6.418   2.533 -0.6068 -1.1015  0.3703
 3796TIP3    H111329   4.433   6.500   2.582  0.6027 -1.2388  0.7441
 3796TIP3    H211330   4.357   6.415   2.482 -0.0361  1.0278 -0.7272
 3797TIP3   OH211331   4.343   3.198   4.609 -0.8537 -0.0196 -0.1193
 3797TIP3    H111332   4.302   3.206   4.523 -1.5297  0.0523  0.2037
 3797TIP3    H211333   4.433   3.228   4.596 -0.6968 -0.8536 -0.9904
 3798TIP3   OH211334   2.657   4.645   3.852  0.3865 -0.2220 -0.9582
 3798TIP3    H111335   2.649   4.705   3.777  1.1659  1.7762  0.5132
 3798TIP3    H211336   2.600   4.684   3.919  2.6136  0.1246  0.7862
 3799TIP3   OH211337   3.492   4.880   2.882  0.0008  0.0866 -0.0831
 3799TIP3    H111338   3.572   4.932   2.874 -1.2300  1.8709 -0.9303
 3799TIP3    H211339   3.498   4.816   2.810  0.2162  0.8368 -0.7388
 3800TIP3   OH211340   5.602   5.485   2.159  0.2773 -0.0719  0.4753
 3800TIP3    H111341   5.595   5.551   2.090  0.1478  0.5708  1.1022
 3800TIP3    H211342   5.513   5.450   2.168  0.3441 -0.3380  0.1546
 3801TIP3   OH211343   5.218   1.753   2.791  0.7447 -0.1374  0.3761
 3801TIP3    H111344   5.289   1.770   2.854 -0.2885 -0.8499  1.7762
 3801TIP3    H211345   5.245   1.673   2.746  0.4256 -0.9326  1.5563
 3802TIP3   OH211346   3.934   3.101   0.172 -0.0421 -0.3838 -0.3240
 3802TIP3    H111347   4.012   3.154   0.187 -0.0280 -0.8662  1.4825
 3802TIP3    H211348   3.959   3.013   0.203 -1.4120 -0.4510  0.6249
 3803TIP3   OH211349   5.278   3.754   2.752 -0.1107 -0.4079 -0.4501
 3803TIP3    H111350   5.278   3.661   2.773  1.7769 -0.2542  0.3636
 3803TIP3    H211351   5.371   3.777   2.746 -0.5658  1.0470 -2.3729
 3804TIP3   OH211352   3.683   6.346   0.439 -0.3092  0.1424  0.4278
 3804TIP3    H111353   3.729   6.300   0.368 -0.9464  0.9962 -0.5618
 3804TIP3    H211354   3.750   6.362   0.505  0.5862  0.4497 -0.5419
 3805TIP3   OH211355   4.097   2.969   2.323 -0.7024  0.0369 -0.2606
 3805TIP3    H111356   4.003   2.971   2.343 -0.4242  0.1976  1.0646
 3805TIP3    H211357   4.109   3.040   2.261 -1.8444 -1.4186 -2.2262
 3806TIP3   OH211358   0.836   1.842   6.597  0.1083  0.4171 -0.3708
 3806TIP3    H111359   0.790   1.872   6.519  0.7449  2.0418 -0.1299
 3806TIP3    H211360   0.921   1.887   6.594  0.9418 -1.0586  0.1941
 3807TIP3   OH211361   3.640   2.356   1.944  0.2492 -0.2736 -0.4019
 3807TIP3    H111362   3.549   2.371   1.969  0.3680 -0.0585 -0.0900
 3807TIP3    H211363   3.675   2.301   2.015  0.1947 -0.8645 -0.8313
 3808TIP3   OH211364   7.127   3.308   2.092 -0.1528  0.1400  0.3739
 3808TIP3    H111365   7.050   3.355   2.125 -0.5988 -0.4981  0.2564
 3808TIP3    H211366   7.177   3.374   2.044 -0.5056  0.6126  0.6499
 3809TIP3   OH211367   4.650   1.002   2.237 -0.4124 -0.2201 -0.0717
 3809TIP3    H111368   4.711   0.939   2.200 -0.2507  0.2968 -0.6860
 3809TIP3    H211369   4.622   1.056   2.163 -0.6610  0.3422  0.4220
 3810TIP3   OH211370   4.183   2.489   0.510 -0.4344  0.0748 -0.2023
 3810TIP3    H111371   4.092   2.516   0.511 -0.4521  0.0146 -0.0515
 3810TIP3    H211372   4.233   2.569   0.527 -0.4880  0.0065  0.2876
 3811TIP3   OH211373   7.505   7.249   6.867 -0.1870  0.1506 -0.0771
 3811TIP3    H111374   7.418   7.271   6.901 -0.0846 -1.7791  1.5424
 3811TIP3    H211375   7.487   7.202   6.785 -0.7754 -1.6276  1.0375
 3812TIP3   OH211376   5.756   4.054   4.535 -0.2236  0.6367 -0.0858
 3812TIP3    H111377   5.698   4.003   4.478 -0.3650  0.2592  0.3923
 3812TIP3    H211378   5.720   4.143   4.531 -0.8088  0.4118  0.1708
 3813TIP3   OH211379   3.941   2.856   4.256  0.6128 -0.3794 -0.5221
 3813TIP3    H111380   3.998   2.888   4.325  0.3984 -0.2265 -0.4117
 3813TIP3    H211381   3.859   2.835   4.301  0.2086  0.4746 -0.8438
 3814TIP3   OH211382   2.255   0.998   2.133 -0.3393  0.1504 -0.2601
 3814TIP3    H111383   2.294   0.960   2.212 -1.3245  1.1533  0.7306
 3814TIP3    H211384   2.260   1.093   2.148  0.0167  0.3566 -1.6747
 3815TIP3   OH211385   3.892   2.670   2.378  0.7159 -0.0447  0.4219
 3815TIP3    H111386   3.906   2.576   2.391 -0.5899 -0.4033 -0.7086
 3815TIP3    H211387   3.957   2.695   2.312 -0.3627 -0.6083 -0.8712
 3816TIP3   OH211388   4.697   2.670   2.258  0.0078  0.4800 -0.0590
 3816TIP3    H111389   4.647   2.591   2.237  0.8116 -0.2287  0.6699
 3816TIP3    H211390   4.632   2.741   2.254 -1.0227 -0.3995  0.7044
 3817TIP3   OH211391   2.858   1.685   2.272  0.2559  0.4985  0.0518
 3817TIP3    H111392   2.787   1.636   2.314  0.9931 -0.5895  0.0625
 3817TIP3    H211393   2.914   1.712   2.345  1.4137 -1.1892 -0.1904
 3818TIP3   OH211394   3.643   4.613   2.275 -0.0213 -0.2215  0.2922
 3818TIP3    H111395   3.635   4.697   2.320  0.0868 -0.6875  1.1976
 3818TIP3    H211396   3.675   4.635   2.188 -0.4462  0.7142  0.3749
 3819TIP3   OH211397   0.380   2.610   6.953 -0.8657  0.1453 -0.0885
 3819TIP3    H111398   0.359   2.677   7.018  1.5413 -0.0689  0.9735
 3819TIP3    H211399   0.317   2.624   6.883 -1.3937  2.5199  0.8100
 3820TIP3   OH211400   4.236   3.236   3.809  0.3834  0.2567  0.1041
 3820TIP3    H111401   4.184   3.180   3.866  1.6802 -0.0219  1.0384
 3820TIP3    H211402   4.302   3.177   3.772  1.5672  1.0990  0.8520
 3821TIP3   OH211403   3.108   1.590   4.339 -0.2693 -0.0109 -0.3341
 3821TIP3    H111404   3.122   1.520   4.403  2.2385  0.7395 -0.0174
 3821TIP3    H211405   3.141   1.553   4.257 -0.0320  0.3468 -0.4036
 3822TIP3   OH211406   2.818   4.311   0.435  0.1239  0.1099 -0.6695
 3822TIP3    H111407   2.863   4.261   0.367  1.6536 -0.1286  0.5138
 3822TIP3    H211408   2.887   4.344   0.491 -1.1515 -0.1340  1.0980
 3823TIP3   OH211409   3.587   4.185   4.095 -0.8775 -0.1068  0.1351
 3823TIP3    H111410   3.582   4.197   4.190  1.1148 -1.5127  0.4510
 3823TIP3    H211411   3.594   4.090   4.083 -1.3617  0.0469 -1.4358
 3824TIP3   OH211412   3.550   7.527   3.142  0.2853 -0.4905  0.2918
 3824TIP3    H111413   3.495   7.564   3.073  3.2716  0.6529 -1.5935
 3824TIP3    H211414   3.589   7.449   3.103  1.0759 -0.5081  1.0799
 3825TIP3   OH211415   5.783   3.824   3.918  0.0170 -0.1136  0.0638
 3825TIP3    H111416   5.768   3.868   3.834 -0.6264 -1.7955 -0.7143
 3825TIP3    H211417   5.770   3.893   3.983 -0.6233  0.9417 -1.1523
 3826TIP3   OH211418   4.705   1.123   1.536  0.0220 -0.2830 -0.4244
 3826TIP3    H111419   4.698   1.029   1.518 -2.5385 -0.7588  2.6707
 3826TIP3    H211420   4.624   1.160   1.503  0.6645  0.7124 -0.8893
 3827TIP3   OH211421   5.215   4.995   2.504 -0.5372 -0.1836  0.1210
 3827TIP3    H111422   5.254   4.908   2.507  0.6781  0.2274 -2.4853
 3827TIP3    H211423   5.240   5.036   2.587  2.1812 -0.9644 -0.2842
 3828TIP3   OH211424   7.309   3.653   3.543  0.6257  0.3053 -0.2383
 3828TIP3    H111425   7.363   3.716   3.496  1.2708 -0.8681 -1.0771
 3828TIP3    H211426   7.309   3.575   3.488  0.9111 -0.8820  1.4182
 3829TIP3   OH211427   1.178   1.974   6.940 -0.2303 -0.6632 -0.3075
 3829TIP3    H111428   1.273   1.974   6.951 -0.2723  0.5336  0.0665
 3829TIP3    H211429   1.154   2.066   6.936 -1.2942 -0.9653 -1.1582
 3830TIP3   OH211430   3.758   3.759   0.307 -1.0091 -0.3154  0.1586
 3830TIP3    H111431   3.664   3.764   0.324 -0.7911 -1.3700  1.7637
 3830TIP3    H211432   3.791   3.694   0.369  0.9694  0.8809  0.4146
 3831TIP3   OH211433   3.494   2.223   1.644  0.3344  0.5891  0.4341
 3831TIP3    H111434   3.416   2.278   1.655  0.4925  1.0231 -0.5449
 3831TIP3    H211435   3.505   2.179   1.728 -0.5891  1.0280  0.7860
 3832TIP3   OH211436   5.882   3.058   3.026  0.0458 -0.3130 -0.4578
 3832TIP3    H111437   5.960   3.109   3.009  0.2058 -0.7465 -1.0554
 3832TIP3    H211438   5.903   2.970   2.993  0.1224 -1.0237  1.3817
 3833TIP3   OH211439   5.481   4.601   4.499 -0.1833  0.0866 -0.2465
 3833TIP3    H111440   5.567   4.619   4.462  0.4040 -1.8348  0.1531
 3833TIP3    H211441   5.499   4.570   4.588 -1.4099  1.6931  0.5790
 3834TIP3   OH211442   7.783   5.227   1.747 -0.0410  0.3717  0.2618
 3834TIP3    H111443   7.841   5.151   1.752  2.0878  1.9168 -0.2182
 3834TIP3    H211444   7.775   5.256   1.838 -1.3023 -0.7328  0.5135
 3835TIP3   OH211445   6.914   3.802   1.819 -0.0693 -0.1953  0.0768
 3835TIP3    H111446   6.891   3.812   1.726  1.3301  0.3025 -0.2265
 3835TIP3    H211447   6.903   3.709   1.836 -0.2295 -0.3102 -0.6255
 3836TIP3   OH211448   3.308   4.103   3.639  0.3679  0.1112  0.0906
 3836TIP3    H111449   3.215   4.099   3.664  0.2826 -1.7567 -0.4335
 3836TIP3    H211450   3.313   4.051   3.558  1.9017  0.0672  0.2028
 3837TIP3   OH211451   6.175   3.221   1.932  0.7935  0.2289 -0.0010
 3837TIP3    H111452   6.155   3.276   1.856 -2.3387 -0.9662 -0.1239
 3837TIP3    H211453   6.151   3.274   2.008  0.2881  0.0422 -0.0240
 3838TIP3   OH211454   6.129   5.261   2.479 -0.0356  0.0308 -0.6270
 3838TIP3    H111455   6.079   5.343   2.480 -1.5974 -0.8651 -1.8714
 3838TIP3    H211456   6.211   5.283   2.435 -1.5749  0.3641 -3.4617
 3839TIP3   OH211457   5.658   5.111   3.498  0.1680  0.1123 -0.0837
 3839TIP3    H111458   5.608   5.119   3.579  0.5985 -2.4223  0.5040
 3839TIP3    H211459   5.592   5.113   3.428 -0.5101 -0.5182  0.5257
 3840TIP3   OH211460   0.050   4.445   1.596  0.0565  0.1164  0.3322
 3840TIP3    H111461   0.063   4.398   1.514 -1.4492 -0.8500  0.6169
 3840TIP3    H211462  -0.017   4.510   1.576  0.3961  0.5325  0.5481
 3841TIP3   OH211463   6.291   4.158   1.285  0.4517  0.6979  0.1818
 3841TIP3    H111464   6.270   4.120   1.370  1.1395 -1.0661 -0.4159
 3841TIP3    H211465   6.378   4.125   1.264  1.0481  2.5803 -0.3899
 3842TIP3   OH211466   8.427   4.321   2.010  0.4205  0.2925 -0.1537
 3842TIP3    H111467   8.446   4.343   1.919  0.5685 -1.8462 -0.6635
 3842TIP3    H211468   8.370   4.245   2.005  0.8240 -0.1386  1.5485
 3843TIP3   OH211469   6.102   5.973   2.544 -0.1966  0.6400 -0.4375
 3843TIP3    H111470   6.152   5.986   2.464 -1.1769  3.0352 -0.6883
 3843TIP3    H211471   6.057   6.056   2.559 -1.0004 -0.1643  1.9281
 3844TIP3   OH211472   7.136   5.004   3.683  0.6633  0.0512  0.8072
 3844TIP3    H111473   7.144   4.922   3.634  1.3143  0.2434  0.5930
 3844TIP3    H211474   7.121   5.070   3.616  0.8277  0.2110  0.9297
 3845TIP3   OH211475   3.775   4.075   1.316  0.3513 -0.1789 -0.2031
 3845TIP3    H111476   3.804   4.166   1.321  1.5003 -0.5258 -0.3676
 3845TIP3    H211477   3.698   4.078   1.260  0.7707  0.6052 -0.7536
 3846TIP3   OH211478   2.695   1.226   6.865  0.4320 -0.0532 -1.2760
 3846TIP3    H111479   2.759   1.276   6.814  2.5779 -0.8899  0.5202
 3846TIP3    H211480   2.728   1.136   6.862 -1.1805 -0.6722 -1.0606
 3847TIP3   OH211481   5.225   4.596   1.498  0.6820 -0.2490 -0.7719
 3847TIP3    H111482   5.291   4.659   1.529 -0.3531  0.1562  0.6693
 3847TIP3    H211483   5.274   4.535   1.444  2.0328  0.7657 -0.7274
 3848TIP3   OH211484   5.165   4.378   3.171  0.0675 -0.0314 -0.1202
 3848TIP3    H111485   5.179   4.473   3.171 -1.4928  0.2092  1.0425
 3848TIP3    H211486   5.070   4.367   3.173  0.1452 -1.6349 -2.3688
 3849TIP3   OH211487   0.382   5.518   3.068  0.3457  0.4077  0.0516
 3849TIP3    H111488   0.408   5.583   3.133  2.1089  1.8402 -1.9850
 3849TIP3    H211489   0.412   5.435   3.105 -0.0018  1.0046  1.7220
 3850TIP3   OH211490   5.743   2.449   2.526 -0.2399 -0.1337  0.1067
 3850TIP3    H111491   5.815   2.466   2.587 -0.4374 -0.1344  0.3426
 3850TIP3    H211492   5.716   2.359   2.545 -0.6593  0.0487  0.3970
 3851TIP3   OH211493   5.543   3.447   1.877  0.3289 -0.1806 -0.1922
 3851TIP3    H111494   5.535   3.480   1.967  1.5780 -1.4246  0.3878
 3851TIP3    H211495   5.525   3.523   1.822 -0.2618  0.6414  1.1099
 3852TIP3   OH211496   6.296   2.644   0.211  0.6528 -0.0453 -0.3690
 3852TIP3    H111497   6.346   2.677   0.136  0.3204  0.7695 -0.2375
 3852TIP3    H211498   6.214   2.695   0.209  0.0175 -1.0568 -0.3275
 3853TIP3   OH211499   7.600   3.920   0.505 -0.6132  0.1547  0.7999
 3853TIP3    H111500   7.520   3.974   0.502 -1.4410 -1.0805  0.3912
 3853TIP3    H211501   7.651   3.949   0.430 -0.7419  0.8379  0.9651
 3854TIP3   OH211502   7.692   6.729   0.759 -0.1255 -0.1057 -0.2196
 3854TIP3    H111503   7.672   6.822   0.768 -1.0030 -0.3555  0.5411
 3854TIP3    H211504   7.644   6.702   0.681  1.6111  0.4680 -1.5210
 3855TIP3   OH211505   4.975   3.941   2.363  0.0944  0.1647  0.0634
 3855TIP3    H111506   4.891   3.924   2.403 -0.2456  0.5524 -0.4752
 3855TIP3    H211507   5.039   3.905   2.424 -0.5273 -1.6371 -0.3144
 3856TIP3   OH211508   7.242   3.679   2.390 -0.3138 -0.3705 -0.1292
 3856TIP3    H111509   7.173   3.727   2.344  0.7090  0.7012 -0.5616
 3856TIP3    H211510   7.323   3.712   2.353  0.4778 -0.7073  1.2717
 3857TIP3   OH211511   8.101   5.504   2.476  0.2223  0.2865  1.0917
 3857TIP3    H111512   8.118   5.566   2.406  0.1060 -1.4042 -0.4818
 3857TIP3    H211513   8.083   5.558   2.553  0.2973  2.1633 -0.1879
 3858TIP3   OH211514   5.194   3.266   1.671  0.2190 -0.1837 -0.4207
 3858TIP3    H111515   5.258   3.254   1.601  1.3692  2.4066  0.1178
 3858TIP3    H211516   5.205   3.190   1.728  1.3020 -0.8394 -1.5082
 3859TIP3   OH211517   5.449   5.935   2.620  0.2448 -0.4639  0.4288
 3859TIP3    H111518   5.495   5.963   2.699  2.2364 -2.2134 -0.0367
 3859TIP3    H211519   5.505   5.866   2.584 -0.5238  0.4372 -2.6066
 3860TIP3   OH211520   5.261   4.437   3.718 -0.2310 -0.1528  0.2998
 3860TIP3    H111521   5.307   4.464   3.798 -1.0163 -0.0016  0.7087
 3860TIP3    H211522   5.331   4.413   3.657  0.3811 -0.1437  0.9889
 3861TIP3   OH211523   5.996   2.708   3.378  0.1243  0.1353 -0.2310
 3861TIP3    H111524   5.961   2.680   3.294  0.5035  0.8243 -0.6201
 3861TIP3    H211525   5.922   2.751   3.422  0.3066  1.0225 -0.7897
 3862TIP3   OH211526   4.693   5.394   1.429  0.4697 -0.2427 -0.2260
 3862TIP3    H111527   4.658   5.424   1.345 -1.6966  0.0830  0.7462
 3862TIP3    H211528   4.787   5.384   1.414  0.6317  2.9571 -1.7885
 3863TIP3   OH211529   4.131   5.651   3.093 -0.1834 -0.4743  0.4762
 3863TIP3    H111530   4.070   5.626   3.163 -1.8889 -0.6684 -1.0527
 3863TIP3    H211531   4.101   5.736   3.063 -0.1100 -0.8589 -0.7337
 3864TIP3   OH211532   4.940   4.274   2.822 -0.4987  0.7836 -0.2097
 3864TIP3    H111533   4.900   4.211   2.762  0.7319 -1.7571  1.5466
 3864TIP3    H211534   4.875   4.285   2.892  0.9023 -1.7226  1.5591
 3865TIP3   OH211535   6.075   6.002   1.884  0.4363 -0.1073 -0.3831
 3865TIP3    H111536   6.168   6.018   1.864  0.0100  1.4397 -1.2005
 3865TIP3    H211537   6.040   5.964   1.803 -0.1951  1.6171 -0.9316
 3866TIP3   OH211538   2.108  -0.026   6.740  0.0410  0.1355  0.3639
 3866TIP3    H111539   2.160   0.041   6.785  0.6372  0.7869 -1.2430
 3866TIP3    H211540   2.043   0.023   6.690 -0.3021 -0.5459  0.1353
 3867TIP3   OH211541   4.465   5.417   1.259  0.3673 -0.3558 -0.3794
 3867TIP3    H111542   4.476   5.511   1.274  1.9971 -0.6919  0.6729
 3867TIP3    H211543   4.458   5.408   1.164 -1.9496  1.0272 -0.3834
 3868TIP3   OH211544   5.566   2.345   0.054 -0.2645 -0.1508 -0.5834
 3868TIP3    H111545   5.642   2.337  -0.004  1.3236 -1.1826  1.5834
 3868TIP3    H211546   5.499   2.292   0.013  0.8260 -0.8344 -1.5183
 3869TIP3   OH211547   5.359   3.801   3.681  0.3308  0.1217 -0.0855
 3869TIP3    H111548   5.356   3.750   3.601  0.5773 -0.2032  0.1104
 3869TIP3    H211549   5.267   3.808   3.709 -0.1012  2.8511 -2.0320
 3870TIP3   OH211550   6.700   6.032   1.775  0.0083  0.2932  0.1367
 3870TIP3    H111551   6.754   6.100   1.736  0.9118 -0.1027  0.6878
 3870TIP3    H211552   6.761   5.977   1.824 -0.3700 -2.2657 -2.1424
 3871TIP3   OH211553   2.962   4.915   1.342 -0.9031 -0.3066  0.2381
 3871TIP3    H111554   2.999   4.937   1.256  0.3362  1.0707  1.1009
 3871TIP3    H211555   3.002   4.831   1.365  0.2073  0.2370  0.3039
 3872TIP3   OH211556   3.076   3.844   1.605 -0.5059  0.1146  0.4310
 3872TIP3    H111557   3.141   3.806   1.663 -0.9071 -2.0025 -0.4768
 3872TIP3    H211558   3.102   3.814   1.517 -1.9445  0.3475 -0.0841
 3873TIP3   OH211559   7.189   5.429   1.066 -0.3010  0.0517  0.2340
 3873TIP3    H111560   7.116   5.394   1.015 -0.6286 -0.2144  0.8911
 3873TIP3    H211561   7.198   5.369   1.140  0.5226  0.1317  0.2089
 3874TIP3   OH211562   5.522   3.626   2.136  0.0120  0.4565 -0.4605
 3874TIP3    H111563   5.546   3.698   2.079 -0.9523  1.6702  0.6456
 3874TIP3    H211564   5.431   3.607   2.113 -0.9057  2.0168  1.7541
 3875TIP3   OH211565   2.222   1.711   6.519 -0.0118  0.1842  0.1871
 3875TIP3    H111566   2.280   1.776   6.556  1.2400 -0.8927  0.1507
 3875TIP3    H211567   2.247   1.629   6.561 -0.8339 -0.4605 -0.5466
 3876TIP3   OH211568   5.914   4.126   2.881 -0.1090  0.3729  0.5488
 3876TIP3    H111569   5.999   4.168   2.873  0.2220 -0.2397  0.7406
 3876TIP3    H211570   5.868   4.176   2.949  0.3464  0.3184  0.9023
 3877TIP3   OH211571   6.839   4.428   2.043  0.3578  0.3862  0.1573
 3877TIP3    H111572   6.868   4.514   2.076  0.0496  1.3719 -2.0549
 3877TIP3    H211573   6.755   4.414   2.086 -0.3216  1.9204 -0.6203
 3878TIP3   OH211574   4.602   2.702   2.726  0.1421  0.0890  0.2408
 3878TIP3    H111575   4.616   2.792   2.696  0.9292 -0.0434  0.1906
 3878TIP3    H211576   4.507   2.691   2.727  0.0694  0.6226 -0.6331
 3879TIP3   OH211577   6.607   4.685   2.805 -0.3695 -0.0172 -0.2367
 3879TIP3    H111578   6.697   4.656   2.792 -0.3629 -0.3174  0.4260
 3879TIP3    H211579   6.580   4.643   2.887 -0.0533  2.5919  1.2404
 3880TIP3   OH211580   4.981   7.414   2.289  0.3927 -0.2786  0.6195
 3880TIP3    H111581   4.920   7.485   2.309  0.6214 -0.2521  1.2620
 3880TIP3    H211582   5.063   7.459   2.267 -0.3179 -0.2634 -2.0593
 3881TIP3   OH211583   6.457   2.928   1.349  0.2661 -0.1111  0.1508
 3881TIP3    H111584   6.485   2.863   1.285 -0.8911 -1.1073  0.6305
 3881TIP3    H211585   6.382   2.971   1.309 -1.1580 -1.4930  1.2355
 3882TIP3   OH211586   6.804   3.222   4.590 -0.4161  0.4883  0.0365
 3882TIP3    H111587   6.774   3.214   4.500  1.5073  0.0824 -0.5938
 3882TIP3    H211588   6.830   3.313   4.599  2.2322 -0.1336 -0.7833
 3883TIP3   OH211589   8.078   4.787   1.946  0.0291  0.3053  0.3602
 3883TIP3    H111590   8.172   4.796   1.929  0.7182 -0.1388  3.5516
 3883TIP3    H211591   8.058   4.696   1.924  0.4992  0.2105  0.3126
 3884TIP3   OH211592   7.521   5.812   2.194  0.4162  0.2937  0.8973
 3884TIP3    H111593   7.525   5.789   2.101  2.2912 -0.6964  1.1954
 3884TIP3    H211594   7.440   5.861   2.204  0.4058  0.7528 -1.3472
 3885TIP3   OH211595   7.303   4.355   2.956  0.1380  0.2244 -0.2008
 3885TIP3    H111596   7.208   4.365   2.946  0.1275 -0.2819 -0.6369
 3885TIP3    H211597   7.338   4.380   2.870  0.5187  2.0246  0.4712
 3886TIP3   OH211598   8.315   2.386   4.850  0.2283 -0.0522  0.6851
 3886TIP3    H111599   8.223   2.363   4.838  0.2640 -1.2589  2.4288
 3886TIP3    H211600   8.314   2.473   4.889 -0.1234  0.4519 -0.4328
 3887TIP3   OH211601   6.640   4.493   3.590 -0.4754 -0.3759 -0.5440
 3887TIP3    H111602   6.728   4.494   3.626 -1.6056  0.6340  2.3695
 3887TIP3    H211603   6.606   4.406   3.612 -0.9822  0.0514  0.3915
 3888TIP3   OH211604   6.532   3.426   1.818 -0.1604 -0.4472 -0.1825
 3888TIP3    H111605   6.465   3.459   1.758 -0.5310 -0.7086  0.0825
 3888TIP3    H211606   6.602   3.491   1.814 -0.6370  0.0762 -0.0937
 3889TIP3   OH211607   6.160   4.391   4.318 -0.4449 -0.3324 -0.3475
 3889TIP3    H111608   6.161   4.346   4.403  0.5122 -0.7029 -0.5495
 3889TIP3    H211609   6.182   4.323   4.254  1.6178  0.5100 -0.5942
 3890TIP3   OH211610   6.851   3.516   1.058 -0.3822  0.2606  0.2313
 3890TIP3    H111611   6.854   3.531   0.964 -0.2091  2.0675  0.5115
 3890TIP3    H211612   6.870   3.601   1.097  2.4187 -1.0318  1.8987
 3891TIP3   OH211613   4.526   5.258   2.761 -0.1415  0.0570 -0.0443
 3891TIP3    H111614   4.494   5.168   2.764  1.5093 -0.5020  1.5574
 3891TIP3    H211615   4.463   5.307   2.815 -0.4103 -0.3503  0.0202
 3892TIP3   OH211616   7.532   3.524   1.029 -0.1057  0.1553  0.0844
 3892TIP3    H111617   7.522   3.432   1.003  0.9541 -0.7659  2.7982
 3892TIP3    H211618   7.442   3.556   1.037 -0.4927 -0.8504 -0.1201
 3893TIP3   OH211619   5.437   1.472   2.627  0.1660  0.0100 -0.3469
 3893TIP3    H111620   5.513   1.428   2.591  0.2194  0.1626 -0.4206
 3893TIP3    H211621   5.396   1.516   2.552  0.4973  0.6509 -0.1559
 3894TIP3   OH211622   4.774   5.017   1.030 -0.0862  0.7820  0.8740
 3894TIP3    H111623   4.731   5.039   1.113 -0.4835  1.0127  0.6108
 3894TIP3    H211624   4.709   5.038   0.963  0.0775  0.1960  0.5256
 3895TIP3   OH211625   6.960   5.635   2.116 -0.4143 -1.0082  0.4281
 3895TIP3    H111626   7.055   5.636   2.124 -0.3187  0.2907 -0.6331
 3895TIP3    H211627   6.930   5.694   2.185 -0.3463 -0.0473 -0.3619
 3896TIP3   OH211628   7.214   4.440   2.689 -1.1271  0.5494 -0.3722
 3896TIP3    H111629   7.138   4.414   2.740 -1.6067  1.1626 -0.7695
 3896TIP3    H211630   7.263   4.358   2.675 -1.1888  0.3223  0.7281
 3897TIP3   OH211631   4.663   3.567   2.727 -0.0239 -0.3889  0.5304
 3897TIP3    H111632   4.654   3.596   2.637 -2.4727 -0.9076  0.5728
 3897TIP3    H211633   4.706   3.482   2.720  0.5823 -0.0318 -0.0924
 3898TIP3   OH211634   8.065   3.601   0.609  0.1150 -0.5724 -0.3483
 3898TIP3    H111635   8.060   3.678   0.666  0.6844  0.5130 -1.7598
 3898TIP3    H211636   7.973   3.580   0.589 -0.0221 -0.0743 -0.2347
 3899TIP3   OH211637   6.281   4.404   2.464 -0.7147  0.1516  0.4336
 3899TIP3    H111638   6.356   4.424   2.521  0.1807 -0.8477 -0.3832
 3899TIP3    H211639   6.294   4.460   2.387 -0.7855 -0.0620  0.2660
 3900TIP3   OH211640   4.963   3.535   3.037  0.0991 -0.3123  0.1335
 3900TIP3    H111641   4.982   3.470   2.969 -1.3812 -1.5525  0.8808
 3900TIP3    H211642   4.867   3.538   3.042  0.1601  1.2844  0.7421
 3901TIP3   OH211643   6.237   5.453   2.874  0.3384 -0.3364 -0.1143
 3901TIP3    H111644   6.178   5.395   2.923  1.6914  0.2490  2.3162
 3901TIP3    H211645   6.189   5.536   2.868 -0.2589 -0.7195 -0.7166
 3902TIP3   OH211646   5.850   4.841   2.920  0.0502  0.0876  0.4539
 3902TIP3    H111647   5.861   4.824   2.826 -1.2025  3.0874 -0.2805
 3902TIP3    H211648   5.939   4.840   2.955  0.9569  2.9886 -1.5606
 3903TIP3   OH211649   7.143   2.949   1.228  0.5244  0.7635 -0.3318
 3903TIP3    H111650   7.107   2.952   1.139  1.3483  2.2972 -0.6470
 3903TIP3    H211651   7.076   2.905   1.280 -0.8893  1.7110 -1.3052
 3904TIP3   OH211652   4.631   2.426   2.188  0.0145  0.1907 -0.2618
 3904TIP3    H111653   4.572   2.375   2.243 -0.6923 -1.6048 -2.6068
 3904TIP3    H211654   4.719   2.398   2.215 -0.3281 -0.8682 -0.2137
 3905TIP3   OH211655   5.611   1.275   2.544  0.3742 -0.0799  0.2805
 3905TIP3    H111656   5.565   1.274   2.460 -1.4093 -1.9764  1.2174
 3905TIP3    H211657   5.698   1.310   2.524  0.2813 -1.3004 -2.5181
 3906TIP3   OH211658   6.615   3.962   2.291 -0.1356  0.3403  0.2551
 3906TIP3    H111659   6.651   4.024   2.227 -0.7697 -0.2281 -0.6814
 3906TIP3    H211660   6.539   4.008   2.328  0.3085  0.7223  0.6887
 3907TIP3   OH211661   6.882   5.194   2.165 -0.1905  0.1856 -0.0264
 3907TIP3    H111662   6.977   5.200   2.177 -0.2917  1.6578  0.0608
 3907TIP3    H211663   6.846   5.260   2.225 -1.3116 -0.8926  0.5167
 3908TIP3   OH211664   7.353   6.642   6.178 -0.1610 -0.3989 -0.0111
 3908TIP3    H111665   7.372   6.659   6.086 -0.5039  1.9421  0.3168
 3908TIP3    H211666   7.274   6.588   6.176  0.4351 -1.2639 -1.0898
 3909TIP3   OH211667   4.522   1.848   3.110  0.4060  0.4149  0.4088
 3909TIP3    H111668   4.427   1.837   3.106  0.3729  0.1142  1.8679
 3909TIP3    H211669   4.555   1.765   3.144  1.1980  0.5208 -0.0804
 3910TIP3   OH211670   6.162   2.340   1.046 -0.2840  0.3442  0.2538
 3910TIP3    H111671   6.140   2.272   0.983  1.6739 -1.9843  2.0074
 3910TIP3    H211672   6.205   2.408   0.994 -0.1362 -0.8214 -1.1562
 3911TIP3   OH211673   4.855   3.386   2.567  0.1388  0.1092 -0.0152
 3911TIP3    H111674   4.862   3.464   2.511  0.5509 -2.1879 -3.3289
 3911TIP3    H211675   4.942   3.347   2.565 -0.2595 -0.8523  1.0105
 3912TIP3   OH211676   0.577   2.162   0.208  0.1143  0.0845 -0.6652
 3912TIP3    H111677   0.539   2.222   0.272  1.1620  0.5601 -0.4730
 3912TIP3    H211678   0.629   2.218   0.150  0.9537 -0.6028 -0.5887
 3913TIP3   OH211679   4.608   5.185   2.136 -0.4253 -0.3068  0.0404
 3913TIP3    H111680   4.574   5.273   2.120 -0.2929 -0.2357  0.1423
 3913TIP3    H211681   4.576   5.133   2.063 -0.4207 -0.1492 -0.0747
 3914TIP3   OH211682   5.058   5.331   3.327  0.0821 -0.1875 -0.3329
 3914TIP3    H111683   5.108   5.334   3.409 -1.9992  1.6431  0.8923
 3914TIP3    H211684   5.123   5.349   3.259  1.0948  2.2342  1.2349
 3915TIP3   OH211685   5.371   3.218   3.828  0.1886 -0.9635 -0.1902
 3915TIP3    H111686   5.385   3.163   3.751  1.9259 -0.4105 -0.2998
 3915TIP3    H211687   5.440   3.284   3.823 -0.5896 -0.0301  1.0540
 3916TIP3   OH211688   5.032   2.992   3.775 -0.0868 -0.0624 -0.5418
 3916TIP3    H111689   4.998   2.910   3.740  0.6245 -0.9068  0.7315
 3916TIP3    H211690   5.103   2.966   3.834 -0.2674  1.4163  0.3596
 3917TIP3   OH211691   7.343   4.477   3.438  0.5156 -0.1458 -0.9960
 3917TIP3    H111692   7.302   4.425   3.368 -0.0324 -0.1721 -0.6545
 3917TIP3    H211693   7.330   4.426   3.517  1.4695 -0.2935 -0.9248
 3918TIP3   OH211694   7.351   5.150   0.879 -0.1233 -0.0798  0.3735
 3918TIP3    H111695   7.360   5.110   0.793 -0.5395 -0.9867  0.7381
 3918TIP3    H211696   7.354   5.244   0.863 -1.7806 -0.2074 -0.8225
 3919TIP3   OH211697   0.588   6.022   2.504  0.3349 -0.2677 -0.5488
 3919TIP3    H111698   0.583   5.970   2.584 -0.1647  1.2960  0.4730
 3919TIP3    H211699   0.552   5.966   2.436  0.3310 -1.4489  0.4129
 3920TIP3   OH211700   6.635   4.677   0.477 -0.0867  0.2082 -0.7981
 3920TIP3    H111701   6.706   4.724   0.433  1.6501 -0.9292  0.7408
 3920TIP3    H211702   6.566   4.743   0.488 -0.3602  0.6841 -4.6369
 3921TIP3   OH211703   8.005   6.858   6.779 -0.1864  0.1289 -0.2192
 3921TIP3    H111704   7.982   6.927   6.841  0.3301  0.9505 -0.9302
 3921TIP3    H211705   8.101   6.859   6.777 -0.2238  1.9287 -3.0312
 3922TIP3   OH211706   5.233   3.789   2.129  0.4301  0.2475  0.2935
 3922TIP3    H111707   5.157   3.841   2.103  0.6175 -0.1730 -1.1105
 3922TIP3    H211708   5.308   3.844   2.108  0.6765 -0.9912 -2.1933
 3923TIP3   OH211709   7.786   5.640   1.490  0.0287  0.2725  0.1146
 3923TIP3    H111710   7.744   5.701   1.429  0.6748  0.0329 -0.5778
 3923TIP3    H211711   7.758   5.554   1.460  0.5028  0.1446  0.0281
 3924TIP3   OH211712   3.827   3.426   2.402  0.4849 -0.1359 -0.2360
 3924TIP3    H111713   3.833   3.331   2.410  0.8845 -0.1195 -0.3462
 3924TIP3    H211714   3.811   3.441   2.309 -0.5158 -0.1420 -0.0689
 3925TIP3   OH211715   5.701   5.794   2.188  0.6410  0.0379  0.0721
 3925TIP3    H111716   5.729   5.704   2.171  0.0708 -0.0105 -0.6292
 3925TIP3    H211717   5.744   5.846   2.121  0.3713  0.1884  0.0154
 3926TIP3   OH211718   7.213   5.287   1.988  0.1576  0.0288  0.0865
 3926TIP3    H111719   7.176   5.243   2.064 -0.0995  1.2929  0.7035
 3926TIP3    H211720   7.286   5.230   1.960 -0.9600 -1.4235  0.0808
 3927TIP3   OH211721   6.993   8.075   1.989 -0.1838 -0.2873  0.1537
 3927TIP3    H111722   7.048   8.152   2.001  0.7414 -0.5739 -1.8864
 3927TIP3    H211723   7.028   8.010   2.050 -0.2835  0.5605  1.1100
 3928TIP3   OH211724   7.790   4.675   1.602 -0.4286  0.0625 -0.5417
 3928TIP3    H111725   7.709   4.726   1.596 -0.2680  0.1624 -1.7986
 3928TIP3    H211726   7.804   4.664   1.697 -1.7022  0.3648 -0.3133
 3929TIP3   OH211727   5.200   4.281   0.380 -0.4113  0.4448 -0.2145
 3929TIP3    H111728   5.111   4.267   0.346 -0.4750 -0.9253  0.4850
 3929TIP3    H211729   5.187   4.332   0.460 -0.6848 -1.0000  0.6660
 3930TIP3   OH211730   7.506   3.174   1.621 -0.1280  0.6460  0.4899
 3930TIP3    H111731   7.593   3.213   1.613 -0.1269  0.5790  0.1676
 3930TIP3    H211732   7.449   3.232   1.572  0.0006 -0.1590 -0.6364
 3931TIP3   OH211733   3.638   4.920   2.295 -0.3771  0.1981  0.0311
 3931TIP3    H111734   3.656   4.934   2.202  0.7994 -1.8293 -0.0645
 3931TIP3    H211735   3.543   4.932   2.303 -0.4704  0.5159 -1.4022
 3932TIP3   OH211736   7.349   4.506   0.792  0.6562 -0.1038  0.4244
 3932TIP3    H111737   7.313   4.485   0.706  1.1386 -0.3889  0.2848
 3932TIP3    H211738   7.413   4.436   0.808  0.7655  0.1026  0.8896
 3933TIP3   OH211739   7.138   5.657   3.097  0.4491 -0.1267  0.4784
 3933TIP3    H111740   7.083   5.714   3.151  1.1760  0.0142  1.0803
 3933TIP3    H211741   7.077   5.614   3.038 -0.2403  0.4712  0.7439
 3934TIP3   OH211742   7.437   4.300   6.076 -0.1213 -0.8255 -0.3665
 3934TIP3    H111743   7.354   4.287   6.122 -0.1089  3.1706  0.9134
 3934TIP3    H211744   7.412   4.313   5.985 -0.6666 -2.2388 -0.4303
 3935TIP3   OH211745   7.118   3.906   1.186 -0.1681 -0.0236 -0.3844
 3935TIP3    H111746   7.154   3.892   1.274  0.1261 -2.4899 -0.8686
 3935TIP3    H211747   7.195   3.912   1.129 -0.4015 -1.5029 -0.8835
 3936TIP3   OH211748   5.044   4.984   1.430  0.5326 -0.0655  0.5974
 3936TIP3    H111749   4.987   5.061   1.418 -0.4755 -0.5819  1.8811
 3936TIP3    H211750   5.014   4.921   1.365 -0.0380 -0.1429  0.9322
 3937TIP3   OH211751   4.422   4.502   3.910  0.1491  0.5783  0.6776
 3937TIP3    H111752   4.375   4.583   3.892  1.0350  0.9669  0.0640
 3937TIP3    H211753   4.435   4.503   4.005  0.7216  1.4863  0.6033
 3938TIP3   OH211754   5.528   3.824   2.678 -0.0729  0.0851  0.4488
 3938TIP3    H111755   5.615   3.857   2.700  0.0386 -0.9288  1.6058
 3938TIP3    H211756   5.533   3.804   2.585  1.2194 -0.7377  0.6715
 3939TIP3   OH211757   5.826   3.303   3.990  0.2054  0.2971 -0.3803
 3939TIP3    H111758   5.817   3.370   4.058  0.3642 -0.1742  0.1018
 3939TIP3    H211759   5.920   3.292   3.980  0.1790  0.1880 -0.5019
 3940TIP3   OH211760   3.552   0.957   6.952  0.1201 -0.2324  0.5080
 3940TIP3    H111761   3.491   1.030   6.942 -0.3324 -0.5359  1.0716
 3940TIP3    H211762   3.559   0.943   7.046 -0.4207 -1.4369  0.3801
 3941TIP3   OH211763   3.683   4.510   0.807  0.9892  0.1199 -0.2494
 3941TIP3    H111764   3.670   4.519   0.901  0.5434  2.3027 -0.4949
 3941TIP3    H211765   3.729   4.427   0.797 -0.7719 -1.1452  1.7267
 3942TIP3   OH211766   8.380   5.418   2.744  0.3329 -0.5973  0.2945
 3942TIP3    H111767   8.321   5.410   2.669  0.2737 -0.4340  0.3248
 3942TIP3    H211768   8.324   5.443   2.817  0.5535  0.3081  0.1566
 3943TIP3   OH211769   3.456   3.326   1.244 -0.4530  0.2549 -0.2521
 3943TIP3    H111770   3.428   3.414   1.267  0.0779  0.5608 -0.7538
 3943TIP3    H211771   3.377   3.283   1.212 -0.5643  0.7689 -0.6613
 3944TIP3   OH211772   4.971   3.580   2.399  0.7442 -0.0174 -0.0372
 3944TIP3    H111773   4.972   3.577   2.303  0.9095 -0.5083 -0.0205
 3944TIP3    H211774   5.027   3.655   2.421  1.2737 -0.3270 -0.3066
 3945TIP3   OH211775   4.851   3.092   0.541  0.2702  0.5048  0.9038
 3945TIP3    H111776   4.859   3.002   0.575 -1.4727 -0.2989 -0.7238
 3945TIP3    H211777   4.942   3.122   0.531  0.8787 -1.1433  1.3188
 3946TIP3   OH211778   7.391   5.885   0.532 -0.3147 -0.5806  0.1655
 3946TIP3    H111779   7.458   5.854   0.471  0.2915 -0.9615  1.0113
 3946TIP3    H211780   7.337   5.808   0.547 -0.2231 -0.5954  0.4195
 3947TIP3   OH211781   4.066   4.569   2.605  0.5234 -0.5592 -0.7606
 3947TIP3    H111782   4.049   4.611   2.521  0.3225 -0.4094 -0.6443
 3947TIP3    H211783   3.982   4.570   2.651  0.4787 -1.2248 -0.8156
 3948TIP3   OH211784   3.855   4.536   2.834 -0.4547  0.6006  0.3772
 3948TIP3    H111785   3.818   4.457   2.792 -0.1756  0.2579  0.7720
 3948TIP3    H211786   3.788   4.563   2.896  0.5993 -0.9531  2.2492
 3949TIP3   OH211787   4.589   3.985   2.654  0.2987  0.5544  0.0276
 3949TIP3    H111788   4.499   3.955   2.662 -0.2180  1.9505 -0.5021
 3949TIP3    H211789   4.583   4.080   2.645  1.9402  0.8439  1.7660
 3950TIP3   OH211790   5.482   5.022   2.935  0.5005  0.3154  0.2843
 3950TIP3    H111791   5.425   5.086   2.978 -1.0313  0.0222 -1.2800
 3950TIP3    H211792   5.535   5.074   2.874 -0.4595  0.1588 -0.6923
 3951TIP3   OH211793   6.022   6.241   2.507  0.2656  0.1406  0.0895
 3951TIP3    H111794   6.009   6.302   2.434 -2.1030  2.1387  2.1055
 3951TIP3    H211795   6.110   6.261   2.539 -0.6731  2.9195  1.0513
 3952TIP3   OH211796   6.016   3.944   1.371  0.1557  0.2121  0.5099
 3952TIP3    H111797   5.986   3.909   1.454  2.0260 -1.5702  0.4844
 3952TIP3    H211798   5.979   3.886   1.305  0.2375  0.4772  0.2277
 3953TIP3   OH211799   4.649   4.016   3.022 -0.0788 -0.2214  0.0880
 3953TIP3    H111800   4.570   4.047   3.066  0.8119  0.7283  1.0292
 3953TIP3    H211801   4.616   3.955   2.955 -1.5849 -0.0039  0.6042
 3954TIP3   OH211802   4.680   3.090   0.128  0.3277 -0.5551 -0.1805
 3954TIP3    H111803   4.649   3.180   0.131 -0.6330 -0.9218  3.3092
 3954TIP3    H211804   4.603   3.039   0.103  1.1415 -0.3771 -3.2886
 3955TIP3   OH211805   6.347   3.623   3.025  0.4118 -0.1651  0.1566
 3955TIP3    H111806   6.404   3.576   3.086  0.6384  1.2773  1.0870
 3955TIP3    H211807   6.269   3.568   3.018  1.1158 -1.2050  0.3876
 3956TIP3   OH211808   6.022   5.416   3.255  0.4442 -0.1279 -0.5249
 3956TIP3    H111809   6.063   5.460   3.181  1.6944  0.6223  0.5979
 3956TIP3    H211810   5.928   5.430   3.242  0.7087  0.8632 -1.4208
 3957TIP3   OH211811   3.384   4.440   3.682  0.1051  0.3865 -0.0357
 3957TIP3    H111812   3.377   4.411   3.590  2.0786  2.0451 -0.7594
 3957TIP3    H211813   3.406   4.360   3.730  1.0805 -0.1607 -1.3399
 3958TIP3   OH211814   4.749   4.193   1.344 -0.1364  0.1187 -0.0536
 3958TIP3    H111815   4.780   4.282   1.363 -1.5360  0.3642  1.1804
 3958TIP3    H211816   4.737   4.154   1.430  0.8451 -1.4122 -0.6004
 3959TIP3   OH211817   3.109   3.891   2.441  0.0552 -0.6614 -0.1707
 3959TIP3    H111818   3.169   3.910   2.513 -0.4124  0.4412 -0.0636
 3959TIP3    H211819   3.023   3.884   2.483 -0.4158  1.2661 -0.7815
 3960TIP3   OH211820   4.224   3.461   0.424 -0.5704  0.2262  0.2034
 3960TIP3    H111821   4.231   3.447   0.519 -1.8202  1.7520  0.5474
 3960TIP3    H211822   4.298   3.518   0.404  0.8814 -1.7240 -0.1159
 3961TIP3   OH211823   4.786   3.714   2.183  0.3408 -0.1537 -0.6438
 3961TIP3    H111824   4.706   3.671   2.214  0.1820  0.0509 -0.7639
 3961TIP3    H211825   4.804   3.782   2.249  1.1558 -1.0585  0.0739
 3962TIP3   OH211826   6.726   5.182   1.076  0.0987 -0.3108 -0.2519
 3962TIP3    H111827   6.677   5.197   1.157  1.2599 -0.1251  0.4251
 3962TIP3    H211828   6.693   5.098   1.043 -0.7113 -0.1555  0.1714
 3963TIP3   OH211829   5.526   3.026   2.776 -0.4069 -0.5365 -0.2242
 3963TIP3    H111830   5.597   3.086   2.797 -0.6367  0.1329 -1.3573
 3963TIP3    H211831   5.566   2.960   2.720 -0.4278 -0.7713  0.0373
 3964TIP3   OH211832   4.537   4.963   3.166  0.0813  0.1296 -0.4467
 3964TIP3    H111833   4.446   4.969   3.193  0.0799 -1.4752 -0.0741
 3964TIP3    H211834   4.586   4.956   3.249  0.2031 -3.2208 -0.7491
 3965TIP3   OH211835   4.810   5.198   3.477 -0.2626  0.0174  0.2149
 3965TIP3    H111836   4.890   5.193   3.424  0.8154  0.9485  1.7084
 3965TIP3    H211837   4.822   5.131   3.545 -0.4658  0.6073  0.8328
 3966TIP3   OH211838   5.378   1.827   2.200  0.6978  0.6694 -0.4077
 3966TIP3    H111839   5.357   1.901   2.142  0.2499  2.0099  1.4060
 3966TIP3    H211840   5.302   1.769   2.194  0.5321  0.9335 -0.9324
 3967TIP3   OH211841   6.246   2.201   1.766 -0.0893  0.3393  0.1143
 3967TIP3    H111842   6.280   2.290   1.761  1.3208  0.0104  2.8526
 3967TIP3    H211843   6.155   2.211   1.791  0.2382  1.0085  1.0596
 3968TIP3   OH211844   3.222   4.642   3.102 -0.4646  0.6234  0.5129
 3968TIP3    H111845   3.193   4.731   3.084 -1.8039  0.1891  0.4594
 3968TIP3    H211846   3.284   4.622   3.031 -1.4376  0.9082 -0.4224
 3969TIP3   OH211847   5.590   2.251   2.162 -0.5577  0.0983 -0.1976
 3969TIP3    H111848   5.590   2.343   2.189 -1.4477  0.1263 -0.2869
 3969TIP3    H211849   5.683   2.230   2.149 -0.2549  0.5761  1.1695
 3970TIP3   OH211850   6.386   4.102   2.947  0.6356 -0.2123  0.2580
 3970TIP3    H111851   6.344   4.105   3.033 -0.3299  1.5607 -0.2593
 3970TIP3    H211852   6.372   4.012   2.916 -1.1575 -0.1672  0.8916
 3971TIP3   OH211853   4.567   4.092   2.223  0.0095 -0.3079  0.1332
 3971TIP3    H111854   4.578   4.139   2.305 -2.1605  0.6888 -0.1116
 3971TIP3    H211855   4.526   4.009   2.249  0.0759 -0.3383  0.1422
 3972TIP3   OH211856   6.207   4.436   4.756  0.1627  0.2834 -0.1626
 3972TIP3    H111857   6.131   4.425   4.699  1.1376  1.2548 -1.7003
 3972TIP3    H211858   6.256   4.508   4.716  0.5913  1.3534  2.2523
 3973TIP3   OH211859   4.578   4.591   1.833  0.4563  0.2242 -0.3694
 3973TIP3    H111860   4.557   4.681   1.808  0.6727  0.7997  1.4359
 3973TIP3    H211861   4.667   4.576   1.799  0.4155  0.6994 -0.6806
 3974TIP3   OH211862   4.600   3.465   2.277 -0.1129  0.2440 -0.0569
 3974TIP3    H111863   4.600   3.374   2.246 -1.7483  0.3562 -0.4239
 3974TIP3    H211864   4.582   3.458   2.371 -0.5349  0.2041 -0.1404
 3975TIP3   OH211865   6.202   2.954   5.170  0.6697 -0.0709  0.0051
 3975TIP3    H111866   6.178   3.045   5.150 -2.3922 -0.9887 -0.8602
 3975TIP3    H211867   6.138   2.928   5.237  0.7713 -1.9302 -0.6081
 3976TIP3   OH211868   4.277   3.269   0.864 -0.1742 -1.0374 -0.3401
 3976TIP3    H111869   4.328   3.277   0.945 -0.3508 -1.8477 -0.1341
 3976TIP3    H211870   4.332   3.307   0.796 -0.8440  1.4834  0.4752
 3977TIP3   OH211871   1.148   1.127   6.772 -0.7458  0.0226 -0.3976
 3977TIP3    H111872   1.225   1.184   6.774  0.7135 -1.9539  2.9416
 3977TIP3    H211873   1.075   1.184   6.797  0.6575  0.5519  2.6889
 3978TIP3   OH211874   5.746   3.808   0.209  0.2044 -0.0739 -0.2694
 3978TIP3    H111875   5.654   3.793   0.189 -0.3302 -1.3566  2.8503
 3978TIP3    H211876   5.785   3.720   0.204  0.6579  0.0405  1.1714
 3979TIP3   OH211877   3.646   4.140   3.465  0.1987 -0.3298 -0.1288
 3979TIP3    H111878   3.616   4.049   3.473 -0.8090  0.0728  0.8393
 3979TIP3    H211879   3.735   4.140   3.500 -0.1743 -0.7454  0.8231
 3980TIP3   OH211880   7.624   3.705   1.584  0.1808  0.7086 -0.1149
 3980TIP3    H111881   7.692   3.639   1.595 -1.8187 -1.2623  0.6699
 3980TIP3    H211882   7.642   3.743   1.498  1.2893 -0.9435 -0.6391
 3981TIP3   OH211883   5.152   3.085   6.764 -0.4735 -0.3244  0.1089
 3981TIP3    H111884   5.192   3.167   6.793 -0.3382 -0.7793  1.2407
 3981TIP3    H211885   5.202   3.061   6.686  1.2210 -0.6608  1.2537
 3982TIP3   OH211886   5.198   5.389   3.636 -0.0832 -0.0977  0.3261
 3982TIP3    H111887   5.236   5.451   3.698 -0.1168  0.4074 -0.1494
 3982TIP3    H211888   5.107   5.419   3.625  0.3845  0.8175 -1.2149
 3983TIP3   OH211889   5.997   4.786   0.907 -0.5152 -0.0167 -0.0538
 3983TIP3    H111890   5.939   4.730   0.854  0.3886  1.6164 -2.9133
 3983TIP3    H211891   6.080   4.785   0.859  1.1437 -0.4637  2.7328
 3984TIP3   OH211892   6.903   3.022   1.874  0.7191 -0.1838  0.3206
 3984TIP3    H111893   6.873   2.972   1.950  1.1032  0.9802  1.2388
 3984TIP3    H211894   6.878   2.967   1.799 -0.6789 -0.8127  1.2149
 3985TIP3   OH211895   1.037   5.364   1.826  0.0096  0.0567 -0.3117
 3985TIP3    H111896   0.975   5.392   1.893 -1.3012  1.7064 -2.1885
 3985TIP3    H211897   1.088   5.442   1.805  0.4820 -0.4741 -1.1839
 3986TIP3   OH211898   7.252   5.212   1.265  0.4530 -0.2530 -0.4572
 3986TIP3    H111899   7.238   5.218   1.360  1.2607  1.1205 -0.4181
 3986TIP3    H211900   7.165   5.198   1.229  0.2824 -2.1398  0.5813
 3987TIP3   OH211901   8.179   4.336   1.355 -0.0318 -0.1300  0.0344
 3987TIP3    H111902   8.086   4.317   1.340  0.6595 -2.4740 -1.6048
 3987TIP3    H211903   8.193   4.315   1.447 -1.1445  0.4081  0.3437
 3988TIP3   OH211904   5.275   1.932   1.961 -0.5983 -0.5642 -0.1305
 3988TIP3    H111905   5.241   1.978   1.884 -2.3134 -1.2079  0.2102
 3988TIP3    H211906   5.239   1.844   1.954  1.0781 -1.3019  0.2369
 3989TIP3   OH211907   6.794   4.136   2.941  0.1773  0.2840  0.1072
 3989TIP3    H111908   6.770   4.044   2.936 -1.1961  0.6213  0.1169
 3989TIP3    H211909   6.714   4.183   2.915  0.4261  1.4828  1.4323
 3990TIP3   OH211910   6.011   4.356   2.618  0.3866  0.0703  0.8103
 3990TIP3    H111911   6.052   4.321   2.697  1.0901 -1.0036 -0.0248
 3990TIP3    H211912   6.084   4.372   2.558 -0.3501 -1.5155 -0.5488
 3991TIP3   OH211913   7.015   3.598   3.466 -0.4931 -0.4451 -0.6197
 3991TIP3    H111914   7.049   3.664   3.405  1.3959 -0.5603  0.2778
 3991TIP3    H211915   6.986   3.649   3.542  0.0500 -0.5588 -0.3345
 3992TIP3   OH211916   0.247   2.475   0.542  0.0756  0.0918 -0.2885
 3992TIP3    H111917   0.220   2.402   0.598 -1.0339  0.9707  0.3404
 3992TIP3    H211918   0.297   2.434   0.471 -0.2200 -1.2326  0.2601
 3993TIP3   OH211919   4.891   3.414   0.688  0.0048  0.5146 -0.0228
 3993TIP3    H111920   4.810   3.363   0.691 -0.6466  1.5073 -0.4962
 3993TIP3    H211921   4.914   3.418   0.595  1.9874 -1.9005  0.3232
 3994TIP3   OH211922   7.719   5.685   1.808  0.1981 -0.1513 -0.4421
 3994TIP3    H111923   7.810   5.678   1.781  0.5287 -0.3907  0.7113
 3994TIP3    H211924   7.671   5.704   1.727  1.0413 -1.7222 -1.3336
 3995TIP3   OH211925   0.074   5.752   2.782  0.2391  0.1519  0.1651
 3995TIP3    H111926   0.081   5.658   2.764  0.7384  0.4535 -1.2283
 3995TIP3    H211927   0.076   5.793   2.696  1.2260  1.5317  0.8389
 3996TIP3   OH211928   7.963   5.303   3.483 -0.7176  0.2430  0.8905
 3996TIP3    H111929   7.947   5.336   3.572 -1.8617  0.6251  0.5490
 3996TIP3    H211930   7.887   5.331   3.433 -0.0758  0.0307 -0.2223
 3997TIP3   OH211931   5.561   3.487   2.789  0.0138 -1.0018  0.3533
 3997TIP3    H111932   5.546   3.581   2.803 -0.4933 -0.9851 -0.3028
 3997TIP3    H211933   5.557   3.476   2.694 -0.8032 -1.8414  0.4879
 3998TIP3   OH211934   7.676   3.821   3.875  0.5166  0.5597 -0.5577
 3998TIP3    H111935   7.669   3.727   3.893  0.5006  1.3938  4.2406
 3998TIP3    H211936   7.600   3.840   3.819 -0.7502 -1.8669  0.2594
 3999TIP3   OH211937   7.152   3.917   1.458 -0.2771 -0.2185  0.0103
 3999TIP3    H111938   7.099   3.955   1.529 -0.0494 -1.1778  0.7117
 3999TIP3    H211939   7.222   3.871   1.504  1.2127  1.1089 -0.9231
 4000TIP3   OH211940   3.108   2.801   1.667 -0.4237 -0.2395  0.1273
 4000TIP3    H111941   3.044   2.743   1.709  1.0670 -1.3276  0.9268
 4000TIP3    H211942   3.182   2.744   1.646  0.6198  1.1595 -0.0685
 4001TIP3   OH211943   2.775   2.377   2.713 -0.2527 -0.1583 -0.2424
 4001TIP3    H111944   2.788   2.282   2.702  1.0751  0.1997 -1.9768
 4001TIP3    H211945   2.736   2.405   2.631 -2.6840  0.4866  1.0896
 4002TIP3   OH211946   5.949   4.155   1.805  0.9610 -0.1815  0.4012
 4002TIP3    H111947   5.855   4.138   1.809  1.1034 -1.5097 -1.3479
 4002TIP3    H211948   5.958   4.247   1.829 -0.8758  0.1643 -0.1913
 4003TIP3   OH211949   2.425   7.019   6.847  0.3195 -0.2431 -0.1020
 4003TIP3    H111950   2.428   7.061   6.761  0.0743  0.9665  0.4778
 4003TIP3    H211951   2.491   6.950   6.841  1.0299  0.4895 -0.9153
 4004TIP3   OH211952   8.285   2.486   2.496 -0.1604 -0.0890 -0.0220
 4004TIP3    H111953   8.367   2.484   2.546  0.0560  0.3477 -0.3516
 4004TIP3    H211954   8.312   2.478   2.405 -0.3844  1.2095 -0.2216
 4005TIP3   OH211955   7.218   6.024   1.782  0.3511  0.8198  0.6630
 4005TIP3    H111956   7.147   5.996   1.725  1.4747 -1.1222  0.1743
 4005TIP3    H211957   7.194   6.113   1.809  0.1083  2.0584 -3.3215
 4006TIP3   OH211958   3.958   3.994   3.035  0.2756 -0.0783  0.1746
 4006TIP3    H111959   3.868   3.997   3.068  0.1016  0.3350 -0.3311
 4006TIP3    H211960   3.972   4.080   2.995  0.6793 -0.3622 -0.3093
 4007TIP3   OH211961   5.503   3.499   2.527 -0.2686 -0.0749 -0.0231
 4007TIP3    H111962   5.510   3.428   2.464  0.5027  2.9505 -3.5807
 4007TIP3    H211963   5.431   3.553   2.495 -1.0485  0.6465  2.7484
 4008TIP3   OH211964   5.927   4.378   1.967  0.0544 -0.0810 -0.4516
 4008TIP3    H111965   5.898   4.362   2.057  0.2587  1.4945 -0.1059
 4008TIP3    H211966   6.021   4.392   1.973  0.1158 -0.2496 -0.9494
 4009TIP3   OH211967   5.846   3.747   1.201  0.0905  0.1643 -0.2316
 4009TIP3    H111968   5.793   3.706   1.270 -0.2328  0.5897 -0.2217
 4009TIP3    H211969   5.841   3.685   1.128 -1.6462  0.8694 -0.7453
 4010TIP3   OH211970   4.562   5.056   1.668  0.1355  0.0586 -0.1026
 4010TIP3    H111971   4.654   5.071   1.647  0.2505  0.2301  0.5137
 4010TIP3    H211972   4.541   5.122   1.734  0.2869 -1.6162  1.6737
 4011TIP3   OH211973   8.204   2.030   2.553 -0.1606  0.2252 -0.1122
 4011TIP3    H111974   8.258   1.994   2.483  0.6783 -2.0789  1.6264
 4011TIP3    H211975   8.266   2.049   2.624 -0.9984  2.3782  0.0894
 4012TIP3   OH211976   4.145   4.732   1.904 -0.2054 -0.0560  0.3817
 4012TIP3    H111977   4.157   4.729   1.809 -1.5460 -1.9773  0.2589
 4012TIP3    H211978   4.051   4.741   1.917 -0.0453  0.0831  1.5379
 4013TIP3   OH211979   7.079   6.705   0.265 -1.1127  0.0894  0.3161
 4013TIP3    H111980   7.092   6.789   0.309 -0.7615  0.0636  0.2610
 4013TIP3    H211981   6.998   6.671   0.302 -1.0809  0.2989  0.5796
 4014TIP3   OH211982   6.316   4.070   1.761 -0.0054  0.0379 -0.0180
 4014TIP3    H111983   6.376   4.002   1.791  0.6215  0.3846 -0.4849
 4014TIP3    H211984   6.315   4.061   1.666  0.8704  1.3243 -0.1698
 4015TIP3   OH211985   7.280   3.342   1.517 -0.1808 -0.0869 -0.2655
 4015TIP3    H111986   7.267   3.344   1.422  0.9147 -0.4622 -0.4233
 4015TIP3    H211987   7.195   3.368   1.552  0.1583  2.8823 -1.4063
 4016TIP3   OH211988   5.468   4.456   0.861 -0.4567 -0.0767  0.0687
 4016TIP3    H111989   5.544   4.469   0.918  0.6508 -1.8052 -0.9638
 4016TIP3    H211990   5.421   4.383   0.900 -0.7563 -0.0029 -0.1510
 4017TIP3   OH211991   3.109   4.783   2.543 -0.1710  0.0542 -0.0158
 4017TIP3    H111992   3.035   4.786   2.605 -1.5895 -0.8769 -1.6123
 4017TIP3    H211993   3.109   4.693   2.511  1.7981  0.0009  0.0940
 4018TIP3   OH211994   5.097   3.964   1.687 -0.3954  0.0442  0.0768
 4018TIP3    H111995   5.040   4.032   1.652 -1.0271 -0.2867  0.4620
 4018TIP3    H211996   5.080   3.963   1.781 -0.2050 -0.4699  0.1102
 4019TIP3   OH211997   6.013   6.138   3.328  0.1140  0.1500  0.4068
 4019TIP3    H111998   5.958   6.080   3.380 -0.5656 -1.2002 -1.7658
 4019TIP3    H211999   6.103   6.118   3.356 -0.3130  0.4989  2.0818
 4020TIP3   OH212000   6.256   2.851   3.049  0.2175  0.1349 -0.3731
 4020TIP3    H112001   6.253   2.933   3.099  3.4428 -0.1095  0.3550
 4020TIP3    H212002   6.283   2.785   3.113  0.4707 -0.9486 -1.5787
 4021TIP3   OH212003   6.989   1.431   2.405  0.2615 -0.2278  0.4302
 4021TIP3    H112004   6.963   1.518   2.435  0.6759 -0.0619  0.3181
 4021TIP3    H212005   7.077   1.419   2.440  0.6242 -0.1626 -0.4415
 4022TIP3   OH212006   0.371   1.710   2.380  0.0856  0.0497 -0.8666
 4022TIP3    H112007   0.313   1.731   2.307  0.9833  2.5198 -0.9277
 4022TIP3    H212008   0.455   1.689   2.339  0.0714 -0.4768 -0.6327
 4023TIP3   OH212009   5.588   3.006   1.374  1.0053 -0.4960  0.0022
 4023TIP3    H112010   5.563   2.916   1.393 -1.2083  0.1800  0.3725
 4023TIP3    H212011   5.601   3.008   1.279  0.1494 -0.9976 -0.1268
 4024TIP3   OH212012   3.507   2.527   0.409 -0.7215 -0.0672  0.1231
 4024TIP3    H112013   3.490   2.606   0.460 -0.0808  0.4606 -0.4581
 4024TIP3    H212014   3.422   2.483   0.404 -1.6278  1.7716 -1.5049
 4025TIP3   OH212015   6.287   6.062   0.565 -0.0545  0.2016 -0.3045
 4025TIP3    H112016   6.382   6.056   0.563 -0.0139  0.6049  0.3353
 4025TIP3    H212017   6.261   6.009   0.641 -0.4953 -1.7682 -1.7891
 4026TIP3   OH212018   5.739   4.241   2.431 -0.6306  0.2789  0.3281
 4026TIP3    H112019   5.691   4.188   2.495  2.4729 -2.0760  0.8130
 4026TIP3    H212020   5.765   4.319   2.480 -1.8973  0.4727  0.7182
 4027TIP3   OH212021   6.562   3.579   2.611 -0.1132 -0.2463 -0.6850
 4027TIP3    H112022   6.606   3.654   2.652 -1.3472 -0.3834  0.9829
 4027TIP3    H212023   6.510   3.617   2.540  1.8046  0.0480 -1.9479
 4028TIP3   OH212024   5.775   3.893   0.937 -0.3993 -0.1565  0.1334
 4028TIP3    H112025   5.800   3.847   1.017  0.6785  0.0838 -0.0504
 4028TIP3    H212026   5.753   3.982   0.966 -3.4040 -1.0105  0.6174
 4029TIP3   OH212027   6.628   3.432   2.353  0.6269  0.9804 -0.0225
 4029TIP3    H112028   6.551   3.457   2.301  0.5829  0.6283 -0.1253
 4029TIP3    H212029   6.599   3.437   2.444  0.1279 -0.3384 -0.1022
 4030TIP3   OH212030   4.207   0.860   1.149  0.3722  0.1688  0.2801
 4030TIP3    H112031   4.193   0.945   1.109  1.2494  0.4540  0.5766
 4030TIP3    H212032   4.119   0.822   1.157  0.1728  0.1907 -1.6902
 4031TIP3   OH212033   5.808   4.622   0.178  0.1233  0.5545  0.1836
 4031TIP3    H112034   5.839   4.712   0.185 -1.7877  1.1628  1.4996
 4031TIP3    H212035   5.722   4.623   0.221 -1.8044 -1.0048 -3.3823
 4032TIP3   OH212036   5.372   4.166   1.375  0.0737 -0.1069  0.2112
 4032TIP3    H112037   5.410   4.250   1.348  0.6329  0.1479  1.7165
 4032TIP3    H212038   5.405   4.153   1.464 -2.4030 -0.4760  1.1262
 4033TIP3   OH212039   3.141   1.531   0.893  0.6162 -0.3151 -0.0974
 4033TIP3    H112040   3.212   1.546   0.831  2.0155 -2.1250  1.0337
 4033TIP3    H212041   3.121   1.438   0.885 -1.1147  0.0149  0.1596
 4034TIP3   OH212042   6.634   3.879   2.932 -0.7564 -0.3891  0.5427
 4034TIP3    H112043   6.663   3.788   2.934  1.3704  0.1933 -1.4845
 4034TIP3    H212044   6.547   3.876   2.893  0.3859 -1.3434 -2.0468
 4035TIP3   OH212045   3.510   4.684   1.687 -0.6519  0.3098 -0.0618
 4035TIP3    H112046   3.562   4.605   1.669 -0.6029  0.3504 -0.0951
 4035TIP3    H212047   3.431   4.650   1.730  0.2132  0.3960  1.6632
 4036TIP3   OH212048   6.183   4.123   4.210 -0.4569 -0.0933 -1.2065
 4036TIP3    H112049   6.097   4.085   4.229 -0.5091  1.6693  2.4584
 4036TIP3    H212050   6.241   4.084   4.275  0.5922  2.0736 -0.8220
 4037TIP3   OH212051   7.707   4.174   2.103 -0.1243 -0.1713 -0.0011
 4037TIP3    H112052   7.648   4.213   2.038  1.2873  0.9484 -0.6468
 4037TIP3    H212053   7.679   4.212   2.187  0.2190  1.0284 -0.4198
 4038TIP3   OH212054   7.907   3.517   0.902 -0.4730  1.0195 -0.0933
 4038TIP3    H112055   7.908   3.491   0.810 -2.5557 -2.3942  0.7771
 4038TIP3    H212056   7.975   3.465   0.944 -1.2865  0.6296  0.7680
 4039TIP3   OH212057   6.519   4.353   1.161 -0.2830 -0.0256 -0.6002
 4039TIP3    H112058   6.471   4.387   1.085  2.7565  0.6073 -2.3360
 4039TIP3    H212059   6.529   4.429   1.218 -2.5391 -0.4912  0.4466
 4040TIP3   OH212060   7.980   3.392   2.780  0.1682  0.5331 -0.4081
 4040TIP3    H112061   8.049   3.432   2.728  1.6017  0.9361  1.7430
 4040TIP3    H212062   8.026   3.356   2.856 -1.6090 -1.7337 -0.3631
 4041TIP3   OH212063   1.103   3.860   0.722 -0.2854 -0.1617  0.4111
 4041TIP3    H112064   1.041   3.787   0.728 -1.5372  0.9187  0.5706
 4041TIP3    H212065   1.129   3.877   0.813 -0.4766  0.0162  0.4315
 4042TIP3   OH212066   7.739   5.345   3.279  0.1554  0.1566  0.0167
 4042TIP3    H112067   7.689   5.294   3.215 -2.2651  0.4098  1.6554
 4042TIP3    H212068   7.773   5.419   3.229 -0.9585 -0.1045 -1.1609
 4043TIP3   OH212069   5.598   2.342   1.437  0.1073 -0.0719  0.0560
 4043TIP3    H112070   5.622   2.255   1.470 -0.6268 -0.5133 -0.5629
 4043TIP3    H212071   5.677   2.395   1.450  0.9251 -1.1180 -0.5745
 4044TIP3   OH212072   8.517   2.447   0.689  0.2115  0.2067 -0.5074
 4044TIP3    H112073   8.436   2.440   0.739  0.4503  0.1725 -0.1270
 4044TIP3    H212074   8.490   2.485   0.605 -0.1583  0.4256 -0.2894
 4045TIP3   OH212075   1.234   3.138   1.448 -0.4687  0.1804  0.6577
 4045TIP3    H112076   1.199   3.218   1.409 -0.7545  0.2676  1.0829
 4045TIP3    H212077   1.298   3.169   1.512  2.1307 -0.0511 -1.7657
 4046TIP3   OH212078   8.289   2.998   2.674  0.1948  0.4339  0.5736
 4046TIP3    H112079   8.363   3.050   2.705 -0.9167  1.7757  1.0271
 4046TIP3    H212080   8.233   2.988   2.751 -0.6484  0.3871 -0.0429
 4047TIP3   OH212081   7.610   4.076   1.270 -0.0322 -0.2763 -0.5381
 4047TIP3    H112082   7.639   4.059   1.181  1.8762 -0.0681  0.0128
 4047TIP3    H212083   7.672   4.142   1.303 -0.9747 -0.0361  0.7840
 4048TIP3   OH212084   7.602   5.819   3.412 -0.3508 -0.0493 -0.0231
 4048TIP3    H112085   7.675   5.855   3.463 -1.3798  0.2652  1.2647
 4048TIP3    H212086   7.615   5.853   3.324  0.7802  0.4094  0.3098
 4049TIP3   OH212087   2.365   4.017   0.040  0.0535  0.0981  0.0369
 4049TIP3    H112088   2.383   3.965  -0.038  0.0274  0.6288 -0.3222
 4049TIP3    H212089   2.429   4.089   0.037 -0.3089  0.4316  0.2069
 4050TIP3   OH212090   0.466   2.300   1.524 -0.2044  0.3944  0.5252
 4050TIP3    H112091   0.436   2.343   1.604 -0.6665  0.7781  0.1405
 4050TIP3    H212092   0.534   2.358   1.489  0.3957 -0.0503  0.9342
 4051TIP3   OH212093   6.247   4.049   2.648 -0.1296 -0.2917  0.1189
 4051TIP3    H112094   6.330   4.096   2.643 -0.7211  1.1712  2.6689
 4051TIP3    H212095   6.264   3.976   2.708 -0.8397  0.4763  1.2907
 4052TIP3   OH212096   0.188   6.218   3.266  0.0536  0.0933 -0.0279
 4052TIP3    H112097   0.281   6.226   3.247  0.4600  0.2368  1.9371
 4052TIP3    H212098   0.183   6.213   3.362 -1.7483 -2.8124 -0.2271
 4053TIP3   OH212099   5.649   2.789   2.083  0.0530 -0.0100  0.6102
 4053TIP3    H112100   5.601   2.708   2.069 -0.0285  0.2935 -1.0349
 4053TIP3    H212101   5.585   2.848   2.124 -0.1573 -0.4941  0.9752
 4054TIP3   OH212102   7.132   4.698   3.256 -0.5284  0.8862 -0.2231
 4054TIP3    H112103   7.228   4.689   3.255 -0.6151 -0.1291 -1.6472
 4054TIP3    H212104   7.116   4.782   3.299  1.0531  1.5373 -0.8597
 4055TIP3   OH212105   8.540   2.730   1.261  0.5001 -0.2274  0.5381
 4055TIP3    H112106   8.593   2.713   1.339  1.3402  0.0677  0.0343
 4055TIP3    H212107   8.590   2.795   1.212  0.1135 -0.6213 -0.3859
 4056TIP3   OH212108   0.686   6.033   3.112  0.6314  0.9159  0.0629
 4056TIP3    H112109   0.670   5.939   3.120 -0.7050  1.2074  0.9808
 4056TIP3    H212110   0.749   6.041   3.041 -0.0498 -0.6106 -0.7377
 4057TIP3   OH212111   8.199   4.570   0.014  0.0926  0.4037  0.8796
 4057TIP3    H112112   8.260   4.618  -0.042 -0.8124  0.5325  0.0145
 4057TIP3    H212113   8.247   4.559   0.097  1.7911 -0.6170 -0.2076
 4058TIP3   OH212114   5.759   5.996   2.387  0.0941  0.1605  0.3162
 4058TIP3    H112115   5.752   5.912   2.341  1.0993  0.3758 -0.2520
 4058TIP3    H212116   5.797   5.974   2.472 -0.7953 -0.1059  0.6567
 4059TIP3   OH212117   6.937   3.641   0.485 -0.0551 -0.0163  0.1231
 4059TIP3    H112118   6.845   3.630   0.510 -0.1662 -0.6405 -0.5402
 4059TIP3    H212119   6.947   3.589   0.406  0.7880  0.3356 -0.0130
 4060TIP3   OH212120   0.380   4.643   2.150  0.2114 -0.5777  0.1237
 4060TIP3    H112121   0.435   4.602   2.217 -0.0861  0.9882  1.3374
 4060TIP3    H212122   0.294   4.605   2.164  0.0841 -0.0405  0.8279
 4061TIP3   OH212123   7.694   5.475   1.184 -0.2959  0.2126 -0.4963
 4061TIP3    H112124   7.670   5.463   1.092  2.1733 -0.2838 -1.1099
 4061TIP3    H212125   7.788   5.462   1.186 -0.1739  1.2120  1.9611
 4062TIP3   OH212126   7.904   2.948   3.643  0.3995  0.6186  0.4847
 4062TIP3    H112127   7.910   2.906   3.729  2.0165 -0.3615 -0.0853
 4062TIP3    H212128   7.980   2.915   3.595 -0.7339  0.8023 -1.4840
 4063TIP3   OH212129   2.345   4.174   3.157 -0.3992 -0.4631 -0.4157
 4063TIP3    H112130   2.346   4.083   3.126  0.9472  0.2456 -2.5577
 4063TIP3    H212131   2.422   4.214   3.116  0.3136  1.0633  2.3444
 4064TIP3   OH212132   8.368   1.558   0.386  0.5989  0.5012 -0.2543
 4064TIP3    H112133   8.379   1.468   0.358  0.5897 -0.0536  1.4795
 4064TIP3    H212134   8.453   1.583   0.422 -0.3422  0.0268  2.4443
 4065TIP3   OH212135   7.881   5.006   1.573 -0.4672  0.2485 -0.2725
 4065TIP3    H112136   7.862   4.999   1.667  0.4560  1.0110 -0.0182
 4065TIP3    H212137   7.955   4.947   1.559 -0.9663 -0.2866 -0.6283
 4066TIP3   OH212138   5.927   7.929   1.408 -0.1518  0.7510  0.3060
 4066TIP3    H112139   5.919   7.845   1.363  1.1798  0.9159 -0.2614
 4066TIP3    H212140   5.850   7.933   1.465  0.2180 -1.2282  0.9914
 4067TIP3   OH212141   1.381   3.755   3.729  0.3397 -0.0344  0.0368
 4067TIP3    H112142   1.430   3.677   3.702 -0.3281 -0.3603 -0.2503
 4067TIP3    H212143   1.421   3.781   3.812  1.2225 -0.0913 -0.3631
 4068TIP3   OH212144   0.344   2.704   0.658 -0.5879 -0.1004 -0.2379
 4068TIP3    H112145   0.308   2.627   0.613 -3.5514  2.0063 -1.5644
 4068TIP3    H212146   0.392   2.751   0.591  0.3370 -0.2271  0.3288
 4069TIP3   OH212147   8.213   2.015   1.099 -0.2124  0.0252  0.0891
 4069TIP3    H112148   8.302   2.027   1.132 -0.4740 -0.0610  0.8220
 4069TIP3    H212149   8.159   2.073   1.153 -0.5573  0.3641 -0.5969
 4070TIP3   OH212150   8.369   3.745   3.036 -0.2723 -0.0300 -0.3960
 4070TIP3    H112151   8.425   3.686   2.986 -0.6062 -0.4522 -0.2842
 4070TIP3    H212152   8.363   3.704   3.123 -1.1415 -0.2444 -0.5524
 4071TIP3   OH212153   0.370   2.719   3.027 -0.4250  0.0252 -0.8095
 4071TIP3    H112154   0.282   2.688   3.050 -0.3015 -0.8353 -1.5178
 4071TIP3    H212155   0.354   2.787   2.961 -0.4549 -1.5186 -2.4148
 4072TIP3   OH212156   6.867   3.533   1.843  0.5368  0.0174  0.0862
 4072TIP3    H112157   6.916   3.520   1.924 -1.2128 -1.3611  0.9716
 4072TIP3    H212158   6.867   3.447   1.802 -1.6837 -0.1891  0.4493
 4073TIP3   OH212159   7.843   4.588   0.723  0.2844 -0.7782 -0.4396
 4073TIP3    H112160   7.773   4.558   0.665 -0.6384 -0.9535  0.7449
 4073TIP3    H212161   7.884   4.508   0.756 -0.5163 -0.7273  0.7217
 4074TIP3   OH212162   7.932   4.172   3.651  0.3575 -0.3957  0.5788
 4074TIP3    H112163   7.959   4.263   3.640 -1.1894  0.0087 -0.0073
 4074TIP3    H212164   7.902   4.166   3.742 -0.6553 -0.0121  0.2747
 4075TIP3   OH212165   0.577   6.165   4.322  0.1171  0.1622  0.0468
 4075TIP3    H112166   0.486   6.188   4.343  0.3933  1.1394  0.2113
 4075TIP3    H212167   0.629   6.209   4.390  0.7915  0.6297 -0.7639
 4076TIP3   OH212168   6.995   5.047   1.624 -0.1095 -0.2624 -0.0380
 4076TIP3    H112169   7.082   5.073   1.594  0.9706 -1.3492  2.0489
 4076TIP3    H212170   6.973   5.112   1.691 -1.3733  0.6209 -1.2833
 4077TIP3   OH212171   7.422   6.377   1.574 -0.2039  0.1785  0.3197
 4077TIP3    H112172   7.486   6.444   1.600 -0.2743  0.4501 -0.2020
 4077TIP3    H212173   7.400   6.399   1.483 -0.3570 -0.4514  0.2041
 4078TIP3   OH212174   7.914   4.768   2.544 -0.3487 -0.6075  0.2410
 4078TIP3    H112175   7.854   4.778   2.471  3.2412 -1.0479 -2.9259
 4078TIP3    H212176   7.949   4.856   2.559 -0.5426 -0.6510  0.9831
 4079TIP3   OH212177   1.056   6.426   2.508  0.1149 -0.0816  0.1977
 4079TIP3    H112178   1.029   6.492   2.572 -0.0579 -0.1113  0.1567
 4079TIP3    H212179   1.047   6.470   2.423 -1.7868 -0.7387  0.0283
 4080TIP3   OH212180   6.555   4.307   2.930 -0.1056 -0.0013 -0.4991
 4080TIP3    H112181   6.507   4.227   2.906  1.2231 -1.0833  0.3349
 4080TIP3    H212182   6.503   4.344   3.001  0.4889 -1.4167  0.7152
 4081TIP3   OH212183   7.265   5.397   0.404 -0.4587 -0.2564 -0.5702
 4081TIP3    H112184   7.276   5.318   0.457 -1.2652  0.8916  1.3468
 4081TIP3    H212185   7.346   5.402   0.352  1.2575 -0.3717  1.9746
 4082TIP3   OH212186   8.585   5.387   1.600  0.2239 -0.2932 -0.5163
 4082TIP3    H112187   8.568   5.302   1.560 -0.0342 -0.1986 -0.6094
 4082TIP3    H212188   8.619   5.367   1.687 -0.0652 -0.4891 -0.4482
 4083TIP3   OH212189   8.153   3.798   1.733 -0.2803  0.0699 -0.2922
 4083TIP3    H112190   8.067   3.801   1.774  0.0043 -0.8382  0.3962
 4083TIP3    H212191   8.146   3.730   1.665  0.4609 -1.4813  1.1437
 4084TIP3   OH212192   6.789   3.843   2.474 -0.5187 -0.0188  0.1277
 4084TIP3    H112193   6.818   3.903   2.543 -3.7404  0.8375  0.8462
 4084TIP3    H212194   6.739   3.899   2.414 -0.1614 -1.2780 -1.3504
 4085TIP3   OH212195   0.672   3.076   2.684 -0.0120  0.0048 -0.2931
 4085TIP3    H112196   0.662   2.985   2.710 -0.4840  0.2827  0.5434
 4085TIP3    H212197   0.582   3.106   2.666 -0.0477  0.7567  1.0553
 4086TIP3   OH212198   8.461   2.821   2.178 -0.2071  0.0296  0.7040
 4086TIP3    H112199   8.408   2.845   2.102 -1.5493  2.1120  2.2552
 4086TIP3    H212200   8.544   2.866   2.165  0.4579 -1.5508 -0.6875
 4087TIP3   OH212201   6.294   3.085   3.213  0.4250  0.0799 -0.1363
 4087TIP3    H112202   6.324   3.145   3.282 -3.0567  2.2546 -0.4054
 4087TIP3    H212203   6.242   3.019   3.260 -0.2461  0.3817 -0.4542
 4088TIP3   OH212204   1.569   4.931   2.102 -0.0390  0.8933 -0.2931
 4088TIP3    H112205   1.529   4.868   2.042  1.7730  0.6734 -1.2947
 4088TIP3    H212206   1.663   4.921   2.089  0.3395  2.1904  1.2185
 4089TIP3   OH212207   0.650   1.569   2.431 -0.5449 -0.0077 -0.5207
 4089TIP3    H112208   0.598   1.489   2.444 -0.1445 -0.3327 -0.8967
 4089TIP3    H212209   0.655   1.608   2.518  2.3094 -2.3010  0.4450
 4090TIP3   OH212210   4.002   1.073   6.690 -0.0064 -0.2905  0.1531
 4090TIP3    H112211   4.016   1.167   6.696 -2.9115  0.3269 -1.4810
 4090TIP3    H212212   4.050   1.046   6.612 -1.2672  0.3365 -0.8606
 4091TIP3   OH212213   6.006   3.528   1.497 -0.1648 -0.5954 -0.1862
 4091TIP3    H112214   5.989   3.621   1.505  1.0539 -0.2966 -0.9438
 4091TIP3    H212215   5.966   3.502   1.414  1.3192 -0.2917 -1.0178
 4092TIP3   OH212216   6.452   4.596   2.002  0.5360 -0.3927  0.5089
 4092TIP3    H112217   6.497   4.631   2.080  1.4752  0.9025 -0.5907
 4092TIP3    H212218   6.413   4.673   1.961  1.1163 -0.8872 -0.9963
 4093TIP3   OH212219   0.576   2.281   0.524 -0.2245 -0.2626 -0.4186
 4093TIP3    H112220   0.546   2.325   0.604 -2.1592 -0.2160 -1.1308
 4093TIP3    H212221   0.618   2.350   0.472 -0.3641  0.0424 -0.1258
 4094TIP3   OH212222   0.166   1.624   2.548 -0.2974  0.4413 -0.2425
 4094TIP3    H112223   0.237   1.662   2.496  0.7820 -0.5167  0.5195
 4094TIP3    H212224   0.152   1.687   2.618 -0.0993  0.5519 -0.3028
 4095TIP3   OH212225   1.199   2.843   1.902  0.1477 -0.4864 -0.0402
 4095TIP3    H112226   1.231   2.762   1.862 -0.5576 -0.1660 -1.2930
 4095TIP3    H212227   1.176   2.898   1.827  0.3892  0.7724  0.8140
 4096TIP3   OH212228   0.244   5.859   2.316 -0.2981 -0.0057 -0.6895
 4096TIP3    H112229   0.230   5.935   2.260  0.8136 -0.0724 -1.0800
 4096TIP3    H212230   0.308   5.806   2.268  2.0712  0.8130  1.4213
 4097TIP3   OH212231   7.321   3.622   1.296 -0.0587  0.1127 -0.0338
 4097TIP3    H112232   7.266   3.610   1.373 -0.6245 -0.1542 -0.4817
 4097TIP3    H212233   7.373   3.701   1.316 -0.6341  0.3934  0.3616
 4098TIP3   OH212234   8.162   3.796   3.707  0.2090  0.0954 -0.0505
 4098TIP3    H112235   8.101   3.723   3.703  0.3057  0.0991 -2.1335
 4098TIP3    H212236   8.159   3.824   3.799 -1.9906 -0.6658  0.1542
 4099TIP3   OH212237   6.831   4.830   0.358 -0.5314 -0.1901 -0.2373
 4099TIP3    H112238   6.810   4.807   0.268  0.1989 -1.5650 -0.0621
 4099TIP3    H212239   6.926   4.831   0.362 -0.5441  1.4236  0.1379
 4100TIP3   OH212240   0.686   2.708   2.352  0.2159 -0.4444  0.1762
 4100TIP3    H112241   0.689   2.779   2.288  2.4797 -2.2577 -1.8446
 4100TIP3    H212242   0.758   2.727   2.412 -1.1372  0.5975  1.5003
 4101TIP3   OH212243   0.901   4.531   2.129  0.4337  0.4704  0.0726
 4101TIP3    H112244   0.929   4.543   2.038  0.8093 -0.3723  0.0646
 4101TIP3    H212245   0.900   4.619   2.166  0.6407  0.7820 -0.6456
 4102TIP3   OH212246   7.193   2.281   1.090 -0.1374 -0.0493  0.3812
 4102TIP3    H112247   7.200   2.276   0.995 -0.5217  0.3294  0.3307
 4102TIP3    H212248   7.211   2.193   1.121  2.3583  0.3324  0.1110
 4103TIP3   OH212249   3.518   1.858   2.343  0.5973 -0.4961 -0.4977
 4103TIP3    H112250   3.489   1.924   2.280  0.0119 -0.0995  0.1926
 4103TIP3    H212251   3.494   1.774   2.302 -0.7268 -0.2057 -0.3485
 4104TIP3   OH212252   0.430   3.091   1.802  0.2322 -0.6270  0.0289
 4104TIP3    H112253   0.356   3.149   1.820  1.8760  1.3144  0.7380
 4104TIP3    H212254   0.417   3.063   1.711 -0.4431  1.1158 -0.4327
 4105TIP3   OH212255   6.806   4.058   0.092  0.2174  0.7115 -0.5164
 4105TIP3    H112256   6.731   4.113   0.117 -1.3536 -1.7415  0.3330
 4105TIP3    H212257   6.856   4.046   0.172  1.5774  2.3617 -1.0872
 4106TIP3   OH212258   7.328   4.660   2.252 -0.1402 -0.4372  0.6704
 4106TIP3    H112259   7.369   4.613   2.180 -1.3741  1.0809 -1.0664
 4106TIP3    H212260   7.386   4.734   2.269 -0.7279  0.1612  0.0808
 4107TIP3   OH212261   2.161   2.242   1.715  0.5709  0.2476  0.2261
 4107TIP3    H112262   2.114   2.308   1.663  0.9046  0.3682  0.0804
 4107TIP3    H212263   2.197   2.182   1.650 -1.9409 -1.5692  0.4525
 4108TIP3   OH212264   2.049   3.270   1.451  0.4121  0.2527  0.0793
 4108TIP3    H112265   2.006   3.260   1.365 -2.1559 -1.5492  1.5079
 4108TIP3    H212266   1.998   3.337   1.495  0.2213 -0.5351  1.0790
 4109TIP3   OH212267   8.491   3.070   1.327  0.4279  0.7341 -0.2108
 4109TIP3    H112268   8.450   3.148   1.363  0.5729  1.1070 -0.8247
 4109TIP3    H212269   8.428   3.037   1.262  0.8664  1.0233 -0.7955
 4110TIP3   OH212270   0.309   2.771   2.607  0.1899  0.2315  0.1880
 4110TIP3    H112271   0.238   2.824   2.572  0.8375  0.4050 -0.8709
 4110TIP3    H212272   0.357   2.830   2.665 -1.1043 -0.1603  1.6970
 4111TIP3   OH212273   4.240   1.535   6.534  0.1449  0.5327  0.0015
 4111TIP3    H112274   4.266   1.455   6.489 -1.4802 -0.4423  0.7232
 4111TIP3    H212275   4.166   1.508   6.590  1.7256  1.8030  2.8071
 4112TIP3   OH212276   8.357   4.802   1.988 -0.6608  0.1746  0.2959
 4112TIP3    H112277   8.369   4.897   1.989  1.8323 -0.0721 -1.0570
 4112TIP3    H212278   8.368   4.775   2.079  1.8112  0.8916  0.2564
 4113TIP3   OH212279   8.134   2.993   2.041  0.0665  0.2120  0.2263
 4113TIP3    H112280   8.112   2.954   2.125 -4.3343 -1.1670 -1.4512
 4113TIP3    H212281   8.200   2.935   2.004 -0.9919 -1.4983  0.9780
 4114TIP3   OH212282   7.171   4.742   0.482  0.0301  0.1246  0.1999
 4114TIP3    H112283   7.255   4.735   0.437 -0.7457 -1.4615 -1.0533
 4114TIP3    H212284   7.118   4.799   0.427 -0.5901 -1.0129 -0.3879
 4115TIP3   OH212285   1.294   2.986   2.331  0.1971 -0.5355 -0.0970
 4115TIP3    H112286   1.379   2.999   2.291 -0.7862  0.9418 -1.7608
 4115TIP3    H212287   1.296   3.039   2.411 -0.0458  1.5376 -1.4448
 4116TIP3   OH212288   2.842   5.022   2.472 -0.9276  0.3171  0.5895
 4116TIP3    H112289   2.914   5.016   2.409 -1.1537 -0.7133  0.4154
 4116TIP3    H212290   2.847   4.940   2.522 -3.0204 -0.5488 -0.5616
 4117TIP3   OH212291   7.071   4.811   1.875  0.6070  0.5076  0.3052
 4117TIP3    H112292   7.028   4.731   1.907 -0.2444  1.3848  1.3698
 4117TIP3    H212293   7.000   4.864   1.840  1.2472  0.5665 -0.9366
 4118TIP3   OH212294   5.578   2.422   0.930  0.3241 -0.0469  0.2389
 4118TIP3    H112295   5.648   2.477   0.895  0.7204  0.3712  1.6654
 4118TIP3    H212296   5.514   2.417   0.859  1.1597  0.6945 -0.5826
 4119TIP3   OH212297   7.028   5.515   1.278  0.2022  0.1050 -0.0326
 4119TIP3    H112298   7.101   5.535   1.219 -0.1758 -0.4324 -0.6866
 4119TIP3    H212299   6.950   5.542   1.231 -0.0891 -0.0869  0.3323
 4120TIP3   OH212300   7.492   4.289   0.740 -0.2626  0.2189 -0.0691
 4120TIP3    H112301   7.561   4.286   0.807  0.3261  1.1244 -0.6281
 4120TIP3    H212302   7.507   4.210   0.687  0.7977  0.7753 -0.6200
 4121TIP3   OH212303   7.224   4.190   0.899 -0.0187 -0.2423  0.0626
 4121TIP3    H112304   7.201   4.253   0.967 -1.6119 -1.7958  1.0451
 4121TIP3    H212305   7.315   4.209   0.877 -0.7893  3.0726 -0.4615
 4122TIP3   OH212306   7.701   5.129   2.007 -0.4529 -0.2832  0.3902
 4122TIP3    H112307   7.687   5.168   2.093 -0.5644  0.7887 -0.1042
 4122TIP3    H212308   7.790   5.094   2.010 -0.4378 -0.1882  0.9208
 4123TIP3   OH212309   7.483   5.254   1.678  0.1987 -0.3486 -0.3732
 4123TIP3    H112310   7.484   5.344   1.646 -0.4723 -0.4348 -0.6293
 4123TIP3    H212311   7.572   5.222   1.661  1.6054  1.4694  3.1632
 4124TIP3   OH212312   6.351   2.965   1.589  0.0349 -0.0362  0.5348
 4124TIP3    H112313   6.423   2.944   1.530  0.3772 -1.5596  1.4687
 4124TIP3    H212314   6.393   3.001   1.667 -0.2334 -0.6100  0.9460
 4125TIP3   OH212315   5.367   4.554   2.854 -0.5397 -0.3180 -0.4261
 4125TIP3    H112316   5.430   4.615   2.894 -0.4074 -1.3898  1.0564
 4125TIP3    H212317   5.419   4.503   2.792  0.0811 -1.1913  0.7842
 4126TIP3   OH212318   8.306   7.786   0.549  0.1241 -0.0715  0.2061
 4126TIP3    H112319   8.347   7.718   0.496 -0.1205  0.6908 -0.9623
 4126TIP3    H212320   8.380   7.829   0.594  0.2252 -1.4892  1.4237
 4127TIP3   OH212321   7.338   2.825   6.926 -0.0375  0.1564  0.6398
 4127TIP3    H112322   7.290   2.751   6.890  2.0241  0.3919 -2.7430
 4127TIP3    H212323   7.324   2.896   6.863  2.4024  1.0522  1.0429
 4128TIP3   OH212324   7.620   4.850   1.923  0.1561 -0.0556 -0.2770
 4128TIP3    H112325   7.615   4.937   1.962  0.5831 -0.0926 -0.1337
 4128TIP3    H212326   7.530   4.817   1.925  0.3954 -0.6293  1.9839
 4129TIP3   OH212327   1.087   2.865   2.928 -0.2287  0.3234 -0.5772
 4129TIP3    H112328   1.096   2.773   2.903 -0.3796  0.5515 -1.4807
 4129TIP3    H212329   1.001   2.870   2.969  0.5158 -0.2914  1.0822
 4130TIP3   OH212330   0.325   2.056   0.174  1.0274 -0.8051  0.3466
 4130TIP3    H112331   0.408   2.100   0.158  0.6865 -0.7938 -1.5945
 4130TIP3    H212332   0.267   2.125   0.207  1.1899 -0.3438 -0.3300
 4131TIP3   OH212333   7.154   4.473   4.755  0.0657 -0.4870 -0.4358
 4131TIP3    H112334   7.187   4.407   4.694 -0.3847 -0.6992 -0.4555
 4131TIP3    H212335   7.229   4.494   4.811  1.5167  2.2570 -3.2380
 4132TIP3   OH212336   3.028   6.649   5.824 -0.3101 -0.5289 -0.2843
 4132TIP3    H112337   3.041   6.675   5.915  0.4761 -2.0890  0.0647
 4132TIP3    H212338   3.021   6.731   5.776  0.6537  0.3115  0.9904
 4133TIP3   OH212339   8.200   5.461   1.174 -0.4857  0.3038  0.3874
 4133TIP3    H112340   8.225   5.457   1.081 -0.6048  1.7870  0.2762
 4133TIP3    H212341   8.141   5.536   1.179 -0.3089  0.3580  1.7064
 4134TIP3   OH212342   8.420   4.410   1.267  0.1897  0.3742  0.6804
 4134TIP3    H112343   8.460   4.349   1.329 -0.1403 -1.2328 -0.6706
 4134TIP3    H212344   8.325   4.399   1.280  0.1344  1.2510  1.0539
 4135TIP3   OH212345   5.861   2.772   1.902  0.7656  0.0488  0.0818
 4135TIP3    H112346   5.924   2.839   1.928  2.8731 -2.3454  1.3343
 4135TIP3    H212347   5.796   2.772   1.972 -0.7974  2.5680 -1.2482
 4136TIP3   OH212348   3.477   1.332   6.664 -0.3701 -0.2474 -0.3147
 4136TIP3    H112349   3.460   1.425   6.651  1.1106 -0.4348 -4.3204
 4136TIP3    H212350   3.393   1.289   6.650 -0.9909  0.4056  1.2508
 4137TIP3   OH212351   6.747   2.832   2.046 -0.6736 -0.4969  0.2697
 4137TIP3    H112352   6.702   2.789   1.973 -0.7853 -2.9618  1.7105
 4137TIP3    H212353   6.786   2.759   2.096 -1.6394  1.0014  3.3292
 4138TIP3   OH212354   5.214   2.292   0.339 -0.5602 -0.0131  0.8990
 4138TIP3    H112355   5.241   2.243   0.262  0.6603  0.5774  0.9420
 4138TIP3    H212356   5.259   2.376   0.332  0.6009 -0.4251  2.8901
 4139TIP3   OH212357   7.119   4.227   0.644  0.2239 -0.1655  0.5765
 4139TIP3    H112358   7.173   4.202   0.719  0.9625 -1.5479 -0.3980
 4139TIP3    H212359   7.127   4.323   0.639  1.4952 -0.2261  1.2600
 4140TIP3   OH212360   8.326   2.882   0.884 -0.2519 -0.4304 -0.3424
 4140TIP3    H112361   8.319   2.929   0.801  0.1573 -2.2611 -1.4383
 4140TIP3    H212362   8.280   2.799   0.869  0.4108 -1.0633  1.0193
 4141TIP3   OH212363   7.063   4.772   2.593 -0.1681 -0.6347  0.0153
 4141TIP3    H112364   7.114   4.774   2.674  0.1807  1.9775 -0.2346
 4141TIP3    H212365   6.977   4.805   2.618 -0.7615 -1.9510 -0.2415
 4142TIP3   OH212366   6.176   4.882   1.550  0.1762  0.0151  0.2822
 4142TIP3    H112367   6.173   4.935   1.629 -0.2990 -0.0904  0.3341
 4142TIP3    H212368   6.205   4.943   1.481  1.5309 -0.1177  0.7140
 4143TIP3   OH212369   7.302   3.881   2.011 -0.2388 -0.0598 -0.4620
 4143TIP3    H112370   7.382   3.929   2.032  0.0875 -1.0912  0.7413
 4143TIP3    H212371   7.239   3.909   2.077 -0.5042 -0.1665 -0.6680
 4144TIP3   OH212372   6.530   3.467   3.140 -0.4280  0.3507  0.2507
 4144TIP3    H112373   6.609   3.488   3.191 -0.3732  0.7033  0.0230
 4144TIP3    H212374   6.563   3.425   3.061 -0.5423 -0.6322  0.7219
 4145TIP3   OH212375   0.922   3.208   1.966  0.0683 -0.4788  0.0808
 4145TIP3    H112376   0.950   3.141   2.028 -0.2758  0.7345  1.5846
 4145TIP3    H212377   0.828   3.193   1.956 -0.0292 -0.1615  0.5029
 4146TIP3   OH212378   8.467   3.755   0.388 -0.1515 -0.0146 -0.6727
 4146TIP3    H112379   8.500   3.676   0.429  0.1904  0.2196 -0.4965
 4146TIP3    H212380   8.372   3.752   0.402 -0.3770 -1.3844 -2.3877
 4147TIP3   OH212381   7.628   2.650   0.782  0.3107  0.2663 -0.3800
 4147TIP3    H112382   7.646   2.650   0.876 -1.4336  1.4978 -0.0173
 4147TIP3    H212383   7.557   2.587   0.771 -3.5808  4.2989  0.0565
 4148TIP3   OH212384   0.074   2.189   0.342  0.4789 -0.1609  0.5668
 4148TIP3    H112385   0.153   2.165   0.390  0.9807  0.9459  0.3055
 4148TIP3    H212386   0.020   2.110   0.343  0.3380 -0.0915  3.2014
 4149TIP3   OH212387   7.327   2.962   1.761 -0.9008 -0.0376 -0.2777
 4149TIP3    H112388   7.332   3.005   1.676  0.1785 -0.4948 -0.4472
 4149TIP3    H212389   7.266   3.016   1.812 -1.4949  0.2787 -1.3104
 4150TIP3   OH212390   7.446   5.007   2.749 -0.2501 -0.3778 -0.2698
 4150TIP3    H112391   7.468   5.068   2.819 -0.6400 -1.0734  0.4627
 4150TIP3    H212392   7.376   5.051   2.700 -1.3763 -0.7482  0.9799
 4151TIP3   OH212393   0.011   5.809   3.325  0.1866  0.4300 -0.1879
 4151TIP3    H112394  -0.014   5.859   3.403  0.8529  0.1125  0.2359
 4151TIP3    H212395   0.046   5.875   3.264  0.2200  0.5990  0.0149
 4152TIP3   OH212396   4.681   5.161   0.182  0.0358 -0.5763 -0.2327
 4152TIP3    H112397   4.733   5.114   0.248  0.0597  0.8840  0.8140
 4152TIP3    H212398   4.595   5.120   0.186  0.1162 -0.6794  0.5077
 4153TIP3   OH212399   0.120   4.032   0.639 -0.0602  0.0980 -0.4909
 4153TIP3    H112400   0.054   4.042   0.572  0.6326 -0.9817 -1.3503
 4153TIP3    H212401   0.200   4.069   0.601  0.2040 -0.0096 -0.0537
 4154TIP3   OH212402   2.291   5.688   4.732  0.1776  0.1544 -0.2305
 4154TIP3    H112403   2.345   5.615   4.762 -0.1637 -0.4051 -0.9521
 4154TIP3    H212404   2.278   5.742   4.810  0.4211 -0.5588  0.3135
 4155TIP3   OH212405   5.468   3.287   0.585  0.0181  0.1983  0.2627
 4155TIP3    H112406   5.445   3.371   0.624 -1.2278 -0.4119  0.8645
 4155TIP3    H212407   5.390   3.261   0.536  0.5772 -0.3608 -0.3443
 4156TIP3   OH212408   6.689   4.721   3.448  0.0708  0.3422  0.5162
 4156TIP3    H112409   6.669   4.654   3.512  0.6884  0.0513  0.4128
 4156TIP3    H212410   6.622   4.711   3.380  0.4996 -0.5566  0.2136
 4157TIP3   OH212411   8.521   2.470   2.789  0.3199  0.3979  0.1092
 4157TIP3    H112412   8.582   2.467   2.716 -1.3771 -0.7676 -1.3058
 4157TIP3    H212413   8.453   2.532   2.762 -1.0336 -1.0562  0.0831
 4158TIP3   OH212414   7.992   5.875   0.406 -0.2598  0.2355  0.2209
 4158TIP3    H112415   7.965   5.967   0.407 -0.4339  0.1879  0.0674
 4158TIP3    H212416   8.069   5.871   0.462 -0.5708  0.3806  0.6639
 4159TIP3   OH212417   8.394   5.060   2.856  0.0454 -0.3484 -0.1805
 4159TIP3    H112418   8.478   5.096   2.885  0.2491 -1.0925  0.1585
 4159TIP3    H212419   8.417   4.994   2.791 -0.3276  0.0596 -0.7442
 4160TIP3   OH212420   6.694   4.356   2.706  0.5531 -0.2426 -0.5035
 4160TIP3    H112421   6.758   4.414   2.747  0.7559 -0.7310 -0.1279
 4160TIP3    H212422   6.629   4.340   2.775  1.0947 -1.3698 -0.2582
 4161TIP3   OH212423   7.622   2.896   2.139 -0.3593 -0.1938  0.4676
 4161TIP3    H112424   7.533   2.895   2.104 -1.0311 -1.6204  2.1426
 4161TIP3    H212425   7.611   2.900   2.234  1.3242 -2.1231  0.7952
 4162TIP3   OH212426   1.727   5.943   6.270 -0.0619  0.4130 -0.3150
 4162TIP3    H112427   1.806   5.927   6.218 -0.1674 -0.0590 -0.3334
 4162TIP3    H212428   1.759   5.968   6.356  0.1118  0.9265 -0.5232
 4163TIP3   OH212429   1.401   4.042   2.702  0.4392  0.4077  0.6721
 4163TIP3    H112430   1.415   3.993   2.783 -1.2054 -0.0553  0.6977
 4163TIP3    H212431   1.450   3.993   2.636 -0.4195 -0.7669  0.8841
 4164TIP3   OH212432   7.860   4.238   2.775  0.6790 -0.2466  0.2002
 4164TIP3    H112433   7.775   4.217   2.737  0.5336 -0.5063  0.6558
 4164TIP3    H212434   7.866   4.334   2.771 -0.3367 -0.1052  1.6288
 4165TIP3   OH212435   0.791   4.224   2.869 -0.1431 -0.2712  0.0460
 4165TIP3    H112436   0.808   4.137   2.835 -0.6252 -0.1772 -0.4352
 4165TIP3    H212437   0.844   4.229   2.949  0.7108 -0.6206 -0.4826
 4166TIP3   OH212438   1.164   4.659   2.489 -0.0673 -0.4708  0.3294
 4166TIP3    H112439   1.109   4.631   2.562 -1.9687 -1.7172 -1.5242
 4166TIP3    H212440   1.226   4.587   2.478  0.6599  0.0164  1.0932
 4167TIP3   OH212441   8.482   4.396   2.740 -0.2622  0.2641  0.4178
 4167TIP3    H112442   8.509   4.452   2.812  0.1909  0.0009  0.4543
 4167TIP3    H212443   8.553   4.403   2.676 -0.2916 -0.1168  0.3421
 4168TIP3   OH212444   7.776   4.018   0.683 -0.1314 -0.2581 -0.0229
 4168TIP3    H112445   7.720   3.968   0.624 -0.4277  1.3886 -1.1575
 4168TIP3    H212446   7.823   3.951   0.733  0.5161 -1.7167 -2.4689
 4169TIP3   OH212447   7.790   4.278   3.191 -0.0615  0.0756 -0.6646
 4169TIP3    H112448   7.846   4.220   3.140  0.7562  2.1978 -2.2483
 4169TIP3    H212449   7.715   4.297   3.134 -1.0163 -0.5107  0.3700
 4170TIP3   OH212450   0.037   2.243   3.404 -0.1294  0.1186  0.1265
 4170TIP3    H112451  -0.033   2.229   3.467  0.5854  0.5268  1.0218
 4170TIP3    H212452   0.018   2.329   3.367 -0.2538  0.1099  0.1682
 4171TIP3   OH212453   8.326   3.096   2.422  0.3222  0.2700  0.0623
 4171TIP3    H112454   8.305   3.054   2.506  1.6881 -3.9858 -1.5956
 4171TIP3    H212455   8.241   3.126   2.389 -0.6870 -0.8286  1.5694
 4172TIP3   OH212456   0.650   3.514   2.280 -0.2508  0.1366 -0.4855
 4172TIP3    H112457   0.601   3.436   2.307  0.0671  0.3532  0.7277
 4172TIP3    H212458   0.702   3.485   2.206 -1.1064 -0.4744 -0.8612
 4173TIP3   OH212459  -0.003   5.051   4.136  0.4394  0.0057 -0.0253
 4173TIP3    H112460   0.080   5.009   4.114  0.8601  0.2938  0.9848
 4173TIP3    H212461   0.006   5.141   4.105  0.7508  0.2119  0.6647
 4174TIP3   OH212462   7.358   5.266   2.946 -0.2625 -0.4919 -0.0406
 4174TIP3    H112463   7.372   5.252   3.039  0.2867 -1.6317 -0.2846
 4174TIP3    H212464   7.356   5.361   2.936  1.4049 -0.3529  0.8724
 4175TIP3   OH212465   0.161   4.092   4.182 -0.7113 -0.2387  0.0801
 4175TIP3    H112466   0.203   4.158   4.236 -0.3874 -1.5358  1.4308
 4175TIP3    H212467   0.069   4.095   4.207 -0.6308 -0.5569  0.4200
 4176TIP3   OH212468   7.860   3.892   2.797  0.0681  0.4767  0.4336
 4176TIP3    H112469   7.900   3.960   2.743 -3.0118  1.7159 -0.4091
 4176TIP3    H212470   7.908   3.812   2.775  0.9526  1.5752 -1.7451
 4177TIP3   OH212471   0.714   6.443   6.334  0.1343  0.0031  0.7623
 4177TIP3    H112472   0.679   6.354   6.333  0.1408  0.0112 -0.3799
 4177TIP3    H212473   0.795   6.437   6.284 -0.1167  0.7516  0.2586
 4178TIP3   OH212474   6.373   4.808   3.494  0.2839  0.3448  0.2841
 4178TIP3    H112475   6.416   4.885   3.456  0.9293 -0.2151 -0.1332
 4178TIP3    H212476   6.280   4.818   3.470  0.2554  1.3310  0.8105
 4179TIP3   OH212477   7.545   4.508   2.077 -0.0985  0.1789 -0.1540
 4179TIP3    H112478   7.621   4.542   2.030 -0.4021 -0.9413 -1.5047
 4179TIP3    H212479   7.580   4.475   2.159  0.3375  2.8136  0.7777
 4180TIP3   OH212480   6.265   5.957   3.164 -0.0572 -0.1877 -0.5299
 4180TIP3    H112481   6.235   5.866   3.157  1.3686 -0.5743 -1.7931
 4180TIP3    H212482   6.250   5.994   3.077  1.0777  0.2546 -0.5365
 4181TIP3   OH212483   8.164   3.036   0.132  0.0337  0.5504  0.6106
 4181TIP3    H112484   8.109   3.035   0.210 -0.4769 -0.2884  0.2568
 4181TIP3    H212485   8.200   2.947   0.128 -0.9721  0.1981 -0.8159
 4182TIP3   OH212486   0.583   1.740   0.554  0.1985  0.8081 -0.4566
 4182TIP3    H112487   0.568   1.757   0.461  2.3711 -0.0457 -0.9936
 4182TIP3    H212488   0.556   1.821   0.598 -4.0359  0.0376 -1.4516
 4183TIP3   OH212489   7.320   5.372   2.413  0.2165  0.3657 -0.7432
 4183TIP3    H112490   7.299   5.464   2.432  0.9292  0.1448  1.1998
 4183TIP3    H212491   7.359   5.339   2.494  1.3244 -1.2512 -1.9039
 4184TIP3   OH212492   1.333   4.979   2.248  0.4745 -0.4279 -0.1329
 4184TIP3    H112493   1.285   4.898   2.230  1.0825 -0.3415 -2.2895
 4184TIP3    H212494   1.413   4.971   2.197  1.8117  0.3540  1.7828
 4185TIP3   OH212495   0.150   4.118   2.425  0.2219 -0.0404  0.6199
 4185TIP3    H112496   0.169   4.153   2.338  0.8294 -0.6090  0.5212
 4185TIP3    H212497   0.068   4.160   2.450  1.7305  2.6612  1.1810
 4186TIP3   OH212498   5.244   4.486   0.657 -0.1868 -0.4834  0.0700
 4186TIP3    H112499   5.256   4.549   0.586 -1.8293 -0.6012 -0.3441
 4186TIP3    H212500   5.328   4.484   0.702 -0.6653  3.4006  1.2662
 4187TIP3   OH212501   1.983   3.991   2.769  0.3420 -0.1040  0.5898
 4187TIP3    H112502   2.027   3.927   2.825  0.2502 -0.1573  0.6000
 4187TIP3    H212503   1.893   3.992   2.799  0.1266 -0.6712 -0.0348
 4188TIP3   OH212504   6.887   3.411   2.186  0.4671  0.0266  0.0412
 4188TIP3    H112505   6.803   3.377   2.155 -0.8350  2.9399  0.2246
 4188TIP3    H212506   6.890   3.387   2.278 -1.2090  1.8046  0.5866
 4189TIP3   OH212507   0.643   2.588   2.039 -0.3728  0.2633  0.0500
 4189TIP3    H112508   0.547   2.591   2.046 -0.3766  0.4499 -0.0733
 4189TIP3    H212509   0.671   2.675   2.069 -0.2615  0.3249 -0.2337
 4190TIP3   OH212510   1.369   1.611   4.029 -0.0956 -0.0996 -0.6216
 4190TIP3    H112511   1.297   1.655   3.984  0.6253  3.2364  1.3121
 4190TIP3    H212512   1.328   1.570   4.105 -0.2697  0.0643 -0.6274
 4191TIP3   OH212513   8.221   3.797   2.266  0.0288 -0.2511  0.2011
 4191TIP3    H112514   8.302   3.790   2.215  0.0973 -0.7709  0.3755
 4191TIP3    H212515   8.209   3.710   2.303  0.1460  0.2089  1.3259
 4192TIP3   OH212516   7.784   4.829   4.434 -0.2492  0.0221  0.0218
 4192TIP3    H112517   7.744   4.791   4.356 -1.1108 -0.0922  0.5018
 4192TIP3    H212518   7.783   4.923   4.418  1.2477 -0.1004 -0.8723
 4193TIP3   OH212519   3.025   7.554   5.713 -0.3963  0.4206  0.3422
 4193TIP3    H112520   3.045   7.642   5.746  2.3429  0.5442 -1.4571
 4193TIP3    H212521   3.067   7.495   5.775 -1.7348  0.3507  1.2189
 4194TIP3   OH212522   7.565   3.989   2.465 -0.5873 -0.3369  0.3775
 4194TIP3    H112523   7.510   3.999   2.387  3.6381  0.1280 -2.6898
 4194TIP3    H212524   7.553   3.897   2.490 -0.8449 -0.9102 -1.7522
 4195TIP3   OH212525   8.502   3.240   1.024  0.3780  0.2108 -0.4159
 4195TIP3    H112526   8.440   3.274   1.089  1.1100  0.7872 -0.0162
 4195TIP3    H212527   8.503   3.146   1.037  0.0177  0.2594 -0.0428
 4196TIP3   OH212528   7.264   3.052   1.484  0.4996  0.2202  0.0852
 4196TIP3    H112529   7.264   3.139   1.525  1.0044  0.2691 -0.0202
 4196TIP3    H212530   7.215   3.065   1.403 -1.9503 -0.2504  1.4504
 4197TIP3   OH212531   7.336   4.016   2.300 -0.4141 -0.1071  0.0134
 4197TIP3    H112532   7.259   3.959   2.297  0.2292 -0.9273 -1.1391
 4197TIP3    H212533   7.311   4.091   2.245 -0.4956 -0.2513 -0.1493
 4198TIP3   OH212534   7.608   5.927   3.161 -0.3493  0.3004  0.0629
 4198TIP3    H112535   7.606   6.021   3.173 -0.3013  0.4176 -0.7962
 4198TIP3    H212536   7.547   5.910   3.089  0.9292 -0.1288 -0.9557
 4199TIP3   OH212537   8.515   6.540   2.162 -0.6480  0.0256 -0.4411
 4199TIP3    H112538   8.435   6.516   2.209 -0.5308 -0.2939 -0.4076
 4199TIP3    H212539   8.491   6.620   2.114 -1.0624 -0.2135 -0.6391
 4200TIP3   OH212540   0.535   5.901   2.769 -0.0015  0.6069  0.3009
 4200TIP3    H112541   0.555   5.870   2.858 -2.1072  0.6994  0.8476
 4200TIP3    H212542   0.448   5.940   2.777 -0.6522 -0.3033 -2.0270
 4201TIP3   OH212543   7.370   5.820   3.023 -0.1434 -0.3473  0.3081
 4201TIP3    H112544   7.307   5.756   3.056  2.0509 -1.2680  2.9527
 4201TIP3    H212545   7.340   5.904   3.058 -0.7757 -0.5605  0.2648
 4202TIP3   OH212546   5.430   7.083   1.917 -0.0261 -0.0454 -0.2083
 4202TIP3    H112547   5.506   7.102   1.861 -1.1642  1.1714 -1.3684
 4202TIP3    H212548   5.445   7.135   1.996 -0.7354  1.9362 -1.3622
 4203TIP3   OH212549   7.120   4.848   0.735  0.4871 -0.1741 -0.5701
 4203TIP3    H112550   7.153   4.807   0.655 -0.8585 -0.3042 -1.0609
 4203TIP3    H212551   7.088   4.934   0.707 -1.5763 -0.8932 -0.4960
 4204TIP3   OH212552   5.352   1.271   6.861 -0.7520 -0.1599 -0.1588
 4204TIP3    H112553   5.323   1.360   6.882  0.1805 -0.0637  0.7443
 4204TIP3    H212554   5.282   1.214   6.893 -2.0835  0.3079 -2.1129
 4205TIP3   OH212555   5.573   5.747   2.419 -0.4697  0.0251 -0.6433
 4205TIP3    H112556   5.642   5.700   2.466 -2.7685 -0.5171  2.2978
 4205TIP3    H212557   5.607   5.756   2.330  2.1182 -2.8453 -0.0262
 4206TIP3   OH212558   7.584   3.822   2.755 -0.5786  0.7480  0.1584
 4206TIP3    H112559   7.675   3.845   2.771 -0.5129  0.1474  0.6132
 4206TIP3    H212560   7.586   3.769   2.675 -0.9492  4.0784 -2.2076
 4207TIP3   OH212561   6.411   6.038   1.405  0.1686  0.3631 -0.3670
 4207TIP3    H112562   6.325   5.999   1.390  0.4241 -0.0577 -0.7433
 4207TIP3    H212563   6.397   6.132   1.393  0.1107  0.1478 -2.1235
 4208TIP3   OH212564   8.060   3.437   3.067 -0.2751  0.2965  0.6902
 4208TIP3    H112565   8.051   3.482   3.150  1.0637 -0.1598  1.0855
 4208TIP3    H212566   8.134   3.480   3.023 -1.1188  0.7008 -0.3768
 4209TIP3   OH212567   7.554   7.093   0.237  0.5666 -0.0513 -0.2436
 4209TIP3    H112568   7.460   7.086   0.218  0.5899 -1.5866  0.1912
 4209TIP3    H212569   7.557   7.115   0.330  0.6599 -0.3157 -0.1870
 4210TIP3   OH212570   6.686   3.299   2.062 -0.7363 -0.5788 -0.3204
 4210TIP3    H112571   6.680   3.297   1.967 -0.9047 -0.7373 -0.3080
 4210TIP3    H212572   6.636   3.222   2.091  0.6312 -1.4092 -0.1677
 4211TIP3   OH212573   7.990   5.669   1.724  0.2283 -0.1216 -0.0104
 4211TIP3    H112574   7.999   5.600   1.658  0.8074  0.4007 -0.4852
 4211TIP3    H212575   8.040   5.742   1.689 -1.4753  1.0119 -0.1447
 4212TIP3   OH212576   6.874   4.219   1.848 -0.6756  0.2169  0.1321
 4212TIP3    H112577   6.825   4.278   1.905  0.3680  2.1892 -0.9506
 4212TIP3    H212578   6.923   4.278   1.789 -1.3969 -1.7307 -2.5187
 4213TIP3   OH212579   8.245   3.236   2.021 -0.1455  0.7121  0.4346
 4213TIP3    H112580   8.207   3.149   2.033  0.9424  0.4678  2.1720
 4213TIP3    H212581   8.184   3.280   1.962 -1.9689 -0.4182  1.4377
 4214TIP3   OH212582   7.686   4.951   1.330 -0.1745  0.1505 -0.3736
 4214TIP3    H112583   7.691   4.978   1.238  0.5613 -1.0127 -0.6963
 4214TIP3    H212584   7.744   5.011   1.376  0.3363  0.0388 -0.8575
 4215TIP3   OH212585   5.312   6.225   6.491  0.4214  0.0848  0.2369
 4215TIP3    H112586   5.232   6.183   6.524  0.3650  1.0600  1.3800
 4215TIP3    H212587   5.328   6.183   6.407 -0.6695 -0.9174  0.5118
 4216TIP3   OH212588   7.799   3.319   2.285  0.1504  0.0612 -0.0665
 4216TIP3    H112589   7.885   3.313   2.327  0.1418 -1.1503 -0.2070
 4216TIP3    H212590   7.800   3.251   2.217 -1.3922 -0.8596  0.7990
 4217TIP3   OH212591   1.645   5.771   1.394 -0.2488 -0.6185  0.2910
 4217TIP3    H112592   1.665   5.804   1.482 -0.0930  1.6215 -0.5392
 4217TIP3    H212593   1.700   5.693   1.385  0.7610 -0.1047  1.6984
 4218TIP3   OH212594   6.198   4.511   2.933  0.3452  0.1358  1.2018
 4218TIP3    H112595   6.160   4.534   3.019  1.5206 -1.1123  2.0769
 4218TIP3    H212596   6.291   4.531   2.942  0.3948  0.4387  0.0526
 4219TIP3   OH212597   6.776   5.992   0.004 -0.5940  0.1392  0.2739
 4219TIP3    H112598   6.868   5.983   0.027 -0.2943 -0.9938 -1.3087
 4219TIP3    H212599   6.757   6.085   0.018  0.7167  0.3307  0.8323
 4220TIP3   OH212600   0.874   4.521   2.941  0.5671  0.5985  0.3251
 4220TIP3    H112601   0.786   4.509   2.904  0.7660 -1.3392  0.4382
 4220TIP3    H212602   0.902   4.607   2.908  1.2888 -1.5559 -5.2539
 4221TIP3   OH212603   6.674   2.456   3.380  0.2841  0.1105 -0.3373
 4221TIP3    H112604   6.639   2.537   3.418 -2.1359 -1.1598  0.2742
 4221TIP3    H212605   6.615   2.436   3.308  1.0266 -0.9689 -0.6548
 4222TIP3   OH212606   3.342   1.753   5.979 -0.0413  0.0293 -0.0272
 4222TIP3    H112607   3.328   1.784   5.889  0.3312 -3.2650 -1.2982
 4222TIP3    H212608   3.431   1.782   6.001 -0.7927  2.3884 -0.0323
 4223TIP3   OH212609   3.965   5.786   6.818 -0.1244 -0.2021  0.1305
 4223TIP3    H112610   4.047   5.829   6.844  0.7988 -0.7776 -1.7302
 4223TIP3    H212611   3.943   5.731   6.893  0.9033  0.3723  0.8789
 4224TIP3   OH212612   1.000   6.775   1.949  0.3566  0.0347  0.5568
 4224TIP3    H112613   0.948   6.734   1.880  0.1934 -0.9697  1.2543
 4224TIP3    H212614   1.018   6.703   2.011  0.2627  0.9698  1.6904
 4225TIP3   OH212615   0.586   5.350   4.014  0.1211  0.1791  0.4254
 4225TIP3    H112616   0.622   5.306   4.092 -1.1619  0.2947  1.0966
 4225TIP3    H212617   0.561   5.279   3.956  0.2048  0.0643  0.5293
 4226TIP3   OH212618   1.059   3.533   1.837  0.6753 -0.3556  0.0287
 4226TIP3    H112619   1.029   3.445   1.815  0.1656 -0.4709  1.1503
 4226TIP3    H212620   1.105   3.563   1.759  0.3835 -1.4087 -0.5550
 4227TIP3   OH212621   0.183   4.753   0.694 -0.1236 -0.2618  0.0024
 4227TIP3    H112622   0.223   4.710   0.618 -1.6739 -0.7349 -0.5593
 4227TIP3    H212623   0.180   4.846   0.670  1.3036 -0.1095  0.3570
 4228TIP3   OH212624   0.372   6.478   1.404  0.5560  0.5367 -0.1648
 4228TIP3    H112625   0.351   6.393   1.366  0.5847  0.8384 -0.8596
 4228TIP3    H212626   0.451   6.462   1.456  0.8485  0.2511 -0.6987
 4229TIP3   OH212627   0.730   5.739   1.182  0.5109 -0.2556  0.1873
 4229TIP3    H112628   0.799   5.678   1.155  1.4330  0.9030 -0.1123
 4229TIP3    H212629   0.746   5.753   1.276  2.6172  2.4100 -0.5160
 4230TIP3   OH212630   7.871   4.517   2.122 -0.5539  0.2815  0.6468
 4230TIP3    H112631   7.936   4.572   2.165  0.2458 -2.0647  2.5215
 4230TIP3    H212632   7.819   4.480   2.193 -1.1045 -1.3272 -0.5495
 4231TIP3   OH212633   1.289   6.668   1.999  0.1765 -0.2892  0.4588
 4231TIP3    H112634   1.302   6.608   2.073 -1.0692 -0.0301  0.9075
 4231TIP3    H212635   1.343   6.744   2.020 -0.6642  0.0554  1.4446
 4232TIP3   OH212636   8.015   4.499   1.552 -0.2903  0.0312 -0.4189
 4232TIP3    H112637   8.073   4.506   1.476 -0.7878 -0.2211 -0.8235
 4232TIP3    H212638   7.954   4.572   1.541 -1.3463 -0.9350 -1.1087
 4233TIP3   OH212639   1.048   5.160   4.672  0.8059  0.3908 -0.1199
 4233TIP3    H112640   1.113   5.134   4.607 -0.2150 -1.5828 -0.3763
 4233TIP3    H212641   1.098   5.210   4.737  2.6951 -1.5442 -0.0435
 4234TIP3   OH212642   1.537   5.406   3.091  0.4560  0.1995  0.1302
 4234TIP3    H112643   1.482   5.460   3.035  0.4488  0.2392  0.1766
 4234TIP3    H212644   1.627   5.434   3.071  0.5442 -0.8357 -0.9834
 4235TIP3   OH212645   8.461   5.817   4.700 -0.1344 -0.4076 -0.3150
 4235TIP3    H112646   8.508   5.735   4.713 -1.9608 -1.2144  1.4888
 4235TIP3    H212647   8.371   5.798   4.727 -0.8004  1.9471 -0.7306
 4236TIP3   OH212648   1.313   7.073   5.728 -0.3619  0.4708 -0.0235
 4236TIP3    H112649   1.301   7.161   5.692  0.8492  0.7585  0.2607
 4236TIP3    H212650   1.373   7.030   5.667  1.7067  0.9600  1.5882
 4237TIP3   OH212651   0.902   5.350   2.079 -0.1525  0.2745  0.0889
 4237TIP3    H112652   0.887   5.444   2.079  1.1916  0.5191  1.7494
 4237TIP3    H212653   0.906   5.326   2.171  0.6611 -1.2135 -0.3094
 4238TIP3   OH212654   8.575   2.631   4.079 -0.0931  0.1927  0.3765
 4238TIP3    H112655   8.640   2.653   4.146  0.3271 -1.0133  0.3621
 4238TIP3    H212656   8.515   2.706   4.079 -0.3985 -0.0258  2.4606
 4239TIP3   OH212657   0.684   5.975   2.062 -0.3024 -0.3376  0.2244
 4239TIP3    H112658   0.758   5.975   2.122 -1.4484  1.0732  1.6840
 4239TIP3    H212659   0.714   6.027   1.987 -0.0166  0.7863  1.1006
 4240TIP3   OH212660   2.296   5.394   2.052  0.2262 -0.3752  0.5220
 4240TIP3    H112661   2.206   5.406   2.022  0.6562 -0.3368 -0.7524
 4240TIP3    H212662   2.331   5.325   1.996  0.5116 -1.5006  2.0471
 4241TIP3   OH212663   2.055   3.895   3.025  0.9704 -0.4449 -0.2355
 4241TIP3    H112664   1.989   3.832   2.998  0.3769  0.4949 -1.0107
 4241TIP3    H212665   2.004   3.971   3.056  1.6796 -0.0710  0.0273
 4242TIP3   OH212666   1.768   5.082   2.548 -0.0286  0.2357  0.5170
 4242TIP3    H112667   1.764   5.014   2.481 -0.7541  1.6117 -0.8831
 4242TIP3    H212668   1.861   5.096   2.563  0.1199 -1.4704  1.2503
 4243TIP3   OH212669   8.422   6.044   3.368  0.1666  0.1848  0.2229
 4243TIP3    H112670   8.353   5.988   3.333  0.1885 -0.4756  1.2292
 4243TIP3    H212671   8.435   6.111   3.301 -0.9420 -0.1121 -0.2901
 4244TIP3   OH212672   1.150   4.109   2.774 -0.0799 -0.0174 -0.1020
 4244TIP3    H112673   1.126   4.094   2.682  0.4610  0.3366 -0.3029
 4244TIP3    H212674   1.244   4.093   2.777 -0.2309 -0.8063  0.5580
 4245TIP3   OH212675   8.265   4.679   1.708 -0.0150  0.2229  0.1987
 4245TIP3    H112676   8.296   4.590   1.698  2.0056  1.1156 -1.7974
 4245TIP3    H212677   8.243   4.687   1.801  0.4298 -2.1061  0.5203
 4246TIP3   OH212678   1.519   5.342   4.088 -0.0823 -0.2465  0.7482
 4246TIP3    H112679   1.560   5.378   4.009  1.4664 -1.0239  1.1646
 4246TIP3    H212680   1.591   5.337   4.151 -0.3762 -3.3577  0.9439
 4247TIP3   OH212681   1.395   7.404   3.222 -0.5351  0.8835 -0.2215
 4247TIP3    H112682   1.461   7.341   3.193 -0.5176  0.6716  0.2838
 4247TIP3    H212683   1.409   7.481   3.165 -0.3009  0.5869 -0.5708
 4248TIP3   OH212684   6.520   6.401   2.481  0.3494 -0.0589 -0.5139
 4248TIP3    H112685   6.492   6.309   2.488  0.8446 -0.3838 -2.4798
 4248TIP3    H212686   6.458   6.441   2.421  1.7604  0.1859 -1.8549
 4249TIP3   OH212687   2.522   2.516   3.878 -0.1559  0.0692 -0.1886
 4249TIP3    H112688   2.469   2.449   3.833  0.0071  0.4198 -0.9157
 4249TIP3    H212689   2.498   2.507   3.970  2.1551 -3.1175  0.1902
 4250TIP3   OH212690   1.317   4.803   1.603 -0.0210 -0.2021  0.4146
 4250TIP3    H112691   1.222   4.814   1.608 -0.0466  0.9554 -1.9050
 4250TIP3    H212692   1.337   4.734   1.666 -2.3952 -0.3924  0.9861
 4251TIP3   OH212693   1.894   5.934   4.447  0.1851  0.1589  0.0557
 4251TIP3    H112694   1.894   5.839   4.437 -0.1681 -0.0247  1.7090
 4251TIP3    H212695   1.826   5.964   4.386 -2.0672 -0.9437  1.9346
 4252TIP3   OH212696   4.716   0.521   6.916 -0.3133 -0.4203  0.3987
 4252TIP3    H112697   4.768   0.559   6.987  0.2196  0.3673 -0.3892
 4252TIP3    H212698   4.626   0.522   6.948 -0.6040  3.3201 -0.2669
 4253TIP3   OH212699   8.517   5.202   3.088 -0.7595 -0.1679 -0.2231
 4253TIP3    H112700   8.586   5.148   3.050 -0.9425  1.7044 -3.4049
 4253TIP3    H212701   8.554   5.290   3.089 -1.7359  0.2298  1.5804
 4254TIP3   OH212702   2.444   4.826   3.922 -0.1935  0.1371  0.3831
 4254TIP3    H112703   2.411   4.906   3.964  0.8323  0.3190  0.8486
 4254TIP3    H212704   2.373   4.763   3.933 -0.4933  0.5970  1.1743
 4255TIP3   OH212705   0.490   5.005   3.153  0.6633 -0.6466  0.0375
 4255TIP3    H112706   0.569   4.997   3.206  1.0624 -0.9119 -0.5966
 4255TIP3    H212707   0.422   4.961   3.205  0.9148 -0.3608  0.6093
 4256TIP3   OH212708   0.324   5.858   4.182  0.0823  0.1183 -0.9256
 4256TIP3    H112709   0.350   5.930   4.124 -0.0520  0.6332 -0.3478
 4256TIP3    H212710   0.298   5.788   4.123 -0.7348  0.8929 -1.4836
 4257TIP3   OH212711   0.707   5.252   3.326  0.0046  0.4528  0.0541
 4257TIP3    H112712   0.763   5.192   3.374  0.4491  0.7908 -0.0397
 4257TIP3    H212713   0.680   5.317   3.392 -1.3110 -0.4207  0.4008
 4258TIP3   OH212714   2.198   3.831   2.420  0.2488  0.4798 -0.9164
 4258TIP3    H112715   2.246   3.860   2.498 -0.9420 -0.2908  0.1421
 4258TIP3    H212716   2.208   3.903   2.358 -0.0772  1.8257  0.5344
 4259TIP3   OH212717   0.063   6.165   1.898  0.1039 -0.3332 -0.1875
 4259TIP3    H112718   0.018   6.108   1.837  0.4725 -0.1135 -0.6680
 4259TIP3    H212719   0.006   6.241   1.907 -1.0205 -1.3195  1.4505
 4260TIP3   OH212720   8.158   5.428   3.271  0.2132 -0.5779 -0.1535
 4260TIP3    H112721   8.106   5.402   3.347  0.7555  0.1493  0.4801
 4260TIP3    H212722   8.095   5.463   3.209  0.1114  2.1623  1.3986
 4261TIP3   OH212723   1.685   4.081   1.537  0.1169 -0.3078  0.4555
 4261TIP3    H112724   1.738   4.017   1.489 -1.6595  0.3910 -2.5261
 4261TIP3    H212725   1.716   4.165   1.505 -1.0405  0.1738  0.6105
 4262TIP3   OH212726   8.142   4.138   2.230  0.1085 -0.2471 -0.7364
 4262TIP3    H112727   8.107   4.058   2.270  0.1002  0.8347  1.4595
 4262TIP3    H212728   8.065   4.181   2.193 -0.0324 -0.7414 -1.0302
 4263TIP3   OH212729   0.505   4.181   3.041 -0.1525 -0.7267  0.3805
 4263TIP3    H112730   0.580   4.235   3.063 -1.0218  1.9653 -2.7263
 4263TIP3    H212731   0.438   4.243   3.011 -2.1481 -3.3133 -0.8280
 4264TIP3   OH212732   0.896   4.011   1.968  0.7258  0.0117 -0.6701
 4264TIP3    H112733   0.989   4.033   1.965  0.6621  0.2782 -0.7340
 4264TIP3    H212734   0.853   4.094   1.987  0.6165 -0.3651  0.8331
 4265TIP3   OH212735   1.966   5.445   1.388  0.2123 -0.0622  0.1618
 4265TIP3    H112736   2.042   5.502   1.380 -1.2031  2.0229  1.0228
 4265TIP3    H212737   1.993   5.363   1.347  1.5648  1.9270 -3.1798
 4266TIP3   OH212738   0.454   6.705   1.225 -0.6220  0.6245  0.3489
 4266TIP3    H112739   0.442   6.612   1.243 -0.6577  0.6746  0.5811
 4266TIP3    H212740   0.537   6.710   1.177 -1.4880  0.2752 -1.2246
 4267TIP3   OH212741   8.244   6.011   1.303  0.2208 -0.7981  0.0852
 4267TIP3    H112742   8.328   6.054   1.322 -0.5917  1.1598 -0.5753
 4267TIP3    H212743   8.266   5.944   1.238  1.5151 -1.3096  1.0398
 4268TIP3   OH212744   0.620   5.443   2.748 -0.3780  0.4538 -0.0763
 4268TIP3    H112745   0.643   5.405   2.663 -1.4367 -1.8711  0.6559
 4268TIP3    H212746   0.547   5.502   2.729 -0.8438 -0.3321 -0.7149
 4269TIP3   OH212747   2.053   2.966   2.560  0.2228  0.0292 -0.0872
 4269TIP3    H112748   2.149   2.973   2.557  0.2256 -0.2269 -0.6792
 4269TIP3    H212749   2.032   2.964   2.653  0.7639  0.5347  0.0492
 4270TIP3   OH212750   2.143   5.981   5.653 -0.3169 -0.1646 -0.1449
 4270TIP3    H112751   2.113   6.066   5.686 -0.6588 -0.7178  1.0030
 4270TIP3    H212752   2.192   5.943   5.726 -1.1536 -1.4445 -0.2238
 4271TIP3   OH212753   7.361   7.110   2.346 -0.0773 -0.1274 -0.3710
 4271TIP3    H112754   7.299   7.171   2.385  0.5307 -0.4075  1.0747
 4271TIP3    H212755   7.332   7.024   2.374 -0.1653 -0.4101 -1.3090
 4272TIP3   OH212756   6.601   4.833   2.172 -0.4031 -0.1217  0.1549
 4272TIP3    H112757   6.685   4.842   2.218 -0.7948 -0.8789  1.0140
 4272TIP3    H212758   6.600   4.907   2.111  0.8214 -0.0127  0.2540
 4273TIP3   OH212759   6.285   5.772   5.058  0.2931 -0.0360 -0.1058
 4273TIP3    H112760   6.359   5.832   5.054 -0.1938  0.5084 -0.9662
 4273TIP3    H212761   6.232   5.806   5.130  0.0979  0.4813 -0.4883
 4274TIP3   OH212762   7.841   4.557   4.983 -0.3572  0.3521 -0.1013
 4274TIP3    H112763   7.926   4.524   5.012 -0.1604  0.8101 -0.1575
 4274TIP3    H212764   7.851   4.568   4.888 -0.7741 -0.4705 -0.2515
 4275TIP3   OH212765   7.925   4.035   1.504 -0.2683 -0.1803  0.0943
 4275TIP3    H112766   7.910   3.971   1.434  1.3991 -0.0005 -0.4367
 4275TIP3    H212767   7.904   3.987   1.584 -1.5074 -0.6030 -0.4688
 4276TIP3   OH212768   0.541   5.573   1.580  0.8565  0.5898  0.2027
 4276TIP3    H112769   0.486   5.651   1.571  0.0830  0.1075  0.7102
 4276TIP3    H212770   0.484   5.508   1.620  2.4983  0.8679  3.1378
 4277TIP3   OH212771   1.848   4.303   1.952 -0.0914 -0.6021 -0.5367
 4277TIP3    H112772   1.926   4.278   1.903  0.8444 -2.0882  1.6042
 4277TIP3    H212773   1.826   4.390   1.919  1.3226 -0.9698 -2.5460
 4278TIP3   OH212774   8.500   5.017   0.980 -0.0375  0.3936 -0.8412
 4278TIP3    H112775   8.551   4.938   0.993  0.3232  0.2661 -2.8835
 4278TIP3    H212776   8.494   5.057   1.067  3.1020  0.1714 -0.4723
 4279TIP3   OH212777   0.757   4.785   3.874  0.4252 -0.4627  0.2383
 4279TIP3    H112778   0.776   4.790   3.967  1.7595  0.4324 -0.0763
 4279TIP3    H212779   0.842   4.796   3.831 -0.0355 -1.8063 -1.0649
 4280TIP3   OH212780   7.980   6.975   1.487  0.5611 -0.5420 -0.5871
 4280TIP3    H112781   8.054   7.037   1.487 -0.2401  0.4293  0.0384
 4280TIP3    H212782   7.952   6.972   1.579 -2.3153  1.6854 -1.3358
 4281TIP3   OH212783   0.111   5.902   2.562  0.5934  0.6144 -0.3338
 4281TIP3    H112784   0.132   5.888   2.469 -1.8827  1.3111 -1.0491
 4281TIP3    H212785   0.084   5.994   2.567 -2.2551 -0.2110  0.4441
 4282TIP3   OH212786   2.474   5.746   2.503 -0.0577  0.0017  0.3796
 4282TIP3    H112787   2.471   5.666   2.450 -0.3630  0.2276  0.0601
 4282TIP3    H212788   2.515   5.718   2.585  0.8063 -0.2608 -0.1284
 4283TIP3   OH212789   0.157   3.774   2.850  0.2577 -0.0412  0.1818
 4283TIP3    H112790   0.251   3.765   2.840  0.0615 -0.6578 -1.2362
 4283TIP3    H212791   0.127   3.816   2.769 -0.8424 -1.0953  0.0183
 4284TIP3   OH212792   0.060   6.458   2.391 -0.1667 -0.1305 -0.6506
 4284TIP3    H112793   0.126   6.403   2.348  0.5198  0.2475 -0.0972
 4284TIP3    H212794  -0.005   6.476   2.322 -0.4715 -1.7216 -0.8087
 4285TIP3   OH212795   8.378   4.596   2.500 -0.2828  0.9948  0.1759
 4285TIP3    H112796   8.308   4.554   2.451  0.0222  2.1914 -1.3452
 4285TIP3    H212797   8.448   4.531   2.503 -1.2495  0.0004  1.2116
 4286TIP3   OH212798   2.060   5.496   3.565  0.1572 -0.5204  0.0377
 4286TIP3    H112799   1.971   5.482   3.595 -0.1534  1.8011  0.2864
 4286TIP3    H212800   2.063   5.589   3.540  2.0447 -0.9519 -1.4855
 4287TIP3   OH212801   5.391   7.509   2.844 -0.4195  0.2532  0.1161
 4287TIP3    H112802   5.477   7.494   2.805 -0.5163 -0.7662  0.2672
 4287TIP3    H212803   5.393   7.459   2.926 -1.3113 -0.1661 -0.1131
 4288TIP3   OH212804   0.053   2.710   3.379  0.0883  0.5124 -0.3095
 4288TIP3    H112805   0.002   2.670   3.450  1.6835 -0.0656  0.5245
 4288TIP3    H212806   0.052   2.804   3.400  0.1527  0.3983  0.2086
 4289TIP3   OH212807   2.777   3.939   3.258 -0.3165  0.1860  0.6028
 4289TIP3    H112808   2.687   3.958   3.285 -0.5489 -0.9676  0.6684
 4289TIP3    H212809   2.831   3.977   3.327 -0.8908 -2.4442  2.5532
 4290TIP3   OH212810   0.578   5.641   3.312 -0.1414 -0.4560  0.2541
 4290TIP3    H112811   0.662   5.686   3.300 -0.3369 -0.3913 -0.8684
 4290TIP3    H212812   0.513   5.698   3.270 -0.8647 -0.1314  1.7795
 4291TIP3   OH212813   7.407   7.441   3.144 -0.3465 -0.4417 -0.2676
 4291TIP3    H112814   7.382   7.353   3.116 -1.1925 -0.7183  1.3084
 4291TIP3    H212815   7.420   7.433   3.239 -0.1048  1.0490 -0.1685
 4292TIP3   OH212816   7.884   6.560   0.639 -0.5303 -0.1906  0.2453
 4292TIP3    H112817   7.876   6.499   0.712 -2.1586  0.5897  0.7328
 4292TIP3    H212818   7.826   6.633   0.662  0.7767  1.1840 -0.6918
 4293TIP3   OH212819   7.255   5.568   2.065  0.0137  0.1623  0.3777
 4293TIP3    H112820   7.314   5.579   1.991  0.2978  1.6597  0.8136
 4293TIP3    H212821   7.233   5.475   2.065  1.7204 -0.2514 -0.2707
 4294TIP3   OH212822   7.715   6.201   5.712 -0.4437  0.3028  0.1393
 4294TIP3    H112823   7.690   6.131   5.773 -1.2287  0.8160  0.4136
 4294TIP3    H212824   7.638   6.257   5.707  0.0509  0.9445 -0.3717
 4295TIP3   OH212825   7.544   3.392   3.719 -0.0161 -0.3294 -0.2721
 4295TIP3    H112826   7.573   3.473   3.677 -1.2538  0.2770  0.0144
 4295TIP3    H212827   7.450   3.388   3.701  0.1658 -2.0741 -0.8847
 4296TIP3   OH212828   7.548   5.085   6.747 -0.0719  0.1535 -0.2831
 4296TIP3    H112829   7.453   5.098   6.750  0.0595  0.8483  1.4273
 4296TIP3    H212830   7.583   5.146   6.812  1.5320 -0.3662 -0.6249
 4297TIP3   OH212831   1.234   5.813   0.217  0.1009 -0.3317 -0.3404
 4297TIP3    H112832   1.203   5.756   0.287 -0.5386 -0.9243 -1.0974
 4297TIP3    H212833   1.213   5.901   0.248 -3.3576 -0.7455 -1.2619
 4298TIP3   OH212834   2.840   4.197   1.315  0.6550  0.3629  0.1289
 4298TIP3    H112835   2.904   4.227   1.380  0.3398  1.5663 -0.1000
 4298TIP3    H212836   2.860   4.248   1.236 -0.8279  1.0502  0.1796
 4299TIP3   OH212837   0.185   6.265   3.531 -0.0666  0.1123  0.2297
 4299TIP3    H112838   0.192   6.252   3.625 -0.2852 -0.8960  0.1090
 4299TIP3    H212839   0.206   6.358   3.518  0.6335  0.0956  1.1937
 4300TIP3   OH212840   1.238   5.497   4.043 -0.1994 -0.0662 -0.2056
 4300TIP3    H112841   1.302   5.474   3.976 -0.8712 -0.6168 -0.6684
 4300TIP3    H212842   1.153   5.487   4.000 -0.6112  0.4107  0.4731
 4301TIP3   OH212843   0.327   6.506   3.407 -0.5322 -0.1163  0.4695
 4301TIP3    H112844   0.234   6.517   3.427 -0.3909  0.9743  0.5880
 4301TIP3    H212845   0.331   6.496   3.312 -0.7578 -0.0355  0.4530
 4302TIP3   OH212846   0.899   6.970   3.757 -0.1349  0.1943 -0.0570
 4302TIP3    H112847   0.894   6.887   3.710  0.5340 -0.0283  0.2482
 4302TIP3    H212848   0.993   6.983   3.771 -0.2661  0.7866  0.2685
 4303TIP3   OH212849   3.624   0.732   0.242 -0.5688 -0.1165  0.2874
 4303TIP3    H112850   3.640   0.643   0.272  1.1938 -0.3106 -1.1168
 4303TIP3    H212851   3.565   0.722   0.167 -0.1653 -0.1290 -0.0301
 4304TIP3   OH212852   1.072   5.107   2.635 -0.3904 -0.0326  0.1544
 4304TIP3    H112853   1.074   5.048   2.560 -2.9271 -3.0286  2.3093
 4304TIP3    H212854   0.979   5.128   2.646  0.3095  3.3903  0.2902
 4305TIP3   OH212855   0.393   3.220   4.630  0.7307 -0.7633  0.2692
 4305TIP3    H112856   0.424   3.291   4.686 -0.6680  0.4749 -0.4776
 4305TIP3    H212857   0.473   3.178   4.598  1.5528 -0.4099  1.8273
 4306TIP3   OH212858   6.836   7.100   4.775  0.0106 -0.7600  0.0680
 4306TIP3    H112859   6.831   7.017   4.823  1.3408 -1.0727 -0.3160
 4306TIP3    H212860   6.757   7.148   4.801  0.1082 -1.4248  1.6386
 4307TIP3   OH212861   7.748   4.700   3.093 -0.3151  0.7704 -0.2395
 4307TIP3    H112862   7.820   4.636   3.092 -1.2016 -0.2403 -0.3848
 4307TIP3    H212863   7.771   4.761   3.163 -0.3399 -0.7407  1.1178
 4308TIP3   OH212864   6.818   7.022   2.669 -0.0500 -0.4204 -0.2560
 4308TIP3    H112865   6.787   7.028   2.579 -1.0245  0.6972  0.1474
 4308TIP3    H212866   6.749   6.975   2.715 -0.0364 -0.0652  0.1303
 4309TIP3   OH212867   0.752   5.379   4.730 -0.0722  0.3743 -0.2878
 4309TIP3    H112868   0.727   5.336   4.812 -0.5227 -0.8646 -1.0664
 4309TIP3    H212869   0.843   5.407   4.744  0.1947 -0.7457  0.2683
 4310TIP3   OH212870   2.331   5.198   3.463  0.4325  0.3265 -0.1237
 4310TIP3    H112871   2.309   5.207   3.556  1.0683 -1.5193  0.2307
 4310TIP3    H212872   2.408   5.141   3.463  1.1435  1.2694 -1.7271
 4311TIP3   OH212873   2.664   6.166   2.630 -0.0425  0.0688 -0.3144
 4311TIP3    H112874   2.723   6.092   2.648 -0.9834 -0.3841  0.9939
 4311TIP3    H212875   2.655   6.210   2.715  0.1706  1.4433 -0.9948
 4312TIP3   OH212876   1.041   5.869   3.153 -0.0628 -0.3637  0.2984
 4312TIP3    H112877   1.103   5.897   3.220  1.5921  0.3491 -1.4735
 4312TIP3    H212878   1.021   5.949   3.105 -0.8791 -0.9452 -0.3365
 4313TIP3   OH212879   0.967   4.810   3.271  0.0630 -0.0944 -0.4468
 4313TIP3    H112880   0.998   4.898   3.293 -0.4285 -0.4772  1.8485
 4313TIP3    H212881   0.935   4.818   3.181  1.3087  1.7263 -0.7651
 4314TIP3   OH212882   1.808   6.231   3.051  0.0928 -0.0811 -0.0719
 4314TIP3    H112883   1.723   6.274   3.065  1.0019  1.1514  2.0047
 4314TIP3    H212884   1.864   6.300   3.018  0.9165 -0.2710  0.9021
 4315TIP3   OH212885   0.489   6.498   3.118 -0.4315 -0.1262  0.4911
 4315TIP3    H112886   0.477   6.593   3.110 -2.6991 -0.2272  2.1727
 4315TIP3    H212887   0.548   6.488   3.194 -0.4320 -0.0725  0.4992
 4316TIP3   OH212888   2.703   5.908   1.508  0.5212  0.1905 -0.0989
 4316TIP3    H112889   2.752   5.835   1.544  0.7934  0.3703 -0.1096
 4316TIP3    H212890   2.703   5.974   1.577 -0.8854 -0.3469  0.4337
 4317TIP3   OH212891   1.127   5.053   3.278  0.4156 -0.0835 -0.5160
 4317TIP3    H112892   1.154   5.144   3.269  0.3946  0.2474  2.3864
 4317TIP3    H212893   1.207   5.002   3.264  0.5812  0.4131 -1.3839
 4318TIP3   OH212894   3.041   6.690   2.284 -0.4521  0.6282  0.1415
 4318TIP3    H112895   3.121   6.643   2.309 -1.0622 -0.8660 -0.6220
 4318TIP3    H212896   2.975   6.659   2.347 -0.9029  0.3124 -0.4830
 4319TIP3   OH212897   1.148   3.329   4.518  0.1780  0.6919 -0.2330
 4319TIP3    H112898   1.108   3.295   4.598 -1.6361  1.8498 -0.6155
 4319TIP3    H212899   1.227   3.277   4.507  0.0610  0.0017  1.9005
 4320TIP3   OH212900   0.849   2.412   0.836  0.1861 -0.0860 -0.7374
 4320TIP3    H112901   0.821   2.453   0.755  0.2268  1.3341 -0.0425
 4320TIP3    H212902   0.910   2.474   0.875  0.3011 -0.8340  0.3015
 4321TIP3   OH212903   7.660   3.382   2.016  0.5176  0.4973  0.1643
 4321TIP3    H112904   7.676   3.288   2.012  0.8790  0.6025 -1.6015
 4321TIP3    H212905   7.633   3.405   1.927 -0.2413  1.9521  0.7506
 4322TIP3   OH212906   1.448   4.741   2.453  0.2818  0.0326  0.4021
 4322TIP3    H112907   1.387   4.679   2.413  1.1254  0.1625 -1.1069
 4322TIP3    H212908   1.391   4.806   2.495 -0.6029 -1.3158  1.3096
 4323TIP3   OH212909   2.020   5.334   2.348 -0.4816 -0.5465 -0.2886
 4323TIP3    H112910   2.048   5.415   2.304 -1.7131 -0.0354 -0.1271
 4323TIP3    H212911   2.025   5.268   2.279  0.0843 -0.2524 -0.5421
 4324TIP3   OH212912   2.468   4.975   5.821  0.1767 -0.4754  0.1121
 4324TIP3    H112913   2.516   5.024   5.756  0.4997 -1.5510 -0.4781
 4324TIP3    H212914   2.378   4.971   5.788  0.3078 -0.8918 -0.2007
 4325TIP3   OH212915   1.081   5.020   2.368  0.3861  0.1928  0.0046
 4325TIP3    H112916   1.069   4.943   2.312 -0.4481  1.0258 -0.9687
 4325TIP3    H212917   1.165   5.056   2.341  0.7593 -0.3406  0.4326
 4326TIP3   OH212918   2.335   2.338   1.405  0.0674  0.3349 -0.3092
 4326TIP3    H112919   2.373   2.332   1.317 -2.0222  0.0640 -1.2340
 4326TIP3    H212920   2.291   2.254   1.418  0.4793  0.3227  1.0596
 4327TIP3   OH212921   8.567   4.004   1.876  0.3841  0.6573  0.3165
 4327TIP3    H112922   8.485   4.041   1.845 -0.3607 -0.1176  1.3419
 4327TIP3    H212923   8.569   3.915   1.841 -0.9377 -0.5872  3.1927
 4328TIP3   OH212924   1.890   6.826   2.713 -0.0905 -0.1840 -0.1508
 4328TIP3    H112925   1.929   6.866   2.635 -0.5074 -0.6090 -0.5835
 4328TIP3    H212926   1.809   6.874   2.727  0.2212  0.2078  0.3057
 4329TIP3   OH212927   1.136   0.187   2.304 -0.8214  0.3259 -0.0737
 4329TIP3    H112928   1.211   0.209   2.248 -0.7203  1.1412  0.3769
 4329TIP3    H212929   1.116   0.096   2.281  0.9729 -0.2541  0.5369
 4330TIP3   OH212930   1.494   3.543   3.628 -0.6904  0.0982 -0.4915
 4330TIP3    H112931   1.498   3.454   3.594  0.2781 -0.5508  1.2424
 4330TIP3    H212932   1.523   3.598   3.556  2.4607 -1.3408 -0.4169
 4331TIP3   OH212933   1.984   6.437   4.595 -0.5035 -0.1705  0.8072
 4331TIP3    H112934   1.927   6.510   4.617 -0.6738 -0.5165  1.5431
 4331TIP3    H212935   1.957   6.411   4.507 -2.0151 -0.8173  1.4409
 4332TIP3   OH212936   6.926   4.202   2.651  0.6318  0.6149 -0.2171
 4332TIP3    H112937   6.838   4.231   2.676  0.7405  0.9126 -0.1863
 4332TIP3    H212938   6.911   4.150   2.571  0.2104 -0.9056  0.8179
 4333TIP3   OH212939   8.076   5.322   1.719 -0.2375 -0.3537 -0.4240
 4333TIP3    H112940   8.137   5.363   1.657  0.4884 -1.9374 -0.8094
 4333TIP3    H212941   7.990   5.338   1.682  0.0229  0.8512 -0.5349
 4334TIP3   OH212942   0.020   4.651   1.922 -0.2688  0.2496  0.2331
 4334TIP3    H112943   0.064   4.708   1.859  0.0563 -1.1254 -0.8175
 4334TIP3    H212944  -0.073   4.657   1.899 -0.2052  0.1539 -0.0498
 4335TIP3   OH212945   7.693   5.550   3.053  0.2325  0.8067  0.3691
 4335TIP3    H112946   7.675   5.548   2.959  0.2032 -0.7049  0.4008
 4335TIP3    H212947   7.611   5.578   3.093 -0.6401 -1.4039  0.1573
 4336TIP3   OH212948   8.340   5.009   2.452  0.2862  0.4146 -0.0672
 4336TIP3    H112949   8.361   4.955   2.528 -0.2729 -0.4940 -0.5555
 4336TIP3    H212950   8.271   5.067   2.482  1.1727  1.1461  0.5781
 4337TIP3   OH212951   7.694   4.638   3.448 -0.0343  0.1653  0.4559
 4337TIP3    H112952   7.631   4.587   3.396  1.2192 -0.8797 -0.0472
 4337TIP3    H212953   7.761   4.664   3.385  0.2941  0.8694  1.0911
 4338TIP3   OH212954   1.820   5.687   3.799 -0.1385 -0.1746  0.0076
 4338TIP3    H112955   1.860   5.771   3.822  0.3558  0.3868 -2.7464
 4338TIP3    H212956   1.889   5.623   3.815  0.1573  0.1772  0.1570
 4339TIP3   OH212957   5.992   6.782   2.113  0.0113  0.0415  0.1144
 4339TIP3    H112958   5.915   6.759   2.061 -0.1953 -0.6407  0.7121
 4339TIP3    H212959   5.989   6.878   2.119 -0.6170  0.0400 -0.1300
 4340TIP3   OH212960   1.000   4.887   5.585  0.0476  0.0022 -0.5231
 4340TIP3    H112961   1.043   4.807   5.615  1.3595  0.4652 -1.0880
 4340TIP3    H212962   1.014   4.887   5.490 -0.8273  0.3871 -0.6528
 4341TIP3   OH212963   8.524   5.998   1.725 -0.2276  0.3620  0.4959
 4341TIP3    H112964   8.453   6.059   1.710 -0.1817  0.2414 -0.2120
 4341TIP3    H212965   8.481   5.917   1.753 -0.3372  0.4573  0.6002
 4342TIP3   OH212966   1.755   5.177   0.831  0.7214  0.1275 -0.0372
 4342TIP3    H112967   1.762   5.215   0.919 -0.2278 -0.0147  0.0991
 4342TIP3    H212968   1.722   5.249   0.777 -0.9350 -0.4347  0.1897
 4343TIP3   OH212969   1.325   6.181   3.977  0.5248  0.1307 -0.1080
 4343TIP3    H112970   1.330   6.223   3.891 -1.7120 -1.1952 -0.9557
 4343TIP3    H212971   1.371   6.098   3.966  1.7550  0.7218  0.4992
 4344TIP3   OH212972   0.465   4.057   2.750  0.3565  0.0049 -0.3614
 4344TIP3    H112973   0.466   4.050   2.845  0.7082  1.9089 -0.2039
 4344TIP3    H212974   0.412   3.983   2.721  1.2047 -1.2693  1.2370
 4345TIP3   OH212975   0.817   4.492   1.052 -0.2611 -0.1102 -0.1440
 4345TIP3    H112976   0.838   4.400   1.068 -0.8014 -0.3177 -0.5920
 4345TIP3    H212977   0.754   4.490   0.979  0.8249  0.6985 -1.1317
 4346TIP3   OH212978   2.216   4.317   3.729 -0.1322 -0.6284 -0.1147
 4346TIP3    H112979   2.190   4.387   3.670  0.8879 -0.1479 -0.0140
 4346TIP3    H212980   2.297   4.349   3.770  0.2342 -1.7779  0.0848
 4347TIP3   OH212981   0.410   3.902   3.414 -0.0659  0.6900  0.7070
 4347TIP3    H112982   0.338   3.922   3.474 -1.5384 -2.4870  0.0746
 4347TIP3    H212983   0.395   3.961   3.340 -1.2057  1.0714  1.2207
 4348TIP3   OH212984   0.385   5.582   2.550  0.0886 -0.4571  0.0442
 4348TIP3    H112985   0.376   5.571   2.644  3.2563  0.1884  0.4721
 4348TIP3    H212986   0.397   5.677   2.538  0.1470 -0.5815 -0.9701
 4349TIP3   OH212987   2.289   6.931   4.499  0.1703  0.3790 -0.2003
 4349TIP3    H112988   2.270   6.942   4.406 -0.6938  1.5195  0.1027
 4349TIP3    H212989   2.327   6.843   4.505 -0.3594  0.0408 -1.5308
 4350TIP3   OH212990   1.554   4.982   2.683  0.3648 -0.1274  0.1834
 4350TIP3    H112991   1.620   5.043   2.651 -1.3690  0.4669 -2.4722
 4350TIP3    H212992   1.542   4.920   2.611  1.1511 -2.8652  2.3250
 4351TIP3   OH212993   2.687   5.182   1.733  0.2135 -0.0874 -0.0232
 4351TIP3    H112994   2.727   5.113   1.679  0.4655  0.9082 -1.1221
 4351TIP3    H212995   2.700   5.152   1.823  1.1759 -1.0163 -0.4566
 4352TIP3   OH212996   2.812   3.200   3.855  0.0963  0.3415 -0.0136
 4352TIP3    H112997   2.717   3.201   3.848  0.0885 -0.5032 -0.0915
 4352TIP3    H212998   2.836   3.291   3.875 -0.8115  0.3305  1.1755
 4353TIP3   OH212999   2.061   5.488   3.094  0.2678  0.2081 -0.2524
 4353TIP3    H113000   2.062   5.582   3.074 -2.9971  0.6291  1.3291
 4353TIP3    H213001   2.138   5.475   3.150 -0.5601  2.4328  1.4550
 4354TIP3   OH213002   2.540   4.377   3.492 -0.6192 -0.6167  0.1325
 4354TIP3    H113003   2.602   4.330   3.547 -1.2108 -0.8514  0.5937
 4354TIP3    H213004   2.454   4.354   3.526 -0.8938  1.7300  1.1431
 4355TIP3   OH213005   2.369   4.705   3.305  0.5690  0.0229 -0.7110
 4355TIP3    H113006   2.322   4.656   3.238  1.6654 -0.8057 -0.8984
 4355TIP3    H213007   2.448   4.653   3.322  1.1793  1.1311 -0.0581
 4356TIP3   OH213008   2.806   5.286   3.832 -0.0631  0.1436  0.3830
 4356TIP3    H113009   2.889   5.261   3.791 -1.0088  1.2353 -2.2900
 4356TIP3    H213010   2.815   5.258   3.923  2.6334 -1.1384 -0.2302
 4357TIP3   OH213011   2.198   4.778   2.303 -0.4616 -0.0948  0.3788
 4357TIP3    H113012   2.169   4.718   2.372  0.0245 -0.6271  0.1241
 4357TIP3    H213013   2.251   4.723   2.244 -0.4987  0.4552 -0.1687
 4358TIP3   OH213014   1.210   4.498   5.972  0.3326 -0.0251 -0.3688
 4358TIP3    H113015   1.296   4.499   6.014  1.2840  1.3715 -2.2488
 4358TIP3    H213016   1.164   4.573   6.009 -1.1234 -2.2768  2.5945
 4359TIP3   OH213017   2.198   4.542   3.529 -0.1858  0.2510 -0.4857
 4359TIP3    H113018   2.271   4.594   3.497  1.2115 -1.3016  0.0994
 4359TIP3    H213019   2.175   4.484   3.457  2.1019 -2.3299  0.7732
 4360TIP3   OH213020   7.596   2.930   6.992 -0.3886  0.1210 -0.1046
 4360TIP3    H113021   7.680   2.890   7.013 -0.5232  0.4362  1.0460
 4360TIP3    H213022   7.533   2.859   6.999 -0.3850  0.1498  0.2069
 4361TIP3   OH213023   2.674   4.385   1.918  0.1026  0.2785  0.0316
 4361TIP3    H113024   2.758   4.369   1.875 -0.4291  1.5107 -1.4920
 4361TIP3    H213025   2.694   4.449   1.987  0.4269  0.4785 -0.2487
 4362TIP3   OH213026   7.425   3.865   3.763 -0.2762 -0.0909  0.4261
 4362TIP3    H113027   7.396   3.798   3.701 -0.4739  1.7767 -1.5455
 4362TIP3    H213028   7.347   3.917   3.782  0.2358  0.6044  0.6614
 4363TIP3   OH213029   2.487   5.456   2.433 -0.3847 -0.0077  0.1381
 4363TIP3    H113030   2.551   5.427   2.368 -0.7338  1.1853 -0.7450
 4363TIP3    H213031   2.486   5.386   2.499  2.3649  0.3136  0.5644
 4364TIP3   OH213032   1.304   6.567   1.650 -0.7227 -0.5061 -0.0539
 4364TIP3    H113033   1.322   6.624   1.725 -2.6168  0.5720 -0.3715
 4364TIP3    H213034   1.367   6.593   1.584 -2.1496  1.9160 -0.5222
 4365TIP3   OH213035   2.931   4.321   1.859 -0.0580  0.7000 -0.0391
 4365TIP3    H113036   2.952   4.238   1.902  0.8692  1.2537  0.6063
 4365TIP3    H213037   3.003   4.379   1.883 -0.7171  1.7074 -0.4587
 4366TIP3   OH213038   3.529   3.686   0.865 -0.0551 -0.5123 -0.3888
 4366TIP3    H113039   3.615   3.651   0.839  0.3622  1.8358 -2.4104
 4366TIP3    H213040   3.532   3.689   0.961  1.8951 -1.0304 -0.4136
 4367TIP3   OH213041   1.423   3.433   2.233  0.0606  0.2492 -0.1057
 4367TIP3    H113042   1.425   3.448   2.139 -0.7184 -0.6338 -0.2632
 4367TIP3    H213043   1.395   3.342   2.243  1.4467 -0.0835  0.9371
 4368TIP3   OH213044   2.206   5.037   3.067  0.0303  0.0985 -0.1173
 4368TIP3    H113045   2.185   5.094   2.992  1.6578  1.4827  0.4361
 4368TIP3    H213046   2.136   5.054   3.130  0.1786  1.0616 -0.2010
 4369TIP3   OH213047   0.911   5.693   2.820 -0.4327  0.0540  0.2883
 4369TIP3    H113048   0.877   5.616   2.866  0.2863 -1.8540 -2.2848
 4369TIP3    H213049   0.837   5.754   2.819 -1.3571 -1.0131  1.4250
 4370TIP3   OH213050   1.932   5.015   4.695 -0.1513 -0.8427  0.3081
 4370TIP3    H113051   1.920   5.046   4.605  1.4663 -0.8922  0.0679
 4370TIP3    H213052   1.998   5.073   4.732  0.0413 -1.5560  1.0971
 4371TIP3   OH213053   2.104   6.344   1.314  0.2739 -0.0889 -0.1934
 4371TIP3    H113054   2.173   6.331   1.379 -0.4391 -2.7794  0.1064
 4371TIP3    H213055   2.023   6.333   1.364 -0.4711  4.1647 -0.2969
 4372TIP3   OH213056   2.239   6.054   1.561  0.0436 -0.0770  0.9714
 4372TIP3    H113057   2.284   6.043   1.644  0.0152  0.5640  1.0745
 4372TIP3    H213058   2.307   6.040   1.494  0.3550  0.6766  1.1224
 4373TIP3   OH213059   3.771   4.280   1.847 -0.0988 -0.8121 -0.5385
 4373TIP3    H113060   3.782   4.317   1.760 -1.6790  0.5117 -0.2097
 4373TIP3    H213061   3.822   4.338   1.904  1.3569 -1.9782 -0.6377
 4374TIP3   OH213062   1.385   6.377   1.287  0.2319  0.2059  0.1921
 4374TIP3    H113063   1.290   6.390   1.290 -0.0903 -2.1477  1.1368
 4374TIP3    H213064   1.397   6.282   1.293  2.6378  0.4336 -0.4085
 4375TIP3   OH213065   2.432   5.062   4.569  0.2698 -0.5110 -0.1598
 4375TIP3    H113066   2.448   4.974   4.602 -1.3237 -0.2392  1.4314
 4375TIP3    H213067   2.504   5.114   4.605 -0.8145 -0.4519  2.0039
 4376TIP3   OH213068   1.148   5.284   4.336  0.1293 -0.1856  0.5169
 4376TIP3    H113069   1.119   5.369   4.304 -0.3109 -0.9515 -1.1930
 4376TIP3    H213070   1.183   5.239   4.258 -1.3070 -2.2252  0.9921
 4377TIP3   OH213071   1.120   6.487   1.857 -0.1592  0.2307 -0.2167
 4377TIP3    H113072   1.150   6.563   1.905  0.8894 -0.2999 -0.0189
 4377TIP3    H213073   1.190   6.468   1.795 -1.1954  0.4990 -1.4882
 4378TIP3   OH213074   1.181   5.320   3.251  0.6446  0.1693 -0.2153
 4378TIP3    H113075   1.134   5.323   3.168  0.6936 -0.6915 -0.2792
 4378TIP3    H213076   1.245   5.391   3.245  0.9524 -0.1843 -1.0931
 4379TIP3   OH213077   2.949   4.526   3.686  0.0968  0.5436  0.1406
 4379TIP3    H113078   2.933   4.446   3.736 -1.0588  0.3840 -0.4639
 4379TIP3    H213079   3.038   4.552   3.710  0.7316 -1.2704 -0.1338
 4380TIP3   OH213080   2.550   5.013   3.526  0.0991 -0.2207  0.0448
 4380TIP3    H113081   2.610   4.971   3.465 -0.3496  0.0281 -0.5789
 4380TIP3    H213082   2.576   4.981   3.612  0.1082 -1.3546 -0.3700
 4381TIP3   OH213083   4.815   2.773   5.928 -0.3616  0.1097  0.1250
 4381TIP3    H113084   4.854   2.702   5.877  0.3171  1.8847 -1.8694
 4381TIP3    H213085   4.758   2.728   5.991  0.7687 -2.2443 -0.4711
 4382TIP3   OH213086   1.470   4.919   5.630  0.1174  0.0730  0.2304
 4382TIP3    H113087   1.512   4.895   5.712  1.0971  2.7733  0.5917
 4382TIP3    H213088   1.420   4.997   5.651 -0.1070  0.4513 -1.5927
 4383TIP3   OH213089   8.151   0.384   6.947  0.0428  0.5711 -0.0824
 4383TIP3    H113090   8.246   0.371   6.948 -0.2647 -1.8622  0.3051
 4383TIP3    H213091   8.116   0.313   7.001 -1.8926  2.5430  1.3363
 4384TIP3   OH213092   7.925   5.076   3.866  0.2050  0.4390  0.1507
 4384TIP3    H113093   7.888   5.089   3.779 -1.7860  2.4808  1.2768
 4384TIP3    H213094   7.952   4.984   3.867  1.1554  0.6439 -2.9412
 4385TIP3   OH213095   2.168   5.685   1.459 -0.1710 -0.1890 -0.3276
 4385TIP3    H113096   2.173   5.757   1.521 -0.0775 -1.8410  1.6194
 4385TIP3    H213097   2.208   5.611   1.504 -0.0836 -1.4209 -2.3642
 4386TIP3   OH213098   1.450   5.773   2.665 -0.6922 -0.5183 -0.4583
 4386TIP3    H113099   1.370   5.824   2.659 -1.0216 -0.9354  0.2553
 4386TIP3    H213100   1.430   5.704   2.729  0.2522 -0.5836 -0.2235
 4387TIP3   OH213101   0.856   5.657   1.725 -0.0942 -0.6102  0.4227
 4387TIP3    H113102   0.914   5.676   1.799  0.9998  0.5924 -0.7137
 4387TIP3    H213103   0.769   5.683   1.755  0.7313  2.3342  0.3794
 4388TIP3   OH213104   8.252   6.486   2.287  0.6481 -0.2382  0.9670
 4388TIP3    H113105   8.207   6.449   2.363 -0.5506  0.3489  0.5533
 4388TIP3    H213106   8.186   6.485   2.217  2.0989 -1.9283 -0.4343
 4389TIP3   OH213107   0.162   6.849   4.434 -0.0975  0.4113 -0.0421
 4389TIP3    H113108   0.171   6.784   4.504  0.3602  0.6554  0.1292
 4389TIP3    H213109   0.247   6.894   4.431  0.6012 -0.9784 -2.1323
 4390TIP3   OH213110   2.406   5.052   2.780 -0.1974 -0.1872  0.3302
 4390TIP3    H113111   2.365   5.127   2.823  0.2572 -0.0022  0.4421
 4390TIP3    H213112   2.494   5.049   2.817  0.2931  0.1428 -0.7881
 4391TIP3   OH213113   2.696   6.884   4.477 -0.5439 -0.0284  0.1495
 4391TIP3    H113114   2.672   6.810   4.533 -2.1892  0.6413  0.3530
 4391TIP3    H213115   2.792   6.885   4.479 -0.5299 -1.4677  1.0359
 4392TIP3   OH213116   0.935   5.991   2.189  0.6761  0.3111 -0.3133
 4392TIP3    H113117   0.946   6.006   2.283 -2.1123  3.7617 -0.4055
 4392TIP3    H213118   1.016   6.023   2.149  1.8498 -1.1187  0.8809
 4393TIP3   OH213119   2.368   4.925   2.035 -0.3697 -0.3113 -0.2855
 4393TIP3    H113120   2.398   4.840   2.066  1.1719  0.1801 -0.3985
 4393TIP3    H213121   2.338   4.909   1.946 -0.4826 -0.8146 -0.1572
 4394TIP3   OH213122   0.250   5.877   1.071 -0.0878  0.4957  0.2088
 4394TIP3    H113123   0.252   5.785   1.095  3.8141  0.3588 -0.2245
 4394TIP3    H213124   0.253   5.877   0.975  0.5651  1.0215  0.2173
 4395TIP3   OH213125   0.819   6.797   2.296 -0.3897  0.3523  0.3674
 4395TIP3    H113126   0.856   6.844   2.370  0.6795  0.6061 -0.3207
 4395TIP3    H213127   0.892   6.749   2.259 -1.2557 -1.0380  0.4308
 4396TIP3   OH213128   2.604   5.601   1.464  0.2778  0.7373 -0.3632
 4396TIP3    H113129   2.694   5.602   1.433  0.0277 -0.1381 -1.1457
 4396TIP3    H213130   2.589   5.511   1.491 -0.9024  0.4448 -1.8893
 4397TIP3   OH213131   2.607   5.325   2.975  0.9372  0.3332 -0.0554
 4397TIP3    H113132   2.522   5.326   3.018  1.7709  0.2087  1.6505
 4397TIP3    H213133   2.654   5.252   3.016  2.4353  1.4138  0.1870
 4398TIP3   OH213134   3.101   6.214   4.201  0.0590 -0.0361  0.3845
 4398TIP3    H113135   3.124   6.122   4.187 -0.3826 -0.2281  0.9062
 4398TIP3    H213136   3.139   6.236   4.287  2.5487  1.0632 -0.9214
 4399TIP3   OH213137   3.216   4.882   2.832  0.2005 -0.0520 -0.3333
 4399TIP3    H113138   3.175   4.954   2.880 -0.3935  0.0893 -1.0433
 4399TIP3    H213139   3.310   4.896   2.845  0.0499  0.0079  0.7397
 4400TIP3   OH213140   2.628   5.083   2.306 -0.4460 -0.4703 -0.1587
 4400TIP3    H113141   2.550   5.032   2.328 -0.0272 -1.6469 -1.3530
 4400TIP3    H213142   2.698   5.042   2.358 -0.1963 -0.8363 -0.7803
 4401TIP3   OH213143   0.734   5.202   3.032 -0.1576  0.1951 -0.1031
 4401TIP3    H113144   0.640   5.197   3.018  0.1819 -1.5483 -2.1149
 4401TIP3    H213145   0.746   5.187   3.126 -1.8064 -1.2631 -0.1038
 4402TIP3   OH213146   0.086   4.596   4.404  0.0316  0.0475  0.0941
 4402TIP3    H113147   0.085   4.679   4.356  0.1390  0.3130  0.5471
 4402TIP3    H213148  -0.002   4.560   4.392  0.5051 -0.6075 -1.5479
 4403TIP3   OH213149   8.155   5.147   2.154 -0.3121 -0.1240  0.4780
 4403TIP3    H113150   8.201   5.189   2.227  1.1434 -0.5459 -0.1674
 4403TIP3    H213151   8.108   5.218   2.111 -1.0073  0.1635  1.6901
 4404TIP3   OH213152   2.074   4.652   3.234 -0.2259  0.2188  0.1759
 4404TIP3    H113153   1.991   4.616   3.203 -0.0357 -0.5226  0.5175
 4404TIP3    H213154   2.135   4.640   3.161 -0.8648  2.4191 -0.7548
 4405TIP3   OH213155   0.186   5.575   1.650 -0.4702  0.9937  0.1342
 4405TIP3    H113156   0.251   5.508   1.627  0.6782  1.4580  1.8828
 4405TIP3    H213157   0.102   5.535   1.630  0.2280 -0.8259  0.7502
 4406TIP3   OH213158   1.720   5.914   1.644 -0.0154  0.1556  0.2345
 4406TIP3    H113159   1.812   5.923   1.622  0.5728 -0.4666  2.2666
 4406TIP3    H213160   1.712   5.960   1.728 -1.6044  0.4118 -0.0481
 4407TIP3   OH213161   4.110   3.710   0.533 -0.0918 -0.5349  0.0241
 4407TIP3    H113162   4.184   3.766   0.509 -0.4571  0.0768  0.2891
 4407TIP3    H213163   4.148   3.638   0.582  0.4124 -0.6147 -0.4843
 4408TIP3   OH213164   0.135   5.343   2.156  0.3928 -0.2836  0.3823
 4408TIP3    H113165   0.047   5.379   2.165 -0.2396 -1.6606 -0.1560
 4408TIP3    H213166   0.193   5.416   2.179 -0.8602  0.8162  0.1455
 4409TIP3   OH213167   8.307   4.015   1.738  0.5185  0.0826 -0.3353
 4409TIP3    H113168   8.286   4.054   1.823 -0.6346  2.0313 -1.4747
 4409TIP3    H213169   8.267   3.928   1.741 -1.0349  0.8122  0.4488
 4410TIP3   OH213170   2.863   5.794   2.540 -0.2785  0.0454 -0.0850
 4410TIP3    H113171   2.862   5.803   2.445 -1.8984 -0.7067 -0.1473
 4410TIP3    H213172   2.826   5.707   2.556  0.2211  0.0697  1.2298
 4411TIP3   OH213173   0.582   5.371   1.117  0.5259  0.6180 -0.6794
 4411TIP3    H113174   0.589   5.458   1.158 -0.6573  1.0240 -1.2919
 4411TIP3    H213175   0.672   5.345   1.100  1.0172  0.5966  1.8377
 4412TIP3   OH213176   7.495   3.948   3.151  0.4010 -0.0634  0.0262
 4412TIP3    H113177   7.502   4.011   3.222  0.5369  0.0889 -0.1210
 4412TIP3    H213178   7.507   4.000   3.071 -1.0589 -0.0244 -0.1752
 4413TIP3   OH213179   1.263   3.806   0.438  0.3129  0.1486  0.4413
 4413TIP3    H113180   1.234   3.782   0.350 -0.7187 -0.2382  0.8748
 4413TIP3    H213181   1.262   3.723   0.487  1.3408  0.2759  0.6977
 4414TIP3   OH213182   1.834   4.729   3.850  0.7767  0.0384 -0.1823
 4414TIP3    H113183   1.870   4.702   3.934 -0.8268  0.8137  0.7768
 4414TIP3    H213184   1.870   4.667   3.787  1.9327 -0.5873  1.0864
 4415TIP3   OH213185   3.070   5.093   1.836  0.2788 -0.2824 -0.2041
 4415TIP3    H113186   3.164   5.094   1.820  0.0470 -0.0346 -1.6246
 4415TIP3    H213187   3.031   5.128   1.755 -0.9973  0.1261  0.5669
 4416TIP3   OH213188   2.004   5.319   1.013  0.6406 -0.4873  0.2783
 4416TIP3    H113189   1.912   5.300   1.029  0.9043 -0.9732  1.3094
 4416TIP3    H213190   2.005   5.408   0.980 -0.1981 -0.4521  0.3371
 4417TIP3   OH213191   1.120   3.888   5.359 -0.8125  0.5255  0.2541
 4417TIP3    H113192   1.170   3.855   5.284  0.7952  0.9319  1.1433
 4417TIP3    H213193   1.081   3.810   5.398 -1.8219  0.3252 -1.0930
 4418TIP3   OH213194   3.261   7.027   1.423 -0.0329 -0.8926 -0.3598
 4418TIP3    H113195   3.336   6.977   1.456  0.0733  0.1617  1.0214
 4418TIP3    H213196   3.199   7.027   1.495  0.8308  2.7518  0.4626
 4419TIP3   OH213197   1.282   5.628   1.746 -0.4999 -0.0672 -0.1504
 4419TIP3    H113198   1.368   5.635   1.704  0.6637  1.4462  2.3190
 4419TIP3    H213199   1.299   5.576   1.825 -2.1662 -0.9956 -0.3981
 4420TIP3   OH213200   1.644   4.248   2.749  0.0449 -0.4089  0.1885
 4420TIP3    H113201   1.655   4.283   2.661 -1.8729  0.7201  0.3668
 4420TIP3    H213202   1.666   4.155   2.741  1.8623  0.1082 -1.0240
 4421TIP3   OH213203   1.769   4.310   1.453 -0.2772  0.3613 -0.5066
 4421TIP3    H113204   1.754   4.328   1.361  0.7707 -1.6278 -1.0829
 4421TIP3    H213205   1.865   4.312   1.462 -0.1890 -2.8083 -0.1954
 4422TIP3   OH213206   2.169   6.021   3.149  0.7050  0.1039 -0.3257
 4422TIP3    H113207   2.090   6.032   3.203  0.7562  2.3577 -0.6512
 4422TIP3    H213208   2.136   5.988   3.066 -0.0143  1.7067 -0.7020
 4423TIP3   OH213209   0.517   6.766   3.089  0.0824  0.4031  0.3056
 4423TIP3    H113210   0.554   6.779   3.002  1.4465 -2.2575  0.4455
 4423TIP3    H213211   0.525   6.852   3.132  1.7848  1.0655 -1.2904
 4424TIP3   OH213212   2.605   3.351   2.287  0.1413  0.1852 -0.2317
 4424TIP3    H113213   2.522   3.372   2.330  0.2055  0.6527 -0.3340
 4424TIP3    H213214   2.607   3.407   2.210  1.0501  0.9533  0.3439
 4425TIP3   OH213215   3.648   3.951   2.593  0.0471 -0.2525  0.1823
 4425TIP3    H113216   3.572   3.975   2.646 -0.8132 -1.6457 -0.3919
 4425TIP3    H213217   3.716   3.927   2.656 -0.2718  0.1676  0.6811
 4426TIP3   OH213218   4.154   6.161   3.258 -0.7166 -0.1780  0.0037
 4426TIP3    H113219   4.083   6.125   3.313 -2.6382  1.9740 -0.9864
 4426TIP3    H213220   4.148   6.111   3.176 -0.9325 -0.1410 -0.0032
 4427TIP3   OH213221   2.544   6.288   1.791 -0.3093  0.2314  0.3026
 4427TIP3    H113222   2.569   6.355   1.727 -0.8505  0.2122  0.0688
 4427TIP3    H213223   2.578   6.321   1.874  0.2689  0.3279  0.0267
 4428TIP3   OH213224   1.355   7.366   3.759 -0.0155  0.0129 -0.2208
 4428TIP3    H113225   1.281   7.423   3.780  1.4310  2.1531 -0.8154
 4428TIP3    H213226   1.406   7.415   3.694  2.5606 -0.8864  1.0406
 4429TIP3   OH213227   1.450   4.625   0.865  0.7492  0.5078 -0.6814
 4429TIP3    H113228   1.496   4.551   0.905  0.8408  0.3177 -1.1376
 4429TIP3    H213229   1.485   4.629   0.776  0.0081  0.4789 -0.9746
 4430TIP3   OH213230   1.974   5.223   3.132  0.0265 -0.3527  1.0574
 4430TIP3    H113231   2.024   5.301   3.109 -0.5326 -0.4763 -0.7290
 4430TIP3    H213232   1.979   5.217   3.227  0.3009  1.7188  1.1943
 4431TIP3   OH213233   1.706   6.580   4.641 -0.0278  0.1945 -0.4298
 4431TIP3    H113234   1.713   6.664   4.685  1.3580  0.0516 -0.3559
 4431TIP3    H213235   1.612   6.561   4.640 -0.3189  1.5679 -0.1399
 4432TIP3   OH213236   2.292   6.786   2.751 -0.2352  0.7683  0.3483
 4432TIP3    H113237   2.326   6.874   2.734 -1.1061  1.2643  1.1179
 4432TIP3    H213238   2.333   6.761   2.834  0.9584 -0.0513 -0.4801
 4433TIP3   OH213239   2.229   6.493   1.112  0.1157  0.7970 -0.2840
 4433TIP3    H113240   2.320   6.464   1.104  0.3433  1.1493  0.9292
 4433TIP3    H213241   2.192   6.437   1.180 -0.1132  1.7400  0.3725
 4434TIP3   OH213242   2.996   4.493   2.100 -0.0431 -0.0125 -0.0028
 4434TIP3    H113243   2.913   4.539   2.088 -0.4571 -0.7358  0.0633
 4434TIP3    H213244   2.979   4.431   2.170  0.6186 -0.0232  0.1505
 4435TIP3   OH213245   4.053   6.623   2.370 -0.2564 -0.3551  0.0559
 4435TIP3    H113246   4.092   6.710   2.377  1.1973 -1.1517  2.4219
 4435TIP3    H213247   3.966   6.639   2.332  1.1448  1.7515 -2.4338
 4436TIP3   OH213248   2.722   4.620   5.038 -0.2783 -0.4301 -0.2198
 4436TIP3    H113249   2.791   4.624   4.972  0.1100 -3.0834 -0.0256
 4436TIP3    H213250   2.642   4.608   4.988 -0.3698  0.5309 -0.3269
 4437TIP3   OH213251   7.829   3.932   2.123 -0.0195 -0.4451 -0.0573
 4437TIP3    H113252   7.886   3.955   2.197  0.7403 -0.7691 -0.5297
 4437TIP3    H213253   7.794   4.015   2.093  1.6957 -0.0241 -0.9455
 4438TIP3   OH213254   1.425   5.917   1.740 -0.1163 -0.3703 -0.2948
 4438TIP3    H113255   1.484   5.916   1.816  1.1099  1.2392 -1.1862
 4438TIP3    H213256   1.459   5.849   1.682  0.7982  0.4307 -0.7233
 4439TIP3   OH213257   1.197   4.479   3.268  0.0012 -0.5853 -0.3871
 4439TIP3    H113258   1.134   4.498   3.337  0.0159 -1.8554 -0.0093
 4439TIP3    H213259   1.282   4.482   3.311 -0.0088 -1.6556 -0.2800
 4440TIP3   OH213260   0.406   6.961   4.350 -0.4721  0.4708 -0.0368
 4440TIP3    H113261   0.497   6.931   4.358 -1.0127 -1.2477 -0.2147
 4440TIP3    H213262   0.408   7.021   4.274  0.4290  0.1431 -0.2830
 4441TIP3   OH213263   2.165   5.813   2.920 -0.5383  0.3051 -0.5986
 4441TIP3    H113264   2.157   5.739   2.859 -0.9166 -2.2370  2.4230
 4441TIP3    H213265   2.083   5.862   2.908  0.3989  1.2816 -3.7836
 4442TIP3   OH213266   2.092   7.355   3.317 -0.2967  0.3064  0.8475
 4442TIP3    H113267   2.163   7.326   3.260  0.5252  2.3200  0.7975
 4442TIP3    H213268   2.020   7.375   3.258  0.0356  0.8893  0.6254
 4443TIP3   OH213269   2.403   5.298   3.136  0.4051  0.0194  0.5177
 4443TIP3    H113270   2.398   5.229   3.203 -1.8302 -0.9127 -0.5513
 4443TIP3    H213271   2.365   5.375   3.178  0.5614 -0.0874  0.8618
 4444TIP3   OH213272   2.332   7.809   4.891  0.1342  0.0940 -0.1022
 4444TIP3    H113273   2.326   7.715   4.874 -0.0986  0.2520 -0.9370
 4444TIP3    H213274   2.269   7.825   4.962  1.9443 -0.7714  1.7399
 4445TIP3   OH213275   0.244   1.050   6.990  0.1805  0.3831  0.4643
 4445TIP3    H113276   0.326   1.001   6.991 -0.3880 -0.5763  0.7432
 4445TIP3    H213277   0.271   1.142   6.987  1.2669  0.1355  2.1095
 4446TIP3   OH213278   2.814   3.948   4.033  0.1214 -0.0660 -0.0818
 4446TIP3    H113279   2.781   4.037   4.022  0.1136  0.1238  1.3794
 4446TIP3    H213280   2.739   3.892   4.012 -1.1257  0.3620  2.9785
 4447TIP3   OH213281   7.253   3.301   3.721  0.0195  0.2396  0.0086
 4447TIP3    H113282   7.235   3.315   3.814  0.3905  1.2356 -0.0613
 4447TIP3    H213283   7.181   3.246   3.691 -1.3895  1.8342  0.3665
 4448TIP3   OH213284   1.920   6.059   3.264  0.0260  0.2715  0.5132
 4448TIP3    H113285   1.872   6.015   3.334 -0.4974 -0.2498 -0.1725
 4448TIP3    H213286   1.852   6.101   3.211  0.1703 -1.8431 -1.4132
 4449TIP3   OH213287   1.951   6.367   1.559 -0.3834  0.0275  0.0057
 4449TIP3    H113288   1.888   6.359   1.630  1.9226  0.2134  2.1117
 4449TIP3    H213289   1.966   6.461   1.552  0.4112 -0.0860  0.1859
 4450TIP3   OH213290   2.363   3.782   2.198  0.2999 -0.1128 -0.3209
 4450TIP3    H113291   2.299   3.785   2.269 -1.1404  1.4066 -1.6222
 4450TIP3    H213292   2.315   3.743   2.125  1.5303 -0.9764 -0.6869
 4451TIP3   OH213293   1.952   3.319   1.172  0.1903  0.2805 -0.1749
 4451TIP3    H113294   1.945   3.408   1.135 -1.1861  0.3972  0.3650
 4451TIP3    H213295   1.906   3.264   1.109 -0.0982  0.1304  0.1747
 4452TIP3   OH213296   1.445   5.037   6.420  0.3520  0.2197 -0.2930
 4452TIP3    H113297   1.411   4.950   6.399 -0.6271  0.7677 -1.0579
 4452TIP3    H213298   1.515   5.052   6.356  0.7620 -0.1546  0.0713
 4453TIP3   OH213299   1.378   4.571   2.966  0.0117  0.2427  0.4325
 4453TIP3    H113300   1.442   4.505   2.992 -1.0734 -0.7804  0.5619
 4453TIP3    H213301   1.294   4.525   2.970 -0.7925  1.7213  0.8256
 4454TIP3   OH213302   8.282   6.714   3.759 -0.3064  0.2233 -0.5230
 4454TIP3    H113303   8.187   6.722   3.771 -0.0927  0.8346  0.9422
 4454TIP3    H213304   8.318   6.724   3.848  1.2494  2.1006 -1.3180
 4455TIP3   OH213305   0.565   4.337   2.783  0.0185 -0.1010 -0.4812
 4455TIP3    H113306   0.517   4.256   2.767 -1.6280  0.4455  1.5663
 4455TIP3    H213307   0.650   4.308   2.817  0.0826 -0.9879 -1.3690
 4456TIP3   OH213308   2.971   4.702   4.481  0.0899 -0.3602 -0.3549
 4456TIP3    H113309   2.951   4.635   4.416  0.8438  0.3272 -1.3157
 4456TIP3    H213310   3.066   4.705   4.485  0.0703  0.8430 -0.5261
 4457TIP3   OH213311   2.099   5.094   2.803  0.4146 -0.2147  0.2203
 4457TIP3    H113312   2.119   5.162   2.739  2.0088 -0.5428  0.3410
 4457TIP3    H213313   2.108   5.012   2.754 -0.7333 -0.3750  0.2696
 4458TIP3   OH213314   8.531   6.389   1.586 -0.1765  0.0469  0.1930
 4458TIP3    H113315   8.618   6.369   1.552 -0.1577 -0.1191  0.3397
 4458TIP3    H213316   8.545   6.404   1.680 -0.0610  1.5252 -0.0539
 4459TIP3   OH213317   1.047   4.537   4.560  0.4072 -0.0244  0.3072
 4459TIP3    H113318   1.090   4.621   4.571  1.0960 -0.5038  1.3847
 4459TIP3    H213319   1.100   4.491   4.495 -1.3857  1.2861 -2.1909
 4460TIP3   OH213320   1.928   5.463   3.888 -0.2107 -0.0830  0.5540
 4460TIP3    H113321   1.895   5.444   3.976  1.6070 -1.7249  0.9266
 4460TIP3    H213322   1.929   5.377   3.845  0.6756  0.4253 -0.4451
 4461TIP3   OH213323   2.095   3.331   4.062 -0.1617  0.2835  0.5284
 4461TIP3    H113324   2.032   3.369   4.000  0.1850  0.3258  0.2036
 4461TIP3    H213325   2.100   3.239   4.038 -0.0848  0.2839  0.5428
 4462TIP3   OH213326   3.333   5.934   0.884 -0.3431 -1.0636 -0.4689
 4462TIP3    H113327   3.264   5.971   0.939  0.2557 -0.6760  0.0240
 4462TIP3    H213328   3.292   5.927   0.797 -0.9320 -0.6290 -0.2345
 4463TIP3   OH213329   0.094   5.530   2.420 -0.7149  0.3067 -0.0888
 4463TIP3    H113330   0.171   5.554   2.471  0.1373 -0.8716 -0.8007
 4463TIP3    H213331   0.022   5.575   2.464  0.1410  0.1298  1.5596
 4464TIP3   OH213332   2.062   6.980   2.552  0.1473 -0.4061 -0.1058
 4464TIP3    H113333   2.118   6.912   2.591  0.1793  0.5468  1.5523
 4464TIP3    H213334   2.120   7.028   2.494  0.9482  0.2400  1.2027
 4465TIP3   OH213335   0.038   2.476   3.664 -0.0982 -0.2356  0.9827
 4465TIP3    H113336   0.090   2.401   3.637 -0.2530 -0.6169  1.7308
 4465TIP3    H213337   0.102   2.547   3.676 -0.2503  0.5200 -2.3575
 4466TIP3   OH213338   0.405   5.299   2.576 -0.2313  0.1357  0.5774
 4466TIP3    H113339   0.425   5.388   2.546 -0.3137 -0.0450 -0.0107
 4466TIP3    H213340   0.309   5.294   2.573 -0.1461 -0.6928 -1.4707
 4467TIP3   OH213341   1.413   6.185   6.358  0.3649  0.1272  0.1459
 4467TIP3    H113342   1.426   6.274   6.326  1.1049 -0.1905 -0.4717
 4467TIP3    H213343   1.491   6.166   6.409  0.2950 -0.2254  0.1237
 4468TIP3   OH213344   1.946   6.610   3.069  0.3267 -0.6990 -0.0061
 4468TIP3    H113345   1.966   6.622   2.976 -0.2673 -1.5815 -0.2550
 4468TIP3    H213346   1.987   6.526   3.091 -1.2033 -1.4506  0.0306
 4469TIP3   OH213347   8.537   5.544   0.686 -0.0669 -0.1775 -0.5438
 4469TIP3    H113348   8.630   5.538   0.663 -0.1880 -1.8925 -0.6696
 4469TIP3    H213349   8.502   5.612   0.629  1.0289  0.1962 -0.7818
 4470TIP3   OH213350   2.839   6.765   2.896  0.3111  0.1180  0.3854
 4470TIP3    H113351   2.818   6.751   2.804 -0.3904  2.7581  0.1235
 4470TIP3    H213352   2.904   6.697   2.916  0.4981 -0.4612 -2.0408
 4471TIP3   OH213353   2.290   3.455   2.112 -0.1118  0.3312  0.1880
 4471TIP3    H113354   2.383   3.432   2.113 -0.3347 -0.6068  0.0020
 4471TIP3    H213355   2.265   3.459   2.204 -0.0046  0.0774  0.2292
 4472TIP3   OH213356   0.719   5.015   6.704 -0.2377  0.2915  0.3615
 4472TIP3    H113357   0.692   4.982   6.619  2.3156  0.0493 -0.3899
 4472TIP3    H213358   0.659   4.974   6.766 -0.6311 -1.3539 -1.0842
 4473TIP3   OH213359   2.268   4.623   0.995  0.8442 -0.6731 -0.3312
 4473TIP3    H113360   2.179   4.657   0.996  1.1093  0.0349 -0.3771
 4473TIP3    H213361   2.292   4.622   0.902  1.1138 -0.2304 -0.2714
 4474TIP3   OH213362   3.022   4.364   5.738 -0.0819  0.1441 -0.3415
 4474TIP3    H113363   3.008   4.416   5.817  1.0337  0.0221 -0.0508
 4474TIP3    H213364   3.088   4.414   5.689 -2.0037  1.1014 -2.0151
 4475TIP3   OH213365   0.901   6.381   1.971 -0.2700 -0.1961  0.0317
 4475TIP3    H113366   0.978   6.415   1.925 -0.0693  1.0804  1.2942
 4475TIP3    H213367   0.929   6.372   2.062 -1.2600 -0.8645  0.2790
 4476TIP3   OH213368   2.676   4.221   3.952 -0.3628  0.3432  0.5872
 4476TIP3    H113369   2.598   4.207   4.005 -0.7425 -0.9054 -0.2558
 4476TIP3    H213370   2.730   4.281   4.003 -1.2215  0.0626  1.8524
 4477TIP3   OH213371   1.714   7.008   4.271  0.0094 -0.2140  0.6448
 4477TIP3    H113372   1.656   6.936   4.246 -0.7992  1.0249 -1.1163
 4477TIP3    H213373   1.655   7.077   4.302  0.4141  1.3554 -1.9196
 4478TIP3   OH213374   0.715   5.628   3.713 -0.2688  0.6400  0.5334
 4478TIP3    H113375   0.624   5.606   3.734 -0.4186  3.0278  2.5552
 4478TIP3    H213376   0.765   5.599   3.790  0.7940 -1.0753 -0.7511
 4479TIP3   OH213377   1.332   4.708   5.243 -0.9521  1.1319  0.4472
 4479TIP3    H113378   1.243   4.680   5.221 -0.8446  0.5608  0.7268
 4479TIP3    H213379   1.340   4.691   5.337  0.0076 -0.3694  0.1022
 4480TIP3   OH213380   8.557   6.134   2.336  0.3804 -0.0338 -0.0527
 4480TIP3    H113381   8.553   6.223   2.301 -1.9244 -0.4967 -1.0745
 4480TIP3    H213382   8.546   6.078   2.260  0.2630 -1.1660  0.7884
 4481TIP3   OH213383   3.745   5.160   4.058  0.1533 -0.0137 -0.2220
 4481TIP3    H113384   3.704   5.130   4.139 -0.3798  0.4682 -0.3113
 4481TIP3    H213385   3.807   5.090   4.036 -2.5322 -2.0851 -1.5292
 4482TIP3   OH213386   2.797   5.314   0.998 -0.3450  0.1429  0.0964
 4482TIP3    H113387   2.786   5.222   1.018 -0.9558  0.2572  0.2953
 4482TIP3    H213388   2.837   5.316   0.911  2.7882 -0.3730  1.4388
 4483TIP3   OH213389   2.857   4.552   3.415 -0.0578  0.1647  0.2872
 4483TIP3    H113390   2.940   4.557   3.367  0.5171  0.7124  1.3406
 4483TIP3    H213391   2.882   4.545   3.507 -1.1632 -1.0038  0.5235
 4484TIP3   OH213392   8.128   5.199   4.591 -0.4673  0.4640 -0.1732
 4484TIP3    H113393   8.034   5.211   4.600 -0.5599  1.7238 -2.4331
 4484TIP3    H213394   8.146   5.220   4.499  1.9510 -0.1757  0.1231
 4485TIP3   OH213395   2.843   4.942   4.578 -0.0558  0.5482  0.3644
 4485TIP3    H113396   2.750   4.920   4.581 -0.2518  0.9476 -2.1659
 4485TIP3    H213397   2.886   4.861   4.551  0.2659  0.5682  0.8064
 4486TIP3   OH213398   2.528   2.540   2.270 -0.7595 -0.1185 -0.2254
 4486TIP3    H113399   2.526   2.445   2.253 -1.0772  0.2741 -2.5126
 4486TIP3    H213400   2.436   2.566   2.270 -0.6958  0.1106  0.8983
 4487TIP3   OH213401   3.558   4.299   3.227  0.0504  0.3074  0.2517
 4487TIP3    H113402   3.556   4.264   3.316  0.8195  3.3003  1.5271
 4487TIP3    H213403   3.497   4.374   3.230 -0.5743 -0.0863 -1.9881
 4488TIP3   OH213404   1.212   6.307   4.190  0.1104 -0.1645 -0.0066
 4488TIP3    H113405   1.267   6.242   4.148  0.4236 -0.2866  0.5892
 4488TIP3    H213406   1.147   6.330   4.123 -0.6230 -1.8224  0.1225
 4489TIP3   OH213407   3.416   5.038   3.093  0.2170 -0.4490 -0.0148
 4489TIP3    H113408   3.337   5.074   3.054  0.5728 -0.3564 -0.6675
 4489TIP3    H213409   3.436   4.960   3.041  0.5552 -0.4678  0.1377
 4490TIP3   OH213410   1.665   5.466   3.331 -0.4453 -0.2365 -0.2640
 4490TIP3    H113411   1.676   5.560   3.319 -2.6136  0.4909  2.8188
 4490TIP3    H213412   1.633   5.434   3.246 -2.2183  2.2584 -0.5986
 4491TIP3   OH213413   1.629   4.534   5.677 -0.1040 -0.0695  0.3981
 4491TIP3    H113414   1.554   4.477   5.693 -0.4895  0.0081 -1.0314
 4491TIP3    H213415   1.705   4.477   5.687 -0.4560 -0.6895 -0.3707
 4492TIP3   OH213416   2.079   5.011   5.030  0.0708 -0.1340 -0.0357
 4492TIP3    H113417   2.091   5.100   5.064  0.5772 -0.3026  0.2361
 4492TIP3    H213418   2.110   5.016   4.940 -0.7866  0.1907 -0.3148
 4493TIP3   OH213419   0.548   3.709   1.835  0.0933 -0.0065 -0.0289
 4493TIP3    H113420   0.602   3.768   1.782  1.4771 -0.4071  0.9081
 4493TIP3    H213421   0.458   3.727   1.806  0.8208 -0.4123 -2.6967
 4494TIP3   OH213422   2.189   4.142   4.559  0.1156 -0.1406  0.4784
 4494TIP3    H113423   2.146   4.061   4.532 -0.9365  0.5945 -0.0482
 4494TIP3    H213424   2.212   4.127   4.651 -0.9484 -0.6615  0.6600
 4495TIP3   OH213425   2.420   5.102   4.292  0.2311 -0.8388  0.7764
 4495TIP3    H113426   2.420   5.082   4.386 -3.9023 -0.9681  0.8363
 4495TIP3    H213427   2.388   5.192   4.287  1.7094 -0.3543 -0.4814
 4496TIP3   OH213428   8.212   6.580   2.730  0.2061 -0.4397  0.1655
 4496TIP3    H113429   8.294   6.622   2.706  0.1697  0.6357  1.8343
 4496TIP3    H213430   8.144   6.637   2.694  0.1681 -0.9302 -0.5621
 4497TIP3   OH213431   0.141   4.643   2.464  0.5122 -0.1958  0.0459
 4497TIP3    H113432   0.158   4.619   2.373 -0.1409  1.0702 -0.4272
 4497TIP3    H213433   0.201   4.716   2.481 -0.3387  0.4748  0.1880
 4498TIP3   OH213434   1.278   6.017   1.479 -0.2954  0.6422 -0.7693
 4498TIP3    H113435   1.281   6.113   1.472  0.9221  0.6862  0.0593
 4498TIP3    H213436   1.303   6.000   1.570 -2.2582 -0.3969 -0.3977
 4499TIP3   OH213437   1.165   5.420   2.253 -0.7222 -0.3479 -0.6272
 4499TIP3    H113438   1.232   5.391   2.314 -1.2546  0.2674  0.2544
 4499TIP3    H213439   1.179   5.366   2.175  1.2246  0.2399 -0.7036
 4500TIP3   OH213440   3.445   5.778   2.413 -0.3067  0.2511 -0.0044
 4500TIP3    H113441   3.468   5.773   2.506  1.6910  1.0674 -0.4199
 4500TIP3    H213442   3.502   5.848   2.379 -0.6207 -0.4326 -1.9547
 4501TIP3   OH213443   3.048   5.738   0.568 -0.2641  0.7725  0.1879
 4501TIP3    H113444   2.980   5.700   0.624 -1.6516  1.6331 -0.8849
 4501TIP3    H213445   3.014   5.728   0.479 -0.4086  3.8968 -0.1857
 4502TIP3   OH213446   3.235   5.066   1.402  0.3946 -1.0899 -0.5847
 4502TIP3    H113447   3.176   5.021   1.342  0.2683 -1.9127  0.1577
 4502TIP3    H213448   3.241   5.009   1.478  0.4364  0.0216  0.2602
 4503TIP3   OH213449   2.025   4.791   1.020 -0.2206 -0.3893 -0.3129
 4503TIP3    H113450   1.977   4.797   0.937 -0.9760 -0.1580  0.1369
 4503TIP3    H213451   1.978   4.848   1.079  2.1980  2.0158 -0.6048
 4504TIP3   OH213452   3.096   3.735   1.938  0.5183 -0.7538  0.4031
 4504TIP3    H113453   3.073   3.720   2.030  0.4579 -0.6901  0.3983
 4504TIP3    H213454   3.056   3.662   1.891 -0.0827 -0.3812  0.3335
 4505TIP3   OH213455   1.977   4.972   2.244 -0.4594  0.1524  0.7220
 4505TIP3    H113456   1.919   4.920   2.300  1.6953 -1.0928  1.8820
 4505TIP3    H213457   2.061   4.926   2.249 -0.0270  0.4078 -3.0240
 4506TIP3   OH213458   2.826   6.415   3.050 -0.2682 -0.8652 -0.4258
 4506TIP3    H113459   2.858   6.326   3.066  0.4571 -0.7291 -1.0777
 4506TIP3    H213460   2.791   6.411   2.961 -0.9748 -0.7031 -0.1547
 4507TIP3   OH213461   1.654   5.235   3.763 -0.5232  0.5557 -0.0952
 4507TIP3    H113462   1.616   5.319   3.791 -2.4957 -0.7595  1.3262
 4507TIP3    H213463   1.586   5.171   3.783  1.8416 -1.7008  0.9337
 4508TIP3   OH213464   2.505   4.375   2.426 -0.7397 -0.1074  0.0756
 4508TIP3    H113465   2.426   4.360   2.374  0.3126 -0.5824 -1.4370
 4508TIP3    H213466   2.496   4.316   2.501 -2.2055  0.4535  0.3543
 4509TIP3   OH213467   0.676   3.987   3.358 -0.1166  0.2950  0.5384
 4509TIP3    H113468   0.690   3.955   3.269 -1.5646 -0.3367  0.5292
 4509TIP3    H213469   0.589   3.956   3.382  1.0112 -1.2216  2.9006
 4510TIP3   OH213470   1.347   4.128   3.277 -0.2933 -0.4936 -0.1706
 4510TIP3    H113471   1.359   4.101   3.368 -0.3447  0.1361  0.0239
 4510TIP3    H213472   1.259   4.163   3.273 -0.0988 -0.0220 -0.3414
 4511TIP3   OH213473   3.373   5.906   3.862 -0.4547  1.0307  0.6055
 4511TIP3    H113474   3.334   5.874   3.781 -0.1502  0.5292  0.6612
 4511TIP3    H213475   3.362   6.001   3.857  2.7414  1.3374 -1.6511
 4512TIP3   OH213476   2.681   4.909   3.304 -0.0783  0.2857 -0.1009
 4512TIP3    H113477   2.655   4.821   3.276  1.0627  0.2451 -1.0892
 4512TIP3    H213478   2.625   4.968   3.254 -0.5085  0.1379  0.2019
 4513TIP3   OH213479   3.795   2.920   2.488 -0.5870 -0.2867  0.1647
 4513TIP3    H113480   3.762   2.871   2.563 -0.2411  0.6820  0.9626
 4513TIP3    H213481   3.823   2.853   2.426 -0.1284 -1.1011  1.2341
 4514TIP3   OH213482   2.628   4.571   3.303  0.2994  0.3721  0.1209
 4514TIP3    H113483   2.597   4.511   3.371 -0.6008  0.3550 -0.3026
 4514TIP3    H213484   2.723   4.576   3.317  0.2760 -0.5641  0.6233
 4515TIP3   OH213485   2.308   3.889   1.423 -0.0010  0.3470 -0.0102
 4515TIP3    H113486   2.401   3.877   1.409  0.2410  1.9477  0.0622
 4515TIP3    H213487   2.292   3.855   1.511  0.5965  0.4385  0.1357
 4516TIP3   OH213488   2.611   4.460   0.584 -0.6875  0.1051  0.1435
 4516TIP3    H113489   2.596   4.398   0.656  0.2390 -0.8244 -0.4433
 4516TIP3    H213490   2.706   4.466   0.577 -0.7750  0.7453 -0.5334
 4517TIP3   OH213491   3.942   3.466   2.660  0.0390  0.4251  0.2074
 4517TIP3    H113492   3.906   3.430   2.580  0.1674  0.8485 -0.0448
 4517TIP3    H213493   3.978   3.551   2.634  1.1480  0.0494  0.4558
 4518TIP3   OH213494   3.077   5.555   2.355 -0.2545  0.0402 -0.3778
 4518TIP3    H113495   3.159   5.560   2.306  0.1243 -0.0797  0.2361
 4518TIP3    H213496   3.042   5.468   2.335  0.3885 -0.3873  0.3317
 4519TIP3   OH213497   4.119   3.709   2.776 -0.0409  0.3740  0.7425
 4519TIP3    H113498   4.212   3.687   2.767 -0.4758 -1.3539  0.3577
 4519TIP3    H213499   4.106   3.720   2.870 -0.0708 -2.3287  1.1016
 4520TIP3   OH213500   7.619   6.169   1.379  0.3428  0.3656 -0.6982
 4520TIP3    H113501   7.555   6.214   1.324  1.0693  1.5926 -0.5568
 4520TIP3    H213502   7.675   6.239   1.413  0.8744 -0.5437  0.3297
 4521TIP3   OH213503   1.883   4.342   3.244  0.6552 -0.6461  0.2931
 4521TIP3    H113504   1.832   4.347   3.325  0.4248 -2.9724  0.3114
 4521TIP3    H213505   1.859   4.422   3.196 -1.3365 -0.6296  1.2648
 4522TIP3   OH213506   2.845   3.550   2.386 -0.2623 -0.3383 -0.7908
 4522TIP3    H113507   2.881   3.526   2.472 -0.8868 -0.4300 -0.5571
 4522TIP3    H213508   2.752   3.565   2.402 -0.0307  1.5017 -1.0751
 4523TIP3   OH213509   4.591   3.160   2.240  0.3654 -0.0866 -0.5283
 4523TIP3    H113510   4.673   3.133   2.197  0.0691 -2.0169  0.0821
 4523TIP3    H213511   4.558   3.081   2.282 -1.0791  1.0090  0.4778
 4524TIP3   OH213512   7.990   4.474   3.238 -0.0102  0.0332  0.1226
 4524TIP3    H113513   8.065   4.424   3.270  1.4074  0.3602 -2.4796
 4524TIP3    H213514   7.923   4.408   3.222  0.1634 -0.4289  1.2453
 4525TIP3   OH213515   2.105   4.498   0.343  0.1805  0.1637 -0.1526
 4525TIP3    H113516   2.166   4.524   0.273  0.0299 -0.3327 -0.4695
 4525TIP3    H213517   2.082   4.407   0.322  3.0944 -1.2942  2.6386
 4526TIP3   OH213518   6.903   5.453   1.938 -0.3966  0.4195  0.0191
 4526TIP3    H113519   6.948   5.378   1.978 -0.5922  0.5779  0.5493
 4526TIP3    H213520   6.950   5.529   1.972 -0.5852  0.5550 -0.0264
 4527TIP3   OH213521   2.203   7.988   4.066  0.3943  0.2099 -0.1985
 4527TIP3    H113522   2.111   7.963   4.067 -0.3049  2.6480  1.4641
 4527TIP3    H213523   2.217   8.025   3.979 -0.2981  0.1686 -0.3288
 4528TIP3   OH213524   1.431   6.901   2.070 -0.2724 -0.3044  0.4346
 4528TIP3    H113525   1.380   6.972   2.107 -1.6346 -1.3964  0.6836
 4528TIP3    H213526   1.501   6.944   2.021 -1.7983  1.2031 -0.4282
 4529TIP3   OH213527   2.764   6.522   3.418  0.5692 -0.3207  0.2298
 4529TIP3    H113528   2.839   6.511   3.476  0.8374 -0.2204 -0.1050
 4529TIP3    H213529   2.770   6.450   3.356  0.8285  0.1495 -0.2891
 4530TIP3   OH213530   2.183   5.310   3.716 -0.0986  0.2892  0.1577
 4530TIP3    H113531   2.100   5.270   3.742  0.0067 -0.4598 -0.6167
 4530TIP3    H213532   2.157   5.383   3.660 -0.2423 -2.5410 -3.7600
 4531TIP3   OH213533   2.032   3.554   3.499 -0.0747 -0.1504  0.3605
 4531TIP3    H113534   1.945   3.514   3.501  0.1645 -0.8111 -1.3325
 4531TIP3    H213535   2.015   3.647   3.484 -0.4905 -0.3381 -0.3876
 4532TIP3   OH213536   2.142   5.469   1.782 -0.1749  0.0220 -0.5948
 4532TIP3    H113537   2.155   5.563   1.769  1.8006 -0.2800 -1.0530
 4532TIP3    H213538   2.067   5.463   1.841 -1.0741  1.8454 -1.4877
 4533TIP3   OH213539   0.681   4.647   3.190  0.6030  0.2365 -0.3097
 4533TIP3    H113540   0.614   4.713   3.168  1.1638  0.7560 -0.4610
 4533TIP3    H213541   0.744   4.694   3.244  1.0346 -0.1604 -0.4661
 4534TIP3   OH213542   0.615   5.082   0.796 -0.1391 -0.2969 -0.2959
 4534TIP3    H113543   0.680   5.099   0.727 -0.3727  1.7396 -0.0558
 4534TIP3    H213544   0.551   5.024   0.754  0.3271 -0.0052 -1.4473
 4535TIP3   OH213545   1.819   4.585   3.139 -0.4033 -0.2636 -0.1564
 4535TIP3    H113546   1.803   4.603   3.046  0.3002 -2.0750 -0.6449
 4535TIP3    H213547   1.756   4.641   3.185 -2.4110 -1.1143 -1.7974
 4536TIP3   OH213548   5.533   0.283   0.945  0.7613  0.5622 -0.0311
 4536TIP3    H113549   5.614   0.234   0.931  0.5989  0.3126 -0.0932
 4536TIP3    H213550   5.554   0.372   0.915  0.9238  0.4285 -0.3152
 4537TIP3   OH213551   0.086   5.480   2.778  0.5910  0.1954  0.3319
 4537TIP3    H113552   0.008   5.447   2.825  1.0432 -0.2032  0.8140
 4537TIP3    H213553   0.106   5.411   2.715 -0.1479  0.8298 -0.6104
 4538TIP3   OH213554   1.124   5.654   3.013  0.0338  0.3974 -0.4099
 4538TIP3    H113555   1.055   5.663   2.947 -1.6479 -3.2604  0.7221
 4538TIP3    H213556   1.107   5.726   3.075 -1.2531  1.0334 -1.4753
 4539TIP3   OH213557   1.943   5.051   4.405 -0.1181 -0.2242 -0.1203
 4539TIP3    H113558   1.889   4.972   4.411 -0.4668  0.0294  0.0402
 4539TIP3    H213559   1.933   5.079   4.314  0.5411 -0.7455 -0.3596
 4540TIP3   OH213560   2.399   3.376   1.013 -0.2990 -0.1624  0.3989
 4540TIP3    H113561   2.326   3.339   0.963 -0.5314  0.9404 -0.0940
 4540TIP3    H213562   2.362   3.455   1.054  0.3545 -0.1323  0.9327
 4541TIP3   OH213563   2.335   4.548   2.662  0.0950 -0.2002  0.3292
 4541TIP3    H113564   2.282   4.557   2.582 -1.0221 -0.9007  0.9643
 4541TIP3    H213565   2.313   4.460   2.694  1.6741 -0.5000  0.6040
 4542TIP3   OH213566   2.179   3.616   3.917 -0.0302  0.7897  0.1037
 4542TIP3    H113567   2.231   3.666   3.854  1.8211  1.6244  2.2466
 4542TIP3    H213568   2.165   3.676   3.991 -1.1729 -0.5539  1.0109
 4543TIP3   OH213569   0.752   3.782   2.498 -0.1704  0.0635 -0.0795
 4543TIP3    H113570   0.675   3.834   2.475  0.1881  0.2942 -0.8000
 4543TIP3    H213571   0.808   3.788   2.421  0.3248 -0.5587  0.2280
 4544TIP3   OH213572   1.035   4.060   2.504 -0.1103 -0.3029  0.2337
 4544TIP3    H113573   1.070   3.982   2.462  0.3382 -0.7058  1.3231
 4544TIP3    H213574   0.998   4.112   2.433  1.9463 -0.2667 -0.8618
 4545TIP3   OH213575   1.080   2.600   2.923 -0.4945  0.4844 -0.1517
 4545TIP3    H113576   1.086   2.562   3.010 -0.6659 -0.4257 -0.5295
 4545TIP3    H213577   1.133   2.542   2.868 -2.0220 -0.1275 -1.0220
 4546TIP3   OH213578   4.877   2.080   2.798  0.7055  0.5105 -0.0610
 4546TIP3    H113579   4.842   2.074   2.709 -0.2024 -2.0854  0.4346
 4546TIP3    H213580   4.802   2.110   2.851  1.1943  1.8734 -0.1241
 4547TIP3   OH213581   4.001   4.377   5.214 -0.0274  0.3534 -0.3763
 4547TIP3    H113582   4.003   4.464   5.173 -2.3260  1.4035  1.5807
 4547TIP3    H213583   4.050   4.388   5.295 -0.4489 -0.1320 -0.0547
 4548TIP3   OH213584   8.557   6.028   3.605  0.2681  0.2848 -0.2417
 4548TIP3    H113585   8.494   6.017   3.534  1.4168  0.5591 -1.3239
 4548TIP3    H213586   8.552   6.121   3.628 -0.6767  0.0362  0.5944
 4549TIP3   OH213587   1.400   5.795   1.306  0.1070 -0.0263 -0.1444
 4549TIP3    H113588   1.493   5.787   1.328  0.0403 -1.2151 -0.2867
 4549TIP3    H213589   1.373   5.878   1.346  0.9063 -0.3309  1.0302
 4550TIP3   OH213590   2.637   3.021   1.264 -0.0363  0.4330 -0.4990
 4550TIP3    H113591   2.657   3.072   1.185 -0.6708  1.3873 -0.0564
 4550TIP3    H213592   2.715   2.968   1.278 -0.0948 -0.0838 -2.0239
 4551TIP3   OH213593   1.612   5.319   2.406 -0.1909 -0.5019 -0.1413
 4551TIP3    H113594   1.671   5.245   2.417 -0.0877 -0.0384  2.6850
 4551TIP3    H213595   1.658   5.393   2.443 -0.1899  1.1126 -3.1675
 4552TIP3   OH213596   1.976   5.587   0.700  0.2871  0.4084  0.5091
 4552TIP3    H113597   2.033   5.617   0.772 -0.7250 -0.3498  1.6402
 4552TIP3    H213598   1.887   5.601   0.732 -0.2077  2.6730 -1.7048
 4553TIP3   OH213599   0.804   4.432   3.610  0.1469  0.1913  0.0306
 4553TIP3    H113600   0.855   4.473   3.680 -0.5477  1.3815 -0.1320
 4553TIP3    H213601   0.725   4.486   3.604 -1.9135 -2.5789  1.4022
 4554TIP3   OH213602   2.300   5.915   6.296  0.0384  0.6405 -0.4203
 4554TIP3    H113603   2.251   5.982   6.249 -1.8536  0.0641  0.6530
 4554TIP3    H213604   2.359   5.878   6.231 -1.1120  1.2095 -1.8137
 4555TIP3   OH213605   5.077   3.894   4.079  0.0441 -0.2086 -0.2380
 4555TIP3    H113606   4.989   3.896   4.117  0.2985  1.6476  0.2768
 4555TIP3    H213607   5.124   3.829   4.131 -0.8989 -0.8937 -0.2359
 4556TIP3   OH213608   2.861   4.545   5.261  0.7863 -0.3025 -0.1543
 4556TIP3    H113609   2.876   4.632   5.299 -0.0308 -0.5578  0.7591
 4556TIP3    H213610   2.809   4.562   5.182  0.1247 -0.0088  0.3394
 4557TIP3   OH213611   1.356   6.807   2.401  0.2397 -0.4741  0.0890
 4557TIP3    H113612   1.383   6.827   2.491 -0.0119  0.7103 -0.0964
 4557TIP3    H213613   1.437   6.811   2.351  0.1511  0.3000  0.0119
 4558TIP3   OH213614   4.811   6.660   0.912 -0.3878 -0.4809  0.1068
 4558TIP3    H113615   4.716   6.658   0.899 -0.2789 -2.0514 -0.5139
 4558TIP3    H213616   4.841   6.572   0.889  1.2529  0.0698  0.0437
 4559TIP3   OH213617   3.492   7.204   2.476  0.1346  0.0622  0.1551
 4559TIP3    H113618   3.560   7.255   2.521 -0.8710  0.4799  1.2230
 4559TIP3    H213619   3.540   7.134   2.432  1.0210 -1.4598  3.3559
 4560TIP3   OH213620   2.907   4.833   0.873 -0.0752 -0.1399  0.1249
 4560TIP3    H113621   2.879   4.808   0.785 -0.6652 -0.4828  0.4100
 4560TIP3    H213622   2.997   4.864   0.861 -0.6649  1.2630 -0.8470
 4561TIP3   OH213623   4.179   5.384   2.515  0.5931  0.0717 -0.2239
 4561TIP3    H113624   4.270   5.357   2.507  0.9511  0.8667  0.9213
 4561TIP3    H213625   4.168   5.401   2.609 -0.5329  0.6587 -0.4555
 4562TIP3   OH213626   3.225   7.244   2.532 -0.1541 -0.6399  0.2703
 4562TIP3    H113627   3.317   7.243   2.507 -0.2729 -1.5342 -0.1541
 4562TIP3    H213628   3.222   7.297   2.611  0.3835  1.3954 -1.0318
 4563TIP3   OH213629   2.987   5.354   3.492  0.0634  0.3452  0.0224
 4563TIP3    H113630   2.923   5.292   3.458 -0.2700  1.6124 -1.6946
 4563TIP3    H213631   2.948   5.440   3.480  1.8548  1.1109 -0.6081
 4564TIP3   OH213632   3.136   3.607   2.886 -0.0935 -0.4273  0.0530
 4564TIP3    H113633   3.202   3.557   2.933 -0.7511 -1.5971 -0.2524
 4564TIP3    H213634   3.174   3.694   2.877  0.1075 -0.1843  2.6603
 4565TIP3   OH213635   4.449   4.119   0.301  0.4488  0.2662 -0.0285
 4565TIP3    H113636   4.523   4.179   0.294  1.5777 -0.9404  1.1272
 4565TIP3    H213637   4.418   4.129   0.391 -0.2645  0.1486 -0.2538
 4566TIP3   OH213638   5.934   4.121   0.650  0.0960  0.8096  0.1602
 4566TIP3    H113639   5.943   4.034   0.690 -0.1893  0.1889 -1.0880
 4566TIP3    H213640   6.021   4.160   0.656  0.2658  0.3673  0.5749
 4567TIP3   OH213641   3.894   4.259   2.940 -0.3677  0.4509  1.2415
 4567TIP3    H113642   3.822   4.263   2.876  0.1628 -1.2844  0.5106
 4567TIP3    H213643   3.872   4.326   3.005 -1.5178  1.4463 -0.1387
 4568TIP3   OH213644   3.896   4.304   1.062  0.1870  0.6207 -1.0770
 4568TIP3    H113645   3.916   4.211   1.073 -1.6801  0.4088  1.0212
 4568TIP3    H213646   3.841   4.308   0.984  0.5648 -0.0012 -1.3749
 4569TIP3   OH213647   3.492   2.821   2.410 -0.5256  0.3442  0.7063
 4569TIP3    H113648   3.405   2.789   2.431 -0.0329 -2.1715 -0.8125
 4569TIP3    H213649   3.538   2.824   2.494 -1.2993 -0.7735  1.1825
 4570TIP3   OH213650   6.717   5.882   0.432 -0.3002 -0.5245 -0.3922
 4570TIP3    H113651   6.750   5.967   0.404 -0.1837  0.2824  2.0851
 4570TIP3    H213652   6.740   5.876   0.524  1.3273 -4.0564 -0.9409
 4571TIP3   OH213653   7.431   2.473   6.782 -0.1366 -0.2124  0.3438
 4571TIP3    H113654   7.360   2.483   6.718  0.1944  1.0696  0.1614
 4571TIP3    H213655   7.500   2.531   6.750  1.8426 -3.0168 -0.6148
 4572TIP3   OH213656   7.615   3.404   6.579  0.0854  0.3865  0.3133
 4572TIP3    H113657   7.580   3.458   6.650 -2.2804 -1.1103  0.3437
 4572TIP3    H213658   7.627   3.465   6.506 -4.0142  0.7984 -0.1564
 4573TIP3   OH213659   6.297   3.586   1.186  0.2587  0.0347  0.2476
 4573TIP3    H113660   6.274   3.548   1.101 -0.0605 -2.5506  1.4541
 4573TIP3    H213661   6.319   3.510   1.241  0.0971  1.6446  2.5847
 4574TIP3   OH213662   3.188   5.161   3.033 -0.0297 -0.1946  0.7395
 4574TIP3    H113663   3.119   5.165   2.967  0.7333  2.3988  0.0537
 4574TIP3    H213664   3.153   5.211   3.107  1.4243  1.8540  0.0683
 4575TIP3   OH213665   3.032   4.287   2.292 -0.2718  0.4021 -0.3294
 4575TIP3    H113666   3.000   4.200   2.269  0.1794  0.4842 -1.3006
 4575TIP3    H213667   3.109   4.271   2.346 -0.5389  0.1967 -0.0139
 4576TIP3   OH213668   5.309   5.677   2.414 -0.0240  0.4943 -0.3066
 4576TIP3    H113669   5.272   5.762   2.391  0.2261  0.0606 -2.3974
 4576TIP3    H213670   5.403   5.694   2.425 -0.4209  1.0877  2.4435
 4577TIP3   OH213671   7.539   0.152   1.609 -0.9585 -0.5645 -0.2029
 4577TIP3    H113672   7.585   0.184   1.686 -1.5419 -1.6604  0.6092
 4577TIP3    H213673   7.471   0.217   1.593  0.2179  0.5489 -0.8259
 4578TIP3   OH213674   4.673   3.284   0.535  0.5387  0.2895  0.0284
 4578TIP3    H113675   4.730   3.207   0.540 -1.8132 -1.6948 -2.0855
 4578TIP3    H213676   4.697   3.327   0.453  1.3827  1.4353  0.8715
 4579TIP3   OH213677   4.948   5.795   1.502  0.4817 -0.1716  0.0950
 4579TIP3    H113678   4.915   5.845   1.576  1.2247  0.0066  0.3152
 4579TIP3    H213679   4.907   5.709   1.509 -1.4786  0.6691 -0.7721
 4580TIP3   OH213680   3.236   6.725   1.739 -0.4974  0.2642  0.3164
 4580TIP3    H113681   3.239   6.653   1.802 -1.2560  0.7523  0.9077
 4580TIP3    H213682   3.251   6.683   1.654 -2.2619 -0.7783  0.5098
 4581TIP3   OH213683   4.976   6.036   1.068  0.6704  0.1559  0.1586
 4581TIP3    H113684   5.007   5.947   1.053  1.6538  0.8883 -2.3920
 4581TIP3    H213685   4.883   6.033   1.049  0.7631 -0.2436 -0.2398
 4582TIP3   OH213686   1.965   6.701   2.371 -0.6237  0.6960 -0.7359
 4582TIP3    H113687   1.926   6.787   2.354  0.5629  1.2352 -0.7959
 4582TIP3    H213688   1.964   6.657   2.286 -0.3489  1.0338 -0.9193
 4583TIP3   OH213689   1.416   4.889   0.753 -0.0337 -0.6609  0.0204
 4583TIP3    H113690   1.474   4.938   0.695 -0.5692 -1.8704 -1.5862
 4583TIP3    H213691   1.474   4.837   0.808  0.5189  1.2747  1.3324
 4584TIP3   OH213692   7.056   0.432   1.240  0.0915 -0.1015 -0.3576
 4584TIP3    H113693   7.148   0.405   1.238  0.2317  0.2665  0.7222
 4584TIP3    H213694   7.038   0.461   1.151  0.7792 -0.9850 -0.7876
 4585TIP3   OH213695   3.799   7.588   0.567 -0.3810  0.7753 -0.4954
 4585TIP3    H113696   3.825   7.612   0.656 -1.1093  0.2582 -0.1395
 4585TIP3    H213697   3.704   7.602   0.564 -0.4863  0.0245 -0.9397
 4586TIP3   OH213698   8.527   0.697   6.925 -0.1260 -0.3672  0.0547
 4586TIP3    H113699   8.621   0.678   6.923 -0.4774 -1.9909 -1.1311
 4586TIP3    H213700   8.509   0.716   7.017  1.3082 -0.2809  0.3295
 4587TIP3   OH213701   4.890   6.856   1.262 -0.1671  0.5789  0.2252
 4587TIP3    H113702   4.884   6.929   1.200  2.0628  0.5863 -0.0002
 4587TIP3    H213703   4.974   6.868   1.306 -1.0153 -0.3131  2.1591
 4588TIP3   OH213704   3.753   4.553   1.077  0.8477  0.0323 -0.2447
 4588TIP3    H113705   3.790   4.489   1.138 -0.0268  0.7468  1.0490
 4588TIP3    H213706   3.687   4.599   1.128  0.5438  1.0716 -1.5601
 4589TIP3   OH213707   3.930   5.850   1.253  0.2744 -0.3348 -0.0933
 4589TIP3    H113708   3.963   5.877   1.338 -0.6800 -0.2223  0.2502
 4589TIP3    H213709   3.912   5.932   1.207 -0.8254 -0.3875  0.2370
 4590TIP3   OH213710   3.178   6.692   0.254  0.0021 -0.5101  0.0149
 4590TIP3    H113711   3.161   6.752   0.182  0.5222  0.1848  0.4681
 4590TIP3    H213712   3.100   6.699   0.310  1.1272  1.6613  1.3876
 4591TIP3   OH213713   4.562   4.281   1.155  0.2898  0.6358  0.2359
 4591TIP3    H113714   4.600   4.301   1.069  0.3014 -0.4663 -0.0220
 4591TIP3    H213715   4.637   4.251   1.207  0.1698  0.6805  0.4315
 4592TIP3   OH213716   2.980   4.660   1.185 -0.1781 -0.6059  0.0477
 4592TIP3    H113717   2.960   4.644   1.277  0.6646  1.2071  0.5628
 4592TIP3    H213718   2.905   4.708   1.151  0.1960  0.1023  0.2058
 4593TIP3   OH213719   5.995   4.838   1.173  0.0675 -1.0380 -0.0321
 4593TIP3    H113720   5.944   4.916   1.192 -1.7521 -2.1367 -0.2526
 4593TIP3    H213721   5.981   4.823   1.079 -0.9283 -2.5139  0.3300
 4594TIP3   OH213722   3.271   7.509   0.862  0.2146  0.5100 -0.3037
 4594TIP3    H113723   3.266   7.493   0.768  0.7929  3.0615 -0.7957
 4594TIP3    H213724   3.289   7.602   0.870  1.5547  0.0783  2.3319
 4595TIP3   OH213725   7.816   4.742   6.123 -0.1847  0.0891 -0.1860
 4595TIP3    H113726   7.762   4.717   6.198 -0.0023  0.2303 -0.0045
 4595TIP3    H213727   7.769   4.814   6.081  0.8510  1.5957  1.1685
 4596TIP3   OH213728   3.076   6.787   1.241 -0.1253 -0.0935  0.2946
 4596TIP3    H113729   3.164   6.770   1.276  0.2250  0.6712 -0.1943
 4596TIP3    H213730   3.091   6.806   1.148 -0.9550 -1.3119 -0.1109
 4597TIP3   OH213731   5.347   6.214   1.388 -0.5309 -0.3287  0.0169
 4597TIP3    H113732   5.427   6.262   1.408 -0.4306  0.2422 -1.6628
 4597TIP3    H213733   5.338   6.152   1.460  1.8156 -0.9048 -0.1315
 4598TIP3   OH213734   1.566   5.806   0.614 -0.1996  0.6119  0.7192
 4598TIP3    H113735   1.489   5.858   0.635 -2.2279 -1.9162 -0.2657
 4598TIP3    H213736   1.573   5.810   0.519  1.6312  1.8137  0.8731
 4599TIP3   OH213737   3.120   3.219   1.906 -0.0191 -0.3832  0.3283
 4599TIP3    H113738   3.092   3.134   1.871  0.6725 -1.1473  1.5991
 4599TIP3    H213739   3.062   3.283   1.863 -0.3136 -1.4483 -0.9004
 4600TIP3   OH213740   3.430   5.113   1.020 -0.0364  0.3532 -0.6376
 4600TIP3    H113741   3.478   5.124   0.938 -0.3050  1.5521 -0.6446
 4600TIP3    H213742   3.361   5.179   1.016 -0.7240 -0.3087  0.0765
 4601TIP3   OH213743   3.382   5.958   0.268  0.9050  0.5638  0.7656
 4601TIP3    H113744   3.352   5.935   0.180  1.2214  0.6701  0.6295
 4601TIP3    H213745   3.341   5.892   0.325  0.9677  0.2961  0.5021
 4602TIP3   OH213746   2.053   5.863  -0.022 -0.2852 -0.2794  0.8121
 4602TIP3    H113747   1.989   5.933  -0.008 -0.9542 -1.1276  2.0447
 4602TIP3    H213748   2.049   5.811   0.058  0.3301 -1.6287 -0.0309
 4603TIP3   OH213749   1.899   8.028   2.892 -0.5365  0.5461  0.2208
 4603TIP3    H113750   1.994   8.032   2.891 -0.5666  1.1612 -0.9576
 4603TIP3    H213751   1.876   7.972   2.818 -1.1621  2.4824 -1.0999
 4604TIP3   OH213752   0.532   5.252   2.007  0.4301  0.5532  0.1369
 4604TIP3    H113753   0.569   5.336   2.035  1.3193 -0.3703  1.8344
 4604TIP3    H213754   0.600   5.213   1.953  0.3999  0.5306  0.1155
 4605TIP3   OH213755   3.498   3.986   2.803 -0.5370  0.0798  0.0349
 4605TIP3    H113756   3.479   4.065   2.855  0.1141  0.3088 -0.0721
 4605TIP3    H213757   3.570   3.944   2.849 -0.4098 -0.0767 -0.3074
 4606TIP3   OH213758   4.695   6.046   0.997 -0.1040  0.5342  0.2051
 4606TIP3    H113759   4.727   6.039   0.907 -2.1515  1.3713 -0.6290
 4606TIP3    H213760   4.600   6.034   0.990 -0.0047 -2.1658  2.6205
 4607TIP3   OH213761   3.328   5.586   2.252  0.2128 -0.6857  0.1985
 4607TIP3    H113762   3.359   5.627   2.333  1.8270 -0.8190 -0.3388
 4607TIP3    H213763   3.367   5.640   2.182  0.0764 -1.4759 -0.4924
 4608TIP3   OH213764   2.108   5.605   0.962  0.3794  0.3723  0.0917
 4608TIP3    H113765   2.066   5.648   1.037 -1.2793  0.6426 -0.9714
 4608TIP3    H213766   2.184   5.560   1.000  0.4686  1.8176  1.6773
 4609TIP3   OH213767   3.633   7.573   2.786 -0.1198  0.0395  0.5402
 4609TIP3    H113768   3.598   7.577   2.697 -0.3709 -1.4584  0.5602
 4609TIP3    H213769   3.727   7.582   2.776 -0.1017 -0.6225  0.0685
 4610TIP3   OH213770   2.329   6.375   1.495 -0.6243  0.5545 -0.2330
 4610TIP3    H113771   2.273   6.347   1.568  1.9305  1.1177  2.0294
 4610TIP3    H213772   2.324   6.471   1.496 -1.4201  0.5387 -1.5176
 4611TIP3   OH213773   4.156   7.230   2.900  0.8110  0.2268 -0.0272
 4611TIP3    H113774   4.070   7.189   2.914  0.7229  0.7961  1.1652
 4611TIP3    H213775   4.145   7.281   2.820  0.4877 -0.9038 -0.7122
 4612TIP3   OH213776   4.007   5.929   2.752  0.2484 -0.0717 -0.0275
 4612TIP3    H113777   3.933   5.945   2.811 -0.0973  2.5591 -1.1134
 4612TIP3    H213778   3.970   5.883   2.677  0.0564 -0.3733  0.2523
 4613TIP3   OH213779   1.678   4.571   2.366 -0.0254 -0.1381 -0.4603
 4613TIP3    H113780   1.652   4.514   2.438  1.4186  1.1272  1.1288
 4613TIP3    H213781   1.601   4.624   2.347 -0.9312 -1.6298 -0.9972
 4614TIP3   OH213782   4.295   6.561   2.153 -0.4024  0.3069 -0.0091
 4614TIP3    H113783   4.257   6.649   2.153 -0.5677  0.2355  0.3958
 4614TIP3    H213784   4.277   6.527   2.241  0.4307  0.2031  0.1229
 4615TIP3   OH213785   4.427   3.870   3.529  0.1822  0.5018 -0.0888
 4615TIP3    H113786   4.345   3.822   3.527  0.9542 -0.8350 -0.3895
 4615TIP3    H213787   4.423   3.929   3.454 -0.7069  0.8049  0.1934
 4616TIP3   OH213788   4.251   4.932   2.048  0.2385 -0.1937  0.2448
 4616TIP3    H113789   4.238   4.880   2.127  0.0013  0.3099  0.5382
 4616TIP3    H213790   4.249   4.868   1.977 -1.4408 -0.4213  0.4871
 4617TIP3   OH213791   4.717   5.743   0.804  0.5275  0.0783  0.1657
 4617TIP3    H113792   4.669   5.660   0.807  0.9564 -0.1361  1.3407
 4617TIP3    H213793   4.654   5.806   0.768  0.2150 -0.7611 -0.7891
 4618TIP3   OH213794   2.321   3.908   3.054  0.0306  1.0802 -0.1307
 4618TIP3    H113795   2.344   3.832   3.001 -0.1233  1.1035 -0.2350
 4618TIP3    H213796   2.225   3.911   3.050  0.1170  2.6257 -2.0547
 4619TIP3   OH213797   4.256   5.969   2.651 -0.1181  0.2272  0.0992
 4619TIP3    H113798   4.167   5.965   2.686 -0.5144  0.0988 -0.8865
 4619TIP3    H213799   4.312   5.945   2.724 -0.8031  1.5630  1.0837
 4620TIP3   OH213800   4.288   7.235   0.488 -0.0928  0.0465 -0.1001
 4620TIP3    H113801   4.304   7.143   0.512  2.3389  0.5228  0.1474
 4620TIP3    H213802   4.199   7.252   0.520 -1.0290 -2.5238 -1.1226
 4621TIP3   OH213803   2.566   5.491   0.285  0.2288  0.2151 -0.8013
 4621TIP3    H113804   2.580   5.413   0.340  0.2376  2.9600  3.2926
 4621TIP3    H213805   2.477   5.480   0.250  0.3810 -1.8113 -0.6035
 4622TIP3   OH213806   3.711   5.901   2.805 -0.2967  0.2597  0.0512
 4622TIP3    H113807   3.658   5.821   2.795 -0.0009  0.2282 -1.4605
 4622TIP3    H213808   3.702   5.946   2.721  2.6597 -0.1126 -0.5291
 4623TIP3   OH213809   4.534   7.591   4.054  0.1173  0.5212 -0.0022
 4623TIP3    H113810   4.532   7.571   4.147 -0.1375  3.3037  0.6437
 4623TIP3    H213811   4.611   7.543   4.021  1.2855  0.9481  2.0079
 4624TIP3   OH213812   3.649   4.979   4.700 -0.0107  0.0566  0.0633
 4624TIP3    H113813   3.739   5.011   4.705  0.1394 -0.6592  2.1941
 4624TIP3    H213814   3.599   5.054   4.666  1.4498  0.2709 -1.6950
 4625TIP3   OH213815   2.417   4.807   0.040  0.6432  0.0896  0.2621
 4625TIP3    H113816   2.395   4.853  -0.041 -0.3996 -0.7301  0.0748
 4625TIP3    H213817   2.496   4.851   0.071  0.3930  1.1643 -0.5869
 4626TIP3   OH213818   1.774   4.723   1.783  0.0142 -0.1280 -0.3347
 4626TIP3    H113819   1.795   4.778   1.859 -0.9473  1.4334 -1.1679
 4626TIP3    H213820   1.702   4.667   1.813  1.2240 -1.2162  0.6224
 4627TIP3   OH213821   1.806   4.058   0.682 -0.4156  0.2730 -0.1597
 4627TIP3    H113822   1.869   4.106   0.628 -0.9410  0.2025 -0.8306
 4627TIP3    H213823   1.816   4.097   0.769  1.4871 -0.6146  0.0483
 4628TIP3   OH213824   2.874   5.747   4.095  0.5379 -0.1214  0.3977
 4628TIP3    H113825   2.806   5.794   4.144  2.1488  1.6519  0.9764
 4628TIP3    H213826   2.859   5.655   4.116 -1.0328  0.3203  1.3298
 4629TIP3   OH213827   5.211   5.492   1.215  0.9547 -0.5559  0.2430
 4629TIP3    H113828   5.259   5.548   1.276  0.3151  1.5772 -1.1835
 4629TIP3    H213829   5.150   5.443   1.271  1.4236  0.2474  1.4848
 4630TIP3   OH213830   4.911   5.880   1.920  0.4657  0.3102  0.5503
 4630TIP3    H113831   4.979   5.832   1.874  0.1130  0.5882 -0.2765
 4630TIP3    H213832   4.829   5.849   1.881  0.1261  0.0620  1.4578
 4631TIP3   OH213833   8.099   1.075   6.911 -0.3972  0.0589  0.1033
 4631TIP3    H113834   8.018   1.047   6.953 -0.5859 -0.4464 -0.5854
 4631TIP3    H213835   8.146   1.124   6.979 -2.5195  2.7760 -0.2942
 4632TIP3   OH213836   3.788   6.676   2.262 -0.0950  0.0333  0.3348
 4632TIP3    H113837   3.798   6.696   2.169  0.6420 -0.2016  0.3615
 4632TIP3    H213838   3.716   6.732   2.291  0.7013  1.2560 -0.0183
 4633TIP3   OH213839   2.572   4.245   0.753 -0.0326 -0.2495 -0.1786
 4633TIP3    H113840   2.618   4.295   0.821 -2.0524 -1.3037  2.0490
 4633TIP3    H213841   2.568   4.156   0.787 -1.2650 -0.7560 -1.5903
 4634TIP3   OH213842   4.058   5.642   2.721  0.5789  0.2132  0.1530
 4634TIP3    H113843   4.022   5.695   2.649 -0.5513  0.4922  0.9078
 4634TIP3    H213844   3.981   5.611   2.769  1.2451 -1.6822  0.0481
 4635TIP3   OH213845   4.827   6.238   3.823 -0.0022  0.0853 -0.6740
 4635TIP3    H113846   4.736   6.244   3.850  0.1963 -0.0033  0.0298
 4635TIP3    H213847   4.877   6.269   3.899  0.6718 -2.6594  0.0604
 4636TIP3   OH213848   1.234   4.069   6.787 -0.0178  0.0154  0.1742
 4636TIP3    H113849   1.306   4.128   6.762  0.2087 -0.0783  0.6077
 4636TIP3    H213850   1.208   4.028   6.704  1.3375 -0.9699  0.2292
 4637TIP3   OH213851   4.414   6.015   1.002 -0.2445  0.6741 -0.1877
 4637TIP3    H113852   4.385   6.018   0.911 -0.4670 -0.4713 -0.1593
 4637TIP3    H213853   4.339   6.047   1.052 -0.6085  0.0287 -0.3090
 4638TIP3   OH213854   3.074   4.481   2.485 -0.1689  0.4511  0.2145
 4638TIP3    H113855   3.023   4.416   2.436  0.9622  0.3843 -0.9030
 4638TIP3    H213856   3.152   4.434   2.514  0.7581  1.3344 -0.7721
 4639TIP3   OH213857   1.922   5.954   0.724  0.2137  0.2902  0.4586
 4639TIP3    H113858   1.931   5.860   0.743 -2.1695 -0.1465 -0.3445
 4639TIP3    H213859   1.870   5.988   0.796  0.5350  0.8831  0.4098
 4640TIP3   OH213860   3.427   6.036   2.885  0.1761 -0.1872  0.1425
 4640TIP3    H113861   3.512   6.055   2.924  0.6657  0.4378 -1.2128
 4640TIP3    H213862   3.375   6.115   2.901 -0.1723 -0.5933  1.0247
 4641TIP3   OH213863   4.498   4.453   2.923 -0.0780  0.1066  0.5465
 4641TIP3    H113864   4.523   4.543   2.904  0.5980 -0.4920 -1.5435
 4641TIP3    H213865   4.448   4.425   2.846 -3.7557 -0.0667  2.8634
 4642TIP3   OH213866   4.561   7.791   3.044  0.0108 -0.3883 -0.1431
 4642TIP3    H113867   4.471   7.774   3.072 -0.9590  1.4088 -2.0237
 4642TIP3    H213868   4.566   7.886   3.034  1.9830 -0.5011 -0.5585
 4643TIP3   OH213869   4.111   6.405   0.262  0.3515  0.2316 -0.1165
 4643TIP3    H113870   4.148   6.473   0.318  0.2741 -0.3698  0.6725
 4643TIP3    H213871   4.071   6.453   0.189  3.5374  0.8184 -1.5191
 4644TIP3   OH213872   3.231   5.292   1.019 -0.0156 -0.2692  0.5262
 4644TIP3    H113873   3.245   5.366   1.078 -1.7712 -2.1726  3.4447
 4644TIP3    H213874   3.209   5.332   0.935  3.9106  2.5332  0.6671
 4645TIP3   OH213875   2.623   4.669   0.959  0.0409  0.3879  0.2138
 4645TIP3    H113876   2.592   4.695   1.046  1.5669  1.0743  0.5647
 4645TIP3    H213877   2.707   4.713   0.949 -0.0726  0.2404 -1.5840
 4646TIP3   OH213878   3.472   4.986   1.283  0.5398 -0.0263 -0.1706
 4646TIP3    H113879   3.440   5.009   1.196  0.9454 -0.6369 -0.4885
 4646TIP3    H213880   3.408   5.022   1.343  0.4315  0.6892 -0.7147
 4647TIP3   OH213881   4.414   6.432   0.403  0.0323 -0.3527  0.3885
 4647TIP3    H113882   4.435   6.519   0.435 -0.1252  0.4679 -1.6502
 4647TIP3    H213883   4.488   6.378   0.431  0.8260  0.7379  0.4370
 4648TIP3   OH213884   3.651   8.037   1.932 -0.6986 -0.3012 -0.1215
 4648TIP3    H113885   3.588   8.109   1.924 -1.3386 -0.8972 -0.4267
 4648TIP3    H213886   3.706   8.062   2.007 -0.8053  0.5864 -0.3338
 4649TIP3   OH213887   3.741   5.444   0.509 -0.6930 -0.6220 -0.2795
 4649TIP3    H113888   3.831   5.417   0.490 -0.6165 -0.2472 -0.4542
 4649TIP3    H213889   3.729   5.524   0.458 -1.0599 -0.5614 -0.0992
 4650TIP3   OH213890   3.996   6.085   1.475 -0.2156  0.5195  0.1489
 4650TIP3    H113891   3.938   6.129   1.413  0.0264 -1.0378 -1.2052
 4650TIP3    H213892   4.073   6.142   1.481  0.2088  0.1852 -1.7832
 4651TIP3   OH213893   2.252   1.547   6.901 -0.6832 -0.4642 -0.5441
 4651TIP3    H113894   2.332   1.514   6.860 -0.2354  0.8059 -0.7048
 4651TIP3    H213895   2.246   1.499   6.984 -0.5220 -1.5868 -1.1686
 4652TIP3   OH213896   3.735   6.965   2.448 -0.6042  0.0388 -0.6662
 4652TIP3    H113897   3.805   6.921   2.400 -1.2756 -1.6037 -0.1673
 4652TIP3    H213898   3.730   6.918   2.531 -1.4039  0.9985 -0.1689
 4653TIP3   OH213899   7.896   0.594   6.563  0.2091  0.2717  0.7440
 4653TIP3    H113900   7.813   0.626   6.598 -0.6241  0.0931 -0.9799
 4653TIP3    H213901   7.937   0.672   6.525 -0.9533 -0.3014 -1.7857
 4654TIP3   OH213902   2.159   5.045   3.902  0.2205 -0.1358  0.7744
 4654TIP3    H113903   2.152   4.980   3.832 -0.0203 -1.0721  1.6577
 4654TIP3    H213904   2.252   5.051   3.922  0.4650  1.2550 -0.6510
 4655TIP3   OH213905   2.214   6.285   0.161  0.1236  0.1741 -0.2319
 4655TIP3    H113906   2.301   6.249   0.147  0.0005  0.1132 -0.8493
 4655TIP3    H213907   2.177   6.294   0.073 -0.0598  1.2710 -0.0475
 4656TIP3   OH213908   3.326   6.607   0.670  0.6074  0.1302 -0.6349
 4656TIP3    H113909   3.279   6.677   0.625  0.5159 -0.7988 -1.9994
 4656TIP3    H213910   3.379   6.565   0.602  2.3915  0.2859  0.5984
 4657TIP3   OH213911   2.745   4.465   2.314 -0.2510 -0.6054 -0.1257
 4657TIP3    H113912   2.657   4.469   2.351 -0.5574  3.5333 -1.0003
 4657TIP3    H213913   2.749   4.381   2.269 -3.1205 -1.6059  1.3913
 4658TIP3   OH213914   2.923   5.168   0.282  0.7248  0.2030 -0.2183
 4658TIP3    H113915   2.877   5.174   0.366  0.6753 -1.3137 -0.1261
 4658TIP3    H213916   2.871   5.223   0.223  0.8330  1.3842  0.7656
 4659TIP3   OH213917   2.197   6.240   0.709  0.0873  0.0395  0.3601
 4659TIP3    H113918   2.261   6.297   0.665 -1.3498  0.0864 -1.7376
 4659TIP3    H213919   2.170   6.178   0.642 -1.7171 -0.2782  1.3518
 4660TIP3   OH213920   2.380   6.988   3.110 -0.4059 -0.2776 -0.0037
 4660TIP3    H113921   2.465   7.032   3.119 -0.6910  0.8081 -2.3040
 4660TIP3    H213922   2.400   6.908   3.060 -0.5144 -0.7900  0.7606
 4661TIP3   OH213923   6.181   0.729   0.936  0.3053 -0.2396 -0.0428
 4661TIP3    H113924   6.093   0.698   0.914 -0.2721  1.5330 -0.3324
 4661TIP3    H213925   6.229   0.725   0.853  0.1040  0.0481 -0.1745
 4662TIP3   OH213926   2.680   5.811   1.039  0.4789  0.5421 -0.0237
 4662TIP3    H113927   2.738   5.863   1.096  2.4464 -1.6717  0.0762
 4662TIP3    H213928   2.737   5.743   1.003 -2.1148 -1.8215  0.2128
 4663TIP3   OH213929   6.706   4.418   0.914 -0.1126 -0.6024 -0.1423
 4663TIP3    H113930   6.645   4.392   0.983  0.1742 -3.0080 -0.7459
 4663TIP3    H213931   6.697   4.350   0.847  0.7108  0.8844 -1.7932
 4664TIP3   OH213932   3.448   6.162   3.365  0.4205  0.5956  0.1904
 4664TIP3    H113933   3.514   6.098   3.391 -0.3505 -1.0925 -1.8497
 4664TIP3    H213934   3.497   6.236   3.330  1.2799  0.3505  0.8825
 4665TIP3   OH213935   7.724   1.745   6.634  0.4341 -0.0739 -0.6856
 4665TIP3    H113936   7.634   1.778   6.636  0.2053 -0.7180 -0.0114
 4665TIP3    H213937   7.721   1.666   6.689  1.5125  0.1801 -0.2583
 4666TIP3   OH213938   0.396   1.909   5.523  0.5936  0.6295  0.3616
 4666TIP3    H113939   0.334   1.937   5.591 -0.5608  0.6827 -0.7006
 4666TIP3    H213940   0.364   1.824   5.495  0.7675  0.8400 -0.4847
 4667TIP3   OH213941   4.299   3.969   1.584  0.6498  0.2961 -0.1563
 4667TIP3    H113942   4.297   4.045   1.642 -2.0342  1.4147 -1.5565
 4667TIP3    H213943   4.228   3.913   1.616  1.3137 -0.6607 -0.3511
 4668TIP3   OH213944   3.781   4.386   1.590 -0.0676  0.0574 -0.0075
 4668TIP3    H113945   3.819   4.472   1.572  1.7081 -0.4110  1.3618
 4668TIP3    H213946   3.806   4.332   1.515 -0.5585  0.5282 -0.5149
 4669TIP3   OH213947   2.909   4.558   1.700 -0.2004  0.0290 -0.2918
 4669TIP3    H113948   2.892   4.473   1.742 -0.8730  0.3382  0.0781
 4669TIP3    H213949   2.922   4.618   1.773  0.3200  0.2373 -0.5574
 4670TIP3   OH213950   2.878   5.410   0.740 -0.2833 -0.1281  0.3366
 4670TIP3    H113951   2.967   5.385   0.765  0.5443  1.8802 -0.4463
 4670TIP3    H213952   2.887   5.444   0.651 -1.9690 -0.5938 -0.0281
 4671TIP3   OH213953   1.116   3.425   6.987  0.0137 -0.0759  0.0261
 4671TIP3    H113954   1.183   3.461   7.045 -0.6256 -0.4806  1.0208
 4671TIP3    H213955   1.164   3.400   6.908  0.5763  2.4431 -0.5066
 4672TIP3   OH213956   3.858   5.599   2.253  0.6578  0.1552  0.2344
 4672TIP3    H113957   3.779   5.616   2.201 -0.7331 -0.1934  2.1681
 4672TIP3    H213958   3.889   5.514   2.222 -0.9734 -0.7207  0.9607
 4673TIP3   OH213959   3.679   5.661   1.443  0.3015  0.2285 -0.7169
 4673TIP3    H113960   3.590   5.652   1.477  0.7834 -1.8794  0.0277
 4673TIP3    H213961   3.679   5.611   1.361  0.2372  2.0387 -1.8690
 4674TIP3   OH213962   3.182   5.529   1.583  0.2558  0.0640 -0.3968
 4674TIP3    H113963   3.179   5.624   1.570 -1.6883  0.4118  2.0936
 4674TIP3    H213964   3.275   5.507   1.586  0.7128  1.9651 -0.4570
 4675TIP3   OH213965   2.817   5.520   1.285  0.1836  0.0321 -0.3639
 4675TIP3    H113966   2.835   5.426   1.295 -1.8846 -0.1212  2.4557
 4675TIP3    H213967   2.902   5.559   1.268  1.6885 -1.9141  2.2896
 4676TIP3   OH213968   6.224   6.949   2.284  0.3101 -0.4819  0.5650
 4676TIP3    H113969   6.280   7.004   2.338 -0.6588  0.2851  0.8038
 4676TIP3    H213970   6.276   6.931   2.206  0.1575  1.8963 -0.1258
 4677TIP3   OH213971   3.942   5.217   2.025  0.5678  0.2538  0.1858
 4677TIP3    H113972   3.961   5.229   2.118 -1.7625  0.3429  0.6659
 4677TIP3    H213973   3.854   5.252   2.013  0.7151 -0.0315 -2.0052
 4678TIP3   OH213974   7.322   2.054   6.924  0.5931 -0.1048 -0.1207
 4678TIP3    H113975   7.284   2.020   7.005 -0.0813  0.0917 -0.3571
 4678TIP3    H213976   7.334   2.148   6.942 -2.2817  0.5187 -1.2891
 4679TIP3   OH213977   2.355   4.592   2.146  0.1060  0.0909  0.0071
 4679TIP3    H113978   2.337   4.514   2.199 -1.6938  0.6732  0.2817
 4679TIP3    H213979   2.338   4.563   2.056  1.0449 -0.2935 -0.0470
 4680TIP3   OH213980   7.403   0.434   1.526 -0.2255  0.0749 -0.2452
 4680TIP3    H113981   7.365   0.520   1.541  0.3214  0.3144 -0.2146
 4680TIP3    H213982   7.488   0.452   1.486 -0.7865 -0.4855 -1.7406
 4681TIP3   OH213983   3.788   5.236   0.824 -0.4746 -0.5048 -0.1377
 4681TIP3    H113984   3.841   5.260   0.748 -0.6931  1.0784  0.1958
 4681TIP3    H213985   3.851   5.220   0.893 -0.3945  1.5435  0.3045
 4682TIP3   OH213986   2.739   7.899   1.642 -0.2287  0.3557 -0.5160
 4682TIP3    H113987   2.741   7.815   1.596  1.5997 -0.7647  1.5161
 4682TIP3    H213988   2.832   7.919   1.657 -0.6845  2.4957 -0.5292
 4683TIP3   OH213989   4.325   7.965   6.612  0.1781  0.5378 -0.2332
 4683TIP3    H113990   4.284   8.045   6.579  0.3392  0.8630  0.3455
 4683TIP3    H213991   4.317   7.902   6.540  1.2258  1.4697 -1.1708
 4684TIP3   OH213992   1.985   6.368   2.005 -0.1943  0.1814 -0.0891
 4684TIP3    H113993   2.036   6.387   1.927 -0.2295 -1.6495 -0.5641
 4684TIP3    H213994   1.894   6.369   1.976 -0.3367  1.5092  0.3591
 4685TIP3   OH213995   3.794   5.173   1.697  0.1320 -0.0822  0.1148
 4685TIP3    H113996   3.886   5.192   1.713  0.4315 -0.8656 -0.6423
 4685TIP3    H213997   3.794   5.088   1.653 -0.8876  0.3595 -0.7736
 4686TIP3   OH213998   3.108   7.442   2.378  0.0077  0.0793  0.2279
 4686TIP3    H113999   3.171   7.470   2.311 -0.7922  0.7776 -0.2516
 4686TIP3    H214000   3.149   7.366   2.419 -0.5752 -1.9195 -2.7534
 4687TIP3   OH214001   6.166   1.336   0.170  0.1155  0.4492  0.0754
 4687TIP3    H114002   6.164   1.267   0.236  0.9326  1.9013  1.6380
 4687TIP3    H214003   6.250   1.325   0.126  0.7541  1.1632  1.1064
 4688TIP3   OH214004   6.587   7.911   6.539  0.0073 -0.3884  0.7855
 4688TIP3    H114005   6.517   7.915   6.605 -0.0714  1.4619  0.6178
 4688TIP3    H214006   6.639   7.990   6.555  0.2321 -0.1340 -1.1094
 4689TIP3   OH214007   2.973   4.795   1.871  0.3687 -0.0857  0.5156
 4689TIP3    H114008   3.053   4.846   1.874  0.4194 -0.1342  0.0419
 4689TIP3    H214009   2.921   4.827   1.944  0.8552 -0.1171  0.8752
 4690TIP3   OH214010   2.374   4.990   1.230  0.4521 -0.0849  0.5695
 4690TIP3    H114011   2.326   4.979   1.149  0.6976  0.0399  0.4057
 4690TIP3    H214012   2.434   4.915   1.233  0.7607  0.1563  0.4129
 4691TIP3   OH214013   4.507   4.030   1.963  0.1068 -0.0327 -0.1300
 4691TIP3    H114014   4.414   4.053   1.956  0.4041  1.2561  0.0866
 4691TIP3    H214015   4.538   4.079   2.040  0.6493 -1.5298  0.6271
 4692TIP3   OH214016   4.085   6.072   2.348 -0.1881  0.7385 -0.1771
 4692TIP3    H114017   4.080   5.977   2.341 -1.0214  0.6137  1.8905
 4692TIP3    H214018   4.177   6.090   2.367  0.0439  0.3816 -0.9497
 4693TIP3   OH214019   2.066   5.283   4.497 -0.2840 -0.0801 -0.2415
 4693TIP3    H114020   2.000   5.326   4.442  0.9975  0.6536 -1.2662
 4693TIP3    H214021   2.052   5.189   4.482 -1.4158  0.0515 -0.0469
 4694TIP3   OH214022   6.990   7.512   7.003  0.1172 -0.0102 -0.1175
 4694TIP3    H114023   6.966   7.596   7.041  0.2851  0.5957 -1.3131
 4694TIP3    H214024   6.927   7.499   6.931 -0.0076 -0.9768  0.1605
 4695TIP3   OH214025   3.064   6.988   2.960  0.5777 -0.6080 -0.3836
 4695TIP3    H114026   2.992   7.030   2.914  0.3248  0.9535  1.3779
 4695TIP3    H214027   3.022   6.933   3.026  0.9699 -1.1764 -0.6003
 4696TIP3   OH214028   4.733   5.451   2.321 -0.3742 -0.4899 -0.1002
 4696TIP3    H114029   4.739   5.402   2.239 -1.4589  0.5375 -0.8140
 4696TIP3    H214030   4.738   5.543   2.294 -0.4828 -0.1516  1.0118
 4697TIP3   OH214031   3.583   5.225   2.231  0.1453 -0.3835 -0.2509
 4697TIP3    H114032   3.630   5.218   2.149  0.7618 -0.3116  0.0940
 4697TIP3    H214033   3.643   5.270   2.290 -0.1108 -0.8427  0.3737
 4698TIP3   OH214034   8.485   2.361   5.293 -0.2400 -0.3394  0.2452
 4698TIP3    H114035   8.438   2.324   5.219 -0.1871 -0.3865  0.2361
 4698TIP3    H214036   8.428   2.431   5.325 -0.0863 -0.0716 -0.0727
 4699TIP3   OH214037   2.242   6.646   1.534 -0.7263 -0.3208  0.0299
 4699TIP3    H114038   2.302   6.713   1.566  0.8284 -1.5154 -0.2874
 4699TIP3    H214039   2.211   6.679   1.450 -0.2926  0.1984  0.0700
 4700TIP3   OH214040   3.810   4.196   4.870  0.3892 -0.5053  0.0946
 4700TIP3    H114041   3.889   4.200   4.923  0.5176 -2.4401  0.0909
 4700TIP3    H214042   3.827   4.254   4.796  0.3884  1.8871  1.8952
 4701TIP3   OH214043   2.761   5.043   0.990  0.1149 -0.8851 -0.0024
 4701TIP3    H114044   2.686   5.039   0.931  0.3661 -1.0897 -0.3108
 4701TIP3    H214045   2.828   4.990   0.946  1.3725  1.5198 -1.0474
 4702TIP3   OH214046   3.481   5.418   2.739  0.3302  0.5773  0.2878
 4702TIP3    H114047   3.464   5.478   2.667  0.3773 -0.3074 -0.4647
 4702TIP3    H214048   3.467   5.330   2.702  0.1462  0.1221  1.4005
 4703TIP3   OH214049   1.900   5.346   0.564  0.2848 -0.4932  0.0236
 4703TIP3    H114050   1.824   5.404   0.556  2.0423  1.8082 -0.4756
 4703TIP3    H214051   1.969   5.402   0.598  1.9220 -2.4348 -0.0589
 4704TIP3   OH214052   3.218   5.779   3.654  0.3152 -0.2338 -0.1716
 4704TIP3    H114053   3.287   5.713   3.647  0.9915  0.4000  0.5143
 4704TIP3    H214054   3.163   5.749   3.726 -0.2397 -0.8388 -0.8399
 4705TIP3   OH214055   2.733   4.717   4.124  0.5924 -0.0840 -0.0337
 4705TIP3    H114056   2.655   4.741   4.175  2.3257  0.5474  2.4169
 4705TIP3    H214057   2.729   4.773   4.047 -0.4827  1.1949  0.9150
 4706TIP3   OH214058   4.202   6.455   4.767  0.2094 -0.1576 -0.3724
 4706TIP3    H114059   4.198   6.372   4.815  2.0043  2.1852  4.1807
 4706TIP3    H214060   4.259   6.437   4.693  0.3657 -3.0840  0.3820
 4707TIP3   OH214061   5.271   6.643   1.731 -0.2024  0.1244 -0.0839
 4707TIP3    H114062   5.308   6.555   1.723  0.1197  0.2975 -0.4594
 4707TIP3    H214063   5.267   6.676   1.642  0.1460  0.6937  0.1136
 4708TIP3   OH214064   4.113   4.096   3.637 -0.2456 -0.6683  0.0717
 4708TIP3    H114065   4.151   4.046   3.709  0.8040  1.8775  1.3664
 4708TIP3    H214066   4.188   4.134   3.591 -0.9762 -0.9462 -1.3651
 4709TIP3   OH214067   3.050   6.115   3.871 -0.8784  0.5609 -0.0236
 4709TIP3    H114068   2.957   6.116   3.847 -1.0357 -1.2770  0.4231
 4709TIP3    H214069   3.084   6.199   3.840 -1.8054 -0.3484 -3.7835
 4710TIP3   OH214070   4.972   5.077   2.438  0.1985  0.2981  0.0515
 4710TIP3    H114071   5.063   5.058   2.457  0.7005 -0.3435 -2.7165
 4710TIP3    H214072   4.975   5.144   2.370 -1.4073  0.9451  0.5882
 4711TIP3   OH214073   2.861   5.597   3.372  0.8548 -0.4065  0.5600
 4711TIP3    H114074   2.922   5.551   3.313 -1.3482 -0.3174 -1.8771
 4711TIP3    H214075   2.862   5.687   3.341  0.2266 -0.2028  1.1342
 4712TIP3   OH214076   3.069   6.225   1.271  0.0868  1.1187  0.6037
 4712TIP3    H114077   2.989   6.227   1.323 -0.0011  0.0974  0.5204
 4712TIP3    H214078   3.055   6.291   1.203 -1.9747 -1.1154 -1.2511
 4713TIP3   OH214079   1.652   4.581   1.308  0.0124  0.1855 -0.0564
 4713TIP3    H114080   1.747   4.597   1.303  0.0613 -0.1090 -0.0665
 4713TIP3    H214081   1.614   4.668   1.319  0.2272  0.3954 -0.9533
 4714TIP3   OH214082   4.072   4.379   1.779 -0.3576  0.5346 -0.0255
 4714TIP3    H114083   4.051   4.451   1.720  1.8271  1.9902  0.9054
 4714TIP3    H214084   4.045   4.410   1.865 -1.6430 -0.7600  0.0609
 4715TIP3   OH214085   4.875   6.990   1.763  0.1805 -0.4781 -0.5673
 4715TIP3    H114086   4.936   7.025   1.828 -1.5655 -0.8473  1.3420
 4715TIP3    H214087   4.927   6.980   1.683  2.6916 -1.1130  1.1006
 4716TIP3   OH214088   2.604   2.867   2.880  0.1934 -0.0428  0.2172
 4716TIP3    H114089   2.577   2.928   2.812 -0.9554 -1.3908 -0.5455
 4716TIP3    H214090   2.559   2.898   2.959 -1.3476 -0.5935 -0.4258
 4717TIP3   OH214091   4.762   7.226   1.611 -0.0927  0.0125 -0.0321
 4717TIP3    H114092   4.815   7.284   1.556  0.7355  0.1450  0.8994
 4717TIP3    H214093   4.811   7.144   1.614 -0.9190 -0.5178 -0.7708
 4718TIP3   OH214094   1.506   3.092   7.007 -0.2101 -0.4554  0.1045
 4718TIP3    H114095   1.493   3.186   7.005  1.2135 -0.2618 -1.4202
 4718TIP3    H214096   1.593   3.081   7.046 -1.4724 -1.2964  2.8096
 4719TIP3   OH214097   6.082   1.085   0.304 -0.1737  0.7396 -0.6653
 4719TIP3    H114098   6.117   1.001   0.275  0.3488  0.5140  0.5671
 4719TIP3    H214099   5.992   1.087   0.273 -1.0511 -1.4591  1.5993
 4720TIP3   OH214100   3.041   5.854   1.897  0.1201 -0.2870  0.1001
 4720TIP3    H114101   3.072   5.939   1.929  0.8232 -0.5750  0.1827
 4720TIP3    H214102   2.992   5.875   1.818  2.8862 -0.0721 -1.6281
 4721TIP3   OH214103   3.730   6.753   2.693 -0.5057 -0.2858  0.1655
 4721TIP3    H114104   3.644   6.784   2.719 -0.0050  0.2583  1.2070
 4721TIP3    H214105   3.753   6.688   2.759  0.9135  1.3401  1.3298
 4722TIP3   OH214106   3.442   5.924   1.682 -0.1270 -0.1881 -0.6649
 4722TIP3    H114107   3.496   5.846   1.698 -0.2582 -0.5116 -1.7207
 4722TIP3    H214108   3.471   5.955   1.596 -1.2399 -0.0435 -0.9961
 4723TIP3   OH214109   5.337   3.657   2.341 -0.4726  0.5392 -0.0479
 4723TIP3    H114110   5.422   3.678   2.303 -0.3093  2.2178  1.1894
 4723TIP3    H214111   5.274   3.696   2.280 -0.3584 -0.4663 -0.8187
 4724TIP3   OH214112   1.619   0.494   6.105  0.5542 -0.2180 -0.0904
 4724TIP3    H114113   1.623   0.406   6.069 -0.9123 -0.5320  0.4631
 4724TIP3    H214114   1.608   0.551   6.029 -1.4777 -0.7850 -0.2572
 4725TIP3   OH214115   1.192   4.383   3.012 -0.1112 -0.2355 -0.4139
 4725TIP3    H114116   1.239   4.344   3.086 -1.4935  0.2402  0.7168
 4725TIP3    H214117   1.103   4.350   3.020 -0.4682  0.4714 -1.4133
 4726TIP3   OH214118   4.274   3.671   0.887  0.7311  0.0715  0.2445
 4726TIP3    H114119   4.323   3.731   0.830  0.0446  1.3519  0.9797
 4726TIP3    H214120   4.338   3.643   0.952  0.5959  1.4228  0.9652
 4727TIP3   OH214121   4.385   7.295   3.005  0.0345 -0.2091  0.2300
 4727TIP3    H114122   4.374   7.230   3.075 -2.4780  0.8747  0.9227
 4727TIP3    H214123   4.304   7.288   2.954 -0.4041  2.5578  0.4880
 4728TIP3   OH214124   5.701   4.187   0.786 -0.0080  0.5193  0.0460
 4728TIP3    H114125   5.778   4.155   0.739 -0.0080 -1.7058  1.4504
 4728TIP3    H214126   5.737   4.223   0.868 -0.2556  1.8337 -0.4084
 4729TIP3   OH214127   6.357   4.514   1.371  0.6704  0.1826  0.0070
 4729TIP3    H114128   6.394   4.490   1.456 -0.3752  0.3747  0.5277
 4729TIP3    H214129   6.283   4.455   1.360  0.4456  0.5557 -0.5009
 4730TIP3   OH214130   3.124   5.516   1.232 -0.2651 -0.0179  0.0233
 4730TIP3    H114131   3.133   5.567   1.152  0.0343 -0.4823 -0.2379
 4730TIP3    H214132   3.146   5.577   1.302  0.9473 -0.0206 -0.3473
 4731TIP3   OH214133   4.657   7.047   0.930  0.0556  0.5287 -0.6905
 4731TIP3    H114134   4.618   6.970   0.889  0.2027  0.6486 -1.0650
 4731TIP3    H214135   4.751   7.034   0.922  0.1514 -0.6133  1.8179
 4732TIP3   OH214136   1.927   5.693   3.190  0.2692 -0.4633  0.2801
 4732TIP3    H114137   1.986   5.722   3.260 -0.7034 -0.0607  0.9570
 4732TIP3    H214138   1.842   5.731   3.214 -0.0664 -0.3019 -1.1475
 4733TIP3   OH214139   5.514   5.207   1.530 -0.1309  0.2234  0.1476
 4733TIP3    H114140   5.457   5.130   1.536  1.3830 -0.8569  0.9846
 4733TIP3    H214141   5.528   5.233   1.621  1.6336 -0.2179  0.0078
 4734TIP3   OH214142   5.018   4.694   1.339  0.6022  0.0617  0.2148
 4734TIP3    H114143   5.101   4.677   1.382  1.0235  3.5970  0.9246
 4734TIP3    H214144   5.042   4.724   1.251  0.0794  0.7075  0.2864
 4735TIP3   OH214145   0.234   2.879   6.139  0.2716  0.5114 -0.4282
 4735TIP3    H114146   0.197   2.790   6.140 -0.6187  0.8762 -0.8543
 4735TIP3    H214147   0.323   2.868   6.174  0.8403 -0.8423 -2.2462
 4736TIP3   OH214148   2.951   5.753   5.264 -0.2194  0.0717 -0.7049
 4736TIP3    H114149   2.965   5.847   5.272 -1.6120  0.1865  0.7123
 4736TIP3    H214150   3.011   5.714   5.328  0.0328  0.0161 -0.9735
 4737TIP3   OH214151   5.653   3.796   1.983  0.0557  0.2139 -0.4908
 4737TIP3    H114152   5.629   3.773   1.893  1.6024 -0.3573 -0.7631
 4737TIP3    H214153   5.748   3.793   1.984  0.0735  1.0604  0.9558
 4738TIP3   OH214154   4.370   2.994   0.305 -0.4473 -0.8101 -0.1903
 4738TIP3    H114155   4.428   2.936   0.256  0.6589 -0.6412  0.8948
 4738TIP3    H214156   4.427   3.063   0.339 -1.0534 -1.2432  1.8142
 4739TIP3   OH214157   5.590   3.623   0.423  0.2866 -0.3653 -0.0366
 4739TIP3    H114158   5.613   3.716   0.423 -2.6073  0.3842  0.7191
 4739TIP3    H214159   5.656   3.583   0.367  1.6654  2.1198 -0.2785
 4740TIP3   OH214160   4.462   7.576   2.099 -0.1164  0.1556  0.2731
 4740TIP3    H114161   4.423   7.638   2.037  0.6733 -0.1967 -0.5782
 4740TIP3    H214162   4.389   7.520   2.126 -0.5724  0.6454  0.0716
 4741TIP3   OH214163   2.634   4.738   0.301 -0.7061  0.2490  0.0733
 4741TIP3    H114164   2.585   4.702   0.375 -0.3582 -1.7928 -0.6463
 4741TIP3    H214165   2.627   4.671   0.233 -0.0480  1.5823 -1.3445
 4742TIP3   OH214166   2.125   5.219   1.281 -0.8486  0.2491  0.2314
 4742TIP3    H114167   2.186   5.162   1.233 -0.4566  1.0922 -0.2834
 4742TIP3    H214168   2.068   5.256   1.213  0.1210  1.9604  0.3237
 4743TIP3   OH214169   4.031   6.790   3.641 -0.1721  0.2368  0.4201
 4743TIP3    H114170   4.060   6.699   3.638  0.2211  0.3382  1.1971
 4743TIP3    H214171   4.039   6.820   3.550  1.1299 -0.0509  0.4309
 4744TIP3   OH214172   1.857   4.329   2.903 -0.2899 -0.1251  0.5326
 4744TIP3    H114173   1.782   4.300   2.850  0.0006  0.7461 -0.3634
 4744TIP3    H214174   1.910   4.250   2.914 -0.1089 -0.2257 -0.8842
 4745TIP3   OH214175   3.781   7.112   1.611 -0.4716  0.3596  0.3085
 4745TIP3    H114176   3.821   7.102   1.697 -1.2304 -1.8706  0.4227
 4745TIP3    H214177   3.854   7.128   1.552  0.2013  0.2267  1.1004
 4746TIP3   OH214178   4.797   4.079   1.032  0.0425  0.2972  0.3532
 4746TIP3    H114179   4.745   4.022   1.088 -0.2148 -1.3333 -1.4909
 4746TIP3    H214180   4.734   4.116   0.970  0.9207 -0.9787 -1.3207
 4747TIP3   OH214181   1.414   6.361   2.005 -0.1031 -0.1963  0.0388
 4747TIP3    H114182   1.505   6.333   2.012 -0.2940 -0.9467 -0.4061
 4747TIP3    H214183   1.383   6.319   1.925 -0.1523  1.9633 -1.1175
 4748TIP3   OH214184   4.698   8.029   1.468  0.1577 -0.3768 -0.3785
 4748TIP3    H114185   4.690   8.103   1.528  4.4618  1.0113 -1.3907
 4748TIP3    H214186   4.739   7.960   1.520 -2.7992 -1.7605  0.2373
 4749TIP3   OH214187   3.723   6.808   2.004 -0.2919  0.1184  0.0013
 4749TIP3    H114188   3.640   6.821   1.958  0.8336 -1.0080 -2.4307
 4749TIP3    H214189   3.774   6.751   1.946  3.0093  2.5130  0.4010
 4750TIP3   OH214190   4.714   8.100   0.981  0.0695  0.2116 -0.8452
 4750TIP3    H114191   4.699   8.005   0.974  1.0852  0.1296 -2.0766
 4750TIP3    H214192   4.769   8.121   0.905 -1.0900  1.9873 -1.2081
 4751TIP3   OH214193   4.520   5.568   1.841  0.4526 -0.2651 -0.3633
 4751TIP3    H114194   4.484   5.635   1.899 -2.3345 -3.0843  1.2962
 4751TIP3    H214195   4.481   5.587   1.755 -1.7125 -0.7811  0.4826
 4752TIP3   OH214196   1.466   6.976   0.658 -0.2747  0.2148 -0.4172
 4752TIP3    H114197   1.526   6.965   0.732 -0.7256 -0.5957 -0.1669
 4752TIP3    H214198   1.437   7.067   0.665  1.2335  0.7290 -0.7805
 4753TIP3   OH214199   2.660   6.197   1.162 -0.8187  0.3794  0.4655
 4753TIP3    H114200   2.644   6.207   1.256 -0.9026 -0.4350  0.5383
 4753TIP3    H214201   2.708   6.115   1.155 -0.6039  0.5602 -0.1873
 4754TIP3   OH214202   4.287   5.175   1.231 -0.3129 -0.0234  0.3656
 4754TIP3    H114203   4.327   5.186   1.144  0.2065 -0.7709  0.5028
 4754TIP3    H214204   4.335   5.235   1.287 -0.7035  0.5207  0.1176
 4755TIP3   OH214205   4.875   4.099   2.647  0.0912  0.6350 -0.0864
 4755TIP3    H114206   4.854   4.007   2.662  0.2325  0.8915  1.7267
 4755TIP3    H214207   4.824   4.122   2.568 -1.0450 -0.6037  0.2584
 4756TIP3   OH214208   2.120   1.194   3.421  0.2109  0.5352  0.3222
 4756TIP3    H114209   2.150   1.250   3.493  0.1830  0.3692  0.4643
 4756TIP3    H214210   2.042   1.238   3.387  0.9325  1.2576 -0.4078
 4757TIP3   OH214211   5.485   3.487   0.052 -0.5558  0.4325  0.7162
 4757TIP3    H114212   5.466   3.404   0.009 -1.3231 -0.1902  2.2191
 4757TIP3    H214213   5.426   3.550   0.010 -0.3188  0.1272 -0.0884
 4758TIP3   OH214214   3.558   5.007   3.335  0.1643 -0.7101  0.1129
 4758TIP3    H114215   3.492   5.004   3.404  1.1320 -1.9807  1.0266
 4758TIP3    H214216   3.509   5.005   3.253 -0.9505 -0.6388  0.7783
 4759TIP3   OH214217   2.268   2.572   2.794 -0.7921  0.2647 -0.0643
 4759TIP3    H114218   2.356   2.575   2.832 -1.1584  0.3181  0.7909
 4759TIP3    H214219   2.278   2.614   2.708  0.3857 -1.3477 -0.7411
 4760TIP3   OH214220   4.160   4.177   3.020  0.1875  0.2166  0.0472
 4760TIP3    H114221   4.109   4.226   2.954 -0.6402  0.3676  0.7870
 4760TIP3    H214222   4.123   4.204   3.104  1.4287  0.2306  0.5958
 4761TIP3   OH214223   3.806   5.678   1.077  0.1808  0.0668  0.1719
 4761TIP3    H114224   3.815   5.590   1.113 -0.7873  0.2087  0.7677
 4761TIP3    H214225   3.855   5.734   1.137 -1.0750  0.2446  1.0283
 4762TIP3   OH214226   3.659   5.758   1.777  0.0165 -0.5541  0.5115
 4762TIP3    H114227   3.694   5.845   1.761  0.5947 -0.4721  2.1666
 4762TIP3    H214228   3.733   5.699   1.762 -0.0021 -0.6547  0.8310
 4763TIP3   OH214229   1.999   5.425   2.011 -0.2486  0.3291 -0.3035
 4763TIP3    H114230   1.926   5.485   2.026  0.0118  0.4742  0.3935
 4763TIP3    H214231   1.978   5.349   2.066  0.9015  1.0250  1.1271
 4764TIP3   OH214232   1.902   2.895   4.091  0.2204 -0.3260 -0.5954
 4764TIP3    H114233   1.967   2.839   4.133  0.9569  0.4473 -0.6752
 4764TIP3    H214234   1.936   2.984   4.103 -1.1418  0.1430 -0.0975
 4765TIP3   OH214235   3.848   6.056   1.108  0.2595  0.4161  0.3818
 4765TIP3    H114236   3.846   6.001   1.030  0.4981  1.1448 -0.1416
 4765TIP3    H214237   3.780   6.122   1.093  0.2921  0.5469  0.8001
 4766TIP3   OH214238   3.004   5.498   2.905  0.0367  0.2211  0.2792
 4766TIP3    H114239   2.979   5.412   2.872 -0.7911  0.5810 -0.0666
 4766TIP3    H214240   3.020   5.550   2.827  1.1912  0.2016  0.4965
 4767TIP3   OH214241   5.241   6.615   0.587 -0.0070  0.1736  0.2078
 4767TIP3    H114242   5.246   6.711   0.588  0.5077  0.1439  0.5686
 4767TIP3    H214243   5.288   6.588   0.666 -1.2623 -0.3262  0.7975
 4768TIP3   OH214244   2.856   1.836   4.778 -0.2008  0.6176  0.1508
 4768TIP3    H114245   2.863   1.912   4.720 -1.6566  1.1184  0.6074
 4768TIP3    H214246   2.874   1.870   4.865 -2.2715  0.7651  0.5562
 4769TIP3   OH214247   2.898   3.572   4.584  0.3423 -0.0068  0.3483
 4769TIP3    H114248   2.973   3.563   4.525  0.0059 -0.3221 -0.0334
 4769TIP3    H214249   2.920   3.519   4.660  0.8576  0.5431  0.5863
 4770TIP3   OH214250   1.263   6.316   1.557  0.0186  0.9177 -0.4571
 4770TIP3    H114251   1.257   6.403   1.596  0.6476  2.1510 -2.9657
 4770TIP3    H214252   1.215   6.323   1.474 -0.2217 -1.2260 -0.5444
 4771TIP3   OH214253   5.876   6.091   3.059 -0.1661 -0.1585 -0.1369
 4771TIP3    H114254   5.895   6.107   3.151  0.4949  2.4243 -0.6822
 4771TIP3    H214255   5.783   6.108   3.050 -0.5043 -1.6922  0.2849
 4772TIP3   OH214256   2.772   6.127   2.009 -0.0938 -0.6486  0.5002
 4772TIP3    H114257   2.763   6.083   2.093  0.3333 -1.1441  0.2881
 4772TIP3    H214258   2.833   6.198   2.025  0.7272 -1.3220  0.3911
 4773TIP3   OH214259   4.269   6.126   0.323  0.3224  0.1038 -0.2105
 4773TIP3    H114260   4.234   6.216   0.321  0.7630  0.2897  0.4013
 4773TIP3    H214261   4.362   6.137   0.303  0.4129 -0.2052  0.0644
 4774TIP3   OH214262   7.669   4.406   1.477  0.1471 -0.1260  0.5002
 4774TIP3    H114263   7.688   4.494   1.508  2.1733 -0.2455 -0.3142
 4774TIP3    H214264   7.576   4.408   1.455  0.2400  1.8924  0.1765
 4775TIP3   OH214265   5.321   5.419   2.156 -0.0104 -0.3714  0.2111
 4775TIP3    H114266   5.258   5.429   2.228 -0.0621  0.7551  0.0250
 4775TIP3    H214267   5.281   5.354   2.098 -0.7456 -0.0788  0.3808
 4776TIP3   OH214268   7.128   7.193   0.933  0.4292 -0.0083  0.3398
 4776TIP3    H114269   7.120   7.233   0.847 -0.5301  0.0356  0.4364
 4776TIP3    H214270   7.218   7.209   0.960  1.0118 -0.8813 -1.0780
 4777TIP3   OH214271   6.172   3.854   0.509  0.4839 -0.1867 -0.0041
 4777TIP3    H114272   6.077   3.852   0.518  0.5139 -0.2262  0.3047
 4777TIP3    H214273   6.200   3.763   0.517  0.4306 -0.3411 -1.4203
 4778TIP3   OH214274   4.223   6.095   1.927 -0.5616 -0.3118  0.2213
 4778TIP3    H114275   4.300   6.043   1.949 -0.9740 -1.3598 -0.7802
 4778TIP3    H214276   4.249   6.185   1.947  0.0012 -0.9257  2.3943
 4779TIP3   OH214277   3.398   6.192   0.689  0.4637  0.5029  0.0142
 4779TIP3    H114278   3.393   6.126   0.620  2.9152  0.5776 -0.2627
 4779TIP3    H214279   3.383   6.275   0.644  1.9801  0.5447 -0.4288
 4780TIP3   OH214280   5.937   0.023   2.958 -0.1741 -0.4831  0.4847
 4780TIP3    H114281   5.994   0.100   2.954  0.8981 -1.1833  1.8014
 4780TIP3    H214282   5.853   0.056   2.987  0.3145  0.1728  1.1501
 4781TIP3   OH214283   4.977   6.216   1.484 -0.0587 -0.1009 -0.0899
 4781TIP3    H114284   4.967   6.227   1.390  1.1622 -2.0991 -0.4912
 4781TIP3    H214285   4.982   6.305   1.519  0.2924  0.6498 -2.0173
 4782TIP3   OH214286   5.376   7.518   1.499  0.2456 -0.1041 -0.4570
 4782TIP3    H114287   5.390   7.553   1.411  0.5459 -1.1876 -0.8396
 4782TIP3    H214288   5.296   7.563   1.530 -1.1973 -1.4171 -2.1736
 4783TIP3   OH214289   5.688   3.875   1.630 -0.1942 -0.3641 -0.7959
 4783TIP3    H114290   5.666   3.942   1.696  0.4100 -0.3070 -0.6486
 4783TIP3    H214291   5.643   3.905   1.551 -1.2732 -0.6545 -0.3081
 4784TIP3   OH214292   7.401   4.429   0.407 -0.1972 -0.1982  0.2027
 4784TIP3    H114293   7.352   4.447   0.327  0.0441 -0.1175  0.0721
 4784TIP3    H214294   7.445   4.512   0.428 -1.3246  0.1650  1.1636
 4785TIP3   OH214295   6.767   6.584   2.168  0.3012 -0.5031 -0.4468
 4785TIP3    H114296   6.771   6.636   2.087 -1.7942  1.0408  0.4031
 4785TIP3    H214297   6.680   6.544   2.167 -0.3729  0.8328  1.8133
 4786TIP3   OH214298   6.221   5.098   1.762  0.2457  0.2635 -0.8219
 4786TIP3    H114299   6.232   5.112   1.856 -0.9199 -0.9103 -0.4988
 4786TIP3    H214300   6.263   5.174   1.722  2.0428  0.0399  0.5867
 4787TIP3   OH214301   5.507   7.023   2.516  0.1471  0.8401 -0.7746
 4787TIP3    H114302   5.491   6.991   2.427 -0.1016  0.4533 -0.5953
 4787TIP3    H214303   5.592   6.986   2.539 -0.6784 -0.7417 -0.1174
 4788TIP3   OH214304   2.310   2.845   6.850  0.8051 -0.2622 -0.0286
 4788TIP3    H114305   2.355   2.838   6.935 -0.4262  1.6737  0.8073
 4788TIP3    H214306   2.225   2.804   6.864  0.4062  0.5061 -0.1789
 4789TIP3   OH214307   5.238   7.169   0.348 -0.5180 -0.4917  0.2437
 4789TIP3    H114308   5.282   7.150   0.431 -1.5199 -0.2096  0.8473
 4789TIP3    H214309   5.155   7.210   0.374  0.3888  2.1774 -0.9712
 4790TIP3   OH214310   7.260   6.264   0.439 -0.3979 -0.0246 -0.5139
 4790TIP3    H114311   7.347   6.249   0.404 -0.6089 -0.0013 -1.0602
 4790TIP3    H214312   7.273   6.322   0.514  0.0155  0.3117 -0.8457
 4791TIP3   OH214313   5.852   4.686   1.389  0.0286  0.0335 -0.2894
 4791TIP3    H114314   5.908   4.713   1.317  0.2855 -0.5263 -0.2962
 4791TIP3    H214315   5.911   4.674   1.464  0.0722 -1.5575 -0.5581
 4792TIP3   OH214316   5.749   5.481   2.802 -0.4201 -0.0895  0.8819
 4792TIP3    H114317   5.689   5.550   2.828 -0.6727  0.5216 -1.1956
 4792TIP3    H214318   5.772   5.502   2.711  1.5504 -1.2803  1.0682
 4793TIP3   OH214319   5.842   4.706   3.199  0.4649  0.4713  0.3410
 4793TIP3    H114320   5.794   4.789   3.204  0.4853  0.4149  1.7131
 4793TIP3    H214321   5.851   4.689   3.105  1.9153  2.8532  0.0151
 4794TIP3   OH214322   5.045   3.972   0.539 -0.4271  0.7387 -0.1373
 4794TIP3    H114323   4.993   4.038   0.585  0.5974  0.9798  0.6806
 4794TIP3    H214324   5.134   3.984   0.571 -0.3594 -1.5782  0.6895
 4795TIP3   OH214325   5.807   3.455   1.318  0.0799 -0.8397 -0.2167
 4795TIP3    H114326   5.842   3.423   1.235  0.6812  0.7173 -0.5895
 4795TIP3    H214327   5.782   3.376   1.367 -0.9066 -1.7442 -2.1451
 4796TIP3   OH214328   4.437   4.333   2.064 -0.2329 -0.2629  0.1772
 4796TIP3    H114329   4.385   4.263   2.104 -0.0291 -0.5199 -0.0088
 4796TIP3    H214330   4.373   4.401   2.043 -0.2404  0.2566  1.7507
 4797TIP3   OH214331   5.114   4.359   2.110 -0.1746 -0.1467  0.1969
 4797TIP3    H114332   5.048   4.426   2.128  0.9300  0.6598  1.2477
 4797TIP3    H214333   5.087   4.284   2.163  0.7446  0.7992  2.0335
 4798TIP3   OH214334   6.598   5.191   2.162 -0.3760 -0.0242 -0.3937
 4798TIP3    H114335   6.630   5.205   2.073 -0.5745  0.5416 -0.3789
 4798TIP3    H214336   6.657   5.242   2.217 -0.2647 -0.3598 -0.2049
 4799TIP3   OH214337   4.987   4.496   0.559 -0.3572 -0.5338  0.2586
 4799TIP3    H114338   4.911   4.473   0.613 -1.4968  0.1855 -1.0036
 4799TIP3    H214339   5.059   4.507   0.622 -1.4709 -0.4969  1.5495
 4800TIP3   OH214340   6.427   7.639   0.122 -0.2564 -0.1679 -0.5206
 4800TIP3    H114341   6.334   7.659   0.116 -0.2973 -0.1299  0.2373
 4800TIP3    H214342   6.466   7.715   0.166  0.0650 -0.3677 -0.4571
 4801TIP3   OH214343   4.365   7.123   1.557  0.2844 -0.2602 -0.6047
 4801TIP3    H114344   4.312   7.189   1.512 -1.7906 -1.8764 -0.6203
 4801TIP3    H214345   4.375   7.156   1.646  0.7456  0.8777 -1.0598
 4802TIP3   OH214346   5.025   4.964   0.276  0.2130 -0.3734  0.5535
 4802TIP3    H114347   5.021   4.877   0.317 -0.9811 -0.3022  0.5968
 4802TIP3    H214348   4.956   4.964   0.210  1.3978 -0.0845 -0.7156
 4803TIP3   OH214349   3.732   6.002   0.690 -0.0782 -0.1428 -0.1920
 4803TIP3    H114350   3.665   5.977   0.626  1.1614 -2.5771 -0.5816
 4803TIP3    H214351   3.786   6.067   0.645 -0.7909  0.1418 -0.6557
 4804TIP3   OH214352   5.509   3.191   1.777  0.2965 -0.3038 -0.6909
 4804TIP3    H114353   5.495   3.201   1.683  0.5282  1.4456 -0.5556
 4804TIP3    H214354   5.524   3.280   1.809  1.8292 -1.0391  0.7511
 4805TIP3   OH214355   3.790   6.468   2.012 -0.1684  0.3422  0.8516
 4805TIP3    H114356   3.845   6.510   1.946 -0.3436  0.7390  0.9599
 4805TIP3    H214357   3.783   6.377   1.982  1.1537  0.1081  1.2307
 4806TIP3   OH214358   5.143   6.364   1.829  0.6239 -0.2262  0.6530
 4806TIP3    H114359   5.102   6.403   1.751  0.0814 -0.3314  0.8820
 4806TIP3    H214360   5.236   6.356   1.806  0.5349  0.1122  0.1658
 4807TIP3   OH214361   3.061   0.453   6.976 -0.5706  0.2662 -0.1180
 4807TIP3    H114362   3.012   0.486   7.052  1.3949  1.6640  0.5640
 4807TIP3    H214363   3.132   0.401   7.014  0.1121  0.5371 -1.0080
 4808TIP3   OH214364   5.487   5.993   2.313  0.1834 -0.1133  0.1511
 4808TIP3    H114365   5.517   5.911   2.352 -1.5705  0.2725  2.3527
 4808TIP3    H214366   5.529   6.061   2.365 -0.4227  0.4093 -0.0368
 4809TIP3   OH214367   3.362   5.015   2.150  0.2091 -0.6013 -0.6853
 4809TIP3    H114368   3.427   5.085   2.162  0.2541 -0.7950  0.3083
 4809TIP3    H214369   3.362   4.969   2.234 -1.4215 -0.4257 -0.5842
 4810TIP3   OH214370   4.162   5.326   1.552 -1.2874  0.5792 -0.4249
 4810TIP3    H114371   4.233   5.391   1.551  0.1240 -0.8821  1.2226
 4810TIP3    H214372   4.111   5.347   1.630  0.2226 -1.3038  1.1423
 4811TIP3   OH214373   4.988   6.743   1.618 -0.5601  0.2453 -0.0495
 4811TIP3    H114374   5.007   6.832   1.588 -1.2392  0.7774  1.0422
 4811TIP3    H214375   4.972   6.753   1.712 -2.6686 -0.6934 -0.2717
 4812TIP3   OH214376   3.164   1.553   6.766 -0.5378  0.4560 -0.2604
 4812TIP3    H114377   3.178   1.510   6.681  1.1539  0.9233 -0.2457
 4812TIP3    H214378   3.235   1.521   6.821 -0.0622  2.1645  0.1662
 4813TIP3   OH214379   7.109   6.299   1.128 -0.4674  0.3479 -0.0119
 4813TIP3    H114380   7.107   6.218   1.179  1.7526 -1.4727 -2.7181
 4813TIP3    H214381   7.084   6.367   1.191 -3.6198 -2.5299  2.0318
 4814TIP3   OH214382   7.315   5.673   1.148 -0.1327  0.3492  0.8230
 4814TIP3    H114383   7.257   5.606   1.111 -0.5180 -0.0187  2.0529
 4814TIP3    H214384   7.291   5.754   1.104 -1.4538  0.1608  1.1692
 4815TIP3   OH214385   4.600   8.022   2.300 -0.0568 -0.1470 -0.5717
 4815TIP3    H114386   4.610   8.076   2.221  0.4799 -1.0753 -1.1520
 4815TIP3    H214387   4.680   7.969   2.302  1.6209  2.3396  2.5199
 4816TIP3   OH214388   5.405   7.201   0.884  0.3184 -0.1990  0.2463
 4816TIP3    H114389   5.459   7.272   0.919 -0.6542  1.0622 -0.7580
 4816TIP3    H214390   5.465   7.151   0.828  0.9083  0.0446  0.6549
 4817TIP3   OH214391   4.390   5.477   1.550  0.8328  0.0629  0.3266
 4817TIP3    H114392   4.372   5.538   1.479  0.3721 -2.9276 -2.2049
 4817TIP3    H214393   4.485   5.467   1.550  0.7552 -0.7047 -0.5466
 4818TIP3   OH214394   4.109   5.626   1.332  0.3368  0.3671  0.5630
 4818TIP3    H114395   4.022   5.653   1.362  0.4136  1.3665 -0.0995
 4818TIP3    H214396   4.120   5.538   1.369 -1.2926 -0.1106 -0.0159
 4819TIP3   OH214397   4.392   5.837   4.365  0.2294 -0.3874  0.0881
 4819TIP3    H114398   4.477   5.826   4.323  0.9476  0.1643  1.3629
 4819TIP3    H214399   4.408   5.818   4.458 -0.9865 -0.0826  0.3743
 4820TIP3   OH214400   4.320   7.890   2.273 -0.1894 -0.1265  0.0346
 4820TIP3    H114401   4.287   7.806   2.242  1.0606 -0.8614  0.6387
 4820TIP3    H214402   4.366   7.869   2.355  2.5076  0.6906 -1.2128
 4821TIP3   OH214403   4.477   6.858   0.792  0.2779  0.0892 -0.0318
 4821TIP3    H114404   4.500   6.786   0.851  0.2384  0.2317  0.1609
 4821TIP3    H214405   4.417   6.912   0.844 -0.7239 -0.4366 -0.6308
 4822TIP3   OH214406   6.663   6.473   1.245  0.0582 -0.0247 -0.2907
 4822TIP3    H114407   6.619   6.555   1.268 -0.2001 -0.4354  0.6785
 4822TIP3    H214408   6.599   6.428   1.189  0.0932  0.3144 -0.6065
 4823TIP3   OH214409   5.183   5.807   1.744  0.0703  0.2874 -0.5108
 4823TIP3    H114410   5.147   5.887   1.706 -2.3390 -0.3544  0.3124
 4823TIP3    H214411   5.207   5.754   1.668  1.4661  1.6621 -1.0599
 4824TIP3   OH214412   5.968   5.366   2.008  0.0487  0.1519 -0.1074
 4824TIP3    H114413   6.063   5.358   2.003 -0.0212 -0.2654 -0.7854
 4824TIP3    H214414   5.951   5.395   2.098  0.9565  2.2928 -0.5963
 4825TIP3   OH214415   5.835   5.993   2.042 -0.2499  0.1448  0.1784
 4825TIP3    H114416   5.837   6.076   2.090  0.0444 -0.6334  1.5344
 4825TIP3    H214417   5.922   5.988   2.001  0.3915 -0.3416  1.5770
 4826TIP3   OH214418   5.862   4.240   2.192 -0.0479 -0.5124 -0.3448
 4826TIP3    H114419   5.822   4.235   2.279 -1.1602  1.8992 -0.6793
 4826TIP3    H214420   5.903   4.155   2.180  0.4161 -0.7771  2.6853
 4827TIP3   OH214421   4.953   5.854   2.197 -0.0619  0.3840  0.5712
 4827TIP3    H114422   5.014   5.781   2.184 -0.3919  0.1826  0.1077
 4827TIP3    H214423   4.929   5.881   2.108 -1.5613 -0.3143  0.7436
 4828TIP3   OH214424   5.759   4.478   2.601  0.1919  0.6755 -0.0446
 4828TIP3    H114425   5.851   4.454   2.601  0.2957  1.0802 -0.6831
 4828TIP3    H214426   5.752   4.548   2.536 -1.4161 -2.5337 -3.5056
 4829TIP3   OH214427   4.131   3.783   1.706  0.3415 -0.2578  0.0308
 4829TIP3    H114428   4.145   3.754   1.796  0.5529 -1.7467 -0.4759
 4829TIP3    H214429   4.149   3.706   1.652  0.1381  0.5953 -1.2874
 4830TIP3   OH214430   6.921   6.458   0.052  0.2406 -0.7394 -0.6527
 4830TIP3    H114431   6.893   6.524   0.115  0.8171 -0.1450 -1.0168
 4830TIP3    H214432   6.950   6.508  -0.024  1.4651 -1.3820 -0.6135
 4831TIP3   OH214433   7.651   0.338   3.740 -0.4135 -0.3198  0.0139
 4831TIP3    H114434   7.619   0.340   3.650 -1.1026 -0.4028  0.2580
 4831TIP3    H214435   7.722   0.273   3.738 -0.0645  0.0714 -0.5838
 4832TIP3   OH214436   4.105   2.734   2.171 -0.4915 -0.0904  0.0129
 4832TIP3    H114437   4.066   2.784   2.099 -0.3493  0.9760  0.6632
 4832TIP3    H214438   4.144   2.801   2.228  1.0124 -1.0416  0.1267
 4833TIP3   OH214439   6.621   5.257   3.066 -0.1523  0.2568 -0.3525
 4833TIP3    H114440   6.713   5.277   3.049 -0.2447  0.3359 -0.7692
 4833TIP3    H214441   6.573   5.325   3.020 -0.4337 -0.2189 -0.7625
 4834TIP3   OH214442   3.984   5.605   0.803 -0.1249  0.4927  0.2303
 4834TIP3    H114443   3.949   5.693   0.786 -1.8761 -0.5950 -2.0074
 4834TIP3    H214444   3.995   5.602   0.898  1.5980  3.7207  0.2333
 4835TIP3   OH214445   3.463   7.050   3.023 -0.8448 -0.2010  0.1454
 4835TIP3    H114446   3.475   7.079   2.933 -0.1826  1.4125  0.7296
 4835TIP3    H214447   3.376   7.082   3.047 -1.3012 -1.2150 -0.1248
 4836TIP3   OH214448   5.452   4.330   3.554  0.0993 -0.1155  0.0632
 4836TIP3    H114449   5.398   4.321   3.475 -0.0486 -2.1531  0.3796
 4836TIP3    H214450   5.495   4.415   3.543  0.0192 -0.3148 -2.1857
 4837TIP3   OH214451   5.501   3.872   1.420 -0.7787  0.6976 -0.0955
 4837TIP3    H114452   5.456   3.914   1.494 -1.2344  2.3414 -1.2984
 4837TIP3    H214453   5.458   3.787   1.412 -0.8877  0.5944  1.3726
 4838TIP3   OH214454   2.918   5.019   2.049  0.1361 -0.6472 -0.7694
 4838TIP3    H114455   2.981   5.035   1.979 -2.5049  1.3629 -2.8233
 4838TIP3    H214456   2.835   5.050   2.013 -1.6753 -1.4508  2.5419
 4839TIP3   OH214457   1.913   7.072   6.233  0.5169 -0.1117  0.0646
 4839TIP3    H114458   1.832   7.040   6.193  0.6212  0.3818 -0.5394
 4839TIP3    H214459   1.983   7.040   6.175  0.7755 -0.7297  0.7058
 4840TIP3   OH214460   3.414   6.188   2.120  0.4152 -0.3646 -0.2655
 4840TIP3    H114461   3.394   6.271   2.163 -1.4229 -0.3140 -1.1553
 4840TIP3    H214462   3.425   6.210   2.028 -0.1332 -1.0905 -0.5153
 4841TIP3   OH214463   3.554   4.833   0.822  0.4465 -0.0806  0.0455
 4841TIP3    H114464   3.569   4.924   0.797  1.3538 -0.0530  0.6799
 4841TIP3    H214465   3.636   4.805   0.862  0.7137 -1.6516 -1.5365
 4842TIP3   OH214466   5.607   4.780   1.397  0.1043 -0.2233 -0.4848
 4842TIP3    H114467   5.700   4.764   1.380  0.2961 -0.2762  0.5684
 4842TIP3    H214468   5.562   4.745   1.320  0.8210 -2.0525 -0.0989
 4843TIP3   OH214469   5.106   5.249   2.043  0.5661  0.1907  0.3870
 4843TIP3    H114470   5.134   5.270   1.953 -0.4512 -1.5562 -0.3714
 4843TIP3    H214471   5.096   5.154   2.043  2.2086 -0.0265  2.8590
 4844TIP3   OH214472   3.451   3.690   0.150 -0.0959  0.3080 -0.4561
 4844TIP3    H114473   3.518   3.630   0.117  0.8224  0.1882  1.5963
 4844TIP3    H214474   3.383   3.632   0.185 -0.2601  0.4495 -0.5406
 4845TIP3   OH214475   4.921   3.327   1.678  0.2708  0.2810  0.1586
 4845TIP3    H114476   4.940   3.416   1.648 -0.3969  0.3151 -0.1590
 4845TIP3    H214477   5.007   3.284   1.680  0.2911  0.1392 -2.2534
 4846TIP3   OH214478   4.436   5.916   1.281  0.1147  0.4467 -0.8467
 4846TIP3    H114479   4.462   5.911   1.189  0.7956  0.4487 -0.6537
 4846TIP3    H214480   4.489   5.987   1.317  1.2333 -0.7946 -0.0000
 4847TIP3   OH214481   2.958   4.316   6.124 -0.4959  0.1652  0.1051
 4847TIP3    H114482   3.026   4.344   6.184 -2.3517  1.1597  1.7885
 4847TIP3    H214483   2.943   4.391   6.067 -0.6470  0.1966  0.1838
 4848TIP3   OH214484   5.189   6.267   2.137  0.6830  0.2676  0.0609
 4848TIP3    H114485   5.187   6.284   2.232  1.7291  2.6226 -0.3059
 4848TIP3    H214486   5.250   6.194   2.127  0.5853  0.0216  1.1976
 4849TIP3   OH214487   3.969   4.956   4.089  0.2016  0.1121 -0.2351
 4849TIP3    H114488   3.992   4.866   4.111 -0.1974  0.0872  0.0860
 4849TIP3    H214489   4.050   4.994   4.055 -0.2398 -1.1332 -2.8177
 4850TIP3   OH214490   6.770   6.881   2.095  0.1091  0.8497 -0.1613
 4850TIP3    H114491   6.800   6.885   2.004 -1.2175  2.5048 -0.5569
 4850TIP3    H214492   6.848   6.896   2.147  0.7650  0.5729 -1.0465
 4851TIP3   OH214493   4.928   4.290   0.249 -0.0886 -0.2169  0.1066
 4851TIP3    H114494   4.957   4.376   0.217  0.0423 -0.8278 -1.4529
 4851TIP3    H214495   4.837   4.304   0.274  0.5449  0.8979  1.9015
 4852TIP3   OH214496   5.100   3.736   1.498 -0.7124 -0.1833  0.2698
 4852TIP3    H114497   5.071   3.811   1.551 -2.2927  0.8227 -1.9386
 4852TIP3    H214498   5.176   3.768   1.450 -2.7809  0.8428 -2.4583
 4853TIP3   OH214499   0.954   3.542   6.781  0.3176 -0.0783  0.2602
 4853TIP3    H114500   0.992   3.500   6.858 -1.5724 -0.7523  0.8409
 4853TIP3    H214501   0.932   3.631   6.810 -0.0890 -0.2244  0.3939
 4854TIP3   OH214502   4.798   3.176   1.380  0.0789 -0.3685  0.2334
 4854TIP3    H114503   4.707   3.146   1.380  0.3896 -1.3216  0.7427
 4854TIP3    H214504   4.827   3.165   1.471  0.8366 -0.4900 -0.0207
 4855TIP3   OH214505   4.748   7.583   0.814 -0.3519  0.7066  0.5207
 4855TIP3    H114506   4.834   7.580   0.856  0.4345  1.7664 -0.9667
 4855TIP3    H214507   4.737   7.674   0.788 -0.7611  0.0516 -1.6956
 4856TIP3   OH214508   3.134   6.996   2.601  0.0404  0.5067 -0.6525
 4856TIP3    H114509   3.185   7.077   2.591  0.2405  0.3738 -0.7219
 4856TIP3    H214510   3.074   6.996   2.528  1.3039 -0.3219 -1.7240
 4857TIP3   OH214511   4.880   4.154   0.672  0.0101 -0.2190 -0.1549
 4857TIP3    H114512   4.954   4.198   0.715  0.6051 -0.8967 -0.4628
 4857TIP3    H214513   4.809   4.217   0.675  0.3162  0.0900  1.0056
 4858TIP3   OH214514   4.813   4.488   1.342 -0.4430 -0.2426  0.3821
 4858TIP3    H114515   4.760   4.565   1.322  0.3908 -0.1469 -1.5971
 4858TIP3    H214516   4.900   4.523   1.362 -0.1791 -0.6321 -0.0680
 4859TIP3   OH214517   4.514   4.837   0.785 -0.0180 -0.6072 -0.2937
 4859TIP3    H114518   4.517   4.789   0.702  1.5439 -2.3791  0.7547
 4859TIP3    H214519   4.456   4.785   0.840  0.6399 -0.5876  0.4158
 4860TIP3   OH214520   6.029   4.392   0.802 -0.0649 -0.0277  0.0454
 4860TIP3    H114521   6.076   4.464   0.760 -1.4588  0.3180 -0.9905
 4860TIP3    H214522   6.007   4.426   0.890 -1.1975  1.0631 -0.6309
 4861TIP3   OH214523   4.728   6.022   2.436  0.5341  0.0788 -0.5213
 4861TIP3    H114524   4.656   5.990   2.489  1.0724  0.2982  0.3506
 4861TIP3    H214525   4.774   5.944   2.408  0.2815 -0.0351 -0.6192
 4862TIP3   OH214526   6.627   3.727   2.080  0.6744 -0.2154  0.0267
 4862TIP3    H114527   6.572   3.676   2.140  0.8136 -0.2575  0.1196
 4862TIP3    H214528   6.609   3.818   2.102  0.4701 -0.2257 -0.0988
 4863TIP3   OH214529   7.719   6.566   1.225 -0.3237  0.0942  0.2317
 4863TIP3    H114530   7.749   6.582   1.135  1.8765  2.3053  1.2918
 4863TIP3    H214531   7.763   6.633   1.277 -1.4837 -1.2127  3.0004
 4864TIP3   OH214532   6.540   6.027   3.241  0.4244 -0.3426 -0.6085
 4864TIP3    H114533   6.574   5.942   3.270  1.3276  0.8049  1.8199
 4864TIP3    H214534   6.446   6.012   3.229  0.4927 -1.5429  0.2906
 4865TIP3   OH214535   6.546   6.171   0.552 -0.1018  0.6866 -0.3446
 4865TIP3    H114536   6.605   6.138   0.619 -0.8778 -0.2698 -0.1186
 4865TIP3    H214537   6.503   6.247   0.593 -2.2013 -1.1960  1.0947
 4866TIP3   OH214538   3.607   0.120   6.876  0.2538  0.2010 -0.1939
 4866TIP3    H114539   3.512   0.131   6.878  0.0222 -1.6049  0.3062
 4866TIP3    H214540   3.632   0.134   6.785 -0.8248 -1.5530 -0.7925
 4867TIP3   OH214541   4.542   3.857   0.205 -0.4160  0.2545 -0.0414
 4867TIP3    H114542   4.483   3.865   0.130 -1.9125  0.3300  1.1246
 4867TIP3    H214543   4.518   3.930   0.262  0.2589 -0.1914  0.8198
 4868TIP3   OH214544   3.053   7.172   0.307  0.1990  0.4165 -0.4687
 4868TIP3    H114545   3.093   7.176   0.220  0.6385  0.7766 -0.2519
 4868TIP3    H214546   3.030   7.080   0.319  2.3476 -0.0870  0.0113
 4869TIP3   OH214547   4.820   4.139   2.087 -0.2536 -0.0525  0.1625
 4869TIP3    H114548   4.745   4.107   2.137  1.0064 -1.1724  1.4076
 4869TIP3    H214549   4.843   4.222   2.128 -0.1355 -0.2493  0.4968
 4870TIP3   OH214550   3.143   6.889   3.901 -0.0017 -0.5032  0.0460
 4870TIP3    H114551   3.106   6.972   3.870  1.0115 -0.6025 -1.4638
 4870TIP3    H214552   3.175   6.846   3.822  0.1241 -2.0192  0.9116
 4871TIP3   OH214553   4.944   6.153   1.986 -0.0975 -0.0873 -0.3626
 4871TIP3    H114554   4.960   6.070   1.942  2.2113 -0.0142  0.3072
 4871TIP3    H214555   4.868   6.135   2.042 -0.0225 -1.5583 -0.7021
 4872TIP3   OH214556   5.281   4.302   0.125 -0.3499  0.4857 -0.9574
 4872TIP3    H114557   5.253   4.300   0.217 -0.1553 -0.2838 -0.9143
 4872TIP3    H214558   5.376   4.292   0.129 -0.4181 -0.3226 -1.2807
 4873TIP3   OH214559   4.813   6.695   1.996  0.1995 -0.3246 -0.2446
 4873TIP3    H114560   4.856   6.780   2.009 -3.1839  1.6654 -1.3556
 4873TIP3    H214561   4.770   6.677   2.079 -1.7862  0.7248 -1.0042
 4874TIP3   OH214562   6.297   4.348   1.596 -0.3963 -0.5711  0.0587
 4874TIP3    H114563   6.278   4.337   1.689  1.6881 -0.0858  0.5484
 4874TIP3    H214564   6.371   4.290   1.579 -0.6189 -0.4938 -1.2643
 4875TIP3   OH214565   1.596   0.114   0.829 -0.5144 -0.5808  0.3768
 4875TIP3    H114566   1.574   0.188   0.886  2.2593 -0.7580  1.7880
 4875TIP3    H214567   1.590   0.037   0.886  0.5806 -0.9668 -0.0143
 4876TIP3   OH214568   8.100   0.111   1.518  0.1150 -0.1306 -0.2188
 4876TIP3    H114569   8.021   0.059   1.503  0.1118 -0.0351 -0.5367
 4876TIP3    H214570   8.172   0.048   1.508  0.1035 -0.1082 -0.4425
 4877TIP3   OH214571   4.183   6.758   0.792  0.3477  0.0696 -0.4756
 4877TIP3    H114572   4.231   6.832   0.829  0.6613  0.5293 -1.7759
 4877TIP3    H214573   4.251   6.701   0.755  0.0216 -0.2209 -0.6333
 4878TIP3   OH214574   6.284   6.697   0.134  0.4011 -0.0276 -0.3411
 4878TIP3    H114575   6.313   6.615   0.094  1.3503  0.5515 -0.8515
 4878TIP3    H214576   6.231   6.739   0.067  0.0245 -0.1660 -0.1281
 4879TIP3   OH214577   6.609   4.684   0.940  0.5438 -0.2947  0.1457
 4879TIP3    H114578   6.630   4.592   0.925  1.5458 -0.0454 -0.0665
 4879TIP3    H214579   6.584   4.689   1.032 -0.9447 -1.0224 -0.2166
 4880TIP3   OH214580   4.758   5.595   1.921  0.1130 -0.4165 -0.1016
 4880TIP3    H114581   4.664   5.600   1.907  0.2903  0.2911 -1.0758
 4880TIP3    H214582   4.791   5.543   1.847  0.8326  1.8365 -1.4269
 4881TIP3   OH214583   6.480   4.769   1.435  0.2823 -0.4942 -0.0116
 4881TIP3    H114584   6.411   4.710   1.405 -0.4074  0.2523  0.0911
 4881TIP3    H214585   6.462   4.851   1.390 -0.3095  0.4116  1.8237
 4882TIP3   OH214586   3.570   6.817   0.514 -0.3820 -0.0188 -0.3354
 4882TIP3    H114587   3.531   6.899   0.544  0.9947  0.5925 -0.1904
 4882TIP3    H214588   3.603   6.775   0.594  0.8255  0.3049 -0.6583
 4883TIP3   OH214589   2.890   6.647   1.127  0.5557 -0.2625  0.2462
 4883TIP3    H114590   2.962   6.690   1.173  0.1182  0.7186  0.0074
 4883TIP3    H214591   2.854   6.714   1.070  0.4573 -1.1899 -0.8065
 4884TIP3   OH214592   5.276   7.116   1.663 -0.1145  0.2093  0.2718
 4884TIP3    H114593   5.290   7.070   1.746 -0.7319  1.1424  0.9033
 4884TIP3    H214594   5.344   7.184   1.662 -0.1910  0.2821  0.0717
 4885TIP3   OH214595   5.170   4.307   1.839  0.0614 -0.2572 -0.2762
 4885TIP3    H114596   5.100   4.255   1.798 -0.6411  0.8405 -0.4760
 4885TIP3    H214597   5.151   4.303   1.932 -1.3806  1.6374 -0.4778
 4886TIP3   OH214598   5.454   7.901   0.839 -0.3537  0.0651 -0.4820
 4886TIP3    H114599   5.441   7.875   0.748 -0.1988 -0.7772 -0.2739
 4886TIP3    H214600   5.546   7.883   0.855 -0.3112  0.4947 -0.2435
 4887TIP3   OH214601   5.548   3.268   2.362  0.1997 -0.2785 -0.4855
 4887TIP3    H114602   5.567   3.175   2.372  0.6114 -0.2554 -1.0021
 4887TIP3    H214603   5.471   3.270   2.305 -0.0531 -0.3176 -0.1413
 4888TIP3   OH214604   7.272   5.843   4.813  0.0486 -0.4633  0.2057
 4888TIP3    H114605   7.258   5.749   4.805  0.8816 -0.6725  1.1014
 4888TIP3    H214606   7.358   5.851   4.853  0.8520  0.7109 -1.6600
 4889TIP3   OH214607   6.036   5.772   0.821  0.0103 -0.3713 -0.0627
 4889TIP3    H114608   5.951   5.735   0.842  0.5746 -2.0459 -0.6340
 4889TIP3    H214609   6.098   5.700   0.831  1.0941  0.3041 -1.5474
 4890TIP3   OH214610   4.829   6.052   2.884  0.4534  0.5691 -0.0002
 4890TIP3    H114611   4.780   6.133   2.870 -2.3162 -0.8067  1.3600
 4890TIP3    H214612   4.840   6.047   2.979  1.6281 -0.1108 -0.1553
 4891TIP3   OH214613   1.092   1.935   6.668 -0.0739 -0.0532 -0.0982
 4891TIP3    H114614   1.153   1.918   6.739 -0.6175  0.4591  0.4988
 4891TIP3    H214615   1.108   2.026   6.643  1.0652 -0.6362 -1.5654
 4892TIP3   OH214616   5.686   4.468   1.023  0.5412  0.6315 -0.0684
 4892TIP3    H114617   5.779   4.486   1.028  0.5538  0.8355 -0.8465
 4892TIP3    H214618   5.677   4.376   1.050  0.9060  0.7521  0.4567
 4893TIP3   OH214619   3.434   4.494   2.398  0.1351 -0.6774  0.2588
 4893TIP3    H114620   3.460   4.523   2.486  1.5454  0.7488 -0.5986
 4893TIP3    H214621   3.491   4.543   2.339 -0.7981 -1.6241 -1.4651
 4894TIP3   OH214622   4.839   7.035   3.056  0.0696 -0.3285  0.1253
 4894TIP3    H114623   4.753   7.000   3.080 -0.3248  1.2406  1.0980
 4894TIP3    H214624   4.819   7.115   3.006  0.9112  1.8306  3.0729
 4895TIP3   OH214625   6.497   5.484   2.554  0.0598 -0.3914  0.0296
 4895TIP3    H114626   6.434   5.542   2.511 -0.3661 -0.5183  0.4743
 4895TIP3    H214627   6.582   5.523   2.536 -0.1646 -0.1127 -0.4148
 4896TIP3   OH214628   4.094   7.815   2.065 -0.0997 -0.0475  0.3845
 4896TIP3    H114629   4.063   7.728   2.043  0.9778 -0.4321  0.3430
 4896TIP3    H214630   4.041   7.842   2.140 -0.2272 -0.8531  0.5836
 4897TIP3   OH214631   5.566   6.324   0.718 -0.1569 -0.0208  0.2780
 4897TIP3    H114632   5.629   6.396   0.710 -0.4844  0.4435  1.7407
 4897TIP3    H214633   5.528   6.335   0.804 -0.5898 -1.6661  0.3191
 4898TIP3   OH214634   5.381   5.306   1.815 -0.2047 -0.2528 -0.3020
 4898TIP3    H114635   5.289   5.333   1.827 -0.9391 -2.5217 -0.5897
 4898TIP3    H214636   5.418   5.373   1.758 -1.7296  0.6098 -0.3171
 4899TIP3   OH214637   2.472   2.325   6.886  0.2621 -0.6233 -0.1122
 4899TIP3    H114638   2.479   2.299   6.978 -1.5333 -0.8250 -0.0165
 4899TIP3    H214639   2.476   2.242   6.837 -3.4878 -1.0256  0.0856
 4900TIP3   OH214640   4.797   5.217   1.874 -0.0643 -0.2709 -0.1020
 4900TIP3    H114641   4.702   5.218   1.867 -0.1625 -2.1194  0.6367
 4900TIP3    H214642   4.816   5.155   1.945  1.6890  0.0566 -0.2410
 4901TIP3   OH214643   4.869   2.160   6.322 -0.1453 -0.5428  0.1864
 4901TIP3    H114644   4.828   2.213   6.390  1.4165  1.2461 -0.2132
 4901TIP3    H214645   4.900   2.082   6.368  0.5747  0.4771  1.4802
 4902TIP3   OH214646   5.905   6.428   2.324  0.5268 -0.0375  0.1749
 4902TIP3    H114647   5.852   6.490   2.374  2.7765 -0.1764  2.9183
 4902TIP3    H214648   5.978   6.481   2.291  0.8149 -0.6082 -0.1116
 4903TIP3   OH214649   4.681   4.989   0.493  0.3150  0.5664  0.5066
 4903TIP3    H114650   4.609   4.930   0.518 -0.8017  0.6001 -2.4051
 4903TIP3    H214651   4.646   5.077   0.509  0.6393  0.5398  1.4018
 4904TIP3   OH214652   5.512   6.443   1.430  0.3308 -0.2796 -0.3828
 4904TIP3    H114653   5.589   6.406   1.386  1.2886  1.5781 -0.3571
 4904TIP3    H214654   5.501   6.529   1.388 -2.4914 -1.0052 -1.2416
 4905TIP3   OH214655   2.766   6.259   3.277 -0.2127  0.3981 -0.7633
 4905TIP3    H114656   2.828   6.209   3.329 -2.7620 -0.8828  1.1790
 4905TIP3    H214657   2.776   6.225   3.188  0.0330 -1.6785  0.0301
 4906TIP3   OH214658   3.997   5.217   0.994 -0.4623 -0.1447  1.0408
 4906TIP3    H114659   3.999   5.311   1.007  0.1613  0.1370 -1.0049
 4906TIP3    H214660   4.078   5.185   1.035  0.9109  0.5958 -1.0073
 4907TIP3   OH214661   6.137   7.243   1.958 -0.1358  0.6690  0.4224
 4907TIP3    H114662   6.155   7.181   1.887 -0.6655  1.1788 -0.1672
 4907TIP3    H214663   6.222   7.257   2.000  0.2725  0.7328 -0.4097
 4908TIP3   OH214664   6.912   5.423   0.886 -0.0061 -0.5728  0.1054
 4908TIP3    H114665   6.833   5.421   0.832 -0.5849  1.6571  0.8115
 4908TIP3    H214666   6.982   5.443   0.823 -0.6560  1.8743  0.0811
 4909TIP3   OH214667   5.199   5.430   2.419 -0.8321 -0.0275 -0.2364
 4909TIP3    H114668   5.106   5.445   2.408 -0.5177  1.0212 -1.6106
 4909TIP3    H214669   5.239   5.517   2.414  0.2013 -0.4389  0.5245
 4910TIP3   OH214670   5.175   5.048   0.749  0.3219  0.0933 -0.0960
 4910TIP3    H114671   5.088   5.010   0.752  0.0461  0.6075 -1.3891
 4910TIP3    H214672   5.162   5.137   0.716  1.2113  0.5457  0.7475
 4911TIP3   OH214673   2.565   5.608   3.264 -0.1958 -0.2933  0.0173
 4911TIP3    H114674   2.494   5.545   3.256  1.3846 -1.8023 -2.9964
 4911TIP3    H214675   2.637   5.558   3.302  0.3293  0.2795 -0.2193
 4912TIP3   OH214676   5.889   3.619   2.573  0.4591  0.1953  0.4002
 4912TIP3    H114677   5.802   3.580   2.579  1.0666 -1.0138  1.4801
 4912TIP3    H214678   5.893   3.653   2.483 -0.5253 -1.1750 -0.1890
 4913TIP3   OH214679   5.078   6.949   3.018  0.0160 -0.2149 -0.0555
 4913TIP3    H114680   4.984   6.963   3.025 -0.0007  0.1159 -0.8076
 4913TIP3    H214681   5.088   6.883   2.949  0.2421 -1.7864  1.4510
 4914TIP3   OH214682   7.031   6.055   1.232  0.7115 -0.4378 -0.3019
 4914TIP3    H114683   6.952   6.107   1.221  1.0603  0.7269  2.4522
 4914TIP3    H214684   7.002   5.975   1.275  1.0423  0.0292  0.7923
 4915TIP3   OH214685   5.185   3.530   1.737 -0.1847  0.0830 -0.7366
 4915TIP3    H114686   5.256   3.566   1.683  0.9038 -0.8710  0.0225
 4915TIP3    H214687   5.188   3.435   1.720  0.2670 -0.2409  1.0983
 4916TIP3   OH214688   4.358   4.743   2.300 -0.0567 -0.4313  0.8185
 4916TIP3    H114689   4.444   4.726   2.341 -0.4196  0.0127  1.7820
 4916TIP3    H214690   4.322   4.815   2.351 -0.3981  0.3319 -0.5019
 4917TIP3   OH214691   5.813   4.653   2.384  0.7168 -0.1012  0.2159
 4917TIP3    H114692   5.733   4.706   2.382 -0.0569 -1.3072 -1.6542
 4917TIP3    H214693   5.856   4.670   2.301  0.5392 -2.2643 -0.3372
 4918TIP3   OH214694   5.660   4.507   3.156  0.7266  0.2487 -0.4691
 4918TIP3    H114695   5.726   4.572   3.180  0.2812  0.1024  1.1793
 4918TIP3    H214696   5.653   4.450   3.233 -0.9778 -0.0233 -0.8121
 4919TIP3   OH214697   5.440   2.959   2.201 -0.2651  0.2592 -0.1798
 4919TIP3    H114698   5.388   2.917   2.132 -0.2127  1.4349 -0.9472
 4919TIP3    H214699   5.445   3.051   2.175  0.3926  0.5738  1.0087
 4920TIP3   OH214700   5.622   6.808   1.707 -0.5722 -0.3043 -0.1018
 4920TIP3    H114701   5.664   6.776   1.627 -2.3818 -0.9131 -0.8280
 4920TIP3    H214702   5.671   6.765   1.778 -0.1299 -1.2071 -0.9297
 4921TIP3   OH214703   4.669   4.465   2.102  0.2157  0.5738  0.5402
 4921TIP3    H114704   4.639   4.538   2.047  1.5286  0.6955 -0.0409
 4921TIP3    H214705   4.599   4.400   2.095  0.4459  0.4897 -1.4852
 4922TIP3   OH214706   4.093   5.037   1.604  0.0079 -0.1266  0.4919
 4922TIP3    H114707   4.138   5.117   1.576 -1.4952  0.6932  0.4049
 4922TIP3    H214708   4.107   5.033   1.698  0.6252 -0.1097  0.4054
 4923TIP3   OH214709   5.150   5.813   4.764 -0.5044 -0.3655 -0.2198
 4923TIP3    H114710   5.076   5.856   4.807  0.7107  1.0557  0.4907
 4923TIP3    H214711   5.177   5.745   4.825 -0.3415  0.0305  0.1528
 4924TIP3   OH214712   6.616   6.835   1.415 -0.4163  0.0547 -0.4248
 4924TIP3    H114713   6.570   6.774   1.357  0.9476  0.3131 -1.8017
 4924TIP3    H214714   6.679   6.879   1.358  1.2661 -0.0157  1.3469
 4925TIP3   OH214715   6.435   6.327   1.121  0.5059  0.3721  0.1223
 4925TIP3    H114716   6.393   6.399   1.073 -1.8970 -0.8641  0.3638
 4925TIP3    H214717   6.389   6.248   1.093  1.1569 -0.7484  2.0900
 4926TIP3   OH214718   4.700   7.918   0.137  0.7584  0.2628  0.1389
 4926TIP3    H114719   4.689   7.934   0.231 -0.4885 -1.5667  0.3399
 4926TIP3    H214720   4.743   7.832   0.132  2.4087  1.1310 -0.9478
 4927TIP3   OH214721   4.536   7.698   2.737  0.1927 -0.6843 -0.1777
 4927TIP3    H114722   4.602   7.726   2.800  0.4625 -1.7739  0.0322
 4927TIP3    H214723   4.524   7.774   2.680  1.1142 -0.2373  0.2042
 4928TIP3   OH214724   5.817   5.402   1.620 -0.0210  0.6286  0.0623
 4928TIP3    H114725   5.775   5.447   1.546  0.4775  1.3746  0.2257
 4928TIP3    H214726   5.903   5.443   1.626  0.0365  0.3783  0.8914
 4929TIP3   OH214727   3.922   2.709   6.900  0.3048 -0.2539  0.0434
 4929TIP3    H114728   3.869   2.709   6.980  3.4629 -0.5427  2.2396
 4929TIP3    H214729   3.963   2.622   6.899  2.4842  0.7538 -0.3251
 4930TIP3   OH214730   7.719   5.153   2.912  0.2455  0.1750  0.3603
 4930TIP3    H114731   7.684   5.118   2.994  1.0330 -2.7357 -0.4840
 4930TIP3    H214732   7.791   5.094   2.890  2.4990  3.1235 -0.5060
 4931TIP3   OH214733   6.114   6.777   1.226 -0.0273 -0.5315  0.0443
 4931TIP3    H114734   6.098   6.731   1.309  2.2582 -0.3834  0.5906
 4931TIP3    H214735   6.148   6.709   1.167 -1.1994 -0.5350 -0.6491
 4932TIP3   OH214736   7.500   6.022   0.750  0.2915  0.8092 -0.0648
 4932TIP3    H114737   7.476   5.988   0.664  1.8581 -0.0055 -0.1966
 4932TIP3    H214738   7.527   6.112   0.734 -0.6813  1.0815 -0.2149
 4933TIP3   OH214739   4.740   5.648   1.278  0.0164 -0.4189 -0.2285
 4933TIP3    H114740   4.693   5.646   1.195  1.0879 -0.3945 -0.8497
 4933TIP3    H214741   4.701   5.722   1.325 -0.6639 -0.4881 -0.6683
 4934TIP3   OH214742   5.188   6.209   0.320  0.0518  0.5813  0.2271
 4934TIP3    H114743   5.259   6.226   0.382 -0.8527 -1.0308  1.7280
 4934TIP3    H214744   5.145   6.130   0.353 -1.5814  0.7328 -1.4503
 4935TIP3   OH214745   7.010   5.087   0.575 -0.4443 -0.3284  0.2866
 4935TIP3    H114746   6.983   5.107   0.664 -0.3910 -0.0264  0.2368
 4935TIP3    H214747   6.938   5.120   0.521 -0.1492  0.1439  0.1754
 4936TIP3   OH214748   5.415   5.956   0.804  0.3200 -0.1484 -0.5094
 4936TIP3    H114749   5.380   5.894   0.867 -0.6734  0.5922 -0.3328
 4936TIP3    H214750   5.494   5.990   0.845 -0.5155  0.5984  0.4959
 4937TIP3   OH214751   5.233   3.608   1.091  0.2271  0.2290  0.3840
 4937TIP3    H114752   5.262   3.658   1.168  0.8149 -0.3684  0.5562
 4937TIP3    H214753   5.255   3.664   1.017  2.0220 -0.2884  0.4985
 4938TIP3   OH214754   3.552   6.024   2.317  0.2129  0.0628  0.1921
 4938TIP3    H114755   3.490   6.092   2.292  1.1557  1.7894  2.3152
 4938TIP3    H214756   3.602   6.007   2.238 -2.1529 -0.4906 -1.2238
 4939TIP3   OH214757   5.124   5.392   1.795 -0.0985  0.0710  0.0637
 4939TIP3    H114758   5.038   5.433   1.782  0.3649  0.6835 -1.0392
 4939TIP3    H214759   5.141   5.346   1.713  1.4720  1.4964 -0.4315
 4940TIP3   OH214760   4.916   5.458   3.624  0.5102 -0.1164  0.2716
 4940TIP3    H114761   4.886   5.388   3.566  2.9400 -1.5797  0.6929
 4940TIP3    H214762   4.868   5.536   3.595 -1.0893 -1.6252 -1.2178
 4941TIP3   OH214763   5.354   5.402   0.841 -0.0389  0.6396 -0.2021
 4941TIP3    H114764   5.302   5.409   0.761 -0.6793  0.1750  0.1647
 4941TIP3    H214765   5.298   5.441   0.909  0.1544  0.2852  0.1624
 4942TIP3   OH214766   5.393   5.669   1.350  0.8629 -0.1280  0.2376
 4942TIP3    H114767   5.480   5.707   1.365 -0.4509  2.5338  1.3476
 4942TIP3    H214768   5.366   5.636   1.436  0.5884 -0.5921 -0.0233
 4943TIP3   OH214769   5.721   4.544   2.067 -0.6854 -0.3454 -0.7732
 4943TIP3    H114770   5.784   4.481   2.033  2.2627 -0.2702  4.0560
 4943TIP3    H214771   5.759   4.629   2.046 -1.0157 -0.2664 -1.0452
 4944TIP3   OH214772   6.914   5.656   0.326  0.5069 -0.5727 -0.1797
 4944TIP3    H114773   6.886   5.650   0.418 -2.7321 -1.1125 -1.1517
 4944TIP3    H214774   6.923   5.565   0.298  0.5430 -0.4139 -0.6831
 4945TIP3   OH214775   4.513   6.255   2.101  0.3294  0.2680  0.0916
 4945TIP3    H114776   4.544   6.312   2.172 -1.5370 -1.5442  2.4462
 4945TIP3    H214777   4.444   6.304   2.058  0.0007  0.5388  0.9240
 4946TIP3   OH214778   6.322   6.328   2.891 -0.5360  0.0887  0.0726
 4946TIP3    H114779   6.322   6.420   2.917 -3.1313 -0.3242  1.7354
 4946TIP3    H214780   6.231   6.310   2.868  0.2158 -1.7114 -1.5770
 4947TIP3   OH214781   6.497   5.862   0.671 -0.1118  0.3129  0.1809
 4947TIP3    H114782   6.426   5.880   0.732 -1.3057  2.5888 -1.8228
 4947TIP3    H214783   6.468   5.784   0.623  0.3891 -0.8914  1.7914
 4948TIP3   OH214784   6.845   5.242   0.071 -0.3156 -0.3658  0.1241
 4948TIP3    H114785   6.812   5.308   0.133  1.1053  1.4512 -1.0111
 4948TIP3    H214786   6.767   5.212   0.024 -0.9333  0.7928  0.4018
 4949TIP3   OH214787   3.098   5.066   2.257 -0.1934  0.6652 -0.0807
 4949TIP3    H114788   3.033   5.037   2.193 -1.0738  2.2553  0.0700
 4949TIP3    H214789   3.183   5.048   2.215 -0.6513 -2.2898  0.1050
 4950TIP3   OH214790   5.867   3.278   3.653 -0.0959  0.1602  0.0420
 4950TIP3    H114791   5.942   3.315   3.698  0.6240  0.7867 -1.6087
 4950TIP3    H214792   5.846   3.343   3.585 -1.2346 -0.6830 -0.4308
 4951TIP3   OH214793   5.876   5.203   2.599 -0.0574  0.1053  0.6776
 4951TIP3    H114794   5.842   5.187   2.512  0.6140  2.1588  0.0063
 4951TIP3    H214795   5.931   5.127   2.618  0.2417 -0.0915 -0.9243
 4952TIP3   OH214796   1.744   2.800   0.783  0.1941 -0.5285  0.2111
 4952TIP3    H114797   1.657   2.760   0.774 -0.6205  0.3526  3.5114
 4952TIP3    H214798   1.782   2.757   0.859  1.7768  0.7222  0.1475
 4953TIP3   OH214799   6.132   6.810   3.085  0.6179 -0.2634 -0.2774
 4953TIP3    H114800   6.074   6.875   3.047  1.4776  0.5885 -0.1543
 4953TIP3    H214801   6.084   6.774   3.160  0.2492  0.4211 -0.1880
 4954TIP3   OH214802   3.955   4.037   1.120  0.1174  0.2794 -0.1329
 4954TIP3    H114803   3.891   3.995   1.062  0.9380 -0.9204 -0.1932
 4954TIP3    H214804   3.928   4.012   1.208  1.5366 -1.7667 -0.2444
 4955TIP3   OH214805   3.954   6.134   0.551  0.5970 -0.8758 -0.2676
 4955TIP3    H114806   3.967   6.227   0.566 -0.2105 -0.8171  0.1077
 4955TIP3    H214807   3.987   6.119   0.463  1.5388 -0.4097 -0.0041
 4956TIP3   OH214808   6.037   6.886   1.675 -0.6716 -0.4594  0.0824
 4956TIP3    H114809   6.105   6.928   1.727 -2.6007  0.4243  1.9647
 4956TIP3    H214810   6.011   6.952   1.610 -1.2565 -0.0093  0.7744
 4957TIP3   OH214811   4.647   6.234   1.841 -0.1129  0.1566 -0.2608
 4957TIP3    H114812   4.641   6.206   1.932  0.6917 -1.0704 -0.5726
 4957TIP3    H214813   4.678   6.324   1.845  2.6764 -0.7842  0.6201
 4958TIP3   OH214814   6.633   5.922   2.947  0.5811  0.3764  0.0605
 4958TIP3    H114815   6.607   5.830   2.947 -0.7123  0.7246 -1.3066
 4958TIP3    H214816   6.684   5.932   3.028 -1.7572 -0.8416  1.7511
 4959TIP3   OH214817   0.555   5.548   2.032  0.6683 -0.0188  0.2568
 4959TIP3    H114818   0.463   5.548   2.059  0.3402  1.7195 -0.8218
 4959TIP3    H214819   0.558   5.605   1.956  2.4477 -1.0321 -0.4635
 4960TIP3   OH214820   5.226   4.975   3.564  0.0784 -0.1617  1.2318
 4960TIP3    H114821   5.154   4.918   3.537  0.1692  0.1738  0.2669
 4960TIP3    H214822   5.303   4.918   3.563  0.3457  0.2221 -0.7397
 4961TIP3   OH214823   5.423   0.243   2.814 -0.0207 -0.0579  0.0739
 4961TIP3    H114824   5.410   0.254   2.719 -0.2307 -1.3307 -0.0491
 4961TIP3    H214825   5.479   0.317   2.838 -0.1045  0.3787 -1.0130
 4962TIP3   OH214826   3.822   6.246   1.335  0.2234 -1.0125  0.3883
 4962TIP3    H114827   3.745   6.226   1.281 -1.0846  3.6836  0.3133
 4962TIP3    H214828   3.896   6.233   1.276 -0.7010 -2.6296 -0.4493
 4963TIP3   OH214829   5.679   7.654   2.439  0.0099  0.2379 -0.4277
 4963TIP3    H114830   5.659   7.693   2.525  0.9706 -0.4138  0.0967
 4963TIP3    H214831   5.595   7.621   2.408 -0.1017 -0.7064  0.8621
 4964TIP3   OH214832   6.436   7.157   2.345 -0.0582  0.1185 -0.2417
 4964TIP3    H114833   6.435   7.106   2.426 -0.7253 -0.4226 -0.5918
 4964TIP3    H214834   6.528   7.180   2.334  0.2722 -1.1023 -0.1359
 4965TIP3   OH214835   5.017   7.780   1.296  0.8140  0.6151  0.2269
 4965TIP3    H114836   4.972   7.824   1.224  1.3566 -0.5230 -0.8260
 4965TIP3    H214837   4.970   7.697   1.306  2.0279 -0.1354 -0.2117
 4966TIP3   OH214838   4.644   4.896   2.309  0.1127 -0.2010  0.2665
 4966TIP3    H114839   4.601   4.964   2.360 -0.9839 -0.3161 -0.4659
 4966TIP3    H214840   4.683   4.943   2.235  1.2630 -0.0988  0.9232
 4967TIP3   OH214841   6.752   4.491   0.177 -0.5047 -0.8667 -0.0738
 4967TIP3    H114842   6.780   4.581   0.166 -0.6195 -0.9443 -1.0078
 4967TIP3    H214843   6.833   4.440   0.179 -0.3906 -0.6572  1.3822
 4968TIP3   OH214844   5.572   3.810   4.505 -0.7041  0.5001 -0.1296
 4968TIP3    H114845   5.619   3.727   4.493  0.1143  0.8117  0.8751
 4968TIP3    H214846   5.506   3.810   4.436 -0.7346 -1.0145 -0.1251
 4969TIP3   OH214847   5.982   6.226   0.138  0.0307 -0.1331 -0.1276
 4969TIP3    H114848   5.906   6.167   0.133 -1.6755  2.0230 -0.6158
 4969TIP3    H214849   6.028   6.199   0.218 -0.2346 -2.6225 -0.7673
 4970TIP3   OH214850   5.171   2.081   1.771 -0.0095 -0.4921 -0.4525
 4970TIP3    H114851   5.112   2.123   1.833  0.6937  0.2894 -0.3057
 4970TIP3    H214852   5.118   2.069   1.692  0.1641  1.9273 -0.9751
 4971TIP3   OH214853   3.303   5.339   1.306  0.2009 -0.1414 -0.0316
 4971TIP3    H114854   3.253   5.259   1.323 -0.3078 -0.1023 -1.3058
 4971TIP3    H214855   3.237   5.404   1.279  0.9388 -0.1856 -2.0513
 4972TIP3   OH214856   5.369   3.903   1.691  0.1288  0.0571  0.1964
 4972TIP3    H114857   5.394   3.989   1.727  0.7862 -0.4269  0.9196
 4972TIP3    H214858   5.273   3.904   1.692  0.1240  0.1710  1.7347
 4973TIP3   OH214859   6.143   5.511   1.214 -0.2348 -0.1759 -0.4975
 4973TIP3    H114860   6.087   5.436   1.193 -0.2206  0.2800 -2.2426
 4973TIP3    H214861   6.226   5.472   1.242  0.1198 -0.8466 -2.3715
 4974TIP3   OH214862   5.579   3.653   1.174 -0.7464  0.0986 -0.2405
 4974TIP3    H114863   5.605   3.743   1.155  2.4268 -0.7996 -0.4476
 4974TIP3    H214864   5.601   3.605   1.094 -1.2395 -1.0680  0.3217
 4975TIP3   OH214865   5.374   3.994   0.384 -0.0099  0.3499  0.2921
 4975TIP3    H114866   5.294   4.045   0.375 -0.2562  0.0105  0.5474
 4975TIP3    H214867   5.368   3.927   0.316  1.7543  2.5129 -2.1267
 4976TIP3   OH214868   4.560   5.143   1.378  0.2331  0.4010 -0.0975
 4976TIP3    H114869   4.596   5.232   1.378  1.1148  0.0492  1.4714
 4976TIP3    H214870   4.505   5.139   1.456  0.2703 -0.4657 -0.1138
 4977TIP3   OH214871   3.579   5.845   1.205  0.5711  0.1125 -0.0736
 4977TIP3    H114872   3.650   5.783   1.188 -0.0042 -0.9736  1.4411
 4977TIP3    H214873   3.556   5.879   1.118  1.7521 -0.8271 -0.7746
 4978TIP3   OH214874   3.003   4.031   6.457 -0.5247 -0.1506  0.3962
 4978TIP3    H114875   2.977   4.067   6.371  2.0616  0.2989 -0.2323
 4978TIP3    H214876   2.999   4.106   6.516 -0.3803 -0.0114  0.2315
 4979TIP3   OH214877   6.254   5.606   0.195 -0.0526 -0.6433  0.1500
 4979TIP3    H114878   6.257   5.621   0.290 -2.2819 -1.2195  0.3196
 4979TIP3    H214879   6.251   5.511   0.185  0.0756 -0.5822 -0.5155
 4980TIP3   OH214880   6.099   4.831   3.046  0.3854 -0.2470  0.1325
 4980TIP3    H114881   6.124   4.756   3.101 -0.4134 -0.0480  0.7817
 4980TIP3    H214882   6.174   4.890   3.052 -0.1824  0.3421  2.0583
 4981TIP3   OH214883   1.909   5.544   4.681 -0.2196  0.2309  0.0302
 4981TIP3    H114884   1.897   5.567   4.773  0.9125 -1.1261  0.5478
 4981TIP3    H214885   2.003   5.554   4.665 -0.7697  3.0815 -1.7521
 4982TIP3   OH214886   5.214   4.661   1.954  0.3884 -0.1533 -0.3488
 4982TIP3    H114887   5.172   4.688   1.872 -0.5428 -1.4715 -0.3131
 4982TIP3    H214888   5.182   4.573   1.970  1.9494 -0.5831  0.5154
 4983TIP3   OH214889   4.619   1.884   1.986 -0.3528  0.5039  0.1364
 4983TIP3    H114890   4.698   1.847   1.948 -0.3669  0.3945  0.2154
 4983TIP3    H214891   4.604   1.964   1.936 -0.5755  0.1747 -0.3229
 4984TIP3   OH214892   4.755   4.810   1.496 -0.1797  0.1416 -0.0704
 4984TIP3    H114893   4.826   4.785   1.438 -0.7494 -0.1521 -0.6483
 4984TIP3    H214894   4.752   4.740   1.562 -1.0615 -0.7657 -1.0559
 4985TIP3   OH214895   4.366   1.841   5.480 -0.3084 -0.8019 -0.4270
 4985TIP3    H114896   4.320   1.769   5.436 -1.9822 -1.5799  2.4632
 4985TIP3    H214897   4.301   1.910   5.486  0.1031 -0.4746  0.2433
 4986TIP3   OH214898   7.541   4.784   1.517  0.1446  0.4836  0.0563
 4986TIP3    H114899   7.486   4.767   1.441 -0.3698 -2.6792  1.0665
 4986TIP3    H214900   7.619   4.828   1.482  0.0588 -1.2072 -2.3429
 4987TIP3   OH214901   6.944   7.154   0.456 -0.0572  0.5388  0.3641
 4987TIP3    H114902   7.033   7.173   0.425 -0.0631 -2.4559 -1.7023
 4987TIP3    H214903   6.908   7.239   0.477  3.1091  1.8870  0.6654
 4988TIP3   OH214904   6.166   5.034   3.826 -0.3693  0.0021 -0.0802
 4988TIP3    H114905   6.094   4.986   3.866 -0.5518  0.6482  0.3757
 4988TIP3    H214906   6.137   5.051   3.736 -0.5487 -0.2283 -0.0656
 4989TIP3   OH214907   6.778   5.441   2.266 -0.0290  0.2543  0.1257
 4989TIP3    H114908   6.772   5.487   2.350 -2.4408  0.3403 -0.0738
 4989TIP3    H214909   6.811   5.507   2.205 -0.9297  0.9662  0.4090
 4990TIP3   OH214910   6.878   6.207   1.998  0.1528  0.1534  0.1314
 4990TIP3    H114911   6.909   6.122   2.032  1.0884  0.1431 -0.7087
 4990TIP3    H214912   6.873   6.263   2.076  2.0159  0.0533  0.3478
 4991TIP3   OH214913   0.471   4.952   0.595  0.2516 -0.0700 -0.4880
 4991TIP3    H114914   0.377   4.955   0.576  0.1448  0.3317  0.1014
 4991TIP3    H214915   0.500   4.868   0.558 -0.2643 -0.0296 -0.9966
 4992TIP3   OH214916   7.682   6.050   2.147 -0.3409  0.0935 -0.3964
 4992TIP3    H114917   7.679   6.028   2.054  0.1568 -0.1007 -0.3662
 4992TIP3    H214918   7.619   5.991   2.188 -0.1577 -0.2000 -0.5344
 4993TIP3   OH214919   5.240   5.894   1.211 -0.0607 -0.5317 -0.5116
 4993TIP3    H114920   5.145   5.893   1.222 -0.1933 -3.4799 -1.4414
 4993TIP3    H214921   5.270   5.814   1.255  1.8637 -0.3160 -1.3769
 4994TIP3   OH214922   7.729   4.340   0.885  0.2321  0.4219 -0.3322
 4994TIP3    H114923   7.809   4.286   0.885 -0.5166 -0.7121 -0.2293
 4994TIP3    H214924   7.733   4.389   0.967  0.6320  0.0757 -0.1418
 4995TIP3   OH214925   7.673   7.003   0.719 -0.3422 -0.0298 -0.3123
 4995TIP3    H114926   7.706   7.091   0.700 -0.5684 -0.1672 -1.4325
 4995TIP3    H214927   7.610   6.986   0.648 -1.9955 -0.2013  1.1769
 4996TIP3   OH214928   6.739   5.619   2.497 -0.2718 -0.5721  0.0171
 4996TIP3    H114929   6.683   5.666   2.558 -0.1204 -0.1377 -0.1823
 4996TIP3    H214930   6.814   5.676   2.483 -0.2091 -0.7583 -0.4177
 4997TIP3   OH214931   5.745   3.239   6.663 -0.5756 -0.5411  0.2331
 4997TIP3    H114932   5.692   3.224   6.585  0.9306 -1.2755 -0.6562
 4997TIP3    H214933   5.766   3.332   6.661  1.7088 -1.0647 -1.6951
 4998TIP3   OH214934   5.252   5.736   2.023 -0.4085  0.3563  0.9654
 4998TIP3    H114935   5.244   5.642   2.042  2.9154 -0.4622 -1.1348
 4998TIP3    H214936   5.207   5.747   1.939 -1.1995  0.7520  1.4365
 4999TIP3   OH214937   5.248   5.889   4.458 -0.5070  0.3794 -0.3535
 4999TIP3    H114938   5.160   5.893   4.420 -1.8314 -1.7508  2.3258
 4999TIP3    H214939   5.235   5.898   4.552  1.7690 -3.0872  0.4128
 5000TIP3   OH214940   8.018   6.495   1.433 -0.1604  0.0737 -0.7990
 5000TIP3    H114941   8.079   6.501   1.359  0.7546 -0.0326 -0.0548
 5000TIP3    H214942   8.035   6.574   1.485 -0.5074 -0.0663 -0.4664
 5001TIP3   OH214943   6.191   6.043   2.278 -0.2567  0.1536  0.0106
 5001TIP3    H114944   6.204   6.117   2.219  1.7923  0.8319  1.2447
 5001TIP3    H214945   6.144   5.979   2.226 -0.0123  1.4089 -1.8197
 5002TIP3   OH214946   8.550   1.503   2.336 -0.7872  0.3006  0.2178
 5002TIP3    H114947   8.588   1.585   2.364  0.3206  0.0041 -0.4067
 5002TIP3    H214948   8.455   1.516   2.346 -0.7883  2.5165 -2.1739
 5003TIP3   OH214949   5.922   6.493   1.619  0.0902 -0.0384  0.5540
 5003TIP3    H114950   5.879   6.469   1.700 -1.4818 -0.2351 -0.3211
 5003TIP3    H214951   5.942   6.409   1.577  2.1917  0.0189  1.3725
 5004TIP3   OH214952  -0.012   6.420   1.905 -0.1516 -0.3202 -0.4638
 5004TIP3    H114953  -0.039   6.459   1.988 -0.6221 -1.6311  0.0144
 5004TIP3    H214954   0.054   6.480   1.870 -0.8267  0.8680  0.2693
 5005TIP3   OH214955   7.869   4.940   1.835 -0.3280  0.3121  0.0251
 5005TIP3    H114956   7.802   4.890   1.882 -0.1405  1.2312  1.3045
 5005TIP3    H214957   7.952   4.904   1.866 -0.2066  0.6905  0.1418
 5006TIP3   OH214958   8.308   2.846   1.918  0.3475  0.4886  0.7253
 5006TIP3    H114959   8.362   2.885   1.849  0.9566 -0.4748  0.6451
 5006TIP3    H214960   8.258   2.778   1.873 -1.4559  1.8356  0.6665
 5007TIP3   OH214961   3.464   3.359   6.812 -0.0172 -0.1875 -0.5226
 5007TIP3    H114962   3.485   3.266   6.818  3.0573  0.4717 -0.0768
 5007TIP3    H214963   3.374   3.365   6.843 -0.2785 -3.0115 -0.5814
 5008TIP3   OH214964   6.915   6.877   1.522  0.1804  0.5882 -0.3663
 5008TIP3    H114965   6.842   6.916   1.474 -0.8381 -0.7699  0.0585
 5008TIP3    H214966   6.903   6.907   1.612 -0.0508  0.0939 -0.2300
 5009TIP3   OH214967   6.717   5.740   0.149  0.6388 -0.0530 -0.1876
 5009TIP3    H114968   6.778   5.755   0.221  0.1419  3.5801 -0.4527
 5009TIP3    H214969   6.700   5.827   0.113 -3.6022 -1.1346 -1.0342
 5010TIP3   OH214970   2.529   0.146   1.408 -0.3474  0.5077  0.3645
 5010TIP3    H114971   2.575   0.230   1.406 -1.9771  1.3980 -0.6440
 5010TIP3    H214972   2.437   0.170   1.416 -0.7473 -1.2189  1.0434
 5011TIP3   OH214973   0.091   0.927   1.950 -0.0819 -0.3702 -0.3013
 5011TIP3    H114974   0.172   0.880   1.969  0.0729  0.2298  0.5519
 5011TIP3    H214975   0.080   0.919   1.855  0.5778 -1.0908 -0.3175
 5012TIP3   OH214976   1.012   0.105   1.412  0.0405 -0.3997 -0.4199
 5012TIP3    H114977   0.994   0.099   1.506 -0.3904  2.2087 -0.3148
 5012TIP3    H214978   1.033   0.015   1.387 -0.0452 -1.1853  2.1215
 5013TIP3   OH214979   7.646   6.821   0.209  0.4655  0.3345 -0.0285
 5013TIP3    H114980   7.655   6.774   0.126  0.5433 -0.1492  0.2519
 5013TIP3    H214981   7.587   6.893   0.189 -0.2205 -0.2903 -0.2926
 5014TIP3   OH214982   7.086   7.020   3.701  0.3101  0.2243 -0.0787
 5014TIP3    H114983   7.140   7.082   3.653  0.3740  0.6698  0.5653
 5014TIP3    H214984   7.007   7.010   3.648 -0.4395  2.1430  0.6484
 5015TIP3   OH214985   7.765   3.958   1.709  0.2667 -0.5654  0.1958
 5015TIP3    H114986   7.735   4.048   1.714 -1.2861 -1.1009  0.6174
 5015TIP3    H214987   7.695   3.906   1.749  0.8092 -2.0321 -0.7054
 5016TIP3   OH214988   1.995   0.114   2.307 -0.0001  0.8512  0.9971
 5016TIP3    H114989   1.970   0.207   2.301  0.3201  0.8346 -1.2709
 5016TIP3    H214990   2.027   0.093   2.219  1.2861 -1.0383  1.8931
 5017TIP3   OH214991   5.794   5.223   1.833 -0.3031 -0.2381  0.1556
 5017TIP3    H114992   5.791   5.283   1.759  0.2206  2.2366  2.0767
 5017TIP3    H214993   5.818   5.278   1.908  1.9227 -3.1517  1.6700
 5018TIP3   OH214994   6.525   6.298   1.597  0.2584 -0.0861  0.1210
 5018TIP3    H114995   6.611   6.338   1.586  0.8293 -1.3276  0.0160
 5018TIP3    H214996   6.480   6.312   1.514 -0.5209  2.6257  0.9665
 5019TIP3   OH214997   5.830   7.506   1.035  0.0080  0.1199  0.5123
 5019TIP3    H114998   5.873   7.441   1.090  1.5396  1.5707  1.0889
 5019TIP3    H214999   5.858   7.485   0.946  0.1047 -0.3045  0.6413
 5020TIP3   OH215000   6.139   7.543   1.906  0.6178  0.0279 -0.2696
 5020TIP3    H115001   6.133   7.487   1.984  0.4453 -0.3410 -0.5443
 5020TIP3    H215002   6.106   7.628   1.935  3.6367  0.8434  0.9579
 5021TIP3   OH215003   1.255   0.505   1.054 -0.6048  0.1664 -0.2225
 5021TIP3    H115004   1.291   0.458   1.129  0.0060 -0.3076 -0.8083
 5021TIP3    H215005   1.252   0.596   1.082 -2.6533 -0.3212  1.2496
 5022TIP3   OH215006   0.334   0.083   0.533  0.1552 -0.6544 -0.7298
 5022TIP3    H115007   0.389   0.019   0.578 -0.6914 -1.0991 -0.3145
 5022TIP3    H215008   0.304   0.141   0.602  1.5800  0.7096 -1.2161
 5023TIP3   OH215009   8.004   0.081   4.393  0.1672  0.0342  0.0074
 5023TIP3    H115010   7.912   0.092   4.369  0.8928  2.1533 -1.9238
 5023TIP3    H215011   8.013   0.131   4.475  0.1122  1.8385 -1.0601
 5024TIP3   OH215012   7.716   6.043   4.932  0.0346  0.1716  0.2659
 5024TIP3    H115013   7.717   5.975   4.865 -0.9799  1.0453 -0.6394
 5024TIP3    H215014   7.806   6.078   4.931  0.2135 -0.2897 -0.1471
 5025TIP3   OH215015   7.059   5.975   2.042 -0.1030 -0.1023 -0.1612
 5025TIP3    H115016   7.108   6.057   2.052 -0.4948  0.2036 -0.7005
 5025TIP3    H215017   7.103   5.913   2.101 -0.7228  0.8978  1.3900
 5026TIP3   OH215018   7.523   6.632   1.674 -0.0843  0.0948  0.5342
 5026TIP3    H115019   7.477   6.631   1.758  0.3137  4.3269  0.8927
 5026TIP3    H215020   7.616   6.627   1.697 -0.0207  0.0428  0.2738
 5027TIP3   OH215021   5.492   4.448   2.631  0.6732  0.5802 -0.3527
 5027TIP3    H115022   5.587   4.453   2.641  0.5896  1.6575  0.0118
 5027TIP3    H215023   5.478   4.440   2.537  1.1194  0.8195 -0.4398
 5028TIP3   OH215024   4.151   7.272   3.841  0.7014  0.1968  0.0758
 5028TIP3    H115025   4.222   7.217   3.810  0.7638  0.3184  0.0021
 5028TIP3    H215026   4.184   7.362   3.829  0.7946  0.2431  0.6384
 5029TIP3   OH215027   5.277   5.900   2.928  0.0636  0.3571 -0.5004
 5029TIP3    H115028   5.275   5.988   2.965 -0.0089  0.0945  0.1203
 5029TIP3    H215029   5.219   5.905   2.852 -1.1412  0.4389  0.4221
 5030TIP3   OH215030   6.907   4.655   2.188  0.0592  0.1525  0.5698
 5030TIP3    H115031   6.896   4.750   2.184 -0.1399  0.1425  0.9350
 5030TIP3    H215032   6.986   4.643   2.241  1.8223  0.2207 -1.9191
 5031TIP3   OH215033   4.773   7.010   2.412  0.2810 -0.0822  0.1209
 5031TIP3    H115034   4.755   7.002   2.318 -0.8883 -0.5113  0.3835
 5031TIP3    H215035   4.864   6.982   2.421  0.8020  1.1313 -1.0557
 5032TIP3   OH215036   6.380   5.333   2.370 -0.3766 -0.1250  0.2413
 5032TIP3    H115037   6.376   5.375   2.284  1.9726 -2.0800 -0.8731
 5032TIP3    H215038   6.446   5.382   2.418  0.6630 -1.0297 -0.2373
 5033TIP3   OH215039   6.591   4.636   1.203  0.1807  0.0530 -0.3095
 5033TIP3    H115040   6.564   4.697   1.272  2.1354  1.4588 -0.7216
 5033TIP3    H215041   6.658   4.582   1.245 -0.0899 -0.4566 -0.5333
 5034TIP3   OH215042   7.426   7.659   2.369  0.0262  0.3857 -0.6472
 5034TIP3    H115043   7.429   7.629   2.460  0.5896  2.3926  0.0286
 5034TIP3    H215044   7.386   7.586   2.320 -0.3958 -0.6522  1.2134
 5035TIP3   OH215045   6.280   3.740   2.152  0.5531  0.6987  0.1429
 5035TIP3    H115046   6.216   3.809   2.133 -1.3369 -0.8106  0.9726
 5035TIP3    H215047   6.258   3.670   2.091  0.9119 -0.1631  1.0030
 5036TIP3   OH215048   6.574   6.193   2.905 -0.8547 -0.2723  0.2067
 5036TIP3    H115049   6.478   6.199   2.903 -0.8255 -0.1952 -1.4222
 5036TIP3    H215050   6.591   6.102   2.931 -1.3752 -0.3775  0.1909
 5037TIP3   OH215051   2.815   2.183   6.739 -0.6011  0.3666  0.2612
 5037TIP3    H115052   2.847   2.132   6.813 -0.1266 -1.5905 -1.2491
 5037TIP3    H215053   2.884   2.177   6.673 -0.4195  3.2270  0.1429
 5038TIP3   OH215054   7.004   6.255   0.640 -0.1765 -0.3607 -0.3458
 5038TIP3    H115055   7.070   6.321   0.662 -0.4366 -0.2968  0.2527
 5038TIP3    H215056   7.053   6.174   0.628  0.0380 -0.2613 -0.1336
 5039TIP3   OH215057   3.695   2.040   5.757  0.2713 -0.7408  0.2550
 5039TIP3    H115058   3.682   2.025   5.851 -0.4325 -1.4860  0.0381
 5039TIP3    H215059   3.767   2.104   5.753 -1.2001  1.0421  1.3684
 5040TIP3   OH215060   6.626   6.865   2.784  0.3452 -0.3259  0.5119
 5040TIP3    H115061   6.571   6.788   2.768 -0.9295  0.8336 -0.7796
 5040TIP3    H215062   6.569   6.927   2.828  1.3352 -0.0384  1.4166
 5041TIP3   OH215063   8.563   4.276   0.599  0.1021  0.7514 -0.2884
 5041TIP3    H115064   8.658   4.285   0.609  0.0709  0.0546  0.6513
 5041TIP3    H215065   8.548   4.292   0.506  1.2659 -0.1827 -0.6602
 5042TIP3   OH215066   8.076   6.245   0.149  0.2413  0.4374 -0.4367
 5042TIP3    H115067   8.028   6.304   0.091 -0.5559  2.0820  1.8310
 5042TIP3    H215068   8.135   6.302   0.197 -0.6732 -0.5855  1.9446
 5043TIP3   OH215069   1.344   6.212   0.301 -0.5014 -0.4852  0.1289
 5043TIP3    H115070   1.306   6.291   0.339  0.4880 -0.4450  1.0504
 5043TIP3    H215071   1.283   6.142   0.326 -0.7130 -0.2104  0.3858
 5044TIP3   OH215072   6.927   7.169   1.141 -0.6535 -0.1747  0.1103
 5044TIP3    H115073   6.995   7.179   1.074 -0.5574 -0.4529  0.1639
 5044TIP3    H215074   6.851   7.213   1.104 -0.9705 -1.3811 -0.7222
 5045TIP3   OH215075   5.752   6.740   1.483 -0.2744  0.4598 -0.2436
 5045TIP3    H115076   5.819   6.684   1.523 -1.0988 -1.0257 -0.9134
 5045TIP3    H215077   5.801   6.801   1.429  0.5932 -0.1104 -0.1105
 5046TIP3   OH215078   4.579   5.936   4.134  0.4134  0.4915 -0.0908
 5046TIP3    H115079   4.603   5.891   4.052 -1.5317 -0.2237 -0.2772
 5046TIP3    H215080   4.589   5.869   4.201 -1.6953 -0.0172 -0.2603
 5047TIP3   OH215081   4.645   5.562   2.824  0.8489  0.1333 -0.1348
 5047TIP3    H115082   4.608   5.475   2.838 -0.3500  0.3085 -1.9623
 5047TIP3    H215083   4.673   5.591   2.911 -1.7743 -0.7099  1.0343
 5048TIP3   OH215084   5.691   7.298   0.597 -0.2491 -0.1869 -0.2947
 5048TIP3    H115085   5.635   7.232   0.640 -0.2605 -0.1088 -0.1888
 5048TIP3    H215086   5.777   7.258   0.594  0.2260  0.6529  1.7141
 5049TIP3   OH215087   8.388   6.815   0.338 -0.2281  0.1820 -0.4833
 5049TIP3    H115088   8.309   6.865   0.355  1.1891  2.6317 -0.8495
 5049TIP3    H215089   8.453   6.850   0.400  1.8682  1.5968 -3.3363
 5050TIP3   OH215090   7.835   6.226   1.089 -0.4199  0.2890  0.0061
 5050TIP3    H115091   7.895   6.177   1.146 -1.1729 -0.3574  0.2459
 5050TIP3    H215092   7.780   6.275   1.150 -0.7477  0.1668 -0.1949
 5051TIP3   OH215093   6.728   6.683   0.407  0.0589  0.3946  0.5002
 5051TIP3    H115094   6.764   6.770   0.385  2.6264 -0.9244 -0.8303
 5051TIP3    H215095   6.755   6.669   0.497  2.4492 -0.2734 -0.2580
 5052TIP3   OH215096   8.092   5.398   0.143  0.4413 -0.0668 -0.4320
 5052TIP3    H115097   8.104   5.390   0.237  2.3173 -0.1280 -0.6618
 5052TIP3    H215098   8.070   5.309   0.114  0.7814 -0.2301 -0.1848
 5053TIP3   OH215099   1.003   0.484   0.935 -0.5223  0.0077  0.1376
 5053TIP3    H115100   1.095   0.458   0.944 -0.3619  0.0747 -1.2401
 5053TIP3    H215101   1.006   0.580   0.936 -0.8367  0.0263  2.4737
 5054TIP3   OH215102   5.422   6.684   1.343 -0.5175  0.4152  0.2464
 5054TIP3    H115103   5.421   6.745   1.417 -0.4192  1.4718 -0.6268
 5054TIP3    H215104   5.329   6.671   1.321 -0.5246  0.4739  0.2414
 5055TIP3   OH215105   5.126   5.716   6.632  0.0482  0.6069  0.4821
 5055TIP3    H115106   5.039   5.710   6.673 -0.6098  0.3991 -0.9085
 5055TIP3    H215107   5.187   5.705   6.704 -1.0665  2.4654  1.7653
 5056TIP3   OH215108   5.929   6.691   0.583 -0.0883 -0.0104 -0.6939
 5056TIP3    H115109   5.958   6.607   0.547  3.6354  1.6132 -1.7402
 5056TIP3    H215110   5.907   6.744   0.507  0.0916  0.8093 -0.1897
 5057TIP3   OH215111   6.353   6.200   0.132  0.8270  0.2439  0.3055
 5057TIP3    H115112   6.335   6.115   0.091 -0.4398  1.1590 -1.1047
 5057TIP3    H215113   6.429   6.185   0.187  1.0839 -1.6301 -0.5277
 5058TIP3   OH215114   7.256   5.646   0.481  0.2630 -0.6303  0.6195
 5058TIP3    H115115   7.214   5.694   0.410 -0.0982  0.5770  1.6117
 5058TIP3    H215116   7.253   5.554   0.455 -0.6113 -0.2734 -0.5271
 5059TIP3   OH215117   7.038   5.942   1.613  0.5881  0.0800  0.4365
 5059TIP3    H115118   6.998   6.002   1.550  0.8979 -0.4914 -0.3036
 5059TIP3    H215119   7.081   5.876   1.560 -0.4535 -1.2693  1.2416
 5060TIP3   OH215120   7.489   5.349   1.333 -0.5667 -0.2432  0.1397
 5060TIP3    H115121   7.425   5.293   1.290  0.3277 -1.2123  0.0470
 5060TIP3    H215122   7.552   5.371   1.264 -1.2966  1.4635  0.0064
 5061TIP3   OH215123   8.431   4.364   1.754 -0.0677  0.2537 -0.3061
 5061TIP3    H115124   8.498   4.350   1.687  0.8999 -1.7116  1.0300
 5061TIP3    H215125   8.351   4.327   1.715  0.3448 -0.2780 -0.6646
 5062TIP3   OH215126   7.662   7.537   3.444 -0.1704 -0.1419  0.1124
 5062TIP3    H115127   7.588   7.503   3.495 -0.4047 -1.6297 -1.1995
 5062TIP3    H215128   7.702   7.460   3.405 -0.6957  1.0477 -2.9103
 5063TIP3   OH215129   4.167   2.564   6.511 -0.0410  0.2964  0.2746
 5063TIP3    H115130   4.135   2.479   6.542  0.9692 -1.4044 -3.0389
 5063TIP3    H215131   4.098   2.596   6.453  0.3088  0.9186  0.1964
 5064TIP3   OH215132   3.636   2.334   6.815 -0.6584 -0.0853  0.8242
 5064TIP3    H115133   3.620   2.240   6.811  0.8303 -0.2995 -1.1029
 5064TIP3    H215134   3.595   2.369   6.736  0.2961  0.6287  0.6331
 5065TIP3   OH215135   8.401   4.147   0.198  0.0736  0.1983 -0.6011
 5065TIP3    H115136   8.309   4.169   0.179 -0.7127 -2.9778 -0.7336
 5065TIP3    H215137   8.428   4.091   0.125  2.9185  2.9798 -1.7950
 5066TIP3   OH215138   4.970   6.453   3.065  0.3734  0.1487 -0.1398
 5066TIP3    H115139   5.010   6.468   2.980  1.8779  0.2846  0.5629
 5066TIP3    H215140   4.984   6.360   3.082  0.3763  0.1915  0.0949
 5067TIP3   OH215141   8.083   6.807   2.636  0.6537  0.7785 -0.3645
 5067TIP3    H115142   8.103   6.811   2.543  1.1369 -0.9517 -0.3530
 5067TIP3    H215143   7.995   6.845   2.644 -0.2780 -0.9770 -1.8227
 5068TIP3   OH215144   6.443   7.095   0.361  0.3065 -0.0382 -0.4247
 5068TIP3    H115145   6.366   7.087   0.304 -0.5300  0.1779  0.6704
 5068TIP3    H215146   6.414   7.062   0.446  1.5284 -0.2806 -0.0893
 5069TIP3   OH215147   0.280   6.302   2.327 -0.1709 -0.3354 -0.0985
 5069TIP3    H115148   0.376   6.296   2.323 -0.1763  0.6711 -2.7202
 5069TIP3    H215149   0.250   6.221   2.284 -0.4777 -0.1549 -0.2182
 5070TIP3   OH215150   6.649   5.337   1.934 -0.6164 -0.4202  0.1083
 5070TIP3    H115151   6.643   5.284   1.855  0.2658  2.0791 -1.7095
 5070TIP3    H215152   6.736   5.378   1.929 -1.2040  1.0545  1.5239
 5071TIP3   OH215153   5.009   6.731   2.815 -0.4936 -0.0635 -0.0843
 5071TIP3    H115154   5.024   6.651   2.765 -0.4375  1.6520 -2.8997
 5071TIP3    H215155   4.958   6.702   2.891 -2.4044 -2.4868 -2.1771
 5072TIP3   OH215156   1.407   2.165   2.475  0.3325  0.4941  0.3399
 5072TIP3    H115157   1.390   2.221   2.399  1.1797 -1.1675 -1.1226
 5072TIP3    H215158   1.444   2.224   2.540 -2.4985  2.4081  0.3364
 5073TIP3   OH215159   7.222   4.877   1.043 -0.2195 -0.0985  0.4920
 5073TIP3    H115160   7.288   4.936   1.007 -1.3258  0.1615 -1.1890
 5073TIP3    H215161   7.248   4.790   1.013 -1.1714  0.1250 -1.0318
 5074TIP3   OH215162   4.359   4.774   1.326 -0.0231 -0.8974 -0.2504
 5074TIP3    H115163   4.365   4.707   1.258  0.3763 -0.9042 -0.2074
 5074TIP3    H215164   4.430   4.835   1.306  0.1047 -0.9068  0.1763
 5075TIP3   OH215165   7.242   6.244   2.408  0.0390 -0.1504  0.1389
 5075TIP3    H115166   7.272   6.305   2.476 -2.7387  0.0374  1.2446
 5075TIP3    H215167   7.323   6.201   2.378  1.6067  1.4809  1.8581
 5076TIP3   OH215168   6.327   5.220   3.916  0.2281  0.2404 -0.0203
 5076TIP3    H115169   6.286   5.137   3.890  1.6479 -0.6860  0.6720
 5076TIP3    H215170   6.390   5.196   3.983 -0.7182  2.1370  1.6215
 5077TIP3   OH215171   4.741   4.608   2.785  0.5547  0.4446 -0.1859
 5077TIP3    H115172   4.683   4.603   2.710 -0.2042 -0.1467  0.4304
 5077TIP3    H215173   4.729   4.697   2.819  0.2034  0.4107 -0.2185
 5078TIP3   OH215174   5.978   7.255   1.696  0.1176 -0.5618  0.1934
 5078TIP3    H115175   6.022   7.195   1.636  0.4639  0.3930 -0.5203
 5078TIP3    H215176   6.039   7.267   1.768  1.3506  1.3026 -1.1239
 5079TIP3   OH215177   7.470   7.675   0.403 -0.1481  0.4491 -0.4632
 5079TIP3    H115178   7.529   7.707   0.471 -0.2808 -0.5354  0.1203
 5079TIP3    H215179   7.522   7.611   0.355 -0.8938 -0.7687  0.3491
 5080TIP3   OH215180   0.139   6.200   1.411 -0.2454  0.7338 -0.7529
 5080TIP3    H115181   0.197   6.239   1.346  0.8110  0.1538 -0.1854
 5080TIP3    H215182   0.196   6.181   1.486 -0.9983 -0.5949 -0.4905
 5081TIP3   OH215183   6.902   5.133   1.869  0.1536  0.1408  0.3074
 5081TIP3    H115184   6.874   5.124   1.960  1.7887  3.0797  1.1494
 5081TIP3    H215185   6.823   5.162   1.822 -0.6812 -1.3618  0.7505
 5082TIP3   OH215186   6.845   6.097   0.437 -0.0759  0.4156  0.2980
 5082TIP3    H115187   6.862   6.141   0.520 -0.5479 -0.4274  0.8534
 5082TIP3    H215188   6.924   6.045   0.420 -0.8278 -1.0768  1.3056
 5083TIP3   OH215189   8.415   6.577  -0.013 -0.2887  0.1942 -0.3057
 5083TIP3    H115190   8.359   6.510  -0.053 -1.5131 -0.0952  1.7758
 5083TIP3    H215191   8.386   6.580   0.079  0.0919  3.1878 -0.2176
 5084TIP3   OH215192   7.175   7.011   1.564  0.1425 -0.1957 -0.0976
 5084TIP3    H115193   7.095   6.961   1.575 -0.3591  0.6664  0.2370
 5084TIP3    H215194   7.176   7.035   1.471  0.9630 -1.7782 -0.5107
 5085TIP3   OH215195   7.469   6.890   1.622  0.3029  0.3701 -0.1844
 5085TIP3    H115196   7.464   6.895   1.527 -1.4045  2.3186 -0.0370
 5085TIP3    H215197   7.489   6.798   1.641  0.6270 -0.0324 -2.4024
 5086TIP3   OH215198   5.166   6.753   1.290  0.3515 -0.2373  0.1446
 5086TIP3    H115199   5.136   6.816   1.225 -0.7751 -0.6009  0.3104
 5086TIP3    H215200   5.126   6.670   1.264  1.5545 -0.8280  0.1177
 5087TIP3   OH215201   6.685   5.267   1.686 -0.1478 -0.0540  0.3549
 5087TIP3    H115202   6.692   5.183   1.640  0.9147 -1.1801  2.4806
 5087TIP3    H215203   6.686   5.332   1.616 -0.2002 -1.7615 -1.3036
 5088TIP3   OH215204   5.357   5.660   2.811 -0.8088 -0.4390  0.1762
 5088TIP3    H115205   5.314   5.679   2.728 -1.7107 -0.4705  0.6406
 5088TIP3    H215206   5.334   5.732   2.869  1.6374  0.7578 -0.2583
 5089TIP3   OH215207   6.650   5.943   1.495 -0.6002 -0.4458 -0.0812
 5089TIP3    H115208   6.566   5.970   1.458 -0.7284  1.4396  1.5284
 5089TIP3    H215209   6.643   5.964   1.588  1.4615 -0.7934  0.1728
 5090TIP3   OH215210   7.475   6.649   1.193  0.2506  0.2002  0.2658
 5090TIP3    H115211   7.568   6.630   1.197  0.4592  1.3353  1.6192
 5090TIP3    H215212   7.433   6.570   1.228  0.5216 -1.3199 -2.7140
 5091TIP3   OH215213   7.079   6.507   1.310  0.0493  0.3041 -0.0679
 5091TIP3    H115214   7.108   6.596   1.289  1.0828 -0.3590 -1.5333
 5091TIP3    H215215   7.033   6.516   1.394 -0.8888  2.4124 -0.7624
 5092TIP3   OH215216   5.232   7.280   1.960 -0.1346 -0.3506  0.2538
 5092TIP3    H115217   5.237   7.371   1.930 -0.2977 -0.0129  1.2410
 5092TIP3    H215218   5.322   7.248   1.954 -0.3167 -0.5702 -1.4557
 5093TIP3   OH215219   6.950   6.599   1.553 -0.2532  0.1225 -0.2081
 5093TIP3    H115220   6.990   6.593   1.640  0.9891 -0.1867 -0.7926
 5093TIP3    H215221   6.950   6.692   1.532  1.8166 -0.0263 -0.9551
 5094TIP3   OH215222   0.253   6.736   3.054 -0.8651 -0.1489 -0.0554
 5094TIP3    H115223   0.192   6.778   3.115 -1.3901 -1.5176  0.3653
 5094TIP3    H215224   0.340   6.756   3.089 -1.1577 -0.7281  1.0042
 5095TIP3   OH215225   3.669   1.807   6.899  0.3402 -0.2228 -0.3505
 5095TIP3    H115226   3.738   1.861   6.937 -0.1228 -0.1032  0.3442
 5095TIP3    H215227   3.604   1.800   6.969 -0.5229 -0.0235 -1.1230
 5096TIP3   OH215228   1.043   4.438   0.436 -0.3385 -0.1575  0.0405
 5096TIP3    H115229   1.129   4.459   0.472  0.1602  2.0851 -2.3006
 5096TIP3    H215230   1.017   4.517   0.389 -2.8191 -1.4878 -0.9260
 5097TIP3   OH215231   6.086   5.632   2.325  0.0291  0.1557  0.8258
 5097TIP3    H115232   6.001   5.591   2.311 -0.8095  1.9271  0.6568
 5097TIP3    H215233   6.090   5.702   2.259  2.0314 -0.5416  0.1608
 5098TIP3   OH215234   5.934   0.682   6.360  0.3266 -0.0244  0.0481
 5098TIP3    H115235   6.013   0.732   6.379  1.1570 -1.2462 -0.1544
 5098TIP3    H215236   5.944   0.601   6.410 -1.0208  0.0207  0.3992
 5099TIP3   OH215237   7.765   6.522   1.697  0.5265 -0.0051 -0.2341
 5099TIP3    H115238   7.753   6.490   1.607 -1.4656 -0.6265  0.2435
 5099TIP3    H215239   7.790   6.444   1.747  2.4033  0.4785 -0.3661
 5100TIP3   OH215240   4.896   3.580   1.539  0.5632  0.2900  0.1237
 5100TIP3    H115241   4.865   3.557   1.452  0.4343 -0.6884  0.4208
 5100TIP3    H215242   4.980   3.623   1.525 -0.2743  1.7379 -0.6020
 5101TIP3   OH215243   1.568   6.517   0.788  0.1363 -0.1114 -0.0880
 5101TIP3    H115244   1.646   6.555   0.829  0.1465 -1.5823  1.3185
 5101TIP3    H215245   1.497   6.575   0.815  0.8183  1.6858 -2.0222
 5102TIP3   OH215246   5.507   4.264   1.982  0.3309 -0.2747  0.1891
 5102TIP3    H115247   5.477   4.354   1.995 -3.4644 -1.3281 -0.6635
 5102TIP3    H215248   5.511   4.227   2.070 -1.7497 -0.3354  0.2773
 5103TIP3   OH215249   7.271   6.424   0.670  0.1526 -0.4654  0.1637
 5103TIP3    H115250   7.271   6.518   0.656  0.8091 -0.4585  0.1960
 5103TIP3    H215251   7.213   6.411   0.745  2.4472  0.2329  2.1467
 5104TIP3   OH215252   0.629   1.556   2.944  0.1361  0.3578 -0.1366
 5104TIP3    H115253   0.692   1.536   3.013 -0.1594 -1.1182 -0.2708
 5104TIP3    H215254   0.552   1.590   2.990 -1.8899 -5.0373  0.7883
 5105TIP3   OH215255   4.423   5.751   2.017 -0.0924  0.0483  0.4325
 5105TIP3    H115256   4.367   5.713   2.085  1.5672  0.1189  1.8719
 5105TIP3    H215257   4.431   5.843   2.041  1.8359 -0.2716  1.0956
 5106TIP3   OH215258   7.420   5.890   1.894 -0.3584  0.3248  0.4260
 5106TIP3    H115259   7.495   5.921   1.843 -0.1643 -1.5026 -0.4348
 5106TIP3    H215260   7.344   5.934   1.856 -0.3061 -1.4996 -1.9250
 5107TIP3   OH215261   1.237   0.872   2.516 -0.2573 -0.1783 -0.3381
 5107TIP3    H115262   1.210   0.839   2.430 -1.1044  1.1760 -0.6125
 5107TIP3    H215263   1.166   0.845   2.575 -0.5429  0.4271 -0.4041
 5108TIP3   OH215264   5.293   5.680   3.101 -0.2063  0.0616 -0.2916
 5108TIP3    H115265   5.233   5.695   3.174 -0.7497 -0.9464 -0.5186
 5108TIP3    H215266   5.275   5.751   3.040 -1.8339 -0.7472 -0.7846
 5109TIP3   OH215267   7.573   0.781   0.537  0.3786 -0.2298  0.0007
 5109TIP3    H115268   7.602   0.725   0.465  2.1926 -0.4473  0.8990
 5109TIP3    H215269   7.524   0.851   0.494 -1.0740 -1.9420 -1.2117
 5110TIP3   OH215270   7.718   7.251   2.161  0.1418 -0.4399 -0.6776
 5110TIP3    H115271   7.787   7.234   2.097  0.2017  0.2481 -0.7955
 5110TIP3    H215272   7.659   7.176   2.152  0.4219 -0.6060 -1.1747
 5111TIP3   OH215273   7.181   7.808   2.347 -0.0991  0.2277  0.3170
 5111TIP3    H115274   7.164   7.856   2.427 -2.1603 -2.7598  1.7392
 5111TIP3    H215275   7.236   7.734   2.374  1.6527  0.7676 -1.5530
 5112TIP3   OH215276   8.270   0.283   0.593  1.0703  0.2218 -0.0239
 5112TIP3    H115277   8.258   0.378   0.590  0.7334  0.2070  0.7853
 5112TIP3    H215278   8.207   0.253   0.657 -0.3075 -0.8069 -1.8193
 5113TIP3   OH215279   1.516   4.114   4.332 -0.4097  0.3333 -0.0836
 5113TIP3    H115280   1.442   4.071   4.376  1.4104 -1.4400  1.3373
 5113TIP3    H215281   1.553   4.171   4.399  1.5034 -1.2949  0.2925
 5114TIP3   OH215282   6.236   7.040   1.803 -0.0683 -0.3943 -0.2882
 5114TIP3    H115283   6.300   7.018   1.871 -1.3986 -1.1011  0.7642
 5114TIP3    H215284   6.285   7.094   1.741  1.5750 -1.0216  0.4270
 5115TIP3   OH215285   3.484   1.626   6.743 -0.1931  0.5541  0.0383
 5115TIP3    H115286   3.560   1.679   6.767  0.9925 -0.2159 -1.8551
 5115TIP3    H215287   3.452   1.590   6.826  2.3818 -0.2545  0.7239
 5116TIP3   OH215288   4.222   6.243   1.513 -0.0074  0.3201  0.3519
 5116TIP3    H115289   4.227   6.332   1.548 -1.3189  0.4854  0.1186
 5116TIP3    H215290   4.311   6.210   1.523 -0.1071  0.6961  2.9559
 5117TIP3   OH215291   1.101   5.535   1.576  0.0764  0.4075  0.1596
 5117TIP3    H115292   1.028   5.596   1.582 -0.9966 -0.8560  0.2887
 5117TIP3    H215293   1.173   5.580   1.620 -0.4445  1.9100 -0.4773
 5118TIP3   OH215294   0.384   3.736   2.584 -0.5924  0.6225  0.0430
 5118TIP3    H115295   0.303   3.779   2.559 -1.3443 -0.8244 -0.0701
 5118TIP3    H215296   0.431   3.722   2.502 -0.7626  0.4050 -0.0167
 5119TIP3   OH215297   7.336   4.134   1.833 -0.0368 -0.1531 -0.7099
 5119TIP3    H115298   7.401   4.086   1.781  0.4481  1.0754 -1.2507
 5119TIP3    H215299   7.252   4.093   1.810  0.6758 -2.9335  1.3100
 5120TIP3   OH215300   0.834   4.905   1.910  0.9560 -0.4684 -0.0189
 5120TIP3    H115301   0.851   4.880   1.820 -0.2109 -1.2952 -0.0243
 5120TIP3    H215302   0.839   5.001   1.910 -1.2430 -0.3056 -1.4591
 5121TIP3   OH215303   6.768   7.016   1.292  0.3525 -0.3834  0.0081
 5121TIP3    H115304   6.817   7.059   1.222  0.8337 -0.4051  0.3271
 5121TIP3    H215305   6.677   7.031   1.271  0.5132  0.2799 -0.2054
 5122TIP3   OH215306   5.751   5.383   0.645  0.6398  0.0374 -0.2863
 5122TIP3    H115307   5.702   5.347   0.719 -1.3620 -1.4518 -2.2886
 5122TIP3    H215308   5.714   5.470   0.632 -0.5201 -0.5449 -0.9117
 5123TIP3   OH215309   6.015   5.339   0.845  0.6671 -0.5091 -0.9458
 5123TIP3    H115310   5.927   5.312   0.818 -0.2418 -0.7404  2.1404
 5123TIP3    H215311   6.063   5.257   0.855 -0.2086 -0.6940  2.0862
 5124TIP3   OH215312   5.391   6.389   1.677  0.3154  0.1849  0.6567
 5124TIP3    H115313   5.394   6.293   1.673 -2.4991  0.0796 -0.4793
 5124TIP3    H215314   5.440   6.418   1.600 -2.4492 -0.4940 -1.4329
 5125TIP3   OH215315   5.483   6.379   3.174  0.8962  0.3210  0.5633
 5125TIP3    H115316   5.518   6.464   3.147 -0.9547  1.4670  1.6332
 5125TIP3    H215317   5.485   6.382   3.270  0.2263 -0.5790  0.6079
 5126TIP3   OH215318   0.097   6.016   2.850  0.4134  0.3824 -0.3247
 5126TIP3    H115319   0.021   6.058   2.810 -0.4620  1.3595  2.3111
 5126TIP3    H215320   0.086   5.923   2.830 -1.0095  0.6258 -0.6896
 5127TIP3   OH215321   0.592   5.800   1.859 -0.0304  0.4826 -0.6792
 5127TIP3    H115322   0.597   5.866   1.929  1.8908 -1.3656  0.9924
 5127TIP3    H215323   0.499   5.777   1.854 -0.4866  2.1632 -0.2021
 5128TIP3   OH215324   7.429   5.839   0.101 -0.1132  0.7944 -0.4434
 5128TIP3    H115325   7.518   5.855   0.132 -0.4775  0.5796  0.7162
 5128TIP3    H215326   7.375   5.900   0.150 -0.5211  1.5097 -1.7427
 5129TIP3   OH215327   0.521   5.017   2.892  0.0516  0.5438  0.2912
 5129TIP3    H115328   0.504   5.007   2.986  0.3167 -1.3995  0.1460
 5129TIP3    H215329   0.549   4.930   2.863  1.3891  1.4721 -1.3052
 5130TIP3   OH215330   8.084   6.218   1.557 -0.3620  0.0991 -0.0303
 5130TIP3    H115331   8.016   6.243   1.619  0.4256  0.0121  0.8851
 5130TIP3    H215332   8.090   6.291   1.496 -2.3387 -0.5493 -1.0513
 5131TIP3   OH215333   1.099   6.849   5.126 -0.5357 -0.8001  0.1178
 5131TIP3    H115334   1.031   6.902   5.086 -0.4011 -0.9313 -0.2858
 5131TIP3    H215335   1.118   6.894   5.209 -0.4638 -0.2492 -0.1917
 5132TIP3   OH215336   8.393   6.464   3.785  0.2416  0.0810 -0.2908
 5132TIP3    H115337   8.336   6.405   3.835  0.8462 -1.0122 -0.8925
 5132TIP3    H215338   8.336   6.538   3.763 -0.6383 -0.4676  0.0973
 5133TIP3   OH215339   0.511   7.790   4.055  0.7804 -0.2113  0.2022
 5133TIP3    H115340   0.537   7.838   3.977  1.5611  0.7524  1.0423
 5133TIP3    H215341   0.452   7.722   4.023  0.5494  0.6111 -1.1341
 5134TIP3   OH215342   7.146   7.149   1.328 -0.5515 -0.2015 -0.1736
 5134TIP3    H115343   7.183   7.230   1.363 -0.3736 -0.2090 -0.3432
 5134TIP3    H215344   7.064   7.175   1.288 -0.8026 -0.2057  0.3309
 5135TIP3   OH215345   0.715   0.785   1.465 -0.3719 -0.2972 -0.4310
 5135TIP3    H115346   0.627   0.821   1.452  0.3249  1.0771 -1.4488
 5135TIP3    H215347   0.703   0.715   1.530 -2.4245 -1.0328 -1.5583
 5136TIP3   OH215348   8.351   6.956   4.168  0.0761 -0.2986  0.1195
 5136TIP3    H115349   8.416   6.987   4.105 -0.6886 -0.6650 -0.8599
 5136TIP3    H215350   8.403   6.924   4.242  1.1250 -2.4445 -1.4746
 5137TIP3   OH215351   0.450   6.959   3.799 -0.0155 -0.8840 -0.1051
 5137TIP3    H115352   0.468   7.047   3.768 -1.5277 -0.8713 -0.9886
 5137TIP3    H215353   0.401   6.972   3.881 -0.5618 -0.9082 -0.4303
 5138TIP3   OH215354   7.736   5.199   2.462  0.1968  0.0604  0.2313
 5138TIP3    H115355   7.777   5.275   2.420 -1.0101 -0.1360 -1.3582
 5138TIP3    H215356   7.677   5.236   2.528  1.0543  0.4307  0.7883
 5139TIP3   OH215357   8.569   6.993   3.334  0.1435 -0.0811 -0.0520
 5139TIP3    H115358   8.518   6.987   3.416 -0.0711 -2.6931 -0.3334
 5139TIP3    H215359   8.504   6.980   3.265  0.7689 -0.7154 -0.5222
 5140TIP3   OH215360   0.266   6.412   3.872  0.0758  0.1901  0.0183
 5140TIP3    H115361   0.317   6.345   3.826 -1.0433 -1.2264  0.7881
 5140TIP3    H215362   0.178   6.403   3.837 -0.7245 -0.7041  2.2069
 5141TIP3   OH215363   1.648   5.712   2.495 -0.1123  0.3297  0.0508
 5141TIP3    H115364   1.700   5.657   2.554  0.7227 -0.5036 -1.4410
 5141TIP3    H215365   1.568   5.730   2.544 -0.7579 -2.8964  0.2675
 5142TIP3   OH215366   1.257   6.698   1.240  0.0101  0.3680 -0.3922
 5142TIP3    H115367   1.327   6.633   1.246  0.2159  0.6703  0.5703
 5142TIP3    H215368   1.212   6.677   1.158  0.0552 -1.0135 -0.0824
 5143TIP3   OH215369   1.309   6.489   2.227  0.0929  0.0202 -0.2524
 5143TIP3    H115370   1.295   6.427   2.298  1.0271  0.5048  0.3557
 5143TIP3    H215371   1.365   6.442   2.165  0.1148 -0.0397 -0.1866
 5144TIP3   OH215372   3.356   1.261   2.109 -0.1588  0.0065  0.1861
 5144TIP3    H115373   3.377   1.174   2.076  0.1921  0.1494  0.0185
 5144TIP3    H215374   3.425   1.317   2.072  0.9693 -0.0330  2.1449
 5145TIP3   OH215375   7.709   5.497   2.048 -0.2520  0.1178  0.5386
 5145TIP3    H115376   7.773   5.544   2.101  0.5366 -1.1190  0.6915
 5145TIP3    H215377   7.713   5.540   1.962  1.5850 -0.6523  0.2155
 5146TIP3   OH215378   2.600   7.231   2.687 -0.0387 -0.0782 -0.6623
 5146TIP3    H115379   2.544   7.259   2.759  1.4057  0.8901  0.0948
 5146TIP3    H215380   2.677   7.287   2.693  0.3573 -0.3837 -2.6040
 5147TIP3   OH215381   2.364   0.531   1.752 -0.6563 -0.1921 -0.3854
 5147TIP3    H115382   2.379   0.614   1.706 -1.6452  0.4146  0.3628
 5147TIP3    H215383   2.288   0.548   1.808 -0.9095 -1.6293 -0.2727
 5148TIP3   OH215384   4.928   0.010   1.284  0.4205 -0.1653  0.1563
 5148TIP3    H115385   4.871  -0.041   1.226  1.3298 -0.6834 -0.2955
 5148TIP3    H215386   4.987   0.056   1.224  0.0712  0.8644  0.5948
 5149TIP3   OH215387   8.022   5.662   1.990  0.7908  0.2527  1.0327
 5149TIP3    H115388   8.088   5.599   1.962  0.8747  0.6193  0.4053
 5149TIP3    H215389   7.971   5.681   1.911  0.4376  0.5758  1.3358
 5150TIP3   OH215390   6.461   2.569   6.868  0.1529  0.0336 -0.3417
 5150TIP3    H115391   6.478   2.527   6.952 -2.4537  0.5768  0.5109
 5150TIP3    H215392   6.461   2.497   6.805  4.7652 -0.0687 -0.3562
 5151TIP3   OH215393   1.185   5.337   2.750 -0.1374  0.9616  0.0724
 5151TIP3    H115394   1.149   5.254   2.717 -0.6884  0.9024  0.8238
 5151TIP3    H215395   1.159   5.402   2.685  1.2721  0.3699 -1.1262
 5152TIP3   OH215396   1.712   5.277   5.804  0.5130  0.5805 -0.1639
 5152TIP3    H115397   1.662   5.358   5.809 -1.0148 -0.3361 -0.4851
 5152TIP3    H215398   1.708   5.251   5.712  2.3260  0.9450 -0.3704
 5153TIP3   OH215399   0.927   5.260   2.327  0.4531  0.2369  0.9806
 5153TIP3    H115400   1.007   5.312   2.323 -0.4198  1.6533  1.7652
 5153TIP3    H215401   0.958   5.170   2.340  1.9170  0.7691  1.2826
 5154TIP3   OH215402   0.230   5.073   3.428  0.1013  0.0514 -0.4068
 5154TIP3    H115403   0.190   5.160   3.423  2.1733  1.0382 -0.2206
 5154TIP3    H215404   0.219   5.037   3.340 -0.5127  0.6064 -0.5673
 5155TIP3   OH215405   6.322   7.605   2.251  0.1666 -0.0637 -0.6031
 5155TIP3    H115406   6.307   7.676   2.313 -0.5799 -1.8336  1.2853
 5155TIP3    H215407   6.417   7.594   2.250  0.5044  2.4492 -2.6753
 5156TIP3   OH215408   1.900   4.898   2.888 -0.1523  0.4770  0.0761
 5156TIP3    H115409   1.933   4.979   2.850 -0.8957  0.7535  0.0123
 5156TIP3    H215410   1.908   4.911   2.983 -0.0382  0.5254  0.0596
 5157TIP3   OH215411   1.001   7.329   1.674  0.4880  0.1521 -0.2428
 5157TIP3    H115412   1.042   7.379   1.745  0.8018  0.9574 -0.9803
 5157TIP3    H215413   1.072   7.277   1.637  0.8362  1.4520 -1.4375
 5158TIP3   OH215414   3.237   5.914   2.256 -0.2775 -0.1814  0.0653
 5158TIP3    H115415   3.172   5.948   2.317  0.1542  0.0568  0.3813
 5158TIP3    H215416   3.304   5.873   2.311 -0.5559 -1.1328 -0.2880
 5159TIP3   OH215417   1.367   5.038   2.918  0.0827  0.0339 -0.2403
 5159TIP3    H115418   1.321   5.121   2.935  0.4858  0.0415  0.8080
 5159TIP3    H215419   1.305   4.986   2.867 -0.2519  0.8989 -0.7284
 5160TIP3   OH215420   2.444   6.862   1.725  1.0152 -0.0877 -0.5929
 5160TIP3    H115421   2.455   6.884   1.818 -0.4448 -1.8293  0.0111
 5160TIP3    H215422   2.507   6.792   1.709  0.5190 -0.5207 -0.6507
 5161TIP3   OH215423   6.586   7.568   2.278 -0.1465 -0.3409  0.1862
 5161TIP3    H115424   6.653   7.515   2.235  1.0932 -0.2430  1.9298
 5161TIP3    H215425   6.609   7.658   2.256  1.2379 -0.2080  1.9990
 5162TIP3   OH215426   1.872   5.916   1.931  0.2949  0.1017  0.0773
 5162TIP3    H115427   1.926   5.837   1.926 -0.8866 -0.7871  1.1615
 5162TIP3    H215428   1.935   5.987   1.946  1.2287 -0.8439  0.6959
 5163TIP3   OH215429   8.081   7.226   2.165  0.4950  0.0164  0.5825
 5163TIP3    H115430   8.087   7.131   2.168  1.7342  0.0781  0.6847
 5163TIP3    H215431   8.084   7.253   2.256  1.7192  0.2138  0.4968
 5164TIP3   OH215432   3.160   7.913   3.158  0.4373 -0.5844  0.5664
 5164TIP3    H115433   3.136   7.970   3.084  0.7592 -1.6806 -0.4058
 5164TIP3    H215434   3.077   7.888   3.197  0.2644  0.0405  0.6109
 5165TIP3   OH215435   1.673   5.078   3.013  0.0190  0.1370 -0.0112
 5165TIP3    H115436   1.768   5.084   3.024  0.1155 -2.7987  1.1635
 5165TIP3    H215437   1.637   5.113   3.095  0.0916  0.7457 -0.2376
 5166TIP3   OH215438   7.664   3.597   6.378  0.3690 -0.0932 -0.0151
 5166TIP3    H115439   7.747   3.614   6.422  1.2218 -0.4873 -1.4453
 5166TIP3    H215440   7.686   3.590   6.285 -0.9828 -1.9520 -0.2363
 5167TIP3   OH215441   1.349   6.673   0.527 -0.7007  0.7289  0.9087
 5167TIP3    H115442   1.346   6.670   0.623 -0.1838 -1.3917  0.8970
 5167TIP3    H215443   1.436   6.638   0.506 -1.6601 -0.9283 -0.3798
 5168TIP3   OH215444   1.705   5.514   1.285  0.1079 -0.2405 -0.0251
 5168TIP3    H115445   1.792   5.478   1.305  0.7200  1.9242  1.4196
 5168TIP3    H215446   1.656   5.503   1.367 -0.1903  0.7322 -0.0635
 5169TIP3   OH215447   1.557   7.670   3.773 -0.0036  0.3892  0.1438
 5169TIP3    H115448   1.538   7.636   3.685  1.0137 -1.1700  0.5089
 5169TIP3    H215449   1.634   7.725   3.761  0.4124 -0.1929  0.1330
 5170TIP3   OH215450   2.186   3.542   0.418 -0.1981  0.0148 -0.3756
 5170TIP3    H115451   2.236   3.587   0.486  0.6763 -1.3537 -0.1134
 5170TIP3    H215452   2.191   3.601   0.342 -3.2277  2.7526  1.3890
 5171TIP3   OH215453   8.554   7.389   0.957  0.3421 -0.1526 -0.0220
 5171TIP3    H115454   8.574   7.447   1.031 -0.9033  0.0374  0.1875
 5171TIP3    H215455   8.539   7.448   0.883 -0.3140 -0.2277  0.0433
 5172TIP3   OH215456   8.307   6.432   4.126  0.3808  0.4575 -0.0186
 5172TIP3    H115457   8.362   6.361   4.092  0.1685  0.5418 -0.5296
 5172TIP3    H215458   8.221   6.393   4.139  0.8305  0.0296  1.8425
 5173TIP3   OH215459   2.960   6.908   4.247  0.1484  0.1642  0.9056
 5173TIP3    H115460   2.995   6.992   4.217 -1.8465  0.8725  0.4706
 5173TIP3    H215461   2.969   6.912   4.343 -1.0923  1.4221  0.9872
 5174TIP3   OH215462   1.782   5.578   2.111  0.1265  0.1347  0.1883
 5174TIP3    H115463   1.695   5.617   2.122 -0.1244 -0.3013 -0.2259
 5174TIP3    H215464   1.840   5.633   2.164 -0.2352  0.9977 -0.3085
 5175TIP3   OH215465   0.525   6.286   0.105  0.3594  0.0179 -0.2989
 5175TIP3    H115466   0.448   6.281   0.162  1.0455 -1.6835  0.5296
 5175TIP3    H215467   0.581   6.352   0.147  0.0440  0.1230 -0.0385
 5176TIP3   OH215468   0.806   7.321   2.634 -0.7248 -0.3712  0.0360
 5176TIP3    H115469   0.738   7.310   2.700  0.7902 -0.7742  1.5636
 5176TIP3    H215470   0.798   7.413   2.608 -0.8989 -0.0226  1.2766
 5177TIP3   OH215471   1.508   6.642   3.003  0.0690  0.0755 -0.4640
 5177TIP3    H115472   1.413   6.647   3.016  0.2593 -0.7423  1.2991
 5177TIP3    H215473   1.540   6.589   3.076  1.8018 -0.2795 -1.4494
 5178TIP3   OH215474   1.282   6.006   3.306 -0.5826 -0.3409  0.5116
 5178TIP3    H115475   1.286   6.100   3.285  2.1705 -0.4193  0.4939
 5178TIP3    H215476   1.318   6.000   3.395  0.7948 -1.5304 -0.0996
 5179TIP3   OH215477   1.155   7.417   3.358 -0.0956  0.1220  0.5563
 5179TIP3    H115478   1.125   7.332   3.390  1.2006  0.0029  1.5143
 5179TIP3    H215479   1.233   7.397   3.307 -1.8812  0.3680 -2.3886
 5180TIP3   OH215480   5.051   0.140   2.657  0.5504  0.0059  0.0894
 5180TIP3    H115481   5.032   0.068   2.596  0.9941  1.5419 -1.9170
 5180TIP3    H215482   5.141   0.125   2.684  0.0420 -1.2267  1.1433
 5181TIP3   OH215483   2.752   5.079   0.484 -0.1360 -0.2269  0.0833
 5181TIP3    H115484   2.709   5.086   0.569 -0.7989 -2.2481 -0.0603
 5181TIP3    H215485   2.680   5.072   0.421  0.3207  2.2433 -0.7880
 5182TIP3   OH215486   2.777   5.405   1.620 -0.3186  0.2733 -0.8411
 5182TIP3    H115487   2.741   5.349   1.689 -0.4273  1.6352  0.2195
 5182TIP3    H215488   2.750   5.362   1.539  0.0197 -1.4867 -0.0629
 5183TIP3   OH215489   1.085   3.048   6.964 -0.3743 -0.0299 -0.1390
 5183TIP3    H115490   1.135   3.110   7.018 -0.9882 -1.2992  1.9411
 5183TIP3    H215491   1.014   3.100   6.928 -1.7494  0.2332  2.7833
 5184TIP3   OH215492   1.933   6.713   2.081  0.4393  0.3836  0.2805
 5184TIP3    H115493   1.934   6.804   2.053  1.1252  0.3313  0.1039
 5184TIP3    H215494   2.020   6.680   2.055  0.3688 -0.1839  0.7638
 5185TIP3   OH215495   1.490   7.569   0.896  0.0727 -0.8135 -0.2511
 5185TIP3    H115496   1.405   7.556   0.938 -0.1190 -1.7867 -0.9254
 5185TIP3    H215497   1.541   7.492   0.920  0.2225 -1.0054 -1.1472
 5186TIP3   OH215498   1.688   6.583   2.079  0.5856 -0.7916  0.0733
 5186TIP3    H115499   1.778   6.608   2.057  0.3345 -0.9981 -1.2358
 5186TIP3    H215500   1.644   6.578   1.994 -0.6095 -0.8918  0.6976
 5187TIP3   OH215501   4.504   0.585   3.176 -0.4030 -0.2230 -0.3534
 5187TIP3    H115502   4.471   0.551   3.092 -0.8438 -1.7440  0.4158
 5187TIP3    H215503   4.441   0.554   3.240  1.7856 -2.0415  0.9819
 5188TIP3   OH215504   2.592   7.423   2.462  0.2682 -0.1348  0.0938
 5188TIP3    H115505   2.654   7.397   2.394  0.5756  0.4160  0.1643
 5188TIP3    H215506   2.592   7.350   2.524  1.0178 -0.0375  0.2137
 5189TIP3   OH215507   0.942   6.408   0.373 -0.2287 -0.2624 -0.7499
 5189TIP3    H115508   0.916   6.400   0.282 -0.1009  0.4032 -0.8492
 5189TIP3    H215509   0.920   6.324   0.413  0.9323 -1.0331 -1.6944
 5190TIP3   OH215510   7.866   6.885   1.250  1.0576 -0.7013 -0.3416
 5190TIP3    H115511   7.944   6.862   1.199  0.7442  1.5675 -1.9351
 5190TIP3    H215512   7.900   6.909   1.337  2.0875 -0.2016 -0.8769
 5191TIP3   OH215513   4.007   7.691   1.114 -0.4324 -0.0845 -0.5838
 5191TIP3    H115514   4.057   7.741   1.178  0.2674  1.8885 -2.6087
 5191TIP3    H215515   3.918   7.725   1.121 -0.4976 -0.3184 -0.2422
 5192TIP3   OH215516   0.514   5.917   1.620  0.0207  0.0217 -0.2458
 5192TIP3    H115517   0.543   5.873   1.700 -1.6608 -0.5563  0.0626
 5192TIP3    H215518   0.587   5.974   1.597  1.0896 -0.8294  0.9281
 5193TIP3   OH215519   2.035   6.334   3.223 -0.0334 -0.2809  0.3901
 5193TIP3    H115520   1.973   6.377   3.282  1.4341 -0.1146  1.8358
 5193TIP3    H215521   1.992   6.251   3.202 -0.3302 -0.6055  2.1630
 5194TIP3   OH215522   5.046   7.362   2.546  0.2240  0.1105 -0.5241
 5194TIP3    H115523   5.098   7.282   2.551  0.3216  0.2122  0.0162
 5194TIP3    H215524   5.015   7.364   2.455 -0.3789 -0.9155 -0.3520
 5195TIP3   OH215525   0.261   4.621   0.420  0.3419  0.5779 -0.1347
 5195TIP3    H115526   0.259   4.526   0.417  2.8026  0.4908 -0.1626
 5195TIP3    H215527   0.347   4.644   0.384 -0.0730  2.7859  0.2160
 5196TIP3   OH215528   2.450   6.424   2.787 -0.4071  0.3625  0.1830
 5196TIP3    H115529   2.396   6.426   2.865 -0.5009 -2.3071  0.2213
 5196TIP3    H215530   2.390   6.398   2.717  0.3658 -0.4994 -0.1652
 5197TIP3   OH215531   0.141   2.845   6.514  0.0153  0.4619 -0.3468
 5197TIP3    H115532   0.147   2.935   6.482 -0.1722 -0.2279 -2.4271
 5197TIP3    H215533   0.069   2.807   6.464 -0.0074 -0.7956  0.6317
 5198TIP3   OH215534   0.957   6.518   3.474  0.3072 -0.4809  0.1872
 5198TIP3    H115535   0.897   6.518   3.400  0.8492  0.9008 -0.2722
 5198TIP3    H215536   1.041   6.490   3.437  0.5398  0.0507  0.2957
 5199TIP3   OH215537   8.571   6.251   3.066 -0.4351  0.0319 -0.1749
 5199TIP3    H115538   8.600   6.339   3.043 -1.3327  0.0254 -1.4035
 5199TIP3    H215539   8.627   6.225   3.139 -0.8312  2.0070  0.8595
 5200TIP3   OH215540   1.838   8.030   1.523  0.6279  0.2000  0.0732
 5200TIP3    H115541   1.859   8.121   1.502 -0.4715  0.7705  1.3943
 5200TIP3    H215542   1.906   7.979   1.478  0.8207  1.6159 -1.2856
 5201TIP3   OH215543   5.373   0.693   1.991 -0.0467  0.0481  0.6630
 5201TIP3    H115544   5.454   0.702   2.041  1.3497 -0.5876 -1.3910
 5201TIP3    H215545   5.371   0.770   1.935 -0.3913 -0.3834  0.0761
 5202TIP3   OH215546   2.993   5.331   2.226  0.1526 -0.8456 -0.1320
 5202TIP3    H115547   3.038   5.249   2.247  0.6798 -0.7048 -0.7025
 5202TIP3    H215548   3.031   5.358   2.143 -0.2790 -0.2032 -0.1201
 5203TIP3   OH215549   5.447   0.362   3.372  0.6182  0.2787 -0.1048
 5203TIP3    H115550   5.533   0.328   3.347  1.0935  1.7885 -0.5937
 5203TIP3    H215551   5.390   0.338   3.299  1.3088  1.9021 -1.2180
 5204TIP3   OH215552   1.824   4.913   1.149 -0.9242 -0.7371 -0.0250
 5204TIP3    H115553   1.738   4.879   1.125 -1.5027 -0.0016  0.9666
 5204TIP3    H215554   1.816   4.935   1.242  0.4204 -0.9212  0.1456
 5205TIP3   OH215555   1.675   7.871   2.996  0.0565 -0.7738  0.2077
 5205TIP3    H115556   1.736   7.930   2.953 -2.2115 -0.0152 -2.1045
 5205TIP3    H215557   1.727   7.796   3.021  1.8267 -0.4272 -2.2652
 5206TIP3   OH215558   1.429   7.848   2.829 -0.0184  0.2405  0.2127
 5206TIP3    H115559   1.493   7.897   2.881  0.4310 -2.3353  2.1915
 5206TIP3    H215560   1.477   7.825   2.749  1.1438 -0.5418  1.1097
 5207TIP3   OH215561   1.509   6.104   1.276 -0.7255 -0.3282  0.2008
 5207TIP3    H115562   1.561   6.047   1.218  0.5710  1.5665 -0.5188
 5207TIP3    H215563   1.552   6.098   1.361  0.6116  1.1381 -0.3623
 5208TIP3   OH215564   0.288   6.286   1.200  0.3962  0.4454  0.2911
 5208TIP3    H115565   0.353   6.215   1.207 -0.4684 -0.4731 -0.9472
 5208TIP3    H215566   0.283   6.305   1.107 -1.0886  0.5552  0.3918
 5209TIP3   OH215567   2.211   7.694   2.073  0.4002 -0.5725 -0.3848
 5209TIP3    H115568   2.175   7.619   2.122 -1.2503  0.3134 -0.2028
 5209TIP3    H215569   2.256   7.654   1.999 -1.2668 -1.7297 -0.8151
 5210TIP3   OH215570   6.029   0.284   2.913  0.2885  0.4131  0.7719
 5210TIP3    H115571   6.062   0.322   2.832 -0.6696  0.3603  0.3557
 5210TIP3    H215572   6.029   0.356   2.976 -0.7732  0.9185  0.2008
 5211TIP3   OH215573   0.638   5.703   0.423 -0.1981  0.7882  0.6221
 5211TIP3    H115574   0.557   5.669   0.384  0.3824  0.2282 -0.1200
 5211TIP3    H215575   0.675   5.628   0.470 -0.4456  1.2249  1.5176
 5212TIP3   OH215576   2.566   7.555   1.011 -0.1587  0.2926  0.2097
 5212TIP3    H115577   2.517   7.626   1.054  0.5997  0.4084  0.8987
 5212TIP3    H215578   2.612   7.511   1.083 -0.1536 -0.5375 -0.2864
 5213TIP3   OH215579   3.032   5.537   3.172 -0.0178  0.4878 -0.5412
 5213TIP3    H115580   3.122   5.561   3.150  0.2532 -1.5223 -1.7393
 5213TIP3    H215581   2.990   5.525   3.087 -1.8344  2.8155 -0.0127
 5214TIP3   OH215582   5.786   1.702   6.990  0.6302 -0.0434  0.5927
 5214TIP3    H115583   5.748   1.788   7.008  1.0605  0.1274  0.7023
 5214TIP3    H215584   5.718   1.640   7.015 -0.5867  0.3182 -1.7140
 5215TIP3   OH215585   8.192   7.258   1.242 -0.9950 -0.4205  0.4186
 5215TIP3    H115586   8.101   7.288   1.249 -0.6369  0.5351  1.0656
 5215TIP3    H215587   8.189   7.186   1.179 -2.1492 -0.1685  0.1776
 5216TIP3   OH215588   0.909   7.264   0.986 -1.1030  0.4545  0.0947
 5216TIP3    H115589   0.983   7.324   0.976 -1.4961  0.5539 -2.6191
 5216TIP3    H215590   0.945   7.178   0.968 -0.9208  0.0418  2.2777
 5217TIP3   OH215591   8.551   7.285   1.511  0.3513 -0.0139 -0.7639
 5217TIP3    H115592   8.606   7.266   1.587  1.3463  0.3880 -1.3743
 5217TIP3    H215593   8.610   7.280   1.436 -0.6249 -0.4325 -1.5267
 5218TIP3   OH215594   0.573   7.867   2.492  0.5083 -0.1912  0.3423
 5218TIP3    H115595   0.490   7.829   2.522  0.5963 -1.2178 -0.6823
 5218TIP3    H215596   0.565   7.960   2.513 -0.7962 -0.3273  0.5055
 5219TIP3   OH215597   1.826   6.936   2.317 -0.0282 -0.1436  0.5828
 5219TIP3    H115598   1.738   6.902   2.304  0.2019  0.3037 -2.5005
 5219TIP3    H215599   1.815   7.008   2.378 -1.5577 -1.1264  1.4989
 5220TIP3   OH215600   1.880   4.761   2.627 -0.4811  0.0398 -0.4796
 5220TIP3    H115601   1.958   4.817   2.619  0.3341 -1.0612 -0.3752
 5220TIP3    H215602   1.839   4.789   2.709  1.6314 -1.5798  1.2004
 5221TIP3   OH215603   1.945   6.620   1.659  0.0590  0.1199  0.1082
 5221TIP3    H115604   1.881   6.650   1.724 -0.0465  1.1864 -0.4849
 5221TIP3    H215605   1.955   6.694   1.599  1.0304 -0.4418 -0.4290
 5222TIP3   OH215606   0.290   5.055   1.224  0.6084  0.5171 -0.1483
 5222TIP3    H115607   0.296   5.128   1.163 -1.5320  0.9219  0.0881
 5222TIP3    H215608   0.198   5.029   1.222  0.6422  0.0638  2.3385
 5223TIP3   OH215609   1.689   4.701   0.560 -0.6534  0.5169  0.3168
 5223TIP3    H115610   1.631   4.743   0.496 -1.5632  1.0057  1.4615
 5223TIP3    H215611   1.700   4.766   0.629  0.7353  0.1760  0.4328
 5224TIP3   OH215612   4.025   0.195   3.025 -0.2719  0.2082  0.0728
 5224TIP3    H115613   4.052   0.125   3.084  2.2445  0.0578 -1.1750
 5224TIP3    H215614   4.100   0.207   2.966 -0.8666  3.5187 -0.1376
 5225TIP3   OH215615   3.655   5.660   2.075 -0.2422 -0.3756 -0.5715
 5225TIP3    H115616   3.589   5.593   2.057 -1.6119  0.9486 -0.5547
 5225TIP3    H215617   3.661   5.709   1.993  1.3704 -1.0175 -0.8575
 5226TIP3   OH215618   1.500   7.145   1.636 -0.2330  0.1273 -0.2849
 5226TIP3    H115619   1.459   7.165   1.719  0.4374 -2.4737  0.7153
 5226TIP3    H215620   1.566   7.079   1.657  0.2798 -0.2071 -2.7890
 5227TIP3   OH215621   1.189   5.212   0.664 -0.5927 -0.2958 -0.4330
 5227TIP3    H115622   1.208   5.279   0.599  0.6376  1.5093  1.7404
 5227TIP3    H215623   1.105   5.174   0.636 -0.3883  0.8810 -2.6836
 5228TIP3   OH215624   8.037   7.470   0.718  0.3438 -0.0871 -0.1848
 5228TIP3    H115625   8.058   7.557   0.687 -0.6821  0.6284  1.0704
 5228TIP3    H215626   8.102   7.452   0.786  0.2629 -0.1073 -0.1127
 5229TIP3   OH215627   4.022   0.280   0.973 -0.1856  0.1800 -0.1788
 5229TIP3    H115628   3.994   0.366   1.002 -1.8880  0.1645 -1.6752
 5229TIP3    H215629   4.115   0.290   0.952 -0.6605  1.9946 -1.5383
 5230TIP3   OH215630   3.165   6.582   2.557  0.2736 -0.4307 -0.4323
 5230TIP3    H115631   3.212   6.555   2.636  2.3069  0.1397 -1.4248
 5230TIP3    H215632   3.073   6.570   2.580  0.8296 -0.6578  1.8848
 5231TIP3   OH215633   1.603   5.670   1.061 -0.0010 -1.0886  0.3439
 5231TIP3    H115634   1.681   5.629   1.099  0.2920 -0.9496 -0.0972
 5231TIP3    H215635   1.529   5.621   1.098  0.3016 -1.3165  0.6510
 5232TIP3   OH215636   6.460   1.832   6.905 -0.2725 -0.3784 -0.3038
 5232TIP3    H115637   6.534   1.878   6.945 -0.5800  0.0512 -0.2230
 5232TIP3    H215638   6.385   1.890   6.921 -0.6599 -0.9119 -0.2010
 5233TIP3   OH215639   7.704   7.829   3.655  0.4537  0.1961 -0.0536
 5233TIP3    H115640   7.610   7.819   3.641  0.5780 -0.4831 -0.4273
 5233TIP3    H215641   7.722   7.776   3.733  0.5456  0.2202 -0.0585
 5234TIP3   OH215642   2.364   7.923   1.398  0.3041 -0.1009  0.2834
 5234TIP3    H115643   2.300   7.854   1.384  0.1600 -0.0995  0.9103
 5234TIP3    H215644   2.408   7.898   1.480  0.8712  0.0711  0.0329
 5235TIP3   OH215645   7.746   7.480   0.709  0.0882 -0.3610 -0.0742
 5235TIP3    H115646   7.705   7.401   0.675  0.6106  0.1647 -1.9830
 5235TIP3    H215647   7.828   7.450   0.749 -0.4506 -0.9616  0.5892
 5236TIP3   OH215648   2.507   6.887   1.996  0.3722  0.5904  0.2585
 5236TIP3    H115649   2.421   6.925   2.014  0.1689 -0.1981  0.9846
 5236TIP3    H215650   2.539   6.858   2.081  0.7459 -0.3927 -0.2099
 5237TIP3   OH215651   2.547   7.562   3.000 -0.2665  0.2361 -0.2730
 5237TIP3    H115652   2.545   7.654   2.974  0.7503 -0.4363 -2.9330
 5237TIP3    H215653   2.614   7.557   3.068 -0.3706  1.4751 -0.0781
 5238TIP3   OH215654   2.044   7.867   0.810  0.6944  0.1009 -0.0199
 5238TIP3    H115655   1.960   7.891   0.849  0.2149 -1.6739  0.1107
 5238TIP3    H215656   2.021   7.825   0.727  1.5793  1.5171 -1.0103
 5239TIP3   OH215657   2.220   7.951   2.214 -0.1301 -0.2238 -0.4882
 5239TIP3    H115658   2.250   7.878   2.159  1.5066 -1.1409  1.5387
 5239TIP3    H215659   2.260   8.029   2.175 -0.4807 -0.6077 -1.6517
 5240TIP3   OH215660   4.338   0.357   1.913  0.4386  0.1654 -0.3987
 5240TIP3    H115661   4.395   0.334   1.840  0.9640  1.3518 -0.3850
 5240TIP3    H215662   4.270   0.290   1.913  1.0295 -0.4500 -1.3100
 5241TIP3   OH215663   6.385   5.007   6.492  0.1768  0.2118  0.0007
 5241TIP3    H115664   6.335   5.021   6.412 -0.0654  4.8183  0.8079
 5241TIP3    H215665   6.321   4.980   6.557 -0.0963 -0.6541 -0.6219
 5242TIP3   OH215666   2.069   0.300   0.627  0.0504 -0.1615 -0.0081
 5242TIP3    H115667   2.016   0.245   0.684 -1.2992 -0.5251 -1.5662
 5242TIP3    H215668   2.034   0.388   0.640 -0.8079 -0.3620 -0.8341
 5243TIP3   OH215669   4.682   0.681   0.746  0.5780  0.0481 -0.2679
 5243TIP3    H115670   4.647   0.702   0.832  1.9929  0.0945  0.3088
 5243TIP3    H215671   4.629   0.732   0.685 -0.0060  0.5117  0.6274
 5244TIP3   OH215672   2.313   6.233   2.310 -0.3548 -0.6289 -0.2907
 5244TIP3    H115673   2.230   6.242   2.355 -0.9196 -0.3918 -1.3718
 5244TIP3    H215674   2.346   6.148   2.338  0.4808  0.5367  2.4773
 5245TIP3   OH215675   2.278   6.982   2.047  0.1476 -0.4628 -0.5909
 5245TIP3    H115676   2.260   6.889   2.059 -3.3621  0.1014 -0.9500
 5245TIP3    H215677   2.207   7.027   2.093  1.9473  2.0701 -0.1497
 5246TIP3   OH215678   1.943   5.904   3.876  0.1228  0.6211 -0.7750
 5246TIP3    H115679   2.023   5.927   3.829  0.3724  0.0106 -0.6513
 5246TIP3    H215680   1.935   5.971   3.943  1.5896 -0.4114  0.4720
 5247TIP3   OH215681   3.528   5.971   0.530 -0.2448  0.4762 -0.2317
 5247TIP3    H115682   3.509   5.996   0.440  1.2930 -1.7587 -1.2280
 5247TIP3    H215683   3.488   5.885   0.541  0.6790  0.1548  0.7878
 5248TIP3   OH215684   1.799   6.199   4.911  0.2005  0.2143  0.2904
 5248TIP3    H115685   1.795   6.294   4.902 -1.2135  0.2006  0.7596
 5248TIP3    H215686   1.842   6.169   4.830  1.5597  1.3120  0.5798
 5249TIP3   OH215687   3.098   5.358   1.982 -0.3825  0.2319  0.3634
 5249TIP3    H115688   3.071   5.447   1.957  1.0065  0.4406 -0.5105
 5249TIP3    H215689   3.082   5.306   1.904 -1.4088 -0.3444  0.9529
 5250TIP3   OH215690   2.838   7.597   1.636  0.5186 -0.0729  0.0538
 5250TIP3    H115691   2.754   7.582   1.594  1.6568 -2.0503 -1.6196
 5250TIP3    H215692   2.902   7.587   1.565  2.2900 -0.6269  1.6846
 5251TIP3   OH215693   3.856   1.503   2.135 -1.0545 -0.5209 -0.3771
 5251TIP3    H115694   3.913   1.457   2.197 -0.1803  0.1255 -0.6963
 5251TIP3    H215695   3.877   1.464   2.050 -0.8107  0.0001 -0.5526
 5252TIP3   OH215696   7.507   4.491   2.773 -0.2919  0.1387 -0.6882
 5252TIP3    H115697   7.438   4.541   2.817  1.5422 -0.4601  3.0761
 5252TIP3    H215698   7.585   4.545   2.782  0.4730 -0.7676 -1.7949
 5253TIP3   OH215699   7.348   4.801   4.135  0.1919 -0.3611 -0.4594
 5253TIP3    H115700   7.342   4.807   4.039  0.2420  0.4159 -0.4231
 5253TIP3    H215701   7.344   4.892   4.164  0.5571 -0.5747  0.2603
 5254TIP3   OH215702   2.132   5.483   4.159 -0.1140 -0.4332  0.0138
 5254TIP3    H115703   2.173   5.529   4.085 -1.5267  1.5542  0.4327
 5254TIP3    H215704   2.102   5.553   4.217 -1.9872 -1.9027  0.8588
 5255TIP3   OH215705   1.816   6.318   3.444 -0.7233 -0.2816 -0.0976
 5255TIP3    H115706   1.754   6.245   3.436  1.5851 -2.4688  1.3883
 5255TIP3    H215707   1.771   6.381   3.500 -2.2527 -1.1102 -0.3504
 5256TIP3   OH215708   1.205   5.728   2.083 -0.0420  0.2679 -0.0459
 5256TIP3    H115709   1.251   5.765   2.157 -1.0857  0.0550  0.7219
 5256TIP3    H215710   1.257   5.651   2.058 -0.2454 -0.2524  1.1165
 5257TIP3   OH215711   2.156   6.548   1.831  0.3828 -0.2728 -0.1967
 5257TIP3    H115712   2.119   6.575   1.746 -0.8364  1.6415  0.9038
 5257TIP3    H215713   2.184   6.458   1.817 -3.2763 -1.3061 -1.5987
 5258TIP3   OH215714   8.468   6.765   2.007 -0.5543  1.1940 -0.3120
 5258TIP3    H115715   8.401   6.757   1.939  1.1083  0.1380 -1.8816
 5258TIP3    H215716   8.532   6.826   1.970 -1.1869  3.0722  1.6367
 5259TIP3   OH215717   4.158   0.663   3.102  0.0512  0.1652  0.3075
 5259TIP3    H115718   4.113   0.598   3.156 -0.5093 -0.7574 -1.2302
 5259TIP3    H215719   4.232   0.615   3.063  0.2502  0.7253 -0.0037
 5260TIP3   OH215720   4.772   1.830   5.839 -0.4609 -0.0681 -0.3603
 5260TIP3    H115721   4.820   1.752   5.811 -1.8073 -1.3383  0.7656
 5260TIP3    H215722   4.696   1.834   5.781 -2.4089 -1.8017  1.9568
 5261TIP3   OH215723   7.896   7.600   1.872 -0.0743  0.4445  0.3873
 5261TIP3    H115724   7.934   7.593   1.960  1.4020 -2.6810 -0.4196
 5261TIP3    H215725   7.880   7.693   1.860  1.8626  1.1863  3.0850
 5262TIP3   OH215726   8.439   6.819   1.163 -0.6853  0.1682 -0.5939
 5262TIP3    H115727   8.523   6.775   1.178 -0.9074  0.4071  1.4467
 5262TIP3    H215728   8.461   6.891   1.105  0.8293  1.1304  1.0981
 5263TIP3   OH215729   1.867   6.437   2.464  0.1584  0.1230 -0.3079
 5263TIP3    H115730   1.873   6.533   2.464 -0.2266  0.1484 -0.5321
 5263TIP3    H215731   1.933   6.409   2.401  0.7557  0.2083  0.2757
 5264TIP3   OH215732   1.322   6.194   1.809 -0.8732  0.2491  0.2545
 5264TIP3    H115733   1.383   6.129   1.774 -0.8516  1.1628 -1.4281
 5264TIP3    H215734   1.287   6.239   1.732  1.6976  4.6045  1.5055
 5265TIP3   OH215735   5.317   0.769   0.487 -0.3091  0.6773  0.5953
 5265TIP3    H115736   5.344   0.833   0.554  0.5703  0.8367  0.0931
 5265TIP3    H215737   5.330   0.684   0.529  1.5671  0.7324  0.1558
 5266TIP3   OH215738   1.420   7.192   1.376 -0.1777  0.6719 -0.4313
 5266TIP3    H115739   1.463   7.196   1.461  1.7223  1.7689 -1.4074
 5266TIP3    H215740   1.421   7.100   1.352 -3.4018 -0.0954  2.0126
 5267TIP3   OH215741   1.343   6.297   0.668 -0.0641 -0.4631  0.4738
 5267TIP3    H115742   1.433   6.306   0.698  0.8188 -1.2899 -1.8384
 5267TIP3    H215743   1.329   6.372   0.610 -1.1013  0.0360  1.3432
 5268TIP3   OH215744   0.712   6.837   3.986 -0.0026  0.1773 -0.0360
 5268TIP3    H115745   0.798   6.839   3.945  0.3201 -1.3680  0.5141
 5268TIP3    H215746   0.656   6.886   3.927  1.1439  0.7535 -0.6674
 5269TIP3   OH215747   1.654   7.300   2.723 -0.5128  0.4411 -0.0938
 5269TIP3    H115748   1.623   7.230   2.780 -1.0561  0.2606 -0.6062
 5269TIP3    H215749   1.743   7.319   2.754 -0.8974  0.5248  0.9727
 5270TIP3   OH215750   6.819   0.255   2.133 -0.0089 -0.5269 -0.1877
 5270TIP3    H115751   6.914   0.255   2.119  0.1485  0.1179  0.8964
 5270TIP3    H215752   6.784   0.307   2.061  0.5645  0.2835  0.1166
 5271TIP3   OH215753   1.509   7.061   1.047  0.7887  0.1411 -0.3553
 5271TIP3    H115754   1.560   7.073   1.127 -0.4058  0.5262  0.3407
 5271TIP3    H215755   1.419   7.051   1.076  0.2063  1.2703 -1.7198
 5272TIP3   OH215756   0.627   6.137   3.361 -0.0318  0.3467  0.1253
 5272TIP3    H115757   0.655   6.084   3.286 -1.6297  2.1091 -1.7743
 5272TIP3    H215758   0.584   6.074   3.419  0.1838 -0.8606 -0.9969
 5273TIP3   OH215759   1.846   5.482   2.526  0.1395 -1.0833  0.5178
 5273TIP3    H115760   1.892   5.411   2.480  0.7475 -1.6324  1.9702
 5273TIP3    H215761   1.815   5.442   2.607 -2.4375 -0.5724 -0.1671
 5274TIP3   OH215762   3.615   4.933   2.011 -0.6650 -1.4510 -0.4605
 5274TIP3    H115763   3.523   4.920   1.990 -1.1773 -0.6220  1.1930
 5274TIP3    H215764   3.633   5.024   1.989 -1.1770 -0.6053  2.4132
 5275TIP3   OH215765   0.320   5.303   1.071 -0.0083  0.4045  0.5765
 5275TIP3    H115766   0.255   5.369   1.046 -0.6298 -0.0917  0.8871
 5275TIP3    H215767   0.404   5.346   1.054 -0.4071  1.1339  0.3963
 5276TIP3   OH215768   3.859   7.495   4.050 -0.0902 -0.4372  0.9226
 5276TIP3    H115769   3.951   7.517   4.065 -0.4610  2.0658 -0.1817
 5276TIP3    H215770   3.814   7.525   4.128 -0.0147 -1.3880  1.3346
 5277TIP3   OH215771   0.914   6.059   2.968 -0.8427 -0.1083  0.4877
 5277TIP3    H115772   1.001   6.082   2.935 -0.5489  1.0192  1.9972
 5277TIP3    H215773   0.868   6.024   2.892  1.1300 -1.3097 -0.2009
 5278TIP3   OH215774   2.349   5.422   1.554  0.2695 -0.5950 -0.7708
 5278TIP3    H115775   2.283   5.422   1.623 -0.1219 -0.3023 -1.1345
 5278TIP3    H215776   2.352   5.332   1.523 -0.7797 -0.3872 -1.5100
 5279TIP3   OH215777   2.135   6.090   2.493 -0.2521  0.4603 -0.5428
 5279TIP3    H115778   2.072   6.084   2.564 -0.6441 -1.0814 -1.0017
 5279TIP3    H215779   2.220   6.089   2.536 -0.4764 -1.0274 -0.0941
 5280TIP3   OH215780   2.963   7.604   2.526  0.2579  0.1290  0.2105
 5280TIP3    H115781   2.928   7.679   2.478  1.8136  0.7062 -0.0662
 5280TIP3    H215782   3.009   7.552   2.459  0.5269 -0.2482  0.6847
 5281TIP3   OH215783   1.877   7.431   3.192 -0.5688 -0.3798 -0.0639
 5281TIP3    H115784   1.850   7.412   3.103 -0.6324 -1.1468  0.1129
 5281TIP3    H215785   1.809   7.392   3.247 -0.8578  0.6301  0.3106
 5282TIP3   OH215786   7.937   2.949   6.663  0.2064  0.9932 -0.0066
 5282TIP3    H115787   7.990   2.974   6.587 -0.6557  0.1123 -0.9072
 5282TIP3    H215788   7.849   2.939   6.629  0.2676 -1.9380  0.5501
 5283TIP3   OH215789   5.843   0.390   0.508  0.0389 -0.0187  0.3674
 5283TIP3    H115790   5.903   0.464   0.523 -0.8033  0.3919  1.8202
 5283TIP3    H215791   5.756   0.430   0.506 -0.3121 -0.8019 -0.2552
 5284TIP3   OH215792   5.674   0.033   1.820 -0.3973  0.0879 -0.3316
 5284TIP3    H115793   5.723   0.091   1.878 -0.9649  0.7100 -0.4664
 5284TIP3    H215794   5.638  -0.034   1.878  0.8819 -0.5545 -0.2834
 5285TIP3   OH215795   3.139   6.135   0.195 -0.8184  0.3630  0.2669
 5285TIP3    H115796   3.185   6.080   0.131 -0.2454  0.9356  0.1834
 5285TIP3    H215797   3.069   6.176   0.144 -1.6792 -0.8145  0.4820
 5286TIP3   OH215798   6.499   3.237   6.825 -0.3185  0.0215 -0.5384
 5286TIP3    H115799   6.554   3.280   6.891 -0.6217 -0.5535  0.0966
 5286TIP3    H215800   6.561   3.190   6.769 -0.1934 -1.0217  0.4680
 5287TIP3   OH215801   7.867   6.939   2.187  0.1884  0.8935  0.3292
 5287TIP3    H115802   7.825   6.967   2.268  1.1161 -1.3716  1.6523
 5287TIP3    H215803   7.961   6.936   2.208  0.4764  0.6366 -0.9275
 5288TIP3   OH215804   1.578   7.335   0.250 -0.1376 -0.2965 -0.2195
 5288TIP3    H115805   1.514   7.265   0.253 -1.6385  1.0482 -0.1288
 5288TIP3    H215806   1.529   7.414   0.273  1.0425  1.1062 -2.3146
 5289TIP3   OH215807   5.318   0.830   2.281  0.2687  0.2548  0.2584
 5289TIP3    H115808   5.270   0.893   2.228 -0.2422 -1.2093 -1.0615
 5289TIP3    H215809   5.410   0.855   2.271  0.1003  0.5640 -0.5417
 5290TIP3   OH215810   3.380   5.276   0.271  0.3797  0.2388 -0.0156
 5290TIP3    H115811   3.342   5.336   0.335 -0.5612  0.2781 -0.6004
 5290TIP3    H215812   3.461   5.319   0.244  2.0202 -0.8998  2.8863
 5291TIP3   OH215813   4.110   6.791   1.810 -0.6510  0.2427  0.7514
 5291TIP3    H115814   4.202   6.778   1.787 -1.0525 -0.6523 -0.4382
 5291TIP3    H215815   4.086   6.874   1.770 -0.8739 -0.4637 -0.5925
 5292TIP3   OH215816   6.011   0.513   7.016  0.3217  0.3722 -0.7679
 5292TIP3    H115817   6.072   0.584   7.036  0.6325  0.2183 -1.1683
 5292TIP3    H215818   5.960   0.546   6.942  0.2091  0.3293 -0.7096
 5293TIP3   OH215819   5.122   1.191   2.328 -0.0628 -0.8245 -0.0058
 5293TIP3    H115820   5.144   1.190   2.421 -3.2285 -0.1552  0.8185
 5293TIP3    H215821   5.028   1.211   2.326  0.1884  0.3363 -3.3895
 5294TIP3   OH215822   1.723   7.300   3.964  0.0888  0.1213 -0.1701
 5294TIP3    H115823   1.726   7.209   3.933  0.2467 -0.3771  1.2319
 5294TIP3    H215824   1.630   7.322   3.964  0.0840  0.1034 -0.9210
 5295TIP3   OH215825   3.838   0.025   1.931 -0.0748  0.0011  0.1783
 5295TIP3    H115826   3.904   0.094   1.942  0.5086 -0.4327 -0.5630
 5295TIP3    H215827   3.771   0.045   1.997  1.5636 -0.4548  2.0238
 5296TIP3   OH215828   7.110   1.567   6.218  0.0469 -0.0510 -0.3872
 5296TIP3    H115829   7.015   1.568   6.215  0.0314 -0.5997 -0.1756
 5296TIP3    H215830   7.137   1.614   6.139 -0.3942  0.0049 -0.5061
 5297TIP3   OH215831   0.704   0.539   1.636 -0.2086  0.3231  0.1845
 5297TIP3    H115832   0.774   0.474   1.642 -0.2200  0.1331 -1.4321
 5297TIP3    H215833   0.676   0.553   1.726  1.3403 -0.2213  0.7654
 5298TIP3   OH215834   0.703   5.921   5.877  0.1335 -0.7926 -0.8357
 5298TIP3    H115835   0.691   5.829   5.856  0.9195 -0.9004 -0.8317
 5298TIP3    H215836   0.638   5.967   5.823 -1.5107 -1.4706  0.5047
 5299TIP3   OH215837   2.097   7.787   1.412 -0.0006  0.1340 -0.4187
 5299TIP3    H115838   2.059   7.747   1.489  0.2881 -0.8657 -0.7846
 5299TIP3    H215839   2.067   7.732   1.339 -0.2951  1.0807 -1.0156
 5300TIP3   OH215840   3.774   6.986   0.324 -0.7878  0.1200 -0.4106
 5300TIP3    H115841   3.820   6.948   0.249 -0.3832  1.7196 -0.9978
 5300TIP3    H215842   3.796   6.928   0.397  1.4965  0.3504 -0.8603
 5301TIP3   OH215843   7.943   7.643   0.362 -0.2940  0.7281 -0.2017
 5301TIP3    H115844   7.869   7.656   0.301  0.5240  0.4914 -1.2620
 5301TIP3    H215845   7.976   7.556   0.340  1.8202  1.8047 -1.4157
 5302TIP3   OH215846   0.804   4.200   3.749 -0.7061 -0.4478 -0.1503
 5302TIP3    H115847   0.808   4.136   3.678  2.1379 -0.8328  0.3274
 5302TIP3    H215848   0.794   4.285   3.705 -2.5055 -0.9926 -0.8467
 5303TIP3   OH215849   2.732   0.084   3.111  0.1516  0.3876  0.0889
 5303TIP3    H115850   2.789   0.148   3.154  0.6708  0.0858 -0.1509
 5303TIP3    H215851   2.788   0.040   3.048 -0.3024 -0.0415 -0.0196
 5304TIP3   OH215852   1.658   5.944   2.731  0.0757  0.5514 -0.1435
 5304TIP3    H115853   1.589   5.889   2.694 -1.6725  1.6689  1.3825
 5304TIP3    H215854   1.733   5.884   2.741  0.5402  0.1374 -5.0168
 5305TIP3   OH215855   2.003   4.314   2.318  0.5693  0.2732 -0.6508
 5305TIP3    H115856   1.928   4.287   2.265 -0.2125 -1.2569  1.1715
 5305TIP3    H215857   1.995   4.263   2.399  2.1513  1.9882  0.6322
 5306TIP3   OH215858   6.904   0.447   6.568 -0.3754  0.2009  0.1270
 5306TIP3    H115859   6.837   0.383   6.546  0.8979 -0.6341 -1.3967
 5306TIP3    H215860   6.984   0.413   6.528  0.6421  1.9526  0.6234
 5307TIP3   OH215861   7.762   5.840   0.738  0.0737 -0.5692  0.3320
 5307TIP3    H115862   7.722   5.908   0.793 -0.8080 -0.2156 -0.7250
 5307TIP3    H215863   7.789   5.887   0.659  1.5837 -1.0186  0.5658
 5308TIP3   OH215864   0.972   7.436   2.227 -0.3963  0.2049  0.1151
 5308TIP3    H115865   0.985   7.486   2.307 -0.4644  0.4610 -0.0332
 5308TIP3    H215866   0.886   7.464   2.194 -0.7226 -0.4782  0.3701
 5309TIP3   OH215867   2.413   5.976   1.369  0.0415  0.2743  0.1377
 5309TIP3    H115868   2.399   5.892   1.326 -1.0308  0.5296 -0.0310
 5309TIP3    H215869   2.507   5.982   1.381  0.0760 -1.2228  0.6825
 5310TIP3   OH215870   5.225   0.297   0.457  0.0295  0.1172  0.3317
 5310TIP3    H115871   5.283   0.320   0.530  0.8195 -0.9689  0.0536
 5310TIP3    H215872   5.160   0.367   0.456  0.5732  0.6592  1.4722
 5311TIP3   OH215873   0.801   6.180   2.395  0.1313  0.9315  0.1295
 5311TIP3    H115874   0.821   6.218   2.480 -1.9814  0.2379  0.9830
 5311TIP3    H215875   0.740   6.108   2.415 -0.6137  0.9371 -1.9830
 5312TIP3   OH215876   6.684   6.737   0.917  0.1562 -0.3127 -0.0440
 5312TIP3    H115877   6.744   6.697   0.980  1.2056 -0.4714 -1.1297
 5312TIP3    H215878   6.678   6.829   0.944  0.1018 -0.5171  0.6552
 5313TIP3   OH215879   0.968   7.843   0.857  0.3588 -0.2167  0.3683
 5313TIP3    H115880   0.922   7.921   0.824  1.4301 -0.8265 -2.7345
 5313TIP3    H215881   0.903   7.773   0.853  0.3107 -0.1574  0.1030
 5314TIP3   OH215882   0.074   6.578   3.494  0.2491  0.5556  0.2573
 5314TIP3    H115883   0.067   6.622   3.409 -0.7318 -0.0708  0.0115
 5314TIP3    H215884   0.001   6.611   3.545  0.0844 -0.0428  0.4122
 5315TIP3   OH215885   1.851   6.615   4.188 -0.3266  0.0544 -0.3348
 5315TIP3    H115886   1.789   6.656   4.128 -0.4658  1.0611  0.4774
 5315TIP3    H215887   1.798   6.588   4.263  0.1809  0.7790  0.2945
 5316TIP3   OH215888   5.367   0.045   4.294 -0.3238 -0.5206 -0.0356
 5316TIP3    H115889   5.380  -0.019   4.365 -1.3622  2.0356  2.5638
 5316TIP3    H215890   5.273   0.045   4.279 -0.0041 -1.9116 -2.3499
 5317TIP3   OH215891   5.347   1.298   2.023 -0.2420 -0.3562 -0.0869
 5317TIP3    H115892   5.433   1.267   1.996 -0.0060  1.1242 -1.0891
 5317TIP3    H215893   5.331   1.375   1.968 -2.9958 -1.6635 -1.1980
 5318TIP3   OH215894   0.184   3.336   5.380 -0.4545 -0.0893  0.7678
 5318TIP3    H115895   0.095   3.354   5.348 -0.3331  0.6233  0.8215
 5318TIP3    H215896   0.189   3.240   5.384 -1.6111 -0.1079  1.8694
 5319TIP3   OH215897   8.029   2.290   5.998  0.0710 -0.0107  0.1435
 5319TIP3    H115898   8.030   2.208   5.948  0.8629 -0.2290  0.5099
 5319TIP3    H215899   7.938   2.320   5.993 -0.4307 -1.3951  0.8040
 5320TIP3   OH215900   4.579   0.673   1.010  0.1807  0.4447  0.3777
 5320TIP3    H115901   4.513   0.676   1.079  0.3171  0.7247  0.4992
 5320TIP3    H215902   4.656   0.716   1.049  0.9395 -1.2415  0.7753
 5321TIP3   OH215903   3.479   7.777   1.412  0.0805  0.8550 -0.3208
 5321TIP3    H115904   3.469   7.770   1.317  0.1176  2.0467 -0.4187
 5321TIP3    H215905   3.521   7.694   1.438 -0.1407  0.4305 -1.3039
 5322TIP3   OH215906   2.145   7.263   1.946 -0.4077 -0.1444 -0.4904
 5322TIP3    H115907   2.197   7.344   1.943 -0.6138 -0.0060 -0.3169
 5322TIP3    H215908   2.202   7.197   1.906 -1.1331  0.5887 -2.7833
 5323TIP3   OH215909   4.133   6.783   2.099 -0.2968  0.2311 -0.1285
 5323TIP3    H115910   4.049   6.830   2.107 -0.2390  0.3702 -0.3468
 5323TIP3    H215911   4.146   6.774   2.005  1.6553  3.2963 -0.2292
 5324TIP3   OH215912   4.390   7.746   0.406 -0.2858  0.0795 -0.1360
 5324TIP3    H115913   4.351   7.693   0.476 -0.3883 -0.5557 -0.6660
 5324TIP3    H215914   4.484   7.729   0.412 -0.0464  1.7360  1.2451
 5325TIP3   OH215915   7.658   0.242   1.851 -0.0498  0.3031  0.1727
 5325TIP3    H115916   7.593   0.195   1.903  1.0018 -0.6815  0.6123
 5325TIP3    H215917   7.661   0.330   1.890 -0.1900 -0.0382  0.9605
 5326TIP3   OH215918   6.473   6.944   2.532  0.3413 -0.8365  0.2588
 5326TIP3    H115919   6.512   6.896   2.459 -0.9806 -0.4486 -0.7222
 5326TIP3    H215920   6.412   6.882   2.571  0.9978 -1.0213  0.9985
 5327TIP3   OH215921   3.120   7.016   2.262 -0.3965  0.7434  0.3648
 5327TIP3    H115922   3.100   7.001   2.169  0.3143 -3.7359  0.8213
 5327TIP3    H215923   3.034   7.014   2.305 -0.5501  0.8256  0.0673
 5328TIP3   OH215924   2.389   6.242   1.221 -0.1305 -0.0572 -0.2965
 5328TIP3    H115925   2.410   6.270   1.310  1.1589  0.1240 -0.6377
 5328TIP3    H215926   2.346   6.157   1.232  0.7974 -0.4415  0.4622
 5329TIP3   OH215927   2.229   8.085   3.787  0.4139  0.6122 -0.1013
 5329TIP3    H115928   2.306   8.029   3.791 -0.2788 -0.3188  0.5768
 5329TIP3    H215929   2.158   8.026   3.760  0.1148  1.6434 -1.6734
 5330TIP3   OH215930   3.630   7.203   1.389 -0.2948 -0.0306 -0.8408
 5330TIP3    H115931   3.643   7.210   1.484 -0.1589  0.9556 -0.9327
 5330TIP3    H215932   3.697   7.141   1.361  0.2946  0.4223 -0.4368
 5331TIP3   OH215933   3.198   7.832   2.008  0.6021 -0.1363 -0.5503
 5331TIP3    H115934   3.114   7.813   2.050 -0.6490  1.4261 -2.2423
 5331TIP3    H215935   3.178   7.833   1.914  2.6641 -0.4250 -1.0273
 5332TIP3   OH215936   3.885   5.779   2.540 -0.2823  0.1028  0.3455
 5332TIP3    H115937   3.884   5.749   2.449  2.0428  0.9897  0.0136
 5332TIP3    H215938   3.828   5.856   2.539  0.4738  0.6552 -0.5438
 5333TIP3   OH215939   4.556   1.537   2.105  0.3153  0.2066 -0.2762
 5333TIP3    H115940   4.498   1.496   2.041 -0.7372 -0.9823  1.4027
 5333TIP3    H215941   4.497   1.585   2.163  1.4314  3.2343 -1.5287
 5334TIP3   OH215942   0.827   6.181   0.452  0.2361  0.2606  0.5337
 5334TIP3    H115943   0.808   6.112   0.388  1.4001 -0.2328  0.7080
 5334TIP3    H215944   0.802   6.143   0.536  2.0675 -0.4442  0.7813
 5335TIP3   OH215945   3.898   6.802   0.690 -0.2987 -0.0690 -0.9666
 5335TIP3    H115946   3.926   6.808   0.598  1.9394 -2.4375 -0.5047
 5335TIP3    H215947   3.980   6.803   0.740 -1.4639  0.5702  0.9677
 5336TIP3   OH215948   2.997   7.474   3.729 -0.1582  0.0476 -0.7379
 5336TIP3    H115949   3.014   7.472   3.635 -0.4446  1.3738 -0.8193
 5336TIP3    H215950   3.012   7.565   3.755  0.7261 -0.4708  0.6587
 5337TIP3   OH215951   2.646   6.606   1.275  0.4428  0.1317 -0.1963
 5337TIP3    H115952   2.711   6.648   1.219  0.5289  0.5021  0.1802
 5337TIP3    H215953   2.618   6.675   1.335 -1.7329  0.5330 -1.6181
 5338TIP3   OH215954   8.352   5.879   7.026 -0.0504  0.1631  0.0999
 5338TIP3    H115955   8.376   5.789   7.004 -0.2436  0.7866 -2.8918
 5338TIP3    H215956   8.260   5.886   7.000  0.4319  1.6804 -1.2821
 5339TIP3   OH215957   1.703   7.180   1.238  0.0145  0.2349  0.4144
 5339TIP3    H115958   1.704   7.214   1.328  0.0667  0.3164  0.3828
 5339TIP3    H215959   1.786   7.132   1.229 -0.4447 -0.6407  0.7438
 5340TIP3   OH215960   3.304   6.818   2.517 -0.7408  0.8552 -0.2260
 5340TIP3    H115961   3.234   6.875   2.549 -0.1190  1.7653 -0.4891
 5340TIP3    H215962   3.266   6.730   2.521 -2.2772  1.4409 -1.3381
 5341TIP3   OH215963   1.875   6.617   1.353 -0.2407  0.1183 -0.2461
 5341TIP3    H115964   1.893   6.572   1.271 -1.1519 -1.8070  0.5763
 5341TIP3    H215965   1.937   6.690   1.355  1.2219 -1.0514 -1.6536
 5342TIP3   OH215966   7.108   1.116   2.286 -0.1696 -0.4061  0.0437
 5342TIP3    H115967   7.055   1.183   2.331 -0.2637 -0.1656 -0.4168
 5342TIP3    H215968   7.184   1.104   2.342 -0.0229  0.2889  0.0023
 5343TIP3   OH215969   5.542   7.731   0.369 -0.0196  0.2127  0.0734
 5343TIP3    H115970   5.621   7.760   0.323  0.9491 -2.1098  0.1742
 5343TIP3    H215971   5.475   7.726   0.300  1.1915 -2.3934 -0.9929
 5344TIP3   OH215972   2.536   6.389   2.258  0.3354 -0.7686  0.1837
 5344TIP3    H115973   2.612   6.343   2.293 -1.1908 -2.5865  1.2225
 5344TIP3    H215974   2.463   6.330   2.275 -1.6170  1.8209  1.0392
 5345TIP3   OH215975   7.969   2.604   6.745  0.6266 -0.4117 -0.1145
 5345TIP3    H115976   7.896   2.592   6.806 -0.7294  3.2691 -0.9425
 5345TIP3    H215977   8.024   2.671   6.786  1.3099 -0.0885 -1.5302
 5346TIP3   OH215978   5.053   6.469   1.566  0.5156 -0.1121  0.2125
 5346TIP3    H115979   5.095   6.475   1.480 -0.7360 -0.1100 -0.4063
 5346TIP3    H215980   5.020   6.558   1.583 -0.3165 -0.4050  0.1377
 5347TIP3   OH215981   3.565   7.391   0.659  0.2312  0.2989 -0.1128
 5347TIP3    H115982   3.572   7.484   0.680 -0.8873  0.3590  0.0097
 5347TIP3    H215983   3.474   7.379   0.632  0.3360 -0.7882 -0.0041
 5348TIP3   OH215984   8.085   0.195   4.003  0.4280 -0.3606 -0.2818
 5348TIP3    H115985   8.096   0.264   3.937 -1.9524 -2.3810 -2.9042
 5348TIP3    H215986   8.005   0.219   4.049  0.8281 -0.1715  0.3087
 5349TIP3   OH215987   5.966   0.623   1.258 -0.5013 -0.4946  0.1580
 5349TIP3    H115988   5.872   0.627   1.244 -0.7710 -1.1344  1.8121
 5349TIP3    H215989   5.988   0.531   1.249 -0.5266 -0.7945  2.8947
 5350TIP3   OH215990   4.937   2.541   0.098  0.0154 -0.7106 -0.2664
 5350TIP3    H115991   4.935   2.630   0.062  1.9766 -1.0738 -1.3188
 5350TIP3    H215992   4.870   2.494   0.049 -1.3514  0.2903  0.6103
 5351TIP3   OH215993   4.845   1.001   4.072 -0.4686  0.4761 -0.2327
 5351TIP3    H115994   4.892   0.918   4.083 -0.1243  0.4824 -1.5583
 5351TIP3    H215995   4.754   0.979   4.090 -0.4498 -0.3178 -1.0756
 5352TIP3   OH215996   1.838   7.861   1.735 -0.2788  0.4607 -0.1639
 5352TIP3    H115997   1.889   7.893   1.810 -0.3251  0.8310 -0.2940
 5352TIP3    H215998   1.827   7.937   1.678 -0.1967  0.1695 -0.5760
 5353TIP3   OH215999   8.157   3.682   6.142  0.1067  0.3333 -0.5457
 5353TIP3    H116000   8.158   3.608   6.204 -2.1457  0.4656 -0.2742
 5353TIP3    H216001   8.090   3.658   6.078  2.4764  0.1539 -3.0525
 5354TIP3   OH216002   4.501   6.615   0.928  0.4209  0.7201 -0.9140
 5354TIP3    H116003   4.477   6.540   0.874 -2.4017  0.3067  0.8134
 5354TIP3    H216004   4.493   6.584   1.018  1.4287  2.4522 -0.1930
 5355TIP3   OH216005   1.583   6.280   0.933 -1.1456 -0.3706 -0.2230
 5355TIP3    H116006   1.557   6.365   0.898  1.7003  0.9950  0.8421
 5355TIP3    H216007   1.547   6.278   1.021 -0.7800 -0.0673 -0.0687
 5356TIP3   OH216008   3.403   6.717   1.240 -0.0482 -0.5622 -0.3470
 5356TIP3    H116009   3.425   6.783   1.174  2.0797  0.0623  0.9414
 5356TIP3    H216010   3.464   6.645   1.223  0.0106 -0.7053  0.4750
 5357TIP3   OH216011   0.996   7.717   0.113 -0.3755 -0.0705 -0.6599
 5357TIP3    H116012   1.028   7.803   0.088  0.0534 -0.7171 -2.4327
 5357TIP3    H216013   1.075   7.666   0.130 -0.6344 -0.0399  0.7011
 5358TIP3   OH216014   3.469   6.908   1.981  0.0107 -0.1111  0.0629
 5358TIP3    H116015   3.415   6.860   2.043 -0.4552  0.4200  0.0715
 5358TIP3    H216016   3.409   6.927   1.908 -0.0028  1.0675  0.3698
 5359TIP3   OH216017   2.681   6.912   0.534  0.5379 -0.3599 -0.2932
 5359TIP3    H116018   2.648   6.823   0.544 -0.3617  0.0546  0.5183
 5359TIP3    H216019   2.764   6.913   0.583  0.9838 -0.9771 -1.0258
 5360TIP3   OH216020   6.829   7.504   3.552  0.0763  0.0768 -0.1968
 5360TIP3    H116021   6.865   7.438   3.612 -0.6818 -1.5856 -1.5050
 5360TIP3    H216022   6.741   7.520   3.584  0.7490  1.5659  0.9707
 5361TIP3   OH216023   7.104   0.188   3.481  0.0544 -0.1707 -0.0163
 5361TIP3    H116024   7.134   0.106   3.441 -0.1237 -0.1328 -0.2258
 5361TIP3    H216025   7.067   0.238   3.408  1.6082  0.7634 -0.1861
 5362TIP3   OH216026   5.484   1.013   2.564  0.0104  0.5087 -0.0620
 5362TIP3    H116027   5.431   1.059   2.629  0.0167  0.5553 -0.0897
 5362TIP3    H216028   5.470   1.061   2.483 -1.6981 -0.8454 -0.5885
 5363TIP3   OH216029   2.470   5.752   1.641 -0.1998 -0.2593 -0.0690
 5363TIP3    H116030   2.500   5.840   1.617  0.8875 -0.8756 -1.0253
 5363TIP3    H216031   2.513   5.694   1.578 -1.8502 -1.3722 -0.2090
 5364TIP3   OH216032   1.790   5.748   0.833  0.5922 -0.5327 -0.4557
 5364TIP3    H116033   1.746   5.741   0.918  0.5150 -1.1008 -0.5417
 5364TIP3    H216034   1.726   5.790   0.776  0.6947 -0.0209 -0.1988
 5365TIP3   OH216035   4.684   7.214   3.630 -0.3771 -0.1510 -0.1556
 5365TIP3    H116036   4.687   7.120   3.645 -1.1479 -0.3402 -1.1482
 5365TIP3    H216037   4.701   7.225   3.537 -0.7407  0.6557 -0.1374
 5366TIP3   OH216038   1.150   1.963   5.974 -0.2274 -0.0454  0.3823
 5366TIP3    H116039   1.113   1.930   6.056  0.4372 -0.3306  0.5683
 5366TIP3    H216040   1.076   2.004   5.929 -1.4297 -3.1219 -0.5601
 5367TIP3   OH216041   3.166   6.086   2.030 -0.1318  0.4548 -0.1678
 5367TIP3    H116042   3.198   6.044   2.110 -1.3234  1.7118  1.0027
 5367TIP3    H216043   3.246   6.108   1.982  0.5785 -0.8489  0.3894
 5368TIP3   OH216044   3.144   7.789   1.275 -0.3423  0.9082  0.1632
 5368TIP3    H116045   3.177   7.751   1.357  0.6666  0.9557 -0.2226
 5368TIP3    H216046   3.210   7.853   1.250 -0.7925  1.0979 -0.5539
 5369TIP3   OH216047   3.236   7.325   1.558 -0.2876  0.3859  0.1735
 5369TIP3    H116048   3.283   7.336   1.641  0.1059 -1.1909  0.1722
 5369TIP3    H216049   3.180   7.248   1.571 -0.7262  0.5225 -0.7978
 5370TIP3   OH216050   3.984   6.173   2.079  0.0792 -0.5824 -0.4495
 5370TIP3    H116051   4.027   6.194   2.163 -0.6932 -1.7736  0.2560
 5370TIP3    H216052   4.053   6.134   2.026 -0.1417 -2.6122  0.7273
 5371TIP3   OH216053   4.760   7.949   2.743 -0.3299 -0.0050 -0.3958
 5371TIP3    H116054   4.813   8.012   2.695  0.2271  0.1065  0.3465
 5371TIP3    H216055   4.709   8.003   2.804  1.5563 -0.3918  1.5777
 5372TIP3   OH216056   4.445   0.982   1.515  0.6041  0.3478  0.0964
 5372TIP3    H116057   4.524   0.940   1.480  1.2280  0.0779  1.7744
 5372TIP3    H216058   4.452   1.074   1.487  0.9593  0.0923 -0.6748
 5373TIP3   OH216059   0.524   2.524   6.668 -0.0142 -0.0026 -0.5890
 5373TIP3    H116060   0.548   2.536   6.576  0.2985  0.8801 -0.3979
 5373TIP3    H216061   0.550   2.434   6.688  0.5779  0.0348 -1.1673
 5374TIP3   OH216062   0.901   3.070   6.589 -0.3024 -0.4839  1.3865
 5374TIP3    H116063   0.818   3.037   6.625 -0.5248 -0.7048  0.6696
 5374TIP3    H216064   0.953   2.991   6.573 -0.2136 -0.3818  1.1823
 5375TIP3   OH216065   4.297   6.467   2.854  0.6256 -0.2189  0.0879
 5375TIP3    H116066   4.353   6.396   2.884 -2.2657 -2.3493  0.7102
 5375TIP3    H216067   4.217   6.424   2.825 -0.4503  2.6454 -1.4434
 5376TIP3   OH216068   1.647   6.077   0.529  0.5042  0.3067  0.2775
 5376TIP3    H116069   1.556   6.065   0.554  0.6908 -1.7611  0.0511
 5376TIP3    H216070   1.697   6.032   0.597  1.3996  1.8266  0.6604
 5377TIP3   OH216071   4.611   0.280   3.185  0.0342  0.4355 -0.0062
 5377TIP3    H116072   4.582   0.287   3.276 -0.1249  0.8182 -0.0864
 5377TIP3    H216073   4.616   0.186   3.169  2.1421  0.3209  1.0692
 5378TIP3   OH216074   2.649   7.644   0.598  0.4214  0.0542 -0.5337
 5378TIP3    H116075   2.633   7.703   0.525  0.8386 -0.0161 -0.6803
 5378TIP3    H216076   2.584   7.670   0.664  1.7227  1.8223  0.0722
 5379TIP3   OH216077   3.837   7.661   0.834 -0.6205 -0.2178 -0.0087
 5379TIP3    H116078   3.757   7.646   0.885 -0.7390  0.2249 -0.0657
 5379TIP3    H216079   3.898   7.595   0.867 -0.7571 -0.0576  0.5769
 5380TIP3   OH216080   0.337   7.083   2.200  0.0934 -0.4599  0.3264
 5380TIP3    H116081   0.417   7.074   2.251 -1.1493  1.2637  2.6522
 5380TIP3    H216082   0.357   7.151   2.136  0.6715 -0.4821  0.4813
 5381TIP3   OH216083   5.238   0.011   1.831 -0.0155  0.1715  0.1572
 5381TIP3    H116084   5.161   0.058   1.798 -0.2097  0.0512  0.4386
 5381TIP3    H216085   5.279  -0.025   1.752  1.0340  2.1541 -0.2201
 5382TIP3   OH216086   3.014   7.128   1.927  0.4031 -0.2431 -0.4825
 5382TIP3    H116087   2.961   7.206   1.938 -0.7196 -0.8727 -1.3293
 5382TIP3    H216088   3.028   7.120   1.833 -0.1765 -1.4940 -0.4773
 5383TIP3   OH216089   2.366   6.655   0.770 -0.0126  0.3440 -0.3390
 5383TIP3    H116090   2.342   6.703   0.690 -0.2165  0.6287 -0.1079
 5383TIP3    H216091   2.379   6.565   0.741  2.1858  0.8718 -1.1191
 5384TIP3   OH216092   0.955   6.681   1.295 -0.0533  0.5770  0.3509
 5384TIP3    H116093   1.033   6.704   1.245  0.3068  0.3369  0.7918
 5384TIP3    H216094   0.979   6.700   1.386 -0.3189 -0.0061  0.5421
 5385TIP3   OH216095   3.125   7.904   0.700  0.6785 -0.6588 -0.1965
 5385TIP3    H116096   3.126   7.999   0.712  0.3517 -0.8487  1.3655
 5385TIP3    H216097   3.036   7.877   0.724  0.1987 -1.1579 -2.3918
 5386TIP3   OH216098   7.749   0.619   1.681  0.0562  0.0990 -0.1082
 5386TIP3    H116099   7.805   0.670   1.622  0.9546  0.7724  1.2895
 5386TIP3    H216100   7.663   0.620   1.639  1.0871 -0.9661 -2.2969
 5387TIP3   OH216101   7.557   3.172   6.817 -0.0759 -0.2339 -0.0198
 5387TIP3    H116102   7.577   3.091   6.863 -0.7116 -1.6147 -2.0850
 5387TIP3    H216103   7.476   3.204   6.857  0.1661 -0.6389  0.7944
 5388TIP3   OH216104   1.183   4.962   6.985 -0.0757  0.7272 -0.3604
 5388TIP3    H116105   1.153   4.974   7.075 -2.5917 -2.4746 -0.6980
 5388TIP3    H216106   1.108   4.986   6.931  0.0723 -1.1932 -1.4514
 5389TIP3   OH216107   2.170   7.847   2.691  0.0883  0.0341  0.2632
 5389TIP3    H116108   2.261   7.861   2.718  0.4422  0.0662 -0.9231
 5389TIP3    H216109   2.157   7.910   2.620 -1.3471  1.1296  1.4805
 5390TIP3   OH216110   1.850   7.903   2.605 -0.3715 -0.3422 -0.4201
 5390TIP3    H116111   1.798   7.962   2.550  0.4168  1.1132  0.3716
 5390TIP3    H216112   1.941   7.922   2.581 -0.0112  0.3845  1.4433
 5391TIP3   OH216113   4.069   7.857   0.843  0.0509 -0.4813 -0.7469
 5391TIP3    H116114   4.011   7.819   0.776 -1.0006 -0.8914  0.3650
 5391TIP3    H216115   4.056   7.800   0.919 -0.5930  1.3729  0.5590
 5392TIP3   OH216116   1.201   6.073   2.266 -0.0475  0.2469 -0.1481
 5392TIP3    H116117   1.267   6.067   2.197 -0.3457 -3.8223 -0.2093
 5392TIP3    H216118   1.246   6.115   2.339  1.3517  1.2977 -1.5917
 5393TIP3   OH216119   6.973   0.777   1.840  0.0193  0.1952 -0.6476
 5393TIP3    H116120   6.929   0.739   1.916  0.4326 -2.2538 -1.5817
 5393TIP3    H216121   6.952   0.870   1.844 -1.4775 -0.1967  1.4394
 5394TIP3   OH216122   5.285   0.075   2.358 -0.0670 -0.3325 -0.0529
 5394TIP3    H116123   5.271   0.089   2.265 -0.0693 -0.5389 -0.0843
 5394TIP3    H216124   5.198   0.079   2.397 -0.1367 -0.8935 -0.1491
 5395TIP3   OH216125   5.196   5.950   2.312 -0.1801  0.0432 -0.3900
 5395TIP3    H116126   5.255   5.981   2.243  0.2912  0.5769  0.2522
 5395TIP3    H216127   5.120   5.918   2.264  1.4499 -2.5453 -1.3539
 5396TIP3   OH216128   1.867   3.092   2.369  0.2028  0.1908  0.0658
 5396TIP3    H116129   1.956   3.095   2.404  0.2514  0.8421 -0.1029
 5396TIP3    H216130   1.835   3.005   2.391  1.1470 -0.2982 -0.5178
 5397TIP3   OH216131   1.881   6.545   0.158  0.0456  0.0811 -0.0302
 5397TIP3    H116132   1.800   6.584   0.126 -1.5910 -0.9191  2.7240
 5397TIP3    H216133   1.891   6.580   0.247  3.1231  0.8529 -0.6108
 5398TIP3   OH216134   7.443   0.613   1.126 -0.3352  0.1126 -0.4021
 5398TIP3    H116135   7.437   0.562   1.046 -0.0062  0.1956 -0.4798
 5398TIP3    H216136   7.379   0.573   1.185 -0.3415 -0.1564 -0.5920
 5399TIP3   OH216137   2.020   4.750   0.128  0.0356 -0.2579 -1.0818
 5399TIP3    H116138   2.102   4.702   0.144 -0.2903 -0.5903 -0.3966
 5399TIP3    H216139   1.982   4.762   0.215  0.6177  2.1797 -1.1293
 5400TIP3   OH216140   3.992   0.798   1.672 -0.4146 -0.4372  0.1874
 5400TIP3    H116141   3.990   0.886   1.636 -1.7531 -0.3488  0.4500
 5400TIP3    H216142   3.907   0.761   1.650 -0.7687 -0.8310  2.1116
 5401TIP3   OH216143   1.050   6.698   1.546  0.0792  0.3883 -0.2947
 5401TIP3    H116144   0.993   6.641   1.597  0.2154  1.1224  0.6789
 5401TIP3    H216145   1.132   6.702   1.595 -0.1063  1.8435 -0.0793
 5402TIP3   OH216146   6.674   5.674   1.840 -0.1935 -0.5036 -0.4673
 5402TIP3    H116147   6.746   5.737   1.834  1.8032 -2.7647 -1.2194
 5402TIP3    H216148   6.714   5.596   1.879 -2.2584 -1.7684 -0.8244
 5403TIP3   OH216149   3.844   6.868   0.071  0.2539 -0.0621 -0.0467
 5403TIP3    H116150   3.769   6.824   0.030 -0.0433 -1.0839  1.5367
 5403TIP3    H216151   3.861   6.944   0.015  0.6609 -2.0771 -2.7165
 5404TIP3   OH216152   2.640   7.092   4.062 -0.1448  0.3486  0.3857
 5404TIP3    H116153   2.603   7.071   4.148  0.4528 -0.5994  0.4098
 5404TIP3    H216154   2.612   7.020   4.006  0.4009  0.4009  0.0453
 5405TIP3   OH216155   2.417   7.352   0.306  0.0217  0.4466  0.5082
 5405TIP3    H116156   2.416   7.426   0.246 -1.4487 -0.2161 -0.3016
 5405TIP3    H216157   2.363   7.380   0.380 -1.2161 -0.0925 -0.1682
 5406TIP3   OH216158   4.346   0.761   2.516  0.8315 -0.5399  0.0440
 5406TIP3    H116159   4.326   0.776   2.424  1.5234 -0.1609 -0.0478
 5406TIP3    H216160   4.344   0.666   2.526 -1.3718 -0.5168  0.1296
 5407TIP3   OH216161   6.718   0.771   1.558 -0.2601  0.3451 -0.9711
 5407TIP3    H116162   6.803   0.729   1.568  0.6474  2.2296 -0.5914
 5407TIP3    H216163   6.732   0.837   1.491 -1.1387  1.3862 -0.1453
 5408TIP3   OH216164   2.220   7.484   2.966  0.5199  0.5094 -0.1593
 5408TIP3    H116165   2.264   7.513   3.046 -3.1621  0.4218  1.9759
 5408TIP3    H216166   2.188   7.396   2.987 -0.2745  0.3702 -1.8607
 5409TIP3   OH216167   2.077   6.047   2.039 -0.0936 -0.2587  0.3303
 5409TIP3    H116168   2.039   6.111   2.099  0.2708  0.3643 -0.0974
 5409TIP3    H216169   2.126   5.988   2.096 -0.0385  0.1236  0.6824
 5410TIP3   OH216170   1.317   3.978   6.522 -0.0275 -0.0333 -0.1697
 5410TIP3    H116171   1.293   4.031   6.446  0.8592 -0.6108 -0.8727
 5410TIP3    H216172   1.277   3.892   6.504  3.4900 -1.4066 -1.9837
 5411TIP3   OH216173   6.532   1.814   1.759 -0.5694  0.0718 -0.0003
 5411TIP3    H116174   6.486   1.785   1.837  0.4260 -1.0888  0.1753
 5411TIP3    H216175   6.599   1.747   1.744 -0.3123  0.6303 -1.4539
 5412TIP3   OH216176   4.037   5.811   2.223  0.2503  0.0662 -0.5007
 5412TIP3    H116177   3.973   5.742   2.241  1.7120 -0.6076  2.4115
 5412TIP3    H216178   3.994   5.868   2.160 -1.9942 -2.0747 -0.9750
 5413TIP3   OH216179   2.105   4.872   1.809 -0.3178  0.0705 -0.3972
 5413TIP3    H116180   2.101   4.811   1.883  0.9133  0.2842 -0.1401
 5413TIP3    H216181   2.067   4.953   1.843 -0.6638 -0.1333 -0.3022
 5414TIP3   OH216182   2.951   6.402   3.579  0.1211 -0.1907 -0.1669
 5414TIP3    H116183   2.982   6.467   3.642 -0.0965  0.4619 -0.7260
 5414TIP3    H216184   3.030   6.363   3.543  0.2961  0.8160 -0.9079
 5415TIP3   OH216185   5.816   1.223   1.156  0.0604  0.2226  0.5990
 5415TIP3    H116186   5.779   1.306   1.127  0.5134  1.2801  2.9044
 5415TIP3    H216187   5.749   1.185   1.212  0.0269 -0.7833 -0.1125
 5416TIP3   OH216188   1.422   4.254   6.720 -0.1609  0.1382 -0.7003
 5416TIP3    H116189   1.367   4.330   6.699 -1.0670 -0.5033 -0.6977
 5416TIP3    H216190   1.493   4.257   6.657  0.4428  1.6407  0.0277
 5417TIP3   OH216191   2.145   7.533   0.391  0.0459 -0.4114  0.5513
 5417TIP3    H116192   2.182   7.547   0.304 -0.2170 -1.5944  0.2517
 5417TIP3    H216193   2.055   7.506   0.376 -0.0584 -0.4408  1.1989
 5418TIP3   OH216194   1.766   6.900   0.340  0.1581  0.0105 -0.3707
 5418TIP3    H116195   1.693   6.865   0.290  0.7777 -1.1502 -0.4720
 5418TIP3    H216196   1.767   6.850   0.421  0.2833  0.6501  0.0320
 5419TIP3   OH216197   2.178   3.264   1.916  0.1295  0.2615  0.6588
 5419TIP3    H116198   2.255   3.264   1.860 -0.4273  0.5155 -0.1109
 5419TIP3    H216199   2.190   3.338   1.976  0.6326  0.1014  0.7532
 5420TIP3   OH216200   6.519   1.104   3.297 -0.4964  0.5354 -0.2476
 5420TIP3    H116201   6.451   1.039   3.280  0.1883  0.1579 -1.5804
 5420TIP3    H216202   6.519   1.160   3.219  1.1878  0.1184 -0.5562
 5421TIP3   OH216203   2.689   7.816   4.240 -0.4419 -0.1464  0.3300
 5421TIP3    H116204   2.597   7.798   4.219 -0.5843 -0.4291  1.1888
 5421TIP3    H216205   2.710   7.755   4.311  0.5133 -0.3256 -0.0867
 5422TIP3   OH216206   8.271   2.445   6.275  0.2555 -0.1514 -0.6506
 5422TIP3    H116207   8.312   2.429   6.360 -1.8762  0.8909  0.6064
 5422TIP3    H216208   8.196   2.385   6.273 -1.4289  1.9036 -0.5076
 5423TIP3   OH216209   7.841   2.691   6.523 -0.1744  0.1473 -0.4422
 5423TIP3    H116210   7.871   2.673   6.611 -1.5599 -1.1633 -0.2244
 5423TIP3    H216211   7.914   2.664   6.466  0.7423  1.0671  0.2804
 5424TIP3   OH216212   3.438   7.726   1.152 -0.6735 -0.4404 -0.6365
 5424TIP3    H116213   3.374   7.763   1.091 -0.7101 -3.2419 -2.3446
 5424TIP3    H216214   3.415   7.634   1.159  1.1562 -0.7935  1.3472
 5425TIP3   OH216215   3.709   7.817   1.109  0.3405 -0.1039 -0.3292
 5425TIP3    H116216   3.739   7.858   1.028 -0.7906  0.9576 -0.2260
 5425TIP3    H216217   3.652   7.746   1.080  2.3538 -1.6856 -0.5103
 5426TIP3   OH216218   4.040   7.269   2.035  0.0892  0.9257 -0.0644
 5426TIP3    H116219   4.058   7.346   1.981  0.5368  0.1815 -0.9881
 5426TIP3    H216220   3.958   7.234   2.000  2.5178 -2.0327 -3.1870
 5427TIP3   OH216221   1.795   7.243   1.499  0.8322  0.2652  0.3226
 5427TIP3    H116222   1.716   7.283   1.536 -0.8594 -2.7122  0.0529
 5427TIP3    H216223   1.862   7.255   1.567 -0.2503  1.4777  1.1831
 5428TIP3   OH216224   6.275   0.495   2.241 -0.2005  0.4483  0.3358
 5428TIP3    H116225   6.207   0.462   2.300  0.1895  0.4967  0.8159
 5428TIP3    H216226   6.281   0.588   2.262  0.7060  0.2483  0.9960
 5429TIP3   OH216227   4.863   7.232   2.121  0.0325 -0.6893  0.4705
 5429TIP3    H116228   4.901   7.278   2.196 -1.7889  0.2399  0.8398
 5429TIP3    H216229   4.831   7.301   2.064  0.1313 -1.4297 -0.4877
 5430TIP3   OH216230   4.325   0.829   0.851 -0.2566  0.6796  0.0731
 5430TIP3    H116231   4.302   0.737   0.844 -1.1341  0.7627  1.6510
 5430TIP3    H216232   4.242   0.875   0.836  0.0621  1.1947 -0.1320
 5431TIP3   OH216233   6.020   0.085   1.017  0.9574  0.9178 -0.0068
 5431TIP3    H116234   6.085   0.153   1.033 -0.9102  1.9098  4.1087
 5431TIP3    H216235   6.044   0.014   1.076 -1.1536  0.9485  0.9253
 5432TIP3   OH216236   3.264   6.987   1.808 -0.2362 -0.1441 -0.2749
 5432TIP3    H116237   3.204   7.036   1.752  0.8223  0.2416 -1.0851
 5432TIP3    H216238   3.238   6.895   1.796 -2.2185  0.1835  1.2439
 5433TIP3   OH216239   2.132   7.609   0.890  0.0482  0.2548 -0.3870
 5433TIP3    H116240   2.114   7.700   0.863  0.3720  0.8446  1.3273
 5433TIP3    H216241   2.062   7.558   0.850  0.4527  1.0941 -2.2620
 5434TIP3   OH216242   4.890   7.763   2.553 -0.1175  1.0735  0.5654
 5434TIP3    H116243   4.852   7.679   2.576  0.2794  0.8361  0.3531
 5434TIP3    H216244   4.845   7.826   2.610 -1.2073  0.8635 -0.0430
 5435TIP3   OH216245   5.667   0.661   1.277  0.6582  0.9258  0.2815
 5435TIP3    H116246   5.591   0.608   1.254 -0.9363  2.4284  1.9150
 5435TIP3    H216247   5.642   0.750   1.255  2.8704  1.1832 -1.3459
 5436TIP3   OH216248   3.911   7.245   3.714  0.2094  0.2270  0.0857
 5436TIP3    H116249   3.993   7.236   3.762  0.9403 -0.3307 -1.2319
 5436TIP3    H216250   3.894   7.339   3.714  1.8450  0.5481 -1.2110
 5437TIP3   OH216251   3.957   6.253   2.499 -0.4636 -0.3464  0.3258
 5437TIP3    H116252   3.902   6.279   2.425  2.5838  1.2376 -1.4921
 5437TIP3    H216253   3.995   6.170   2.472  0.3509  0.0397  0.2809
 5438TIP3   OH216254   1.937   7.512   1.905 -1.1111 -0.7844  0.2357
 5438TIP3    H116255   1.863   7.544   1.957 -1.4883 -0.2205 -0.6345
 5438TIP3    H216256   1.997   7.473   1.969 -0.1960  2.4676  1.4633
 5439TIP3   OH216257   2.707   7.057   2.257 -0.1762 -0.7705  0.7554
 5439TIP3    H116258   2.615   7.033   2.271  0.1480 -2.4188  0.1094
 5439TIP3    H216259   2.721   7.047   2.163  0.7075 -0.6325  0.8681
 5440TIP3   OH216260   3.379   6.168   1.809  0.0101  0.4069  0.5684
 5440TIP3    H116261   3.407   6.092   1.758  0.6912  0.8195  0.3251
 5440TIP3    H216262   3.302   6.201   1.763 -0.3921 -0.2355  0.7718
 5441TIP3   OH216263   6.853   0.304   3.914  0.2173  0.2184  0.4191
 5441TIP3    H116264   6.916   0.373   3.936  0.3674 -0.3847  1.9305
 5441TIP3    H216265   6.891   0.224   3.952 -1.0300 -0.2992  0.5798
 5442TIP3   OH216266   4.903   3.753   1.175  0.1414  0.2932  0.1207
 5442TIP3    H116267   4.930   3.697   1.248  0.4444  0.9523  0.5096
 5442TIP3    H216268   4.899   3.693   1.100 -1.9921 -0.7818  1.0498
 5443TIP3   OH216269   7.252   0.910   2.964 -0.1128  0.5532  0.0331
 5443TIP3    H116270   7.196   0.985   2.941  1.1775  1.1920 -1.0754
 5443TIP3    H216271   7.335   0.929   2.922  0.8601 -0.5417  1.4237
 5444TIP3   OH216272   3.080   5.935   0.996 -0.2440  0.2189 -0.4733
 5444TIP3    H116273   3.089   5.932   1.091  1.6182  0.7198 -0.6247
 5444TIP3    H216274   3.107   5.847   0.967  0.8530  0.6092 -0.6590
 5445TIP3   OH216275   7.324   0.984   3.509  0.4069  0.2842 -0.2373
 5445TIP3    H116276   7.231   1.007   3.515  0.5360  0.8279 -0.2439
 5445TIP3    H216277   7.352   1.023   3.426  0.3197 -1.0576 -0.9160
 5446TIP3   OH216278   6.253   0.859   0.350 -0.2844  0.0694  0.0428
 5446TIP3    H116279   6.314   0.894   0.285 -1.3146 -0.1197 -1.0388
 5446TIP3    H216280   6.268   0.912   0.428  0.3841  0.8449 -0.6028
 5447TIP3   OH216281   4.190   7.897   2.651  0.1569 -0.7077  0.2200
 5447TIP3    H116282   4.144   7.980   2.649 -2.0434 -1.9106 -2.4400
 5447TIP3    H216283   4.267   7.911   2.594  0.1875 -0.2726  0.3693
 5448TIP3   OH216284   4.257   7.519   1.791 -0.1503  0.7278 -0.1601
 5448TIP3    H116285   4.212   7.543   1.710 -0.6919 -0.7313 -0.2997
 5448TIP3    H216286   4.293   7.432   1.775  2.4365  1.7025  0.0894
 5449TIP3   OH216287   7.774   2.548   0.378 -0.2266  0.0957  0.0970
 5449TIP3    H116288   7.778   2.632   0.332 -1.5590  0.3968  0.4959
 5449TIP3    H216289   7.772   2.572   0.470  0.4344 -0.4219  0.2459
 5450TIP3   OH216290   7.350   0.863   1.114 -0.3688  0.3905 -0.8753
 5450TIP3    H116291   7.401   0.783   1.101 -1.2070 -0.5923  1.6152
 5450TIP3    H216292   7.259   0.834   1.114 -0.5801  0.8165  3.0759
 5451TIP3   OH216293   3.189   7.277   1.060 -0.7488 -0.5488 -0.5756
 5451TIP3    H116294   3.200   7.214   0.990 -2.6178 -2.1214  0.4824
 5451TIP3    H216295   3.166   7.224   1.137  0.6866  1.1671  1.0975
 5452TIP3   OH216296   7.956   0.552   6.837 -0.0794 -0.0425  1.2092
 5452TIP3    H116297   7.992   0.557   6.748 -0.5495 -0.5801  0.9883
 5452TIP3    H216298   8.025   0.509   6.888 -0.3498 -0.9469  0.8157
 5453TIP3   OH216299   0.152   0.783   3.724 -0.1353  0.2034  0.0894
 5453TIP3    H116300   0.148   0.835   3.804  0.7136  0.2547  0.1026
 5453TIP3    H216301   0.091   0.827   3.664 -1.3188 -0.2542  0.9294
 5454TIP3   OH216302   6.594   1.709   2.797 -0.3081  0.2919 -0.1225
 5454TIP3    H116303   6.652   1.633   2.786 -0.5508  0.2819 -1.3573
 5454TIP3    H216304   6.508   1.672   2.812  0.2019  0.2859  3.0841
 5455TIP3   OH216305   4.054   7.880   0.319  0.2507 -0.1712  0.3028
 5455TIP3    H116306   4.069   7.951   0.380 -0.3746 -0.0077  0.2658
 5455TIP3    H216307   4.021   7.808   0.372 -1.9979  0.5380 -0.0653
 5456TIP3   OH216308   3.611   6.503   1.323  0.1336  0.0665 -0.6872
 5456TIP3    H116309   3.643   6.536   1.407  0.2873 -0.4861 -0.5253
 5456TIP3    H216310   3.678   6.440   1.295 -0.7139 -0.9616 -0.4402
 5457TIP3   OH216311   6.843   7.231   1.974  0.0290 -0.0748 -0.2581
 5457TIP3    H116312   6.801   7.258   1.892  1.1688  1.4511 -0.3828
 5457TIP3    H216313   6.916   7.176   1.947  0.6874  0.8077 -0.3275
 5458TIP3   OH216314   4.140   5.772   1.032  0.2031 -0.1059 -0.4619
 5458TIP3    H116315   4.150   5.752   1.125 -2.6969 -1.2553 -0.3562
 5458TIP3    H216316   4.071   5.839   1.030  0.6184  0.2875 -1.7703
 5459TIP3   OH216317   3.567   5.104   0.792 -0.4300  0.4882  0.4016
 5459TIP3    H116318   3.630   5.165   0.830 -0.3615  0.2378  0.6911
 5459TIP3    H216319   3.529   5.152   0.718  1.2923  0.0295 -0.8056
 5460TIP3   OH216320   3.502   5.530   1.185 -0.3267 -0.0126 -0.4495
 5460TIP3    H116321   3.503   5.437   1.209 -0.7738  0.0799 -0.0568
 5460TIP3    H216322   3.557   5.535   1.107 -0.1553 -0.5794 -0.3713
 5461TIP3   OH216323   5.174   7.696   0.485  0.3263  0.2202  0.3208
 5461TIP3    H116324   5.102   7.727   0.539  1.1538 -0.6432  1.9330
 5461TIP3    H216325   5.252   7.740   0.520  0.9151 -0.5830  0.0294
 5462TIP3   OH216326   2.696   5.594   3.001  0.3823  0.6465 -0.1929
 5462TIP3    H116327   2.672   5.502   2.985  1.0355  0.5295 -0.5237
 5462TIP3    H216328   2.659   5.614   3.087  0.8289 -0.1397  0.1861
 5463TIP3   OH216329   1.278   7.429   4.471  0.0698 -0.0685  0.1096
 5463TIP3    H116330   1.306   7.463   4.557 -1.3656  0.1472  0.4978
 5463TIP3    H216331   1.357   7.389   4.435  0.5826 -0.5909  1.7457
 5464TIP3   OH216332   4.893   8.061   2.087  0.6227  0.0995 -0.3582
 5464TIP3    H116333   4.873   7.993   2.151 -0.2981  1.8354  1.2391
 5464TIP3    H216334   4.809   8.103   2.069  1.2265  1.0025 -1.1403
 5465TIP3   OH216335   2.689   2.806   5.988  0.2318  0.3662 -0.1028
 5465TIP3    H116336   2.604   2.812   6.032  0.0368 -1.1532 -0.2703
 5465TIP3    H216337   2.720   2.717   6.005  1.1899  0.4831 -1.1448
 5466TIP3   OH216338   3.190   6.377   1.496  0.0797  0.4693  0.2726
 5466TIP3    H116339   3.109   6.369   1.546 -0.8331 -0.1288 -1.2735
 5466TIP3    H216340   3.177   6.320   1.420  2.2354 -0.1881  0.3653
 5467TIP3   OH216341   3.391   5.709   1.369  0.5181 -0.0767  0.0863
 5467TIP3    H116342   3.414   5.619   1.345 -2.6057 -0.8079 -0.3257
 5467TIP3    H216343   3.434   5.763   1.302  0.5895 -1.4064 -0.9707
 5468TIP3   OH216344   5.359   0.291   4.143 -0.3546  0.3450  0.1623
 5468TIP3    H116345   5.274   0.306   4.184  0.2746  2.0634  0.8678
 5468TIP3    H216346   5.392   0.211   4.185 -0.5409  1.0466  1.6749
 5469TIP3   OH216347   4.584   6.915   3.056 -0.2710 -0.0008 -0.5337
 5469TIP3    H116348   4.583   6.842   2.994 -1.9118  0.7684 -1.4439
 5469TIP3    H216349   4.499   6.957   3.045  0.2230  1.3826  0.7813
 5470TIP3   OH216350   3.493   7.476   1.433 -0.0545  0.4058  0.1081
 5470TIP3    H116351   3.407   7.470   1.391  0.1507  1.9766 -0.5560
 5470TIP3    H216352   3.541   7.401   1.399 -1.1646 -0.5197  0.5279
 5471TIP3   OH216353   2.938   4.496   0.604 -0.2472  0.3385  0.2494
 5471TIP3    H116354   2.908   4.576   0.562 -0.1019 -0.0956 -0.7195
 5471TIP3    H216355   3.011   4.523   0.659  0.8566  0.6646 -1.3138
 5472TIP3   OH216356   3.310   4.567   0.388 -0.1506 -0.0271 -0.0808
 5472TIP3    H116357   3.298   4.630   0.459  3.4398  0.6984 -0.0301
 5472TIP3    H216358   3.283   4.615   0.309 -2.8953 -0.3979  0.5904
 5473TIP3   OH216359   4.368   0.086   0.310 -0.0410 -0.2724  0.5132
 5473TIP3    H116360   4.273   0.080   0.311  0.0433 -2.3327 -0.5099
 5473TIP3    H216361   4.392   0.075   0.218  1.2729 -2.0033  1.0153
 5474TIP3   OH216362   2.036   6.233   0.940  0.1864 -0.0338 -0.0522
 5474TIP3    H116363   2.096   6.228   0.865  1.4926  2.0290  0.8025
 5474TIP3    H216364   1.956   6.270   0.903  0.8752  1.1078 -0.4578
 5475TIP3   OH216365   0.639   3.704   4.591 -0.2852  0.3711  0.2692
 5475TIP3    H116366   0.577   3.722   4.662 -0.2859  1.5888 -0.0420
 5475TIP3    H216367   0.584   3.683   4.516 -0.3368  1.6874 -0.0711
 5476TIP3   OH216368   6.586   0.033   2.652  0.1359  0.3027 -0.1374
 5476TIP3    H116369   6.636   0.083   2.588 -0.7869 -0.0013 -1.0903
 5476TIP3    H216370   6.650  -0.030   2.687  1.1735  1.7841  0.7310
 5477TIP3   OH216371   1.958   6.222   0.330 -0.1467 -0.1809  0.4665
 5477TIP3    H116372   2.028   6.256   0.276  0.5000 -0.9692  0.7987
 5477TIP3    H216373   1.999   6.155   0.385 -0.2558  2.2408  3.6698
 5478TIP3   OH216374   2.592   5.425   1.166 -0.6799 -0.0773 -0.6545
 5478TIP3    H116375   2.647   5.371   1.108  1.0575  1.2495 -0.2963
 5478TIP3    H216376   2.649   5.498   1.192 -1.8623  0.0780  1.6540
 5479TIP3   OH216377   2.302   7.212   1.024 -0.1484 -0.0311 -0.2806
 5479TIP3    H116378   2.391   7.178   1.032 -0.0230  0.6556  1.3442
 5479TIP3    H216379   2.312   7.296   0.979  0.1887  0.7524  1.2424
 5480TIP3   OH216380   3.512   7.330   2.857  0.6498  0.1803 -0.1142
 5480TIP3    H116381   3.566   7.283   2.920 -0.4369  0.8193  1.3433
 5480TIP3    H216382   3.569   7.399   2.823  1.0436  0.2520  0.6800
 5481TIP3   OH216383   3.787   7.819   3.090 -0.1101 -0.1376  0.3598
 5481TIP3    H116384   3.870   7.866   3.091  0.9015 -1.9013  2.3698
 5481TIP3    H216385   3.755   7.824   3.180 -1.5024 -0.6434 -0.0917
 5482TIP3   OH216386   8.141   1.154   1.153  0.1896 -0.4810  0.4545
 5482TIP3    H116387   8.195   1.127   1.079 -1.6748 -1.7942 -0.4643
 5482TIP3    H216388   8.167   1.096   1.224 -0.3702 -1.4700 -0.1377
 5483TIP3   OH216389   7.385   0.149   0.475 -0.0528  0.0959  0.2287
 5483TIP3    H116390   7.358   0.110   0.558  1.3139  0.0986  0.7014
 5483TIP3    H216391   7.346   0.236   0.475  1.4058  0.7899  1.7314
 5484TIP3   OH216392   7.292   6.975   0.716 -0.0670 -0.8452 -0.7381
 5484TIP3    H116393   7.246   7.052   0.682  0.5382 -0.0135  0.3120
 5484TIP3    H216394   7.333   7.005   0.797 -2.4812 -3.0981  1.4285
 5485TIP3   OH216395   6.807   1.257   0.840  0.7355  0.4399 -0.1341
 5485TIP3    H116396   6.762   1.340   0.853 -3.2611 -1.6253  0.0950
 5485TIP3    H216397   6.781   1.228   0.753  1.5282 -0.8896  0.0468
 5486TIP3   OH216398   5.848   0.079   3.427 -0.4647  0.0209  0.6315
 5486TIP3    H116399   5.865  -0.015   3.425 -0.9018 -0.0419 -0.2036
 5486TIP3    H216400   5.804   0.094   3.510 -1.1281 -0.6395  0.3954
 5487TIP3   OH216401   7.706   1.051   0.633 -0.1204 -0.7310 -0.1168
 5487TIP3    H116402   7.621   1.092   0.651  0.0221 -0.4083 -0.1636
 5487TIP3    H216403   7.759   1.071   0.710 -0.4484 -1.9347  0.4234
 5488TIP3   OH216404   2.470   7.138   0.704 -0.1328  0.1764  0.4394
 5488TIP3    H116405   2.472   7.227   0.741  0.3243 -0.3800  1.7836
 5488TIP3    H216406   2.383   7.105   0.726  0.5346 -0.5605  2.0066
 5489TIP3   OH216407   5.203   8.058   0.616  0.2688  0.4783 -0.2675
 5489TIP3    H116408   5.288   8.024   0.644 -0.3537 -0.7075  0.2420
 5489TIP3    H216409   5.211   8.071   0.522  0.3687 -1.6111 -0.5735
 5490TIP3   OH216410   4.645   7.379   2.011  0.6270 -0.0578  0.7997
 5490TIP3    H116411   4.574   7.435   2.043  0.2864  0.1377 -0.2846
 5490TIP3    H216412   4.672   7.419   1.928  1.6226 -0.4544  0.9259
 5491TIP3   OH216413   5.754   6.680   2.397 -0.5056  0.2031  0.3605
 5491TIP3    H116414   5.733   6.708   2.308  0.2504  0.2713  0.2020
 5491TIP3    H216415   5.693   6.609   2.415  0.4900 -0.9631 -0.8496
 5492TIP3   OH216416   5.081   3.188   0.669 -0.0194  0.2832 -0.0821
 5492TIP3    H116417   5.090   3.141   0.751 -3.6230  0.1086  0.3107
 5492TIP3    H216418   5.091   3.281   0.692  3.0145  0.0252 -0.1848
 5493TIP3   OH216419   7.621   1.059   1.209 -0.2653  0.0750 -0.1740
 5493TIP3    H116420   7.645   1.018   1.292 -0.6507  0.0048 -0.0948
 5493TIP3    H216421   7.663   1.005   1.142  1.3961  1.0817  0.0463
 5494TIP3   OH216422   4.073   6.232   3.682 -0.0702  0.3876  0.1382
 5494TIP3    H116423   4.156   6.207   3.722  2.0136  3.4224 -2.0233
 5494TIP3    H216424   4.038   6.150   3.646  3.0105 -0.6285 -0.6677
 5495TIP3   OH216425   5.342   6.870   0.915 -0.0174 -0.1362 -0.5528
 5495TIP3    H116426   5.257   6.881   0.958 -0.3192  2.3301 -1.6947
 5495TIP3    H216427   5.320   6.849   0.824  0.5860  1.3592 -1.0514
 5496TIP3   OH216428   0.343   0.010   2.785  0.0632 -0.2973  0.1993
 5496TIP3    H116429   0.298   0.094   2.778 -1.1493 -0.8549  1.0230
 5496TIP3    H216430   0.421   0.029   2.838 -0.6244  0.1564  1.0634
 5497TIP3   OH216431   3.210   6.243   2.944 -0.0881 -0.0650  0.0951
 5497TIP3    H116432   3.175   6.155   2.936 -1.3964  0.4311  0.2957
 5497TIP3    H216433   3.159   6.296   2.884 -0.8827  1.0049  1.6735
 5498TIP3   OH216434   7.088   1.534   1.552 -0.8614 -0.3311 -0.0888
 5498TIP3    H116435   7.051   1.528   1.464  1.0629 -1.3762 -0.8454
 5498TIP3    H216436   7.080   1.627   1.575 -1.9692 -0.1649 -1.0880
 5499TIP3   OH216437   3.906   7.880   0.066 -0.4982 -0.5690  0.4850
 5499TIP3    H116438   3.966   7.865   0.138  1.0718  1.3290 -0.3656
 5499TIP3    H216439   3.820   7.863   0.102  0.3887 -1.2775  2.3274
 5500TIP3   OH216440   7.384   0.998   1.354  0.0406 -0.3415 -0.2486
 5500TIP3    H116441   7.436   1.024   1.277 -0.0327  0.3533 -0.0671
 5500TIP3    H216442   7.312   0.947   1.317 -1.0145  1.5161 -0.8409
 5501TIP3   OH216443   1.403   6.008   0.644  0.0123 -0.1262 -0.4071
 5501TIP3    H116444   1.368   6.097   0.649 -0.4289 -0.2369 -1.4503
 5501TIP3    H216445   1.339   5.955   0.691  0.3913  0.1268  0.4160
 5502TIP3   OH216446   7.782   0.130   0.366 -0.2579  0.3701  0.4005
 5502TIP3    H116447   7.828   0.160   0.288 -0.5448  1.6551  0.7158
 5502TIP3    H216448   7.849   0.084   0.417  0.4205  1.2728  0.3352
 5503TIP3   OH216449   5.827   1.666   0.023 -0.5176 -0.3574 -0.1141
 5503TIP3    H116450   5.883   1.600   0.064 -0.4340  0.7754  1.6610
 5503TIP3    H216451   5.754   1.616  -0.014  0.2423 -1.5676 -0.0035
 5504TIP3   OH216452   1.970   5.771   6.198  0.5056  0.2783  0.3942
 5504TIP3    H116453   2.010   5.848   6.239 -0.1966  0.6569  0.3708
 5504TIP3    H216454   2.002   5.774   6.107  2.2169 -0.6711  0.9426
 5505TIP3   OH216455   0.739   1.010   1.176  0.0595  0.2324  0.0031
 5505TIP3    H116456   0.702   0.938   1.227 -2.2821 -0.5503 -2.7026
 5505TIP3    H216457   0.786   0.966   1.104 -0.2956  1.3597 -0.9317
 5506TIP3   OH216458   6.513   7.324   0.037 -0.1359  0.1308 -0.3504
 5506TIP3    H116459   6.476   7.408   0.012  0.0898  0.4057  0.2343
 5506TIP3    H216460   6.582   7.308  -0.026 -0.9216 -0.1510 -1.1475
 5507TIP3   OH216461   7.943   0.537   2.212 -0.1929  0.0364  0.2543
 5507TIP3    H116462   8.011   0.470   2.205 -0.2564  0.0213 -0.1976
 5507TIP3    H216463   7.987   0.619   2.191  0.1592  0.2962  1.9344
 5508TIP3   OH216464   5.861   7.619   0.383 -0.0650 -0.4737  0.2394
 5508TIP3    H116465   5.779   7.664   0.363  0.8249  1.5071  0.9317
 5508TIP3    H216466   5.906   7.613   0.299 -1.7715 -3.3979 -0.5221
 5509TIP3   OH216467   3.950   3.252   5.561 -0.0024  0.1872 -0.0255
 5509TIP3    H116468   4.040   3.283   5.551  0.4666 -0.9178  0.6133
 5509TIP3    H216469   3.898   3.307   5.503  1.1717  0.4801 -0.7993
 5510TIP3   OH216470   6.089   5.809   2.108  0.1117  0.4447  0.1997
 5510TIP3    H116471   6.183   5.806   2.089 -0.2348 -0.8022 -1.4172
 5510TIP3    H216472   6.047   5.794   2.023 -1.5489  0.2687  1.0355
 5511TIP3   OH216473   3.657   6.858   0.841 -0.1018 -0.2669 -0.0601
 5511TIP3    H116474   3.734   6.829   0.791 -0.8804 -0.8038 -0.9564
 5511TIP3    H216475   3.669   6.952   0.851  0.5032 -0.2959 -0.4933
 5512TIP3   OH216476   6.087   1.609   1.094 -0.3861  0.4458  0.0513
 5512TIP3    H116477   6.156   1.567   1.145  0.3146  1.0875 -0.3415
 5512TIP3    H216478   6.079   1.696   1.134  0.0409  0.8838 -0.8102
 5513TIP3   OH216479   5.331   7.309   2.315  0.4580 -0.2271 -0.8842
 5513TIP3    H116480   5.405   7.274   2.265 -0.5080  0.3723 -2.7601
 5513TIP3    H216481   5.254   7.283   2.266 -0.4946  0.6993  0.0914
 5514TIP3   OH216482   6.716   0.705   2.940  0.2541  0.7646  0.9892
 5514TIP3    H116483   6.771   0.649   2.884 -0.7462 -0.3553  1.0979
 5514TIP3    H216484   6.695   0.781   2.885  0.1551  0.1761  0.1948
 5515TIP3   OH216485   6.744   0.387   1.571 -0.5110 -0.3036 -0.5163
 5515TIP3    H116486   6.825   0.418   1.610 -0.8399 -0.2276  0.1034
 5515TIP3    H216487   6.745   0.292   1.588 -0.6679 -0.2662 -0.3050
 5516TIP3   OH216488   4.849   7.469   1.812  0.1981  0.4506  0.1256
 5516TIP3    H116489   4.834   7.388   1.764 -0.4861  0.6889 -0.0719
 5516TIP3    H216490   4.916   7.516   1.761 -0.9128  0.9483 -0.8968
 5517TIP3   OH216491   5.208   6.448   1.299 -0.4360 -0.6140  0.4263
 5517TIP3    H116492   5.227   6.357   1.321  0.9510 -0.7124 -1.0562
 5517TIP3    H216493   5.126   6.444   1.251  0.8118 -1.4067 -1.7275
 5518TIP3   OH216494   8.131   0.669   0.070  0.3703 -0.7458  0.0906
 5518TIP3    H116495   8.061   0.689   0.008 -0.1469 -2.6251  0.0393
 5518TIP3    H216496   8.086   0.637   0.148  1.1376 -1.0580  0.4138
 5519TIP3   OH216497   3.800   6.706   3.289  0.0685 -0.2260  0.4926
 5519TIP3    H116498   3.793   6.756   3.208  0.6492 -1.1202 -0.1050
 5519TIP3    H216499   3.861   6.757   3.343  1.9661 -1.1287 -0.7515
 5520TIP3   OH216500   0.508   0.020   0.897  0.1203 -0.1778  0.1502
 5520TIP3    H116501   0.521  -0.028   0.979  0.9680  1.5560  1.0707
 5520TIP3    H216502   0.502   0.112   0.925  1.4331  0.5261 -1.8466
 5521TIP3   OH216503   5.435   7.684   1.302 -0.0720  0.0584  0.0425
 5521TIP3    H116504   5.476   7.771   1.303 -1.2220  0.6146  2.0505
 5521TIP3    H216505   5.361   7.693   1.242  0.4505  0.1675 -0.5843
 5522TIP3   OH216506   7.245   0.842   1.809  0.1251  0.1491 -0.0177
 5522TIP3    H116507   7.239   0.910   1.877  0.2965  1.3689 -1.1862
 5522TIP3    H216508   7.154   0.819   1.791  0.1502 -2.0994  2.4607
 5523TIP3   OH216509   6.306   0.730   0.659 -0.2828 -0.5083 -0.3111
 5523TIP3    H116510   6.250   0.681   0.599 -0.8455 -1.1340  0.7099
 5523TIP3    H216511   6.323   0.812   0.614 -0.5351 -1.0481 -1.4125
 5524TIP3   OH216512   7.380   0.353   2.661  0.0615 -0.8196 -0.1486
 5524TIP3    H116513   7.387   0.280   2.600 -0.1876  0.6501 -1.9697
 5524TIP3    H216514   7.414   0.428   2.612 -1.3702  0.6443  1.0528
 5525TIP3   OH216515   5.749   7.478   2.164  0.0042  0.3496  0.5403
 5525TIP3    H116516   5.753   7.573   2.168  1.0463  0.3727 -0.8106
 5525TIP3    H216517   5.831   7.452   2.123  0.2600 -1.2136  1.9788
 5526TIP3   OH216518   1.229   3.409   6.738  0.0662  0.2023  0.1672
 5526TIP3    H116519   1.151   3.388   6.688  0.2965 -0.1927 -0.0250
 5526TIP3    H216520   1.263   3.489   6.697  0.6077 -0.4687 -0.7200
 5527TIP3   OH216521   6.447   0.815   1.548 -0.0664  0.0392  0.3856
 5527TIP3    H116522   6.440   0.897   1.596  0.1161 -0.2454  0.9097
 5527TIP3    H216523   6.541   0.798   1.543 -0.1534 -1.1382  2.0411
 5528TIP3   OH216524   5.123   7.799   2.396 -0.2625  0.7833 -0.0257
 5528TIP3    H116525   5.044   7.781   2.445 -1.2434  0.1632 -1.8025
 5528TIP3    H216526   5.134   7.724   2.338  2.5797  0.0450  1.3954
 5529TIP3   OH216527   4.256   7.994   2.939 -0.4238  0.0506 -0.0437
 5529TIP3    H116528   4.307   7.945   2.875 -1.1834 -2.7455  1.4215
 5529TIP3    H216529   4.230   8.073   2.893  0.3208 -1.1925 -2.6849
 5530TIP3   OH216530   8.398   0.397   0.396  0.9644 -0.7512 -0.0530
 5530TIP3    H116531   8.391   0.355   0.482 -0.2068  0.0855  0.2816
 5530TIP3    H216532   8.491   0.418   0.387  0.9292  0.2327  1.5548
 5531TIP3   OH216533   3.377   7.639   0.014  0.0530  0.5087  0.1854
 5531TIP3    H116534   3.349   7.596   0.095 -0.2036 -1.3430 -0.8791
 5531TIP3    H216535   3.300   7.637  -0.043  0.2531  1.7527 -0.1633
 5532TIP3   OH216536   6.368   0.169   1.924 -0.3020  0.4440 -0.0752
 5532TIP3    H116537   6.276   0.143   1.917 -0.0346 -0.6597  0.4904
 5532TIP3    H216538   6.365   0.259   1.956 -1.1752  0.2536  0.3810
 5533TIP3   OH216539   0.833   3.184   6.347  0.0137  0.0239  0.2428
 5533TIP3    H116540   0.851   3.149   6.435 -1.2606  0.5995  0.7421
 5533TIP3    H216541   0.879   3.124   6.288  1.2410 -0.1306  1.3142
 5534TIP3   OH216542   4.786   5.413   1.052  0.7193 -0.6431  0.0815
 5534TIP3    H116543   4.805   5.419   1.145  1.5288  1.7818 -0.1850
 5534TIP3    H216544   4.862   5.368   1.015  0.8416 -0.7610  0.4747
 5535TIP3   OH216545   4.724   7.012   1.984 -0.3542 -0.3635  0.2456
 5535TIP3    H116546   4.752   7.003   1.893 -2.4698  0.0554 -0.4707
 5535TIP3    H216547   4.773   7.087   2.017  0.1047 -0.2630 -0.6600
 5536TIP3   OH216548   4.574   7.213   2.533 -0.0704  0.5187 -0.3457
 5536TIP3    H116549   4.635   7.140   2.520 -1.0730 -0.7449  1.8448
 5536TIP3    H216550   4.488   7.177   2.510 -0.4826  1.2471  0.0268
 5537TIP3   OH216551   4.136   4.677   2.931  0.2837  0.3832 -0.7333
 5537TIP3    H116552   4.095   4.671   3.017  0.1791 -1.1299 -0.8731
 5537TIP3    H216553   4.072   4.637   2.871  1.4202 -0.8790 -1.1306
 5538TIP3   OH216554   2.901   6.877   0.696  0.0094  0.3406 -0.2983
 5538TIP3    H116555   2.984   6.923   0.708 -1.1472  2.7809 -1.3796
 5538TIP3    H216556   2.863   6.872   0.784  0.4724  0.8152 -0.0736
 5539TIP3   OH216557   7.317   0.354   1.246 -0.2298  0.3008  0.7941
 5539TIP3    H116558   7.379   0.307   1.189 -0.5403  0.0626  0.6499
 5539TIP3    H216559   7.354   0.345   1.334 -0.3322 -0.2916  0.7788
 5540TIP3   OH216560   4.952   4.885   0.715  0.4366  0.2611 -0.6667
 5540TIP3    H116561   4.899   4.870   0.637  0.0219 -2.7895  0.1339
 5540TIP3    H216562   4.905   4.841   0.785  2.5300  0.0383  0.6458
 5541TIP3   OH216563   7.680   3.103   5.823 -0.6157 -0.1334 -0.0072
 5541TIP3    H116564   7.761   3.069   5.859 -0.6282  0.1256  0.2610
 5541TIP3    H216565   7.706   3.181   5.774 -0.5479 -0.6804 -0.8666
 5542TIP3   OH216566   4.035   6.978   1.286  0.4333 -0.1508  0.0581
 5542TIP3    H116567   4.025   6.956   1.193  0.8754 -0.9568  0.1977
 5542TIP3    H216568   3.970   7.046   1.302 -2.1056 -2.4736 -0.0026
 5543TIP3   OH216569   3.288   2.243   6.770 -0.7292  0.1986  0.7914
 5543TIP3    H116570   3.294   2.254   6.865 -1.1343 -0.0550  0.8470
 5543TIP3    H216571   3.360   2.184   6.748  0.0076  1.0717  0.8013
 5544TIP3   OH216572   4.658   6.640   2.472 -0.0127 -0.1365  0.0921
 5544TIP3    H116573   4.683   6.639   2.564  1.1049  0.1091 -0.2002
 5544TIP3    H216574   4.614   6.723   2.459 -0.6082 -0.3826  0.5145
 5545TIP3   OH216575   1.357   4.780   6.382 -0.7456  0.0843  0.1669
 5545TIP3    H116576   1.388   4.733   6.460  0.1450  0.1022 -0.1694
 5545TIP3    H216577   1.372   4.719   6.310 -0.1805  0.6287 -0.1839
 5546TIP3   OH216578   5.887   0.189   0.306  0.3913 -0.2605 -0.1084
 5546TIP3    H116579   5.882   0.243   0.385 -0.0758 -0.2535 -0.1381
 5546TIP3    H216580   5.943   0.115   0.331 -0.4085 -0.6841  0.4887
 5547TIP3   OH216581   5.272   7.619   0.229  0.7021  0.8201  0.1706
 5547TIP3    H116582   5.283   7.705   0.188 -0.9150 -0.1031 -2.3883
 5547TIP3    H216583   5.209   7.635   0.299  3.6297  2.4735  2.5165
 5548TIP3   OH216584   6.843   0.754   2.091  0.2531 -0.2391  0.2427
 5548TIP3    H116585   6.828   0.846   2.112 -1.8315 -0.2985 -0.7657
 5548TIP3    H216586   6.834   0.708   2.174  2.0714  0.5270  0.8829
 5549TIP3   OH216587   7.263   1.218  -0.002  0.3621  0.0145  0.2025
 5549TIP3    H116588   7.174   1.255  -0.001  0.3501  0.0017 -0.1657
 5549TIP3    H216589   7.315   1.280   0.049  0.3985  0.6927 -0.6244
 5550TIP3   OH216590   8.346   0.883   0.109  0.0196  0.0316  0.1536
 5550TIP3    H116591   8.332   0.956   0.169  0.3434 -0.5362  0.9391
 5550TIP3    H216592   8.376   0.923   0.028  2.0412  0.6450  1.1867
 5551TIP3   OH216593   0.051   4.104   5.920 -0.0225  0.1915  0.4265
 5551TIP3    H116594   0.068   4.185   5.969 -0.9764  1.7710 -1.7821
 5551TIP3    H216595  -0.040   4.112   5.892 -0.4121 -2.1099  0.9772
 5552TIP3   OH216596   7.279   0.646   5.594 -0.1362 -0.3442 -0.6006
 5552TIP3    H116597   7.218   0.575   5.610  0.1679 -0.4626  0.0773
 5552TIP3    H216598   7.358   0.604   5.560 -0.0632 -0.3020 -0.4865
 5553TIP3   OH216599   7.845   0.313   1.410  0.2892 -0.2389 -0.7037
 5553TIP3    H116600   7.877   0.306   1.500  0.2953 -0.2218 -0.7047
 5553TIP3    H216601   7.842   0.222   1.379 -0.6818 -0.3218 -0.3581
 5554TIP3   OH216602   6.168   7.236   2.266  0.1632 -0.1797 -0.2334
 5554TIP3    H116603   6.261   7.217   2.254  0.6462  1.2856  0.9532
 5554TIP3    H216604   6.158   7.246   2.361 -1.1173  0.0753 -0.3935
 5555TIP3   OH216605   0.841   2.213   3.763 -0.3177  0.4379  0.3318
 5555TIP3    H116606   0.797   2.202   3.679 -1.2867 -0.6242  0.9700
 5555TIP3    H216607   0.771   2.231   3.826 -0.0211 -2.4429  1.5684
 5556TIP3   OH216608   1.084   3.250   2.456 -0.0976  0.1858  0.2607
 5556TIP3    H116609   0.995   3.214   2.459  0.5578 -1.5355 -0.5807
 5556TIP3    H216610   1.092   3.287   2.368  0.7883 -1.7643 -0.5217
 5557TIP3   OH216611   7.105   0.262   2.111  0.0023 -0.4980  0.0375
 5557TIP3    H116612   7.177   0.315   2.078  1.0634 -0.2600  2.6588
 5557TIP3    H216613   7.138   0.173   2.111 -0.7495 -0.8050 -1.5042
 5558TIP3   OH216614   7.164   1.272   1.627  0.1122  0.3537  0.6271
 5558TIP3    H116615   7.093   1.229   1.580 -0.3259  0.1614  1.4682
 5558TIP3    H216616   7.144   1.365   1.619 -0.3558  0.2904  1.0600
 5559TIP3   OH216617   6.744   1.326   0.300  0.1423 -0.0893 -0.2427
 5559TIP3    H116618   6.695   1.394   0.255  1.4885 -0.2154 -1.9220
 5559TIP3    H216619   6.720   1.245   0.254  0.3994 -0.4330  0.2195
 5560TIP3   OH216620   8.160   0.285   1.752  0.2396 -0.1420  0.3785
 5560TIP3    H116621   8.150   0.226   1.677  1.2559 -1.0134  0.9140
 5560TIP3    H216622   8.073   0.287   1.792 -0.3556  0.4685 -0.9102
 5561TIP3   OH216623   7.275   2.850   0.883 -0.0679 -0.6968 -0.0123
 5561TIP3    H116624   7.185   2.878   0.896  0.0138 -0.2455 -0.4287
 5561TIP3    H216625   7.269   2.754   0.877 -0.7229 -0.5704 -1.6285
 5562TIP3   OH216626   5.841   1.152   0.568 -0.4426 -0.2422 -1.1817
 5562TIP3    H116627   5.896   1.230   0.572 -0.0631 -0.6101  2.2050
 5562TIP3    H216628   5.769   1.169   0.628 -0.2578 -2.5379 -0.2438
 5563TIP3   OH216629   2.652   6.434   2.011  0.1806  0.1038 -0.3540
 5563TIP3    H116630   2.742   6.419   2.038  1.2267  4.2650 -1.0898
 5563TIP3    H216631   2.602   6.433   2.092  1.1940 -0.4553  0.2658
 5564TIP3   OH216632   5.103   7.636   4.825  0.0187  0.3361  0.3010
 5564TIP3    H116633   5.191   7.626   4.861  0.2993  2.4346  0.2839
 5564TIP3    H216634   5.109   7.603   4.736  0.8483  0.7095  0.2205
 5565TIP3   OH216635   1.813   3.425   6.150  0.0555  0.0777  0.2902
 5565TIP3    H116636   1.831   3.500   6.206  2.9256  0.6591 -1.3339
 5565TIP3    H216637   1.759   3.460   6.079 -0.0174  0.2286  0.4193
 5566TIP3   OH216638   7.839   0.037   1.348  0.5839  0.0485 -1.1728
 5566TIP3    H116639   7.803  -0.002   1.268  1.6898 -1.0031 -1.1785
 5566TIP3    H216640   7.932   0.048   1.329  1.0389 -1.0899  0.2913
 5567TIP3   OH216641   6.385   5.320   1.654 -0.0604 -0.9840 -0.1229
 5567TIP3    H116642   6.474   5.288   1.647 -0.6044 -2.8266  1.1515
 5567TIP3    H216643   6.386   5.377   1.731 -0.2657 -2.0683  0.6999
 5568TIP3   OH216644   5.225   7.195   1.152  0.0789  0.2458 -0.0677
 5568TIP3    H116645   5.265   7.268   1.104  0.3149  0.4425  0.4226
 5568TIP3    H216646   5.298   7.154   1.199 -0.0391 -0.3637 -0.4127
 5569TIP3   OH216647   1.335   0.194   1.695 -0.0324 -0.1984  0.7767
 5569TIP3    H116648   1.305   0.285   1.684  0.3884 -0.3575 -2.1521
 5569TIP3    H216649   1.415   0.202   1.746  0.8241  1.2703 -0.7215
 5570TIP3   OH216650   6.745   1.444   2.707 -0.0810  0.3266 -0.3077
 5570TIP3    H116651   6.795   1.379   2.756 -1.4252  0.6878  1.5709
 5570TIP3    H216652   6.660   1.403   2.691  0.2663  0.2700 -2.2492
 5571TIP3   OH216653   8.161   0.633   2.470 -0.6945 -0.2439  0.3535
 5571TIP3    H116654   8.186   0.543   2.448 -0.7933 -0.1735 -0.0391
 5571TIP3    H216655   8.233   0.665   2.524 -1.1297 -0.9002  1.3502
 5572TIP3   OH216656   7.700   2.345   1.284 -0.3801  0.3619 -0.5863
 5572TIP3    H116657   7.630   2.405   1.258 -0.5598  1.9875  3.3445
 5572TIP3    H216658   7.769   2.358   1.219 -0.4955  4.7188  0.0377
 5573TIP3   OH216659   5.527   5.495   0.367 -0.1519  0.1393 -0.3588
 5573TIP3    H116660   5.548   5.575   0.415  0.3160 -1.3015  1.8920
 5573TIP3    H216661   5.550   5.515   0.276  0.4385  2.3766  0.2562
 5574TIP3   OH216662   4.862   8.078   3.039  0.0688  0.4602 -0.3159
 5574TIP3    H116663   4.829   8.128   2.965 -1.0833 -1.7545 -1.3604
 5574TIP3    H216664   4.784   8.045   3.084  0.7570 -2.0833 -0.8698
 5575TIP3   OH216665   8.197   0.952   1.620 -0.1662  0.2252 -0.3566
 5575TIP3    H116666   8.152   1.035   1.605 -1.4984  0.1418  2.6784
 5575TIP3    H216667   8.266   0.974   1.683  0.5530 -0.6749 -0.8274
 5576TIP3   OH216668   5.255   7.088   3.725  0.2534  0.2504 -0.0689
 5576TIP3    H116669   5.237   7.101   3.632 -1.7295  0.1257  0.2665
 5576TIP3    H216670   5.308   7.008   3.728  0.9483  0.6573 -1.1305
 5577TIP3   OH216671   4.476   6.869   1.511  0.4284 -0.3191 -0.2320
 5577TIP3    H116672   4.447   6.956   1.540 -0.8679 -0.9839  0.5354
 5577TIP3    H216673   4.546   6.846   1.572  0.6551  0.1194 -0.3261
 5578TIP3   OH216674   7.971   0.545   1.301 -0.6811  0.0927  0.4239
 5578TIP3    H116675   7.915   0.468   1.309 -0.3221 -0.2342 -0.1014
 5578TIP3    H216676   7.912   0.616   1.276 -0.8439 -0.2766 -0.2623
 5579TIP3   OH216677   6.662   0.235   3.419 -0.0929 -0.4346  0.2402
 5579TIP3    H116678   6.692   0.245   3.510 -0.4283 -0.7880  0.3936
 5579TIP3    H216679   6.739   0.256   3.366 -0.3913  1.5295  0.5613
 5580TIP3   OH216680   6.991   0.651   1.586 -0.2965 -0.3018  0.1633
 5580TIP3    H116681   7.042   0.572   1.567  0.2126  0.0335  0.1544
 5580TIP3    H216682   7.000   0.663   1.681 -3.1770 -2.2173  0.7485
 5581TIP3   OH216683   7.516   0.196   1.134  0.1408 -0.3946  0.7824
 5581TIP3    H116684   7.590   0.245   1.098 -1.0984  1.0322  0.1095
 5581TIP3    H216685   7.513   0.116   1.082 -0.9614  1.1538 -1.6739
 5582TIP3   OH216686   0.541   0.298   3.835  0.3947  0.5260  0.2274
 5582TIP3    H116687   0.453   0.293   3.874  0.7708 -1.0872  0.9250
 5582TIP3    H216688   0.526   0.288   3.741 -0.0162 -2.0972  0.5315
 5583TIP3   OH216689   6.595   0.782   2.304 -0.6391  0.4113 -0.5068
 5583TIP3    H116690   6.502   0.795   2.322 -0.5798  0.4679 -0.2368
 5583TIP3    H216691   6.600   0.698   2.259 -0.5655 -0.7616  1.6326
 5584TIP3   OH216692   1.105   6.560   6.957 -0.1882  0.1698 -0.4317
 5584TIP3    H116693   1.149   6.573   7.041 -1.4450 -0.7725  0.4044
 5584TIP3    H216694   1.048   6.636   6.948 -0.7505 -0.1872  0.0404
 5585TIP3   OH216695   0.465   0.700   1.788  0.0748 -0.5126 -0.1847
 5585TIP3    H116696   0.391   0.735   1.837  1.0325 -0.1437  1.0201
 5585TIP3    H216697   0.433   0.618   1.750 -0.5276 -1.0502  1.4590
 5586TIP3   OH216698   4.851   7.514   1.254 -0.6926 -0.2180  0.0936
 5586TIP3    H116699   4.910   7.487   1.184  0.3888  1.0317  0.5051
 5586TIP3    H216700   4.876   7.461   1.329 -2.8198 -2.6208 -0.8143
 5587TIP3   OH216701   5.843   7.169   2.652 -0.4453  0.2243  0.0083
 5587TIP3    H116702   5.807   7.223   2.582 -0.5522 -0.3437 -0.3771
 5587TIP3    H216703   5.801   7.084   2.641  1.4612 -0.6407 -0.8298
 5588TIP3   OH216704   5.136   6.953   1.070  0.2732 -0.0636 -0.6140
 5588TIP3    H116705   5.072   6.967   1.000 -0.2346  0.5505 -0.0421
 5588TIP3    H216706   5.164   7.042   1.094  0.4224 -0.2695 -0.0212
 5589TIP3   OH216707   6.171   0.620   0.428  0.0936  0.0852  0.2099
 5589TIP3    H116708   6.261   0.587   0.434  0.1260  0.1658  0.1697
 5589TIP3    H216709   6.178   0.699   0.375 -0.0783 -0.1913 -0.2238
 5590TIP3   OH216710   7.209   6.603   3.843 -0.2622 -0.3084  0.0440
 5590TIP3    H116711   7.170   6.537   3.786 -1.9666  0.5531  0.1818
 5590TIP3    H216712   7.149   6.677   3.839  1.7979  1.3811 -0.3859
 5591TIP3   OH216713   6.817   7.990   2.345  0.3403 -0.7481 -0.1469
 5591TIP3    H116714   6.759   8.055   2.384 -1.1503 -2.2820  0.2916
 5591TIP3    H216715   6.852   7.941   2.419 -1.1598 -2.5720 -0.6128
 5592TIP3   OH216716   4.191   6.855   3.149  0.0970 -0.2784  0.7781
 5592TIP3    H116717   4.206   6.806   3.068  0.0519  3.2128 -1.4905
 5592TIP3    H216718   4.100   6.885   3.142  0.3972  0.8568  1.6402
 5593TIP3   OH216719   4.063   5.042   1.881 -0.0512  0.5257 -0.4309
 5593TIP3    H116720   4.121   5.000   1.944 -1.2213  0.2605  0.4835
 5593TIP3    H216721   4.032   5.121   1.925  1.0326  1.6245 -1.6059
 5594TIP3   OH216722   7.789   1.103   2.686 -0.4381  0.3290  0.8150
 5594TIP3    H116723   7.814   1.188   2.648  0.6490 -0.0181  0.7348
 5594TIP3    H216724   7.780   1.121   2.779 -2.0235  0.9356  0.5627
 5595TIP3   OH216725   0.681   0.508   0.761 -0.1547 -0.1973  0.4154
 5595TIP3    H116726   0.771   0.538   0.747 -0.2093 -1.1535 -2.3068
 5595TIP3    H216727   0.644   0.572   0.822  1.5594  1.7955 -0.5513
 5596TIP3   OH216728   0.862   0.754   2.151 -0.0825 -0.0613 -0.8058
 5596TIP3    H116729   0.862   0.769   2.245  0.5397  0.0910 -0.8314
 5596TIP3    H216730   0.785   0.801   2.119  0.2218  0.6511 -0.4968
 5597TIP3   OH216731   6.680   6.744   3.605 -0.7602  0.2681 -0.5546
 5597TIP3    H116732   6.767   6.760   3.568 -1.8844  1.1487 -2.9189
 5597TIP3    H216733   6.693   6.748   3.700  2.2602 -2.1678 -0.7572
 5598TIP3   OH216734   4.678   7.413   0.593  0.6483  0.1345  0.1895
 5598TIP3    H116735   4.706   7.453   0.675  3.2850  1.5229 -1.3070
 5598TIP3    H216736   4.679   7.319   0.612  2.9945  0.3182  1.2908
 5599TIP3   OH216737   5.216   6.718   2.363 -0.1661 -0.5665 -0.0203
 5599TIP3    H116738   5.290   6.717   2.303  0.6328  1.7941  0.8619
 5599TIP3    H216739   5.189   6.627   2.370  1.3125 -1.1833 -1.9946
 5600TIP3   OH216740   6.497   7.553   1.468  0.5280  0.4481  0.1237
 5600TIP3    H116741   6.495   7.608   1.546  0.2516  0.8830 -0.1862
 5600TIP3    H216742   6.419   7.578   1.419 -0.9584 -1.9904  1.1653
 5601TIP3   OH216743   5.730   7.848   0.816  0.0173 -0.0838  0.1766
 5601TIP3    H116744   5.799   7.910   0.842 -0.8210  0.3096  1.5366
 5601TIP3    H216745   5.774   7.787   0.757  1.0119  1.4461 -0.7312
 5602TIP3   OH216746   7.848   0.321   4.108  0.2066  0.8637  0.6416
 5602TIP3    H116747   7.830   0.404   4.064  0.8414  0.8654  0.3839
 5602TIP3    H216748   7.825   0.338   4.200 -1.0563  0.8740  0.3324
 5603TIP3   OH216749   7.848   1.068   1.666 -0.1321 -0.4628  0.2324
 5603TIP3    H116750   7.919   1.122   1.632 -0.7921 -0.6737 -1.5396
 5603TIP3    H216751   7.788   1.129   1.709 -0.0461 -0.0023 -0.3059
 5604TIP3   OH216752   5.343   6.009   2.078 -0.0772 -0.9563  0.2706
 5604TIP3    H116753   5.408   5.994   2.146  0.0278 -1.6882  0.0157
 5604TIP3    H216754   5.323   5.922   2.044 -2.4744 -0.9325  1.5081
 5605TIP3   OH216755   4.654   6.333   0.477 -0.1261  0.0835 -0.0118
 5605TIP3    H116756   4.732   6.376   0.511 -0.5748 -0.4662  1.7475
 5605TIP3    H216757   4.687   6.273   0.409  0.9345  0.1329  0.4505
 5606TIP3   OH216758   3.050   7.135   1.283  0.1089  0.2439  0.4715
 5606TIP3    H116759   3.132   7.087   1.288 -0.3442 -0.7128 -0.9529
 5606TIP3    H216760   3.013   7.129   1.371  0.7358 -0.8256  0.6733
 5607TIP3   OH216761   2.762   6.800   0.920 -0.2498  0.2836 -0.2144
 5607TIP3    H116762   2.673   6.793   0.888 -0.6456  2.1096  0.4177
 5607TIP3    H216763   2.778   6.894   0.927  2.4176  0.0372 -2.2388
 5608TIP3   OH216764   6.963   0.114   1.454 -0.1017 -0.0817 -0.0253
 5608TIP3    H116765   6.939   0.153   1.537 -1.1073 -1.6530  0.4368
 5608TIP3    H216766   7.059   0.110   1.457 -0.1280 -0.1087  1.0509
 5609TIP3   OH216767   6.210   3.524   0.935 -0.3217  0.1141  1.3094
 5609TIP3    H116768   6.260   3.447   0.908  2.6068  1.5132  2.4179
 5609TIP3    H216769   6.260   3.598   0.900 -1.7963  1.5734  2.2081
 5610TIP3   OH216770   6.175   0.195   2.236 -0.0982  0.1546 -0.2069
 5610TIP3    H116771   6.231   0.122   2.210  2.6298  2.0900  0.0802
 5610TIP3    H216772   6.211   0.225   2.319 -3.2197 -0.2081  1.3651
 5611TIP3   OH216773   4.087   8.058   3.673  0.5680 -0.2236 -0.0342
 5611TIP3    H116774   4.112   8.129   3.613 -0.3070  0.4430  0.3953
 5611TIP3    H216775   4.011   8.091   3.720 -0.6157 -1.9397 -0.7138
 5612TIP3   OH216776   5.140   7.121   0.827  0.3149  0.3451 -0.5702
 5612TIP3    H116777   5.170   7.136   0.737  1.6348 -0.9273 -0.3572
 5612TIP3    H216778   5.220   7.122   0.879 -0.3592  0.1528  0.4731
 5613TIP3   OH216779   4.142   7.639   3.444  0.5858 -0.1749  0.1109
 5613TIP3    H116780   4.194   7.701   3.495 -0.6656 -1.0062  2.4245
 5613TIP3    H216781   4.092   7.590   3.508  0.9426 -3.0632 -1.7439
 5614TIP3   OH216782   5.018   7.466   1.027 -0.2659 -0.0223 -0.8573
 5614TIP3    H116783   5.108   7.434   1.034 -0.1522 -0.0686 -2.3035
 5614TIP3    H216784   5.018   7.517   0.946 -1.1002  1.4778  0.0752
 5615TIP3   OH216785   5.829   6.304   1.008  0.7980  0.3296 -0.4868
 5615TIP3    H116786   5.864   6.240   1.070 -0.2830 -0.9155 -1.1218
 5615TIP3    H216787   5.739   6.274   0.992  0.0628  2.3696 -0.3224
 5616TIP3   OH216788   2.601   5.317   1.409 -0.5238 -0.1280  0.3819
 5616TIP3    H116789   2.518   5.281   1.438  0.2995 -2.0867  0.3668
 5616TIP3    H216790   2.579   5.371   1.333 -2.0560  1.2092  1.7411
 5617TIP3   OH216791   5.301   4.706   0.228 -0.1596 -0.1734  0.3764
 5617TIP3    H116792   5.232   4.729   0.166  0.4371  1.5261  0.3248
 5617TIP3    H216793   5.261   4.719   0.314 -0.8273 -2.0496  0.3738
 5618TIP3   OH216794   5.218   4.714   0.505  0.6150 -0.9913 -0.1178
 5618TIP3    H116795   5.269   4.790   0.531  0.3840  0.0392 -2.5358
 5618TIP3    H216796   5.128   4.746   0.501  0.0642 -2.1849  1.7788
 5619TIP3   OH216797   8.321   0.043   1.974  0.4735 -0.4368 -0.2677
 5619TIP3    H116798   8.283   0.037   2.062  2.5084 -0.6158  0.6405
 5619TIP3    H216799   8.289   0.125   1.939 -0.0878 -0.2020  0.7859
 5620TIP3   OH216800   4.787   7.851   1.658 -0.3597 -0.0236 -0.4043
 5620TIP3    H116801   4.742   7.884   1.735  0.1502  2.6729 -1.2029
 5620TIP3    H216802   4.873   7.824   1.690 -0.6168 -0.1509  0.1891
 5621TIP3   OH216803   6.070   5.796   1.145  0.0846  0.8208 -0.0351
 5621TIP3    H116804   5.980   5.788   1.114 -0.7295  0.6568  2.2739
 5621TIP3    H216805   6.108   5.709   1.131  0.1968  1.1444 -1.8681
 5622TIP3   OH216806   3.926   1.438   6.584  0.0069 -0.5017  0.5455
 5622TIP3    H116807   3.868   1.374   6.543  0.1590  0.8775 -1.8928
 5622TIP3    H216808   3.975   1.388   6.650 -1.4515 -2.3965  0.2257
 5623TIP3   OH216809   4.819   7.507   2.612  0.7955  0.3085 -0.9685
 5623TIP3    H116810   4.894   7.448   2.607  1.4282  0.9403  0.7838
 5623TIP3    H216811   4.768   7.475   2.686 -0.0090  0.6398 -1.3771
 5624TIP3   OH216812   7.159   1.023   2.015  0.4160  0.1627 -1.0282
 5624TIP3    H116813   7.202   1.100   1.978 -0.9790  0.7206 -1.5424
 5624TIP3    H216814   7.149   1.043   2.108  1.0184  0.1426 -0.9589
 5625TIP3   OH216815   3.508   6.927   2.684 -0.6407  0.1689  0.4707
 5625TIP3    H116816   3.447   6.914   2.612 -2.7345  2.0178  1.8388
 5625TIP3    H216817   3.466   6.888   2.760  0.6787 -0.0948  1.0886
 5626TIP3   OH216818   2.403   2.409   1.661  0.0789 -0.5064  0.0463
 5626TIP3    H116819   2.465   2.344   1.692 -1.8410 -2.3731  0.1128
 5626TIP3    H216820   2.391   2.389   1.568 -0.4036 -0.1478  0.0245
 5627TIP3   OH216821   7.655   0.296   2.423  0.1062  0.3538 -0.2841
 5627TIP3    H116822   7.660   0.323   2.331  1.8502 -0.3149 -0.4203
 5627TIP3    H216823   7.701   0.365   2.470  0.4668 -0.0212 -0.0877
 5628TIP3   OH216824   4.393   2.827   6.166  0.3605 -0.0355 -0.2161
 5628TIP3    H116825   4.310   2.804   6.124  0.0657  0.1693  0.2587
 5628TIP3    H216826   4.397   2.922   6.161  1.2219 -0.1189 -1.4883
 5629TIP3   OH216827   7.601   1.611   0.771  0.6554 -0.4513  0.2476
 5629TIP3    H116828   7.638   1.523   0.764  1.8315 -0.0147  0.9280
 5629TIP3    H216829   7.549   1.609   0.852 -0.4316 -0.9058 -0.4377
 5630TIP3   OH216830   6.754   6.445   0.809 -0.0307  0.1388  0.2487
 5630TIP3    H116831   6.672   6.396   0.813 -0.2684  0.5011 -0.1643
 5630TIP3    H216832   6.784   6.449   0.900  0.9165 -2.3254  0.0957
 5631TIP3   OH216833   7.031   0.758   0.379  0.1722 -0.1791 -0.3087
 5631TIP3    H116834   7.056   0.685   0.322 -0.3830  0.3940 -1.3047
 5631TIP3    H216835   7.108   0.773   0.434  0.2587 -1.5598 -0.0401
 5632TIP3   OH216836   8.444   2.015   1.230 -0.1057 -0.4220  0.2613
 5632TIP3    H116837   8.499   2.093   1.227 -0.1152 -0.4554 -1.0454
 5632TIP3    H216838   8.485   1.959   1.295 -0.2830  0.8095  1.4600
 5633TIP3   OH216839   7.814   1.855   3.276  0.3566  0.1180 -0.7489
 5633TIP3    H116840   7.838   1.929   3.220 -0.3255  1.0860  0.2019
 5633TIP3    H216841   7.795   1.895   3.361 -0.8215 -1.0586 -0.4415
 5634TIP3   OH216842   6.549   7.390   2.862 -0.3832 -0.2071 -0.0882
 5634TIP3    H116843   6.488   7.428   2.925  0.0218 -0.5470  0.5156
 5634TIP3    H216844   6.505   7.310   2.833  0.3648 -1.1733  1.3766
 5635TIP3   OH216845   7.198   6.952   0.332  0.2658 -0.7722  0.3208
 5635TIP3    H116846   7.204   7.033   0.382  0.0035 -0.7710  0.3477
 5635TIP3    H216847   7.187   6.980   0.241  1.6371 -0.7622  0.1407
 5636TIP3   OH216848   7.723   8.018   2.527 -0.1337 -0.0878 -0.0434
 5636TIP3    H116849   7.723   8.071   2.447 -3.1861  1.1407  0.7114
 5636TIP3    H216850   7.705   8.081   2.597  2.9436 -1.0619  1.7453
 5637TIP3   OH216851   0.728   1.002   2.630  0.0495  0.6065 -0.2595
 5637TIP3    H116852   0.765   1.079   2.672 -1.2755  0.8735  0.4634
 5637TIP3    H216853   0.730   0.934   2.698 -0.3298  0.4887 -0.3608
 5638TIP3   OH216854   0.116   5.915   1.540  0.2352  0.1891  0.2355
 5638TIP3    H116855   0.043   5.913   1.603  0.9881 -0.8772  1.0876
 5638TIP3    H216856   0.106   5.999   1.495  0.2703  1.4505  2.4959
 5639TIP3   OH216857   8.067   0.711   0.479 -0.3426 -0.1371  0.1794
 5639TIP3    H116858   8.068   0.782   0.415  0.6911  1.6255  2.0550
 5639TIP3    H216859   7.993   0.732   0.537  0.5323 -0.0565  1.2864
 5640TIP3   OH216860   5.424   8.007   2.732  0.8307 -0.1820  0.3812
 5640TIP3    H116861   5.341   7.969   2.702  1.0072 -1.1519  1.1154
 5640TIP3    H216862   5.398   8.093   2.768  0.2908 -0.0449 -0.3170
 5641TIP3   OH216863   8.490   0.699   0.963  0.0423  0.0781 -0.2565
 5641TIP3    H116864   8.417   0.721   0.906  0.2589 -0.5014 -0.7654
 5641TIP3    H216865   8.459   0.721   1.051 -0.6203  0.1394 -0.5008
 5642TIP3   OH216866   5.983   6.933   3.559 -0.4016  0.1573 -0.1873
 5642TIP3    H116867   6.021   6.884   3.633 -0.3969 -0.7716 -0.8008
 5642TIP3    H216868   5.975   7.023   3.592  0.5109 -0.0419  0.6195
 5643TIP3   OH216869   6.927   7.632   3.983 -0.1125  0.2941 -0.5930
 5643TIP3    H116870   6.931   7.639   4.079 -0.4179 -0.5906 -0.5119
 5643TIP3    H216871   6.962   7.545   3.964 -0.4468  0.3045 -1.2593
 5644TIP3   OH216872   5.866   7.330   0.164  0.2971  0.4405  0.1619
 5644TIP3    H116873   5.881   7.283   0.082 -3.0255 -1.4428  0.5502
 5644TIP3    H216874   5.934   7.298   0.222 -0.3071 -2.0005 -0.4016
 5645TIP3   OH216875   1.611   0.397   1.919  0.3695 -0.1828 -0.0024
 5645TIP3    H116876   1.565   0.473   1.884 -0.4020  0.3998  2.1721
 5645TIP3    H216877   1.567   0.322   1.878 -1.1786  0.4370  0.4926
 5646TIP3   OH216878   7.403   6.247   1.164  0.3889 -0.4847 -0.3285
 5646TIP3    H116879   7.340   6.258   1.092 -1.3859  0.5813  1.3316
 5646TIP3    H216880   7.451   6.168   1.141 -1.9273 -1.6524 -1.4149
 5647TIP3   OH216881   0.885   0.832   1.035 -0.2021  0.6317 -0.1506
 5647TIP3    H116882   0.932   0.904   0.994 -1.2619  0.8479 -1.0042
 5647TIP3    H216883   0.947   0.795   1.098  1.0625  0.9665 -1.1882
 5648TIP3   OH216884   5.967   7.158   3.817 -0.2681  0.0414  0.4411
 5648TIP3    H116885   6.044   7.107   3.840 -0.2860 -0.0626  0.2687
 5648TIP3    H216886   5.944   7.204   3.898 -0.7133 -0.8271  0.8157
 5649TIP3   OH216887   5.121   2.366   6.977  0.3164 -0.3714  0.3132
 5649TIP3    H116888   5.075   2.370   6.893  0.5963 -0.4381  0.1573
 5649TIP3    H216889   5.051   2.374   7.042  0.1058 -0.2401  0.0753
 5650TIP3   OH216890   5.485   7.088   2.804 -0.1737  0.4572 -0.2265
 5650TIP3    H116891   5.479   7.081   2.709 -0.7388 -0.7937 -0.1132
 5650TIP3    H216892   5.397   7.111   2.832 -0.0598  0.6054  0.0099
 5651TIP3   OH216893   6.365   7.726   0.937 -0.7758 -0.1409 -0.1968
 5651TIP3    H116894   6.401   7.711   0.850 -0.8310  0.2169 -0.2850
 5651TIP3    H216895   6.270   7.725   0.925 -0.7787  1.0113 -0.3428
 5652TIP3   OH216896   2.032   0.518   0.795 -0.4567 -0.6868  0.2431
 5652TIP3    H116897   2.027   0.613   0.810  1.6636 -0.6428  0.8969
 5652TIP3    H216898   2.118   0.494   0.829 -1.0826 -2.8981  0.3056
 5653TIP3   OH216899   7.173   7.883   2.094  0.2294  0.2993 -0.0942
 5653TIP3    H116900   7.152   7.797   2.057 -0.2554  0.3134  0.1340
 5653TIP3    H216901   7.170   7.869   2.189 -2.7065  1.1964  0.0020
 5654TIP3   OH216902   7.505   7.897   2.207 -0.0788 -0.5765 -0.3585
 5654TIP3    H116903   7.493   7.826   2.269 -0.8616 -0.4509 -0.3510
 5654TIP3    H216904   7.486   7.976   2.257 -1.3825 -0.5192 -0.9023
 5655TIP3   OH216905   7.238   5.838   2.759 -0.2185  0.3274  0.0681
 5655TIP3    H116906   7.201   5.753   2.735  0.5953  0.3239 -1.2867
 5655TIP3    H216907   7.296   5.819   2.833  0.6223 -0.4750 -0.7677
 5656TIP3   OH216908   0.957   0.345   2.416 -0.2476  0.1853 -0.1869
 5656TIP3    H116909   1.026   0.300   2.368  0.2769  1.7683 -0.9652
 5656TIP3    H216910   0.899   0.275   2.447  1.0011 -1.0550 -0.6322
 5657TIP3   OH216911   0.735   0.780   3.267 -0.0315  0.2423 -0.5271
 5657TIP3    H116912   0.818   0.746   3.299 -0.9967  0.7359  2.7072
 5657TIP3    H216913   0.669   0.742   3.326 -1.8965  1.4159 -1.7952
 5658TIP3   OH216914   5.068   7.566   1.672  0.1889  0.2078 -0.3945
 5658TIP3    H116915   5.146   7.555   1.725 -0.0424  0.5421  0.0256
 5658TIP3    H216916   5.059   7.661   1.662 -1.1720  0.2602  1.0928
 5659TIP3   OH216917   5.736   6.153   1.469  0.3273 -1.0434 -0.2581
 5659TIP3    H116918   5.798   6.090   1.507  1.9035  1.6960  1.8652
 5659TIP3    H216919   5.783   6.192   1.396  0.9263  0.5724  0.9577
 5660TIP3   OH216920   8.496   0.394   2.552 -0.4557 -0.3581  0.3226
 5660TIP3    H116921   8.428   0.344   2.506 -2.3285  0.3500  2.2439
 5660TIP3    H216922   8.485   0.484   2.521  1.6432 -0.7205 -1.6499
 5661TIP3   OH216923   1.940   1.373   1.479  0.2068  0.1471  0.5552
 5661TIP3    H116924   1.920   1.316   1.554 -0.3389 -0.1949  0.1551
 5661TIP3    H216925   1.873   1.442   1.484 -1.5592 -1.3718 -1.1819
 5662TIP3   OH216926   2.241   0.853   0.885  0.5894  0.4840  0.4914
 5662TIP3    H116927   2.164   0.867   0.829  1.2910  1.1248 -0.3339
 5662TIP3    H216928   2.286   0.937   0.884  2.7469 -0.6289 -1.2674
 5663TIP3   OH216929   5.787   7.762   2.184  0.0881  0.2587 -0.4249
 5663TIP3    H116930   5.871   7.802   2.204  0.5032 -0.8270  0.0358
 5663TIP3    H216931   5.748   7.742   2.270 -0.2115 -0.1098 -0.6415
 5664TIP3   OH216932   6.876   5.815   2.331  0.0068 -0.3828 -0.2235
 5664TIP3    H116933   6.939   5.875   2.371 -0.4607  1.0788 -1.6406
 5664TIP3    H216934   6.807   5.871   2.297 -0.4556 -1.7155 -1.5432
 5665TIP3   OH216935   1.806   1.908   4.974 -0.9455 -0.0231 -0.1397
 5665TIP3    H116936   1.771   1.923   5.062 -0.6152  3.0010 -0.4628
 5665TIP3    H216937   1.901   1.907   4.987 -0.9288 -0.5115 -0.3195
 5666TIP3   OH216938   0.408   1.096   6.260  0.0249  0.6893 -0.6577
 5666TIP3    H116939   0.424   1.170   6.202  0.5833  1.0298 -0.0770
 5666TIP3    H216940   0.468   1.110   6.334 -1.6958  1.0417  0.7184
 5667TIP3   OH216941   6.304   6.371   0.412  0.3138 -0.5420  0.0264
 5667TIP3    H116942   6.363   6.439   0.379  0.6586 -1.5750 -1.5271
 5667TIP3    H216943   6.302   6.305   0.343 -2.7109 -0.5015  0.0441
 5668TIP3   OH216944   8.200   1.467   4.576 -0.1843 -0.3942  0.0890
 5668TIP3    H116945   8.169   1.393   4.629 -1.3679  0.6444  0.8970
 5668TIP3    H216946   8.167   1.544   4.622 -1.1634  0.5441 -2.1218
 5669TIP3   OH216947   1.668   1.209   5.155  0.1557 -0.4417  0.2258
 5669TIP3    H116948   1.756   1.205   5.117 -0.4401 -1.1571 -1.1204
 5669TIP3    H216949   1.610   1.216   5.079 -0.9140  0.5540  1.1288
 5670TIP3   OH216950   2.800   0.257   2.876 -0.3704 -0.3467 -0.4587
 5670TIP3    H116951   2.836   0.170   2.860  0.6808 -0.0410  0.1993
 5670TIP3    H216952   2.745   0.247   2.954  0.2066 -0.2972 -0.0467
 5671TIP3   OH216953   4.067   5.633   0.284  0.1271 -0.2927  0.0784
 5671TIP3    H116954   4.074   5.589   0.369  1.6040  0.8959  0.5969
 5671TIP3    H216955   3.990   5.594   0.243 -1.3939  0.0650  2.5224
 5672TIP3   OH216956   5.403   5.228   0.175  0.0365 -0.4136 -0.0036
 5672TIP3    H116957   5.340   5.164   0.140  1.2864 -0.8193 -1.5959
 5672TIP3    H216958   5.359   5.268   0.249 -1.7509 -1.3467 -0.5452
 5673TIP3   OH216959   0.444   1.777   5.852  0.2574  0.8023 -0.1693
 5673TIP3    H116960   0.402   1.802   5.934 -0.8145 -1.8263  0.1183
 5673TIP3    H216961   0.390   1.818   5.784  1.3582  3.2838  0.4033
 5674TIP3   OH216962   8.332   7.536   3.524 -0.1005  0.5405 -0.2481
 5674TIP3    H116963   8.405   7.593   3.499 -0.0842  1.0218  0.8792
 5674TIP3    H216964   8.254   7.589   3.511 -0.1171  0.6708  0.3680
 5675TIP3   OH216965   7.490   7.544   6.422  0.2108  0.0514  0.3334
 5675TIP3    H116966   7.569   7.490   6.422  0.0657 -0.1676  0.8207
 5675TIP3    H216967   7.514   7.621   6.474  0.5383  0.6480 -0.6746
 5676TIP3   OH216968   2.904   1.791   4.261  0.5666  0.0355 -0.0339
 5676TIP3    H116969   2.950   1.723   4.310  0.0781 -0.7599 -0.6660
 5676TIP3    H216970   2.953   1.801   4.180 -0.9894 -1.6138 -1.2006
 5677TIP3   OH216971   4.894   5.358   0.178 -0.0724  0.3006  0.2221
 5677TIP3    H116972   4.866   5.272   0.146  0.2944  0.3993 -0.3744
 5677TIP3    H216973   4.823   5.387   0.235 -1.0584  0.4273 -1.0614
 5678TIP3   OH216974   2.564   2.481   6.122  0.1601  0.0490  0.0234
 5678TIP3    H116975   2.558   2.401   6.175  1.3650 -0.8631 -1.1845
 5678TIP3    H216976   2.540   2.551   6.183  0.0841 -1.1212  1.3828
 5679TIP3   OH216977   4.982   5.845   0.216 -0.1385 -0.3966 -0.1286
 5679TIP3    H116978   4.988   5.854   0.121  1.0110 -1.0823 -0.1241
 5679TIP3    H216979   4.895   5.808   0.231 -0.4212 -0.0562 -0.8877
 5680TIP3   OH216980   7.256   8.033   4.205  0.3055  0.0206 -0.1516
 5680TIP3    H116981   7.302   7.951   4.187  2.5296  1.8242 -3.1826
 5680TIP3    H216982   7.169   8.021   4.168  0.3261 -1.2847  0.1995
 5681TIP3   OH216983   2.308   6.784   4.255  0.1404  0.2076  0.2209
 5681TIP3    H116984   2.271   6.822   4.176  0.4128 -1.8312 -0.9186
 5681TIP3    H216985   2.403   6.786   4.241  0.1003 -2.7713 -0.7998
 5682TIP3   OH216986   0.874   0.674   3.610  0.2639 -0.1552  0.2427
 5682TIP3    H116987   0.813   0.602   3.593  0.0918 -0.0644  0.4702
 5682TIP3    H216988   0.957   0.644   3.573 -0.1187  0.0731 -0.8112
 5683TIP3   OH216989   0.890   0.842   6.704 -0.3421 -0.3362 -0.3322
 5683TIP3    H116990   0.815   0.853   6.646  1.7223 -0.4862 -3.1026
 5683TIP3    H216991   0.951   0.912   6.679  1.3187 -1.4497  0.4836
 5684TIP3   OH216992   3.456   2.997   3.436  0.5458 -0.1174 -0.2136
 5684TIP3    H116993   3.434   2.933   3.368  0.5259 -1.5343  1.0878
 5684TIP3    H216994   3.529   2.958   3.482  3.5046  2.8556 -2.1470
 5685TIP3   OH216995   2.176   0.915   3.517 -0.1152 -0.4949 -0.6795
 5685TIP3    H116996   2.164   0.993   3.463  2.0843  0.4987  0.2064
 5685TIP3    H216997   2.171   0.948   3.607  2.4410 -1.0686 -0.2893
 5686TIP3   OH216998   2.003   1.446   4.530 -0.0677  0.4934  0.2916
 5686TIP3    H116999   1.974   1.374   4.473 -2.0478  2.0601 -0.7658
 5686TIP3    H217000   2.019   1.405   4.614 -3.3707 -0.8733  0.3219
 5687TIP3   OH217001   1.751   1.770   3.517  0.2062 -0.1673  0.0617
 5687TIP3    H117002   1.748   1.780   3.421 -0.5818  1.2360  0.2146
 5687TIP3    H217003   1.842   1.790   3.540 -0.0507  1.3680 -0.2150
 5688TIP3   OH217004   1.916   0.952   4.516  0.2969 -0.6928 -0.9275
 5688TIP3    H117005   1.958   0.946   4.602  0.2902 -1.7967 -0.9961
 5688TIP3    H217006   1.980   0.914   4.455 -0.2770 -1.1951 -1.2151
 5689TIP3   OH217007   1.235   2.511   5.616 -0.2122  0.2786  0.5009
 5689TIP3    H117008   1.282   2.535   5.535 -1.6342  0.6952 -0.2154
 5689TIP3    H217009   1.302   2.518   5.685  1.0789 -0.2947 -0.6559
 5690TIP3   OH217010   3.327   1.112   6.992  0.3459  0.3503  0.3155
 5690TIP3    H117011   3.368   1.150   7.070 -1.5645  0.1343  1.4776
 5690TIP3    H217012   3.280   1.185   6.952 -1.5692 -0.2604  1.3655
 5691TIP3   OH217013   7.839   1.543   5.887 -0.3942  0.4048  0.2675
 5691TIP3    H117014   7.912   1.486   5.909 -0.1003  1.1540  1.2802
 5691TIP3    H217015   7.830   1.535   5.792  0.4134 -0.3836  0.2491
 5692TIP3   OH217016   4.175   2.612   5.098 -0.4519 -0.8127  0.1888
 5692TIP3    H117017   4.093   2.569   5.075 -0.4307  0.1529 -1.7744
 5692TIP3    H217018   4.242   2.545   5.086 -0.6892 -0.9267 -0.5406
 5693TIP3   OH217019   1.397   0.031   4.606 -0.3323 -0.1170  0.1352
 5693TIP3    H117020   1.304   0.007   4.611 -0.0845 -0.8520  1.6669
 5693TIP3    H217021   1.430  -0.016   4.529 -1.7559  2.1149 -1.9107
 5694TIP3   OH217022   5.094   7.676   6.928  0.1195 -0.3353  0.0654
 5694TIP3    H117023   5.055   7.602   6.882  1.1270 -1.1255  0.4677
 5694TIP3    H217024   5.036   7.750   6.909 -1.4675 -1.4478  0.4896
 5695TIP3   OH217025   2.756   1.474   4.296  0.0824  0.1987  0.0447
 5695TIP3    H117026   2.714   1.546   4.249  1.4946  1.0007 -0.0209
 5695TIP3    H217027   2.837   1.458   4.247 -0.0453 -1.1907  0.2792
 5696TIP3   OH217028   0.815   0.646   4.454  0.5789  0.1314 -0.3738
 5696TIP3    H117029   0.810   0.722   4.511  0.2237  0.1639 -0.4487
 5696TIP3    H217030   0.779   0.675   4.370  1.1671  0.1034 -0.6361
 5697TIP3   OH217031   0.856   0.068   5.571 -0.0363  0.0335 -0.3594
 5697TIP3    H117032   0.930   0.108   5.526  0.5530  0.3961  0.9029
 5697TIP3    H217033   0.779   0.113   5.536  0.5265  1.3912  0.1228
 5698TIP3   OH217034   1.938   1.972   5.519 -0.1857 -0.1830 -0.0529
 5698TIP3    H117035   1.876   2.010   5.582 -0.0555 -2.1900  1.3503
 5698TIP3    H217036   1.893   1.895   5.485  0.5047 -0.1623 -1.0296
 5699TIP3   OH217037   7.341   7.697   6.224 -0.0773 -0.8081  0.3693
 5699TIP3    H117038   7.357   7.775   6.277 -3.4610  0.2161 -0.0547
 5699TIP3    H217039   7.416   7.640   6.244  2.9009  2.7679  0.0833
 5700TIP3   OH217040   3.203   1.908   6.174 -0.0077 -0.2426 -0.0840
 5700TIP3    H117041   3.284   1.919   6.225 -0.3528 -0.6558  0.5666
 5700TIP3    H217042   3.229   1.858   6.097  0.1786 -1.2521  0.6224
 5701TIP3   OH217043   5.517   7.750   6.605 -0.3166 -0.2546  0.4568
 5701TIP3    H117044   5.580   7.785   6.668  0.7683  0.3437 -0.9279
 5701TIP3    H217045   5.564   7.681   6.559 -0.8104 -0.1203 -0.2692
 5702TIP3   OH217046   3.103   4.554   0.823 -0.4999  0.7522  1.2023
 5702TIP3    H117047   3.101   4.494   0.898 -1.7230 -0.5056  0.1990
 5702TIP3    H217048   3.196   4.559   0.799 -0.1603  0.8001  2.4999
 5703TIP3   OH217049   2.748   1.255   4.681 -0.7828  0.4649  0.4988
 5703TIP3    H117050   2.754   1.350   4.668  0.7020  0.0625 -2.0526
 5703TIP3    H217051   2.706   1.223   4.602 -0.9878 -1.0641  1.2158
 5704TIP3   OH217052   4.553   5.738   1.048 -0.4668  0.7262  0.3534
 5704TIP3    H117053   4.480   5.730   0.987 -2.3542  2.0525  2.3699
 5704TIP3    H217054   4.621   5.782   0.998 -0.7814 -1.0377 -1.7367
 5705TIP3   OH217055   4.123   5.457   1.053  0.4020 -0.6137  0.0448
 5705TIP3    H117056   4.083   5.519   1.114 -1.1727 -1.0639 -0.5066
 5705TIP3    H217057   4.214   5.486   1.046 -0.0354  0.9830  0.6267
 5706TIP3   OH217058   2.920   1.093   4.341 -0.0907 -0.4308  0.7088
 5706TIP3    H117059   2.855   1.163   4.348  0.3967  0.1498 -0.5281
 5706TIP3    H217060   2.940   1.071   4.432 -0.5162  0.7827  1.1121
 5707TIP3   OH217061   0.895   1.000   6.306 -0.2661 -0.1304 -0.4224
 5707TIP3    H117062   0.977   0.972   6.265  0.6000  1.9390 -0.2020
 5707TIP3    H217063   0.894   1.095   6.294 -2.3727 -0.0724  0.0755
 5708TIP3   OH217064   1.699   0.493   4.766 -0.0720 -0.1809 -0.1406
 5708TIP3    H117065   1.696   0.437   4.688  0.8434 -1.0758  0.4454
 5708TIP3    H217066   1.736   0.437   4.834 -0.8065  0.6126  0.9277
 5709TIP3   OH217067   7.994   0.858   6.423  0.4831  0.4311  0.1460
 5709TIP3    H117068   8.066   0.854   6.360 -1.1303 -0.0657 -1.7292
 5709TIP3    H217069   8.028   0.910   6.496  2.3617  1.1316 -1.1988
 5710TIP3   OH217070   7.603   7.425   2.837  0.3294 -0.4890 -0.4547
 5710TIP3    H117071   7.556   7.406   2.918 -1.4709 -2.7706 -1.9697
 5710TIP3    H217072   7.672   7.486   2.863 -1.2015  0.0838  2.4840
 5711TIP3   OH217073   1.026   0.683   3.279  0.0219  0.0326  0.2935
 5711TIP3    H117074   1.081   0.724   3.345 -0.1372  0.5907  0.0803
 5711TIP3    H217075   1.015   0.593   3.310  0.7630  0.0100  0.5154
 5712TIP3   OH217076   1.946   0.710   6.812 -0.1809 -0.2205 -0.0349
 5712TIP3    H117077   1.912   0.678   6.729  0.7383 -0.5931 -0.2805
 5712TIP3    H217078   1.875   0.763   6.849 -0.9017 -0.7491 -0.6530
 5713TIP3   OH217079   7.368   6.442   6.671  0.1848  0.0087 -0.1060
 5713TIP3    H117080   7.375   6.360   6.719  0.3750  1.7874  3.0054
 5713TIP3    H217081   7.458   6.474   6.665 -0.1816  1.2440  0.9525
 5714TIP3   OH217082   6.243   7.992   6.410  0.0575  0.0722  0.6446
 5714TIP3    H117083   6.246   7.897   6.424 -0.3509 -0.0845 -0.2866
 5714TIP3    H217084   6.155   8.009   6.378 -0.2996  0.9602  2.0757
 5715TIP3   OH217085   3.531   2.190   0.443 -0.5320  0.5199  0.0724
 5715TIP3    H117086   3.464   2.247   0.403 -1.8708 -0.7671  0.4229
 5715TIP3    H217087   3.608   2.201   0.387 -1.3490  1.2469 -0.9482
 5716TIP3   OH217088   3.573   0.998   6.182 -0.0964 -0.4482 -0.0684
 5716TIP3    H117089   3.556   1.059   6.111  0.1574 -0.1035  0.1649
 5716TIP3    H217090   3.502   1.012   6.244  0.8000  0.7081  0.7145
 5717TIP3   OH217091   2.259   1.179   6.865  0.0806  0.3616 -0.5560
 5717TIP3    H117092   2.247   1.139   6.952  0.3943 -0.2492 -0.7870
 5717TIP3    H217093   2.341   1.228   6.872  0.5427 -0.3618 -0.7386
 5718TIP3   OH217094   0.199   1.768   6.549  0.0755 -0.0877 -0.0972
 5718TIP3    H117095   0.259   1.838   6.576  0.4932 -0.0849 -1.0030
 5718TIP3    H217096   0.145   1.751   6.626  0.3902  0.8006  0.3229
 5719TIP3   OH217097   2.560   5.972   0.822 -0.1771  0.1563 -0.1657
 5719TIP3    H117098   2.485   5.916   0.802 -0.7573  0.7324  0.3568
 5719TIP3    H217099   2.595   5.935   0.903 -1.4681  1.4215  1.0082
 5720TIP3   OH217100   1.822   1.752   5.382  0.5272  0.0367  0.0938
 5720TIP3    H117101   1.744   1.709   5.346  0.3767 -0.5549  1.1217
 5720TIP3    H217102   1.839   1.824   5.321  0.1003 -0.7716 -1.0033
 5721TIP3   OH217103   2.295   2.807   6.159  0.7348 -0.3625  0.0551
 5721TIP3    H117104   2.316   2.899   6.174  1.0501 -0.5886  1.0317
 5721TIP3    H217105   2.332   2.761   6.235 -3.7205 -0.6937  2.2002
 5722TIP3   OH217106   1.640   0.598   5.844 -0.4813  0.7167 -0.4730
 5722TIP3    H117107   1.571   0.538   5.815 -0.3461 -0.8138  2.2137
 5722TIP3    H217108   1.720   0.564   5.806 -0.5376 -0.3131  0.3092
 5723TIP3   OH217109   6.632   7.571   5.098  0.4963  0.1218  0.6399
 5723TIP3    H117110   6.609   7.504   5.163  1.4450 -1.5660 -0.7449
 5723TIP3    H217111   6.699   7.624   5.141 -0.8333  0.7043  2.0437
 5724TIP3   OH217112   1.558   0.596   3.095 -0.2180  0.4391  0.1760
 5724TIP3    H117113   1.561   0.661   3.165  0.5645  0.3660  0.2163
 5724TIP3    H217114   1.649   0.589   3.065 -0.3646 -0.3487 -0.0928
 5725TIP3   OH217115   4.101   0.048   4.308  0.4472 -0.1610  0.5458
 5725TIP3    H117116   4.117  -0.005   4.230  2.6605  0.0351  0.8136
 5725TIP3    H217117   4.177   0.032   4.364  0.2007  1.7531  1.5011
 5726TIP3   OH217118   7.028   4.335   0.182  0.0554  0.4787  0.1093
 5726TIP3    H117119   7.089   4.280   0.133 -0.9455 -0.4358 -0.1197
 5726TIP3    H217120   7.008   4.284   0.260 -1.4737  0.1777 -0.4711
 5727TIP3   OH217121   1.299   1.790   5.418  0.0374 -0.5404 -0.1324
 5727TIP3    H117122   1.372   1.824   5.468 -0.9290 -0.1089  1.0143
 5727TIP3    H217123   1.303   1.837   5.335  0.4033  0.2901  0.3462
 5728TIP3   OH217124   4.609   1.575   6.566  0.4672  0.1756 -0.3514
 5728TIP3    H117125   4.539   1.614   6.513 -1.2873 -0.9021  1.1359
 5728TIP3    H217126   4.688   1.619   6.535 -1.0011  2.3812 -1.1567
 5729TIP3   OH217127   2.614   1.482   5.621  0.0454 -0.2133  0.0722
 5729TIP3    H117128   2.633   1.497   5.713  1.0141 -0.3048 -0.1040
 5729TIP3    H217129   2.671   1.544   5.574 -1.4467  0.8298 -0.4333
 5730TIP3   OH217130   0.827   6.136   1.845  0.1399 -0.3776  0.1737
 5730TIP3    H117131   0.914   6.100   1.864  0.8125  1.3317  0.4624
 5730TIP3    H217132   0.835   6.229   1.867 -1.5528 -0.0626 -0.5029
 5731TIP3   OH217133   3.234   2.863   4.715 -0.2724 -0.1485  0.4014
 5731TIP3    H117134   3.168   2.822   4.659  0.4928 -0.8728  0.0079
 5731TIP3    H217135   3.303   2.891   4.654 -0.0232  0.2231  0.8479
 5732TIP3   OH217136   5.065   1.902   6.197  0.4230  0.6297  0.1506
 5732TIP3    H117137   5.088   1.991   6.170  0.1567  0.2808 -1.2866
 5732TIP3    H217138   4.975   1.889   6.165  0.5170 -0.2084  0.2023
 5733TIP3   OH217139   3.308   1.887   5.718  0.0590 -0.5124  0.0529
 5733TIP3    H117140   3.231   1.864   5.666 -0.5309 -0.3916  0.8677
 5733TIP3    H217141   3.382   1.862   5.662 -0.5114  1.8929 -1.8774
 5734TIP3   OH217142   0.167   6.885   4.140 -0.0127  0.8477 -0.8088
 5734TIP3    H117143   0.088   6.939   4.150 -1.4399 -1.1399 -1.0422
 5734TIP3    H217144   0.207   6.887   4.227 -1.1748  0.5966 -0.2545
 5735TIP3   OH217145   3.129   1.253   5.779 -0.1626 -0.1609 -0.0259
 5735TIP3    H117146   3.100   1.280   5.692 -0.9244 -0.3082  0.1789
 5735TIP3    H217147   3.114   1.329   5.834 -0.4444 -0.3430  0.1464
 5736TIP3   OH217148   3.058   2.341   4.328 -0.1740 -0.3725  0.1196
 5736TIP3    H117149   3.141   2.348   4.376 -0.7734 -3.1718  1.7045
 5736TIP3    H217150   3.083   2.311   4.241  0.5884 -0.0485  0.2229
 5737TIP3   OH217151   2.597   3.776   3.999 -0.4189  0.4629  0.2970
 5737TIP3    H117152   2.572   3.750   3.910  0.1177 -0.9294  0.5326
 5737TIP3    H217153   2.634   3.696   4.037  0.9896  1.5211  1.1789
 5738TIP3   OH217154   0.914   6.713   3.662  0.3986 -0.0252  1.1297
 5738TIP3    H117155   0.962   6.711   3.745 -0.2210 -0.0226  1.4927
 5738TIP3    H217156   0.959   6.650   3.607  2.3221  1.7423  0.6307
 5739TIP3   OH217157   2.862   1.025   4.057  0.3366 -0.4509 -0.5201
 5739TIP3    H117158   2.874   0.931   4.044 -0.8953 -0.8080  0.7925
 5739TIP3    H217159   2.891   1.041   4.147 -1.2939  0.0626 -0.0645
 5740TIP3   OH217160   2.366   1.627   3.867 -0.0702  0.5159 -0.1828
 5740TIP3    H117161   2.398   1.640   3.777 -0.6016 -0.8261 -0.5672
 5740TIP3    H217162   2.337   1.714   3.894 -1.5984  0.6009 -1.9802
 5741TIP3   OH217163   1.719   3.073   5.897  0.0376  0.7707  0.4278
 5741TIP3    H117164   1.646   3.077   5.958 -1.4099 -0.9950 -1.1397
 5741TIP3    H217165   1.788   3.027   5.944 -0.4139  1.0333  1.3488
 5742TIP3   OH217166   8.075   8.054   1.844  0.1123  0.0924  0.1784
 5742TIP3    H117167   8.052   8.144   1.868 -1.4064  0.1006 -1.2122
 5742TIP3    H217168   7.995   8.004   1.857  0.9791 -1.1105  1.0541
 5743TIP3   OH217169   1.224   2.444   4.891  0.4689  0.7131  0.4950
 5743TIP3    H117170   1.209   2.502   4.816  2.8269  0.8201  0.0587
 5743TIP3    H217171   1.201   2.497   4.967  2.3151  2.1612  0.0844
 5744TIP3   OH217172   1.257   1.958   3.264 -0.0570 -0.1500 -0.1297
 5744TIP3    H117173   1.296   2.011   3.334  2.5915 -2.5603  0.3215
 5744TIP3    H217174   1.314   1.974   3.189 -0.5399 -0.6591 -0.6001
 5745TIP3   OH217175   4.648   0.741   4.801  0.0496 -0.5987 -0.1984
 5745TIP3    H117176   4.700   0.816   4.831 -1.6206  0.2350  0.6805
 5745TIP3    H217177   4.621   0.697   4.881 -1.9758 -0.0478 -0.5317
 5746TIP3   OH217178   4.214   1.124   6.048  0.0506 -0.0753 -0.0578
 5746TIP3    H117179   4.180   1.135   6.136 -0.8303 -0.4449 -0.3404
 5746TIP3    H217180   4.153   1.172   5.992  0.9599  0.6870 -0.4029
 5747TIP3   OH217181   8.028   7.087   1.864  0.0059 -0.0534 -0.0028
 5747TIP3    H117182   7.949   7.066   1.815 -0.2175  2.4666 -0.7867
 5747TIP3    H217183   7.996   7.128   1.944  0.4811 -0.4831  0.4079
 5748TIP3   OH217184   0.389   5.580   0.244  0.8375  0.1345  0.2139
 5748TIP3    H117185   0.386   5.488   0.215 -1.6663 -0.3607  1.9478
 5748TIP3    H217186   0.385   5.631   0.163  1.1816 -1.2713 -0.7091
 5749TIP3   OH217187   7.878   8.018   3.360  0.2046  0.0490  0.3989
 5749TIP3    H117188   7.967   8.048   3.340 -0.1763  0.0267 -1.4410
 5749TIP3    H217189   7.889   7.928   3.389  0.6523 -0.5531 -1.5327
 5750TIP3   OH217190   3.101   0.141   3.361 -0.1754  0.0430  0.1979
 5750TIP3    H117191   3.050   0.109   3.435 -0.1514  1.5031  0.8559
 5750TIP3    H217192   3.171   0.193   3.399  0.1249  0.4086 -0.8210
 5751TIP3   OH217193   6.503   0.853   5.596  0.6331  0.4172 -0.1618
 5751TIP3    H117194   6.505   0.916   5.524 -0.9289  1.8291  0.9753
 5751TIP3    H217195   6.434   0.791   5.572 -0.2659  1.2066  0.3616
 5752TIP3   OH217196   2.368   2.178   4.724  0.4109 -0.2455  0.2252
 5752TIP3    H117197   2.416   2.227   4.791  0.1709  0.2686  0.0164
 5752TIP3    H217198   2.431   2.167   4.653  0.2342  0.4010 -0.0355
 5753TIP3   OH217199   3.178   1.513   5.929 -0.0269 -0.3555  0.0321
 5753TIP3    H117200   3.189   1.602   5.962 -0.1825 -0.7971  1.3325
 5753TIP3    H217201   3.249   1.502   5.866  0.7724  0.2693  0.7941
 5754TIP3   OH217202   3.401   1.380   5.754 -0.8245  0.0172 -0.1722
 5754TIP3    H117203   3.329   1.320   5.734 -0.7143 -1.2693  2.9211
 5754TIP3    H217204   3.461   1.328   5.808  1.3431  1.7286 -0.8558
 5755TIP3   OH217205   3.518   1.628   5.760 -0.0161 -0.0770  0.5071
 5755TIP3    H117206   3.469   1.548   5.742 -1.3981  0.6246  1.0242
 5755TIP3    H217207   3.564   1.611   5.842 -0.2450 -0.3738  0.5761
 5756TIP3   OH217208   5.948   5.575   0.039  0.5467 -0.2719 -0.2664
 5756TIP3    H117209   5.990   5.609  -0.040 -0.5624 -0.5982 -1.0156
 5756TIP3    H217210   5.952   5.480   0.029  0.6795 -0.3193  0.2249
 5757TIP3   OH217211   4.070   1.967   5.886 -0.1096  0.1362  0.6739
 5757TIP3    H117212   4.098   1.947   5.976 -2.1860 -0.4659  1.2339
 5757TIP3    H217213   4.017   1.891   5.861  1.4799 -0.2717 -1.5561
 5758TIP3   OH217214   1.223   2.235   5.410 -0.2271 -0.3986  0.3441
 5758TIP3    H117215   1.235   2.320   5.368 -2.8163 -0.5324 -0.7695
 5758TIP3    H217216   1.308   2.216   5.451  1.6196  0.8747 -2.7449
 5759TIP3   OH217217   1.458   1.055   4.416 -0.2566 -0.0528 -0.1351
 5759TIP3    H117218   1.519   1.000   4.465  0.1729  0.1621 -0.4213
 5759TIP3    H217219   1.507   1.081   4.338 -1.1075 -0.8230 -0.9431
 5760TIP3   OH217220   6.007   1.640   5.447  0.0507  0.0937 -0.2087
 5760TIP3    H117221   6.101   1.629   5.438  0.3576  0.7035  1.9238
 5760TIP3    H217222   5.990   1.729   5.416  0.4908  0.6947  1.2070
 5761TIP3   OH217223   2.291   1.825   5.459 -0.9601 -0.0123 -0.2600
 5761TIP3    H117224   2.291   1.764   5.385  1.2423  0.2792 -0.5112
 5761TIP3    H217225   2.299   1.911   5.419  1.3499  0.0736  0.3633
 5762TIP3   OH217226   1.532   1.141   6.734 -0.1730 -0.0047 -0.2511
 5762TIP3    H117227   1.461   1.205   6.729 -0.1382  0.1241  0.7650
 5762TIP3    H217228   1.525   1.104   6.822  0.9670 -0.0451 -0.1670
 5763TIP3   OH217229   3.264   7.726   0.560  0.2258  0.4042  0.3997
 5763TIP3    H117230   3.261   7.750   0.467  0.0093  1.4384  0.6679
 5763TIP3    H217231   3.198   7.781   0.601 -1.1090 -1.4970  0.8657
 5764TIP3   OH217232   2.670   0.754   4.196  0.1607  0.1757  0.2531
 5764TIP3    H117233   2.761   0.780   4.180 -0.0997  0.1922 -1.3648
 5764TIP3    H217234   2.668   0.661   4.173 -0.5551  0.5394 -1.2297
 5765TIP3   OH217235   2.194   2.859   5.530  0.0706 -0.0958  0.4079
 5765TIP3    H117236   2.148   2.892   5.453  4.0975  0.3957 -1.9154
 5765TIP3    H217237   2.223   2.937   5.577  0.8730 -0.3909  0.4040
 5766TIP3   OH217238   0.206   7.776   3.676 -0.0022 -0.0585 -0.5770
 5766TIP3    H117239   0.261   7.761   3.752 -0.7024  1.0936  0.1774
 5766TIP3    H217240   0.116   7.775   3.711 -0.2580  1.9823 -1.0950
 5767TIP3   OH217241   5.478   1.558   6.497 -0.4975  0.6270  0.1524
 5767TIP3    H117242   5.412   1.573   6.429  1.1719  0.9384 -1.4444
 5767TIP3    H217243   5.471   1.633   6.555  0.0251  1.8407 -1.3333
 5768TIP3   OH217244   5.240   5.804   0.302 -0.0198 -0.4945  0.0864
 5768TIP3    H117245   5.158   5.843   0.273 -0.4162  0.1128  1.9297
 5768TIP3    H217246   5.269   5.750   0.228 -1.7503 -0.2271 -0.8094
 5769TIP3   OH217247   3.867   1.448   5.694 -0.0419  0.4608  0.2940
 5769TIP3    H117248   3.827   1.395   5.625 -0.6771 -0.1720  1.1438
 5769TIP3    H217249   3.810   1.436   5.770 -0.8257  3.2404  0.2041
 5770TIP3   OH217250   3.296   2.507   5.575 -0.4288  0.3453  0.5619
 5770TIP3    H117251   3.347   2.429   5.555  0.0160  0.2607  1.9693
 5770TIP3    H217252   3.207   2.474   5.592 -0.7645  0.4001 -1.0431
 5771TIP3   OH217253   0.136   0.260   3.573  0.2887  0.4300  0.2979
 5771TIP3    H117254   0.175   0.307   3.499  1.9771 -2.4141 -0.6990
 5771TIP3    H217255   0.051   0.231   3.541  0.7340 -0.2152 -0.3287
 5772TIP3   OH217256   5.176   3.812   0.847  0.0997  0.3590 -0.1017
 5772TIP3    H117257   5.195   3.831   0.755  0.1089 -0.5148 -0.2892
 5772TIP3    H217258   5.124   3.886   0.877  1.3021  1.3416 -0.4090
 5773TIP3   OH217259   1.502   3.109   6.068 -0.0128  0.0627 -0.3439
 5773TIP3    H117260   1.460   3.038   6.115 -1.1634  1.4533  0.7518
 5773TIP3    H217261   1.504   3.182   6.130  1.1016  1.0113 -1.4634
 5774TIP3   OH217262   6.370   3.374   5.328 -0.4389  0.6347  0.0107
 5774TIP3    H117263   6.307   3.413   5.389  2.0065  0.1727  2.9419
 5774TIP3    H217264   6.451   3.424   5.341  1.1254 -1.7160 -0.3458
 5775TIP3   OH217265   3.004   1.199   4.603 -0.5547 -0.4042  0.0545
 5775TIP3    H117266   2.965   1.222   4.688  1.3293  0.9861  0.5762
 5775TIP3    H217267   2.994   1.104   4.598 -0.1735 -0.5912  2.1254
 5776TIP3   OH217268   4.336   1.412   6.167  0.1222  0.0806 -0.3627
 5776TIP3    H117269   4.431   1.404   6.179  0.2000 -0.1629 -1.1358
 5776TIP3    H217270   4.324   1.411   6.073 -0.4391  2.4738 -0.3444
 5777TIP3   OH217271   3.249   0.404   4.122 -0.0166 -0.3259  0.5651
 5777TIP3    H117272   3.283   0.464   4.189 -1.6646  1.5722 -0.2352
 5777TIP3    H217273   3.319   0.398   4.058 -0.1261  1.4347  0.2477
 5778TIP3   OH217274   2.471   3.739   6.222  0.1781 -0.3336  0.0766
 5778TIP3    H117275   2.483   3.664   6.164  2.0640 -0.6279  0.7872
 5778TIP3    H217276   2.452   3.813   6.164 -1.3833 -1.2797 -0.6531
 5779TIP3   OH217277   5.398   4.916   0.642  0.3774  0.1039  0.4271
 5779TIP3    H117278   5.331   4.968   0.687 -1.5874 -1.9882  0.0060
 5779TIP3    H217279   5.408   4.959   0.557  0.3348  1.0392  0.8809
 5780TIP3   OH217280   3.070   2.413   6.101 -0.2556 -0.3035 -0.4733
 5780TIP3    H117281   3.039   2.338   6.152 -0.7753 -0.5999 -1.2108
 5780TIP3    H217282   3.032   2.489   6.145 -0.3938 -0.5314 -0.1953
 5781TIP3   OH217283   4.023   1.832   6.715  0.3424 -0.4248 -0.0410
 5781TIP3    H117284   4.109   1.867   6.736 -0.0662 -0.2513  1.3824
 5781TIP3    H217285   4.000   1.778   6.790 -1.3787  0.6276  0.2147
 5782TIP3   OH217286   1.223   0.112   2.919  0.0132  0.0296 -0.3784
 5782TIP3    H117287   1.214   0.025   2.879  0.2040 -0.2009  0.0778
 5782TIP3    H217288   1.277   0.097   2.997 -1.3998  0.2600  0.6649
 5783TIP3   OH217289   0.747   0.754   6.346 -0.1120  0.1223 -0.3474
 5783TIP3    H117290   0.783   0.843   6.339  0.5334 -0.0189  0.9709
 5783TIP3    H217291   0.704   0.753   6.432 -0.7363 -0.6291 -0.6654
 5784TIP3   OH217292   1.756   1.738   6.144 -0.3613  0.0306 -0.0580
 5784TIP3    H117293   1.812   1.695   6.079 -2.1402 -0.0976 -1.5522
 5784TIP3    H217294   1.703   1.799   6.092  0.3019  2.1356  1.6829
 5785TIP3   OH217295   2.119   2.127   4.446 -0.3362 -0.0527 -0.1351
 5785TIP3    H117296   2.179   2.187   4.490  1.2409 -1.4994 -0.2422
 5785TIP3    H217297   2.114   2.159   4.356  1.2475 -0.5974 -0.4351
 5786TIP3   OH217298   1.409   2.994   5.450 -0.0786 -0.0687  0.4453
 5786TIP3    H117299   1.434   3.065   5.390 -0.3885  0.2088  0.6423
 5786TIP3    H217300   1.405   3.036   5.536 -1.2591 -0.0981  0.4172
 5787TIP3   OH217301   7.167   6.043   0.532  0.1056  0.2272  0.3627
 5787TIP3    H117302   7.185   6.126   0.487  0.5049 -0.3625 -0.5823
 5787TIP3    H217303   7.243   5.989   0.512 -0.4993 -0.6243  0.3484
 5788TIP3   OH217304   4.544   5.266   6.513  0.2101 -0.1973  0.1858
 5788TIP3    H117305   4.597   5.230   6.442  0.0625  0.4269 -0.2532
 5788TIP3    H217306   4.456   5.270   6.477  0.0186 -0.4611  0.6258
 5789TIP3   OH217307   3.708   1.229   4.832  0.4670 -0.1468 -0.2808
 5789TIP3    H117308   3.621   1.260   4.856  0.4941  0.4800 -0.9938
 5789TIP3    H217309   3.694   1.176   4.754  0.9229  1.2020 -1.2886
 5790TIP3   OH217310   2.144   1.593   6.016  0.5311 -0.7735  0.0186
 5790TIP3    H117311   2.211   1.529   5.990  2.5930  1.7322 -0.9835
 5790TIP3    H217312   2.150   1.597   6.111 -0.0720 -2.5052  0.1533
 5791TIP3   OH217313   0.215   8.051   3.176 -0.1634  0.3967 -0.0441
 5791TIP3    H117314   0.190   7.972   3.223  1.6778 -0.7259 -0.8786
 5791TIP3    H217315   0.240   8.113   3.244 -3.1609  0.8701  0.6953
 5792TIP3   OH217316   1.961   6.396   4.059 -0.0403 -0.0227 -0.0436
 5792TIP3    H117317   2.054   6.418   4.050  0.3428 -1.8606 -0.6334
 5792TIP3    H217318   1.919   6.480   4.079  1.5749  1.0222 -0.9453
 5793TIP3   OH217319   2.348   3.187   4.155  0.5675 -0.1907  0.2519
 5793TIP3    H117320   2.274   3.183   4.216 -0.3141 -2.3538 -0.9163
 5793TIP3    H217321   2.418   3.140   4.200  0.0624 -1.3765 -0.1782
 5794TIP3   OH217322   2.814   1.580   5.438 -0.0388 -0.6919 -0.1843
 5794TIP3    H117323   2.744   1.527   5.399  0.4942 -1.1298 -0.5595
 5794TIP3    H217324   2.894   1.539   5.406  0.3830 -0.0253  0.0272
 5795TIP3   OH217325   4.349   0.558   4.436  0.6646  0.1615 -0.7536
 5795TIP3    H117326   4.377   0.589   4.522  1.5454  0.8628 -1.2969
 5795TIP3    H217327   4.347   0.463   4.445  0.2662  0.2465  0.1875
 5796TIP3   OH217328   2.714   3.427   5.274  0.0201  0.1639  0.2005
 5796TIP3    H117329   2.687   3.382   5.354 -1.1545 -0.3056 -0.4409
 5796TIP3    H217330   2.768   3.363   5.228  1.8658  0.9276  1.2516
 5797TIP3   OH217331   1.781   1.514   6.622  0.3057 -0.2445 -0.5320
 5797TIP3    H117332   1.867   1.477   6.640  0.6873  0.8278 -0.0955
 5797TIP3    H217333   1.797   1.608   6.612 -0.6255 -0.1886 -1.7069
 5798TIP3   OH217334   3.875   4.183   6.000 -0.5056  0.6414 -0.5246
 5798TIP3    H117335   3.783   4.176   6.026 -0.4471  1.0271 -0.2041
 5798TIP3    H217336   3.922   4.127   6.061 -0.6041 -0.0977 -1.1225
 5799TIP3   OH217337   3.964   0.749   5.921 -0.4735  0.2092  0.1171
 5799TIP3    H117338   3.894   0.803   5.957 -1.2302  0.1827 -1.2678
 5799TIP3    H217339   3.983   0.686   5.990 -0.3114  1.5711  1.3423
 5800TIP3   OH217340   7.437   5.049   1.124 -0.3159 -0.2860  0.1903
 5800TIP3    H117341   7.414   5.090   1.041 -1.0405  0.1211  0.5780
 5800TIP3    H217342   7.376   5.088   1.187 -0.3695 -1.2411  0.7437
 5801TIP3   OH217343   3.354   1.582   6.242  0.2035 -0.1646  0.5044
 5801TIP3    H117344   3.380   1.507   6.189  1.6082 -1.2195  2.5872
 5801TIP3    H217345   3.272   1.612   6.204 -0.1692 -2.5222 -0.6116
 5802TIP3   OH217346   7.314   5.631  -0.022  0.0620 -0.1824 -0.7490
 5802TIP3    H117347   7.353   5.553   0.016  0.1860 -0.4804 -1.4863
 5802TIP3    H217348   7.341   5.702   0.036 -1.0797 -0.8483  0.6392
 5803TIP3   OH217349   3.592   1.034   5.855  0.1898 -0.5880  0.0357
 5803TIP3    H117350   3.499   1.030   5.834  0.0277 -0.7483  0.7514
 5803TIP3    H217351   3.634   1.070   5.777 -0.7426  1.5010  0.4606
 5804TIP3   OH217352   3.961   1.601   4.464  0.1209 -0.3603 -0.1981
 5804TIP3    H117353   3.918   1.661   4.403 -0.0719  0.5377  0.8092
 5804TIP3    H217354   3.896   1.584   4.531  0.3585 -1.2814 -0.1978
 5805TIP3   OH217355   1.447   2.820   6.678  0.3344  0.3088  0.0963
 5805TIP3    H117356   1.412   2.765   6.608  1.8046  0.4284 -0.7575
 5805TIP3    H217357   1.405   2.788   6.758 -0.9085 -0.2170 -0.7642
 5806TIP3   OH217358   0.142   6.951   3.584 -0.2600  0.3623  0.1280
 5806TIP3    H117359   0.075   6.907   3.532  0.5380  1.1042 -1.5474
 5806TIP3    H217360   0.225   6.920   3.549  0.2976  1.0756  0.7944
 5807TIP3   OH217361   3.380   2.077   2.650 -0.3340 -0.1061 -0.6761
 5807TIP3    H117362   3.463   2.117   2.676 -1.3058  1.8138 -0.4478
 5807TIP3    H217363   3.358   2.120   2.567 -1.6806  0.2550 -0.1393
 5808TIP3   OH217364   3.166   1.802   5.075 -0.3231  0.8470  0.4909
 5808TIP3    H117365   3.146   1.805   5.168 -0.4840  0.8110  0.4569
 5808TIP3    H217366   3.082   1.814   5.031 -0.2846  0.6101  0.3503
 5809TIP3   OH217367   0.594   3.879   5.467  0.3025  0.2339 -0.4816
 5809TIP3    H117368   0.513   3.840   5.434 -1.1011  1.5963  1.2519
 5809TIP3    H217369   0.587   3.972   5.445  1.5031  0.3277 -0.5112
 5810TIP3   OH217370   6.107   5.141   0.280 -0.4923 -0.0999  0.0310
 5810TIP3    H117371   6.039   5.203   0.307 -1.9487 -1.6169 -0.0983
 5810TIP3    H217372   6.171   5.195   0.233 -2.4219  1.0956 -1.2837
 5811TIP3   OH217373   3.619   1.754   6.024  0.0375  0.3853  0.4853
 5811TIP3    H117374   3.657   1.667   6.034 -0.4990 -0.2187 -2.3248
 5811TIP3    H217375   3.637   1.798   6.107  0.4312 -2.3444  1.9047
 5812TIP3   OH217376   4.670   3.076   5.553  0.3712  0.3009  0.8243
 5812TIP3    H117377   4.655   3.008   5.618 -1.9557  0.1639  0.1860
 5812TIP3    H217378   4.615   3.051   5.478 -1.3073  3.3270  0.9307
 5813TIP3   OH217379   1.463   3.699   4.335  0.0654  0.1119  0.5291
 5813TIP3    H117380   1.487   3.684   4.244 -1.3080  1.0162  0.0012
 5813TIP3    H217381   1.502   3.783   4.357 -1.2488  0.8365  0.1512
 5814TIP3   OH217382   2.899   0.947   4.598  0.7522 -0.1767 -0.3818
 5814TIP3    H117383   2.890   0.942   4.693 -0.3427 -1.0826 -0.5239
 5814TIP3    H217384   2.821   0.904   4.564  0.5671  1.1581 -1.7020
 5815TIP3   OH217385   4.254   1.594   5.416 -0.1774  0.3681  0.2383
 5815TIP3    H117386   4.175   1.567   5.371  0.7122 -2.4538  0.2294
 5815TIP3    H217387   4.240   1.567   5.507 -0.1222  1.9276  0.7318
 5816TIP3   OH217388   1.759   2.051   5.724  0.7727  0.3663 -0.3216
 5816TIP3    H117389   1.723   2.139   5.733  0.9619  0.3419  0.6794
 5816TIP3    H217390   1.700   1.996   5.776  1.0516  0.0046 -0.3859
 5817TIP3   OH217391   2.645   3.100   6.512  0.2524  0.0155 -0.2015
 5817TIP3    H117392   2.620   3.147   6.433  0.0899 -0.4726 -0.4414
 5817TIP3    H217393   2.576   3.120   6.575 -0.6071 -1.0949 -0.7699
 5818TIP3   OH217394   0.029   1.414   4.039 -0.0325 -0.3312  0.0290
 5818TIP3    H117395   0.062   1.500   4.013  0.4326 -0.1290  1.2538
 5818TIP3    H217396   0.019   1.420   4.134  0.5180 -1.8055  0.1889
 5819TIP3   OH217397   3.885   1.495   4.066  0.2924 -0.1586 -0.7127
 5819TIP3    H117398   3.898   1.400   4.068 -0.3354 -0.2250  0.1009
 5819TIP3    H217399   3.885   1.517   3.973  0.0726 -1.0033 -0.9149
 5820TIP3   OH217400   1.708   7.501   5.852  1.1165 -0.0826 -0.8027
 5820TIP3    H117401   1.637   7.540   5.903  0.9877  0.9217 -1.7240
 5820TIP3    H217402   1.728   7.419   5.897  0.8640  0.6803  0.7257
 5821TIP3   OH217403   2.334   1.384   5.985  0.3356  0.5316 -0.5446
 5821TIP3    H117404   2.421   1.345   5.974  0.7997  0.9559  1.3670
 5821TIP3    H217405   2.285   1.320   6.038 -0.2041  0.7152 -0.8200
 5822TIP3   OH217406   3.826   1.060   3.874  0.0234  0.2583 -0.3447
 5822TIP3    H117407   3.903   1.041   3.928  0.2874  0.6844 -0.5662
 5822TIP3    H217408   3.752   1.056   3.935  0.5550  3.1479  0.5785
 5823TIP3   OH217409   2.327   1.702   4.773 -0.2941  0.3232 -0.5810
 5823TIP3    H117410   2.249   1.756   4.763 -1.4475 -1.2152 -0.2186
 5823TIP3    H217411   2.301   1.634   4.835  1.1040 -0.6445 -1.0254
 5824TIP3   OH217412   7.130   7.704   3.762 -0.1270 -0.0406  0.5288
 5824TIP3    H117413   7.075   7.666   3.831  0.2903 -0.0512  0.8593
 5824TIP3    H217414   7.167   7.629   3.716  0.2972 -0.0357  0.8603
 5825TIP3   OH217415   5.692   5.729   0.110 -0.0799 -0.1969  0.4130
 5825TIP3    H117416   5.772   5.685   0.081 -0.5407 -0.8522  0.1148
 5825TIP3    H217417   5.621   5.679   0.070 -0.5690  2.3554 -2.1164
 5826TIP3   OH217418   3.101   2.309   5.660 -0.2904 -0.0574  0.1629
 5826TIP3    H117419   3.162   2.315   5.734 -0.6197 -1.1681  0.5304
 5826TIP3    H217420   3.015   2.297   5.700 -0.4391 -0.9006 -0.4103
 5827TIP3   OH217421   4.503   4.616   6.419  0.1222  0.3283 -0.8397
 5827TIP3    H117422   4.494   4.542   6.359 -1.6415 -0.4114  0.2915
 5827TIP3    H217423   4.454   4.687   6.378  1.4500  0.7684 -1.7125
 5828TIP3   OH217424   7.077   6.396   0.865  0.6272 -0.0913  0.5214
 5828TIP3    H117425   7.099   6.388   0.958 -0.0048  0.1920  0.7035
 5828TIP3    H217426   7.010   6.466   0.863 -1.1237 -1.7344  0.1477
 5829TIP3   OH217427   3.396   0.585   4.266 -0.7986  0.2811 -0.3989
 5829TIP3    H117428   3.470   0.541   4.309 -0.0378 -0.1575 -2.0943
 5829TIP3    H217429   3.400   0.675   4.296 -0.8868 -0.2384  1.2104
 5830TIP3   OH217430   5.595   4.865   0.915  0.2248 -0.1450  0.4722
 5830TIP3    H117431   5.528   4.884   0.981  0.1154  0.3596  0.2190
 5830TIP3    H217432   5.671   4.916   0.943  0.0576  0.3668  0.0069
 5831TIP3   OH217433   1.666   3.199   5.606  0.0615  0.6616 -0.1558
 5831TIP3    H117434   1.597   3.262   5.583 -0.9624 -0.3316  0.1195
 5831TIP3    H217435   1.690   3.159   5.523  0.4784  1.1851 -0.2870
 5832TIP3   OH217436   3.409   1.185   4.836  0.2151  0.0997 -0.6324
 5832TIP3    H117437   3.346   1.225   4.777  1.4871  0.7026 -1.6197
 5832TIP3    H217438   3.429   1.100   4.796  0.1729 -0.0052 -0.4305
 5833TIP3   OH217439   2.623   1.547   6.615 -0.0842 -0.6189  0.6032
 5833TIP3    H117440   2.598   1.508   6.532  1.3203 -1.0807  0.3732
 5833TIP3    H217441   2.681   1.620   6.591 -0.0510 -0.4597  1.1481
 5834TIP3   OH217442   4.461   0.536   4.694 -0.3450  0.0416 -0.5870
 5834TIP3    H117443   4.538   0.581   4.730 -0.6051  0.0431 -0.0223
 5834TIP3    H217444   4.492   0.447   4.677 -1.1146 -0.9971  2.9512
 5835TIP3   OH217445   2.562   1.578   6.163  0.5375  0.4111 -0.1556
 5835TIP3    H117446   2.509   1.519   6.110  0.3692  1.5745 -1.3245
 5835TIP3    H217447   2.584   1.650   6.103 -0.3653  2.1748  1.6105
 5836TIP3   OH217448   6.664   2.987   1.506 -0.0360  0.0538 -0.2314
 5836TIP3    H117449   6.597   2.997   1.439 -0.0451 -0.3894 -0.2911
 5836TIP3    H217450   6.650   3.061   1.565  1.1924  1.5378 -1.7586
 5837TIP3   OH217451   7.532   7.025   2.138 -0.4499  0.5128  0.1869
 5837TIP3    H117452   7.478   7.015   2.060 -1.1104 -1.3204  0.8385
 5837TIP3    H217453   7.474   7.066   2.203 -0.0451  1.5990 -0.1307
 5838TIP3   OH217454   2.069   1.851   5.005  0.2895  0.2393 -0.3453
 5838TIP3    H117455   2.139   1.896   5.052  1.2234 -0.8493 -0.7009
 5838TIP3    H217456   2.099   1.847   4.914  0.1186 -0.9208 -0.3586
 5839TIP3   OH217457   4.567   0.871   5.660  0.2369  0.0559  0.3331
 5839TIP3    H117458   4.490   0.878   5.604  0.9904 -2.4614 -1.1238
 5839TIP3    H217459   4.537   0.898   5.747 -1.6540  1.3778 -0.7163
 5840TIP3   OH217460   2.890   1.582   4.823  0.2660 -0.0075 -0.3423
 5840TIP3    H117461   2.809   1.537   4.847  0.2427  0.1910 -0.0419
 5840TIP3    H217462   2.868   1.675   4.828  1.1803  0.1240  2.2187
 5841TIP3   OH217463   8.135   7.788   1.961 -0.0060  0.5704  0.9326
 5841TIP3    H117464   8.101   7.840   1.888 -0.3925  0.1285  0.7894
 5841TIP3    H217465   8.093   7.826   2.038 -0.9732 -0.0740  0.7411
 5842TIP3   OH217466   6.384   3.659   0.794 -0.1034  0.2795 -0.2273
 5842TIP3    H117467   6.441   3.729   0.826 -2.9812  3.0918 -1.0134
 5842TIP3    H217468   6.397   3.659   0.699  0.5276 -0.8570 -0.1467
 5843TIP3   OH217469   2.498   1.427   6.830 -0.1698  0.1396  0.1040
 5843TIP3    H117470   2.551   1.464   6.759 -0.8854 -1.1220 -1.1404
 5843TIP3    H217471   2.552   1.355   6.865 -0.8510 -0.8735 -0.8827
 5844TIP3   OH217472   7.195   4.131   0.071  0.8101  0.3587  0.0614
 5844TIP3    H117473   7.278   4.113   0.027  1.6104 -0.5496  1.8823
 5844TIP3    H217474   7.140   4.054   0.054  1.7878 -0.8482  2.1428
 5845TIP3   OH217475   3.254   2.376   5.884 -0.3850 -0.3091  0.0783
 5845TIP3    H117476   3.287   2.288   5.898  0.0212 -0.4588 -1.7393
 5845TIP3    H217477   3.198   2.393   5.960  1.1008 -1.3610  1.4295
 5846TIP3   OH217478   4.428   0.739   6.514 -0.4043 -0.1809  0.7948
 5846TIP3    H117479   4.491   0.679   6.553  0.3445 -0.1626 -0.3481
 5846TIP3    H217480   4.409   0.802   6.582  0.5957 -0.3638  1.2492
 5847TIP3   OH217481   5.050   4.783   1.086 -0.0157 -0.6509 -0.1671
 5847TIP3    H117482   5.094   4.866   1.070 -1.0501 -0.7354 -3.8420
 5847TIP3    H217483   5.119   4.717   1.071  0.2373 -0.5564  0.5525
 5848TIP3   OH217484   2.302   1.007   3.777 -0.0244 -0.4251 -0.6324
 5848TIP3    H117485   2.293   0.975   3.867  1.2418 -0.4542 -0.5142
 5848TIP3    H217486   2.387   0.974   3.748 -0.5411 -0.6390 -1.9391
 5849TIP3   OH217487   1.473   1.749   4.829 -0.4101 -0.0248 -0.5335
 5849TIP3    H117488   1.486   1.806   4.906 -1.8139 -0.0408 -0.2769
 5849TIP3    H217489   1.503   1.663   4.858 -1.7296 -0.2237  0.2984
 5850TIP3   OH217490   2.317   2.609   6.347  0.3292  0.7606  0.1443
 5850TIP3    H117491   2.362   2.531   6.379 -0.0388  0.4453 -0.0906
 5850TIP3    H217492   2.320   2.671   6.419  0.6751  0.5451  0.3113
 5851TIP3   OH217493   6.964   0.922   4.772 -0.0611  0.6536 -0.1912
 5851TIP3    H117494   6.870   0.933   4.755 -0.1933 -2.5599 -2.0504
 5851TIP3    H217495   6.968   0.862   4.846  0.5254  0.1407 -0.6341
 5852TIP3   OH217496   7.817   7.332   2.438 -0.2583  0.0223 -0.6044
 5852TIP3    H117497   7.901   7.285   2.430 -1.5882 -2.8999  1.5057
 5852TIP3    H217498   7.770   7.311   2.358  0.2185 -0.0400 -0.8699
 5853TIP3   OH217499   6.671   5.062   0.476  0.3328 -0.4387 -0.4937
 5853TIP3    H117500   6.729   4.991   0.448  0.4371 -0.7413  0.4935
 5853TIP3    H217501   6.721   5.142   0.460  0.4542 -0.6128 -1.0088
 5854TIP3   OH217502   8.545   7.463   3.207  0.1564  0.3643  0.5714
 5854TIP3    H117503   8.596   7.391   3.244  0.9859  1.9082  2.5375
 5854TIP3    H217504   8.577   7.471   3.117  1.6177 -0.3157  1.0103
 5855TIP3   OH217505   2.776   2.289   5.497 -0.0190 -0.7329  0.1885
 5855TIP3    H117506   2.793   2.339   5.417 -0.2068 -0.3174  0.4087
 5855TIP3    H217507   2.693   2.245   5.480  0.7480 -1.9565 -0.4892
 5856TIP3   OH217508   5.360   2.213   4.789  0.3343  0.2736  0.2237
 5856TIP3    H117509   5.299   2.164   4.844  1.5865  0.7361  2.0709
 5856TIP3    H217510   5.390   2.285   4.844  0.6555  1.4998 -1.5173
 5857TIP3   OH217511   8.241   2.782   0.294 -0.0552 -0.0568 -0.0987
 5857TIP3    H117512   8.159   2.764   0.340  0.6412 -0.9349  0.8090
 5857TIP3    H217513   8.309   2.766   0.359  0.8265  0.9156 -0.7751
 5858TIP3   OH217514   8.099   7.656   3.455  0.1111 -0.6308 -0.0791
 5858TIP3    H117515   8.008   7.683   3.444  0.0192 -1.4520 -1.4060
 5858TIP3    H217516   8.149   7.737   3.442 -0.3120 -0.5734 -1.4489
 5859TIP3   OH217517   0.518   7.066   3.451  0.0168 -0.6547  0.7088
 5859TIP3    H117518   0.444   7.125   3.457  0.2217 -0.2922 -0.2297
 5859TIP3    H217519   0.593   7.119   3.476 -0.0776 -1.0957  1.9196
 5860TIP3   OH217520   8.566   6.562   6.412 -0.5047  0.1435 -0.5191
 5860TIP3    H117521   8.591   6.522   6.328 -1.5880  2.4213 -1.9803
 5860TIP3    H217522   8.631   6.631   6.425 -0.8690  0.3670  0.0946
 5861TIP3   OH217523   3.874   1.742   5.845  0.1016  0.0953 -0.3226
 5861TIP3    H117524   3.849   1.654   5.818  0.0176 -0.9397  2.9309
 5861TIP3    H217525   3.797   1.776   5.892  1.5344  0.3477  1.8971
 5862TIP3   OH217526   6.933   3.894   0.632 -0.0369 -0.8188 -0.2144
 5862TIP3    H117527   6.967   3.811   0.599 -0.9296 -0.9915 -0.7059
 5862TIP3    H217528   6.975   3.904   0.717  1.9453 -0.5757 -1.2028
 5863TIP3   OH217529   0.161   7.812   3.319 -0.2221  0.6747 -0.0214
 5863TIP3    H117530   0.146   7.776   3.231  1.4338  0.9437 -0.4352
 5863TIP3    H217531   0.241   7.768   3.349  0.7281  2.5715  0.2572
 5864TIP3   OH217532   4.933   4.717   0.402 -0.5490 -0.3353  0.2731
 5864TIP3    H117533   4.956   4.635   0.444 -0.9483 -1.0775 -0.9352
 5864TIP3    H217534   4.850   4.699   0.358 -0.3849  0.5753 -0.4257
 5865TIP3   OH217535   1.791   7.177   5.480  0.0405  0.1249  0.0651
 5865TIP3    H117536   1.714   7.221   5.515 -0.4076 -0.1738 -0.5420
 5865TIP3    H217537   1.865   7.229   5.513 -0.4835  1.4454 -0.7874
 5866TIP3   OH217538   2.870   0.551   3.296  0.3222 -0.0811  0.1050
 5866TIP3    H117539   2.852   0.493   3.370  0.3889  0.4025  0.5048
 5866TIP3    H217540   2.783   0.574   3.262  0.2916 -0.3008  0.0321
 5867TIP3   OH217541   2.816   1.974   6.908 -0.3089  0.0383 -0.3787
 5867TIP3    H117542   2.844   1.896   6.860  0.1805  1.8046 -3.0957
 5867TIP3    H217543   2.840   1.956   6.999 -0.9322 -3.2737 -0.7808
 5868TIP3   OH217544   5.193   1.119   4.797  0.1866 -0.3454 -0.0203
 5868TIP3    H117545   5.098   1.124   4.785  0.4253  0.4224 -1.6147
 5868TIP3    H217546   5.222   1.210   4.805  0.8253 -0.5613  0.1874
 5869TIP3   OH217547   3.620   1.582   4.150 -0.0889  0.0761 -0.6548
 5869TIP3    H117548   3.713   1.571   4.127  0.2298  1.3427 -0.0688
 5869TIP3    H217549   3.620   1.590   4.245 -1.0202 -1.7882 -0.4878
 5870TIP3   OH217550   2.571   2.797   4.240  0.3695 -0.0363 -0.1154
 5870TIP3    H117551   2.655   2.756   4.219  0.6866 -0.9559  2.7053
 5870TIP3    H217552   2.505   2.730   4.223  0.5615 -0.5346  1.0265
 5871TIP3   OH217553   2.853   2.224   4.018  0.0503  0.5879  0.0261
 5871TIP3    H117554   2.872   2.271   3.936  0.2034  0.2964 -0.1106
 5871TIP3    H217555   2.802   2.285   4.070 -0.2786  0.6812 -0.3987
 5872TIP3   OH217556   2.597   1.834   6.361 -0.2033  0.3868 -0.7495
 5872TIP3    H117557   2.573   1.746   6.332  1.1249  0.3975 -1.9571
 5872TIP3    H217558   2.680   1.822   6.407 -0.2060  0.9511 -0.5965
 5873TIP3   OH217559   5.062   4.493   0.051 -0.3408 -0.2262  0.6307
 5873TIP3    H117560   5.121   4.568   0.041 -0.8275 -0.0449 -0.9338
 5873TIP3    H217561   5.120   4.416   0.045  0.2532  0.0054  2.9035
 5874TIP3   OH217562   6.675   3.302   0.575 -0.1444 -0.0141  0.3315
 5874TIP3    H117563   6.683   3.282   0.482  0.1875  2.3190 -0.1506
 5874TIP3    H217564   6.729   3.235   0.618  1.3929  0.1389 -1.2801
 5875TIP3   OH217565   5.013   2.086   5.511 -0.0368 -0.2102  0.0163
 5875TIP3    H117566   5.035   2.000   5.546  1.2693 -0.2609 -0.8907
 5875TIP3    H217567   5.096   2.121   5.479 -0.6417  1.1814 -0.0808
 5876TIP3   OH217568   5.843   3.030   6.014  0.2428  0.4233  0.2294
 5876TIP3    H117569   5.865   3.045   6.106  0.2691  0.8257  0.1576
 5876TIP3    H217570   5.813   3.115   5.982 -1.4334 -0.0921  0.3345
 5877TIP3   OH217571   1.859   1.779   6.636  0.0805 -0.2152  0.2312
 5877TIP3    H117572   1.870   1.803   6.543 -0.7631  0.4329  0.2832
 5877TIP3    H217573   1.946   1.755   6.665  0.2090 -1.2570 -0.9662
 5878TIP3   OH217574   3.590   1.281   6.913  0.3529 -0.2085  0.0551
 5878TIP3    H117575   3.664   1.220   6.916  1.1992  0.8206  0.1918
 5878TIP3    H217576   3.556   1.273   6.823  0.7796 -0.4917 -0.0828
 5879TIP3   OH217577   1.357   1.508   5.398 -0.1447 -0.0705 -0.0838
 5879TIP3    H117578   1.308   1.590   5.405 -1.7068 -1.0855  1.6796
 5879TIP3    H217579   1.325   1.468   5.318 -0.6657  0.2491 -0.0400
 5880TIP3   OH217580   2.582   2.370   5.868 -0.4367 -0.1794 -0.1303
 5880TIP3    H117581   2.646   2.322   5.921 -1.2233 -1.4793 -0.3449
 5880TIP3    H217582   2.531   2.420   5.933  0.1180  0.0514  0.1304
 5881TIP3   OH217583   6.543   7.657   1.133 -0.2580  0.3695 -1.5262
 5881TIP3    H117584   6.470   7.644   1.072 -1.1572 -0.4365 -0.2818
 5881TIP3    H217585   6.517   7.733   1.185 -0.0023  0.3578 -1.3815
 5882TIP3   OH217586   3.233   2.540   3.095  0.3414  0.2956  0.0155
 5882TIP3    H117587   3.283   2.478   3.147  0.8180  1.3060  0.7712
 5882TIP3    H217588   3.162   2.569   3.152 -0.0329  0.2555 -0.4203
 5883TIP3   OH217589   7.445   6.734   2.733 -0.3401 -0.2650 -0.4849
 5883TIP3    H117590   7.515   6.785   2.774 -0.3093 -0.0112 -0.8478
 5883TIP3    H217591   7.372   6.741   2.794 -0.2842  0.0865 -0.4552
 5884TIP3   OH217592   4.320   2.500   6.130  0.3864 -0.0498  0.2243
 5884TIP3    H117593   4.301   2.593   6.121  2.1212  0.0781 -2.7870
 5884TIP3    H217594   4.327   2.467   6.040 -2.1827 -3.5518  1.1873
 5885TIP3   OH217595   4.314   0.110   3.383 -0.3617  0.3748  0.0305
 5885TIP3    H117596   4.323   0.064   3.466 -1.9363 -0.8812 -0.4883
 5885TIP3    H217597   4.373   0.185   3.392  0.1752 -0.2317  1.9222
 5886TIP3   OH217598   2.683   7.724   5.736  0.0618  0.0928  0.3604
 5886TIP3    H117599   2.750   7.739   5.670  0.1349 -1.8574 -0.0432
 5886TIP3    H217600   2.691   7.798   5.796  0.0149  1.8783 -1.7756
 5887TIP3   OH217601   4.628   2.104   6.085  0.4124  0.5401  0.8841
 5887TIP3    H117602   4.604   2.189   6.123  0.5573 -0.1209  2.4898
 5887TIP3    H217603   4.705   2.076   6.135  1.5721  0.3787 -0.9703
 5888TIP3   OH217604   7.266   0.321   4.512  0.2123 -0.4506 -0.0998
 5888TIP3    H117605   7.206   0.391   4.538  0.7825 -0.0809  0.2488
 5888TIP3    H217606   7.262   0.257   4.583  3.2599  1.4970  1.9334
 5889TIP3   OH217607   5.343   0.792   5.529 -0.5114 -0.2647  0.4606
 5889TIP3    H117608   5.352   0.806   5.623 -4.2227 -0.0674  0.8298
 5889TIP3    H217609   5.309   0.875   5.495  0.6632 -0.3799 -1.0611
 5890TIP3   OH217610   0.692   7.724   4.230  0.2285  0.2025 -0.1796
 5890TIP3    H117611   0.726   7.812   4.215  0.7493 -0.3633 -2.5493
 5890TIP3    H217612   0.598   7.731   4.212  0.3761  0.1376 -0.9729
 5891TIP3   OH217613   0.991   8.013   4.005 -0.5206  0.3447 -0.2214
 5891TIP3    H117614   1.055   7.942   4.013 -0.9748 -0.3044 -2.0925
 5891TIP3    H217615   0.908   7.972   4.027 -0.8341  0.1676 -1.6377
 5892TIP3   OH217616   5.409   0.418   6.600  0.1205 -0.2543  0.0292
 5892TIP3    H117617   5.435   0.352   6.664 -1.5944 -0.3384  0.6701
 5892TIP3    H217618   5.418   0.374   6.516 -0.0294 -0.9706  0.3872
 5893TIP3   OH217619   7.163   1.712   4.805  0.6908 -0.2554  0.3435
 5893TIP3    H117620   7.137   1.681   4.719  0.0324  2.4382 -0.4617
 5893TIP3    H217621   7.258   1.723   4.799  0.5467  0.7165 -0.3300
 5894TIP3   OH217622   5.591   0.545   4.717 -0.1871 -0.5010  0.6930
 5894TIP3    H117623   5.654   0.474   4.723  1.3696  0.8365  0.3591
 5894TIP3    H217624   5.603   0.594   4.798 -1.6179 -0.8806  1.1642
 5895TIP3   OH217625   0.458   7.258   6.898 -0.2810 -0.0658  0.1968
 5895TIP3    H117626   0.379   7.206   6.884 -0.9212  1.2503 -1.2835
 5895TIP3    H217627   0.427   7.337   6.942  0.3154  0.1175  0.2964
 5896TIP3   OH217628   0.532   5.991   0.478 -0.2376 -0.5186 -0.3205
 5896TIP3    H117629   0.589   5.924   0.438 -0.3748 -0.0375 -1.3384
 5896TIP3    H217630   0.531   5.969   0.571  0.8941 -1.0713 -0.4296
 5897TIP3   OH217631   6.143   0.096   3.258  0.3595 -0.0499 -0.1843
 5897TIP3    H117632   6.171   0.011   3.294 -1.0415 -0.5755 -0.2948
 5897TIP3    H217633   6.180   0.098   3.170 -1.8952 -1.8060 -1.2353
 5898TIP3   OH217634   2.604   1.127   4.000  0.2986 -0.2856 -0.0616
 5898TIP3    H117635   2.549   1.054   4.028 -0.4131  0.4576  0.5150
 5898TIP3    H217636   2.692   1.091   3.994 -0.2079 -1.4322 -0.7440
 5899TIP3   OH217637   0.866   8.103   3.782  0.7031 -0.4865  0.1297
 5899TIP3    H117638   0.937   8.150   3.739  1.1268 -1.8161 -0.6627
 5899TIP3    H217639   0.909   8.047   3.846  0.2336 -0.0876  0.7973
 5900TIP3   OH217640   8.342   0.947   6.673  0.3643  0.6070 -0.0637
 5900TIP3    H117641   8.389   1.016   6.626  0.2920 -0.7333 -2.1923
 5900TIP3    H217642   8.250   0.967   6.659  0.3194  1.1528  0.9688
 5901TIP3   OH217643   4.132   8.067   5.495  0.2080 -0.7965  0.1480
 5901TIP3    H117644   4.058   8.043   5.550  0.9269 -0.5665  1.2299
 5901TIP3    H217645   4.199   8.001   5.513  1.1643  0.3982  1.0376
 5902TIP3   OH217646   4.233   0.511   6.413  0.4212  0.1444  0.1367
 5902TIP3    H117647   4.235   0.526   6.319 -0.8215  1.6689  0.3484
 5902TIP3    H217648   4.284   0.583   6.450  1.3236 -0.7182  0.6137
 5903TIP3   OH217649   4.666   1.262   4.405  1.0087  0.2394 -0.5943
 5903TIP3    H117650   4.761   1.253   4.416  0.9850  0.6728  0.0589
 5903TIP3    H217651   4.655   1.346   4.360  0.8380  1.4895  1.6734
 5904TIP3   OH217652   3.886   0.761   3.079  0.7461  0.1039  0.6482
 5904TIP3    H117653   3.889   0.719   3.165  1.0694 -0.3875  0.4002
 5904TIP3    H217654   3.968   0.736   3.037  0.5326  0.2319  0.1456
 5905TIP3   OH217655   0.194   4.331   0.423  0.1497  0.2880  0.0217
 5905TIP3    H117656   0.203   4.257   0.363  1.0826  0.3407  0.0834
 5905TIP3    H217657   0.132   4.390   0.380  0.2346 -0.0246 -0.5349
 5906TIP3   OH217658   4.925   2.642   4.863 -0.0385  0.6064 -0.2775
 5906TIP3    H117659   4.884   2.626   4.778  1.7281 -0.1436 -0.9977
 5906TIP3    H217660   4.963   2.730   4.855  0.4500  0.3829 -0.3828
 5907TIP3   OH217661   4.085   7.831   4.349 -0.2694 -0.4192  0.0418
 5907TIP3    H117662   4.105   7.748   4.392 -0.2619  0.1035  1.0579
 5907TIP3    H217663   3.992   7.845   4.366 -0.1510  0.0358  0.3332
 5908TIP3   OH217664   7.438   1.213   5.349 -0.0115  0.4185 -0.0734
 5908TIP3    H117665   7.508   1.274   5.373 -0.1152 -0.3341  2.2146
 5908TIP3    H217666   7.458   1.133   5.396 -1.6514 -0.2687 -0.5079
 5909TIP3   OH217667   2.082   7.126   3.615 -0.0981  0.1297  0.4877
 5909TIP3    H117668   2.154   7.128   3.553 -0.4626 -0.4458  0.0513
 5909TIP3    H217669   2.004   7.143   3.563 -0.4966 -1.1475  0.6587
 5910TIP3   OH217670   5.571   1.391   5.849 -0.1979 -0.0008 -0.5359
 5910TIP3    H117671   5.603   1.309   5.885 -2.7060 -1.1392 -0.8131
 5910TIP3    H217672   5.558   1.448   5.925 -0.9642 -0.7778 -0.0774
 5911TIP3   OH217673   4.544   0.172   6.196 -0.3185 -0.3603  0.0032
 5911TIP3    H117674   4.534   0.185   6.102 -1.6562 -0.7305  0.0794
 5911TIP3    H217675   4.571   0.081   6.206  1.2673  0.0899 -0.0955
 5912TIP3   OH217676   6.585   2.714   3.454  0.3246 -0.1199  0.2404
 5912TIP3    H117677   6.620   2.754   3.534  0.6707  1.2163 -0.5725
 5912TIP3    H217678   6.597   2.780   3.386 -0.8799 -0.8566 -0.7235
 5913TIP3   OH217679   1.826   7.308   6.485 -0.4447  0.1625 -0.0679
 5913TIP3    H117680   1.877   7.236   6.445 -1.2928 -1.3047  1.4300
 5913TIP3    H217681   1.884   7.343   6.553 -0.4358  0.2134 -0.1022
 5914TIP3   OH217682   4.636   3.787   5.560  0.1207 -0.2082  0.3115
 5914TIP3    H117683   4.714   3.842   5.553  1.0564 -1.7231 -2.0515
 5914TIP3    H217684   4.610   3.793   5.652  2.0267  1.6748  0.7666
 5915TIP3   OH217685   6.586   0.614   4.539 -0.4019 -0.3665 -0.2732
 5915TIP3    H117686   6.514   0.584   4.594 -1.5201 -1.0523 -2.0713
 5915TIP3    H217687   6.573   0.569   4.455  3.4454 -2.3342  0.0641
 5916TIP3   OH217688   0.025   2.806   0.918  0.1691 -0.4158 -0.1422
 5916TIP3    H117689  -0.069   2.815   0.928  0.3086  0.1924  0.6766
 5916TIP3    H217690   0.062   2.854   0.992  1.1373 -0.1774 -0.7684
 5917TIP3   OH217691   5.351   1.101   4.169  1.0400 -0.2478 -0.3739
 5917TIP3    H117692   5.328   1.055   4.251  0.6353 -1.3474 -1.0886
 5917TIP3    H217693   5.301   1.055   4.102  0.4050  1.4374 -1.0895
 5918TIP3   OH217694   0.262   5.129   0.197  0.7736  0.3927  0.0746
 5918TIP3    H117695   0.210   5.049   0.210  1.7671 -0.3394 -0.4208
 5918TIP3    H217696   0.238   5.186   0.271 -0.5253 -0.0448  0.0005
 5919TIP3   OH217697   5.866   2.126   5.618  0.2250  0.0868 -0.1769
 5919TIP3    H117698   5.892   2.157   5.705  0.1506  0.1953 -0.1927
 5919TIP3    H217699   5.919   2.047   5.604  0.8999  0.5823 -0.4158
 5920TIP3   OH217700   4.044   1.142   5.787 -0.3466  0.5360 -0.4152
 5920TIP3    H117701   3.990   1.156   5.865 -0.1776  1.5624 -0.4695
 5920TIP3    H217702   4.041   1.048   5.772  1.5279  0.0155  2.2067
 5921TIP3   OH217703   6.881   1.202   6.976  0.0201 -0.1067  0.0182
 5921TIP3    H117704   6.833   1.177   7.055  0.1095 -0.5657 -0.0690
 5921TIP3    H217705   6.841   1.285   6.949  1.6843  1.3633  1.9667
 5922TIP3   OH217706   5.904   0.243   5.492 -0.5063  0.0603  0.4752
 5922TIP3    H117707   5.982   0.288   5.523  0.3227 -1.0628  0.0380
 5922TIP3    H217708   5.903   0.259   5.398 -0.1688 -0.8806  0.3065
 5923TIP3   OH217709   3.970   1.246   3.240 -0.0260 -0.1289  0.9273
 5923TIP3    H117710   3.929   1.169   3.201  0.6256 -0.2472  0.4692
 5923TIP3    H217711   3.897   1.305   3.260 -0.3108  0.3165 -1.2857
 5924TIP3   OH217712   6.493   0.165   3.910  0.2939 -0.0863  0.4057
 5924TIP3    H117713   6.397   0.167   3.911  0.2826  0.2278 -0.8401
 5924TIP3    H217714   6.519   0.239   3.966 -0.1780 -1.3961  2.3872
 5925TIP3   OH217715   6.674   0.987   3.759  0.6285  0.3312  0.5835
 5925TIP3    H117716   6.622   1.021   3.833 -1.2850 -0.4129 -0.3693
 5925TIP3    H217717   6.685   1.062   3.701 -2.9251 -0.3506 -1.1415
 5926TIP3   OH217718   4.465   2.983   5.385  0.7283 -0.1025  0.3075
 5926TIP3    H117719   4.445   2.889   5.394  0.4855 -0.1170 -0.3973
 5926TIP3    H217720   4.440   3.004   5.296  1.8827  0.3808  0.0973
 5927TIP3   OH217721   0.109   1.622   5.890 -0.1323  0.0666  0.0495
 5927TIP3    H117722   0.108   1.718   5.898  1.2766  0.0551  0.6190
 5927TIP3    H217723   0.043   1.592   5.953 -0.6600  0.6626 -0.2108
 5928TIP3   OH217724   6.957   1.056   5.194  0.0280  0.3585  0.1035
 5928TIP3    H117725   6.989   1.137   5.232 -0.4028  0.2727  0.6555
 5928TIP3    H217726   7.021   0.990   5.220  0.4164  0.5320 -0.4076
 5929TIP3   OH217727   4.863   1.722   3.579 -0.2458 -0.5448 -0.9086
 5929TIP3    H117728   4.829   1.753   3.663  0.3133 -0.7238 -0.6147
 5929TIP3    H217729   4.940   1.776   3.563 -0.2229 -0.6615 -1.1939
 5930TIP3   OH217730   2.793   0.634   2.062  0.4313 -0.1405 -0.1130
 5930TIP3    H117731   2.706   0.601   2.039  0.4692  0.4350 -1.0874
 5930TIP3    H217732   2.811   0.702   1.998  1.9990 -0.8910 -0.5064
 5931TIP3   OH217733   5.944   0.453   6.515 -0.5152  0.2994  0.4366
 5931TIP3    H117734   6.024   0.402   6.527  0.2389  1.4260  0.2112
 5931TIP3    H217735   5.896   0.441   6.597  0.9481  1.4764  1.4923
 5932TIP3   OH217736   7.763   2.905   1.016 -0.0165  0.1903 -0.1241
 5932TIP3    H117737   7.795   2.920   0.927  1.1981 -1.6465 -0.0369
 5932TIP3    H217738   7.771   2.989   1.060  2.0674  0.4203 -0.9265
 5933TIP3   OH217739   6.052   0.767   4.347 -0.0693  0.0053 -0.4654
 5933TIP3    H117740   6.139   0.731   4.328  0.4457  1.1064 -0.2494
 5933TIP3    H217741   5.994   0.722   4.285  0.2409 -2.5111  0.9940
 5934TIP3   OH217742   0.847   7.337   4.150 -0.0457 -0.3452 -0.2450
 5934TIP3    H117743   0.925   7.390   4.161 -0.5607  0.2993  0.3379
 5934TIP3    H217744   0.832   7.297   4.236 -0.3642 -0.4476 -0.3450
 5935TIP3   OH217745   6.953   1.754   4.971 -0.4147 -0.3120  0.1926
 5935TIP3    H117746   6.916   1.666   4.975  1.7470 -1.1938  1.9079
 5935TIP3    H217747   7.035   1.743   4.923 -0.7285  1.0051 -0.6720
 5936TIP3   OH217748   1.426   7.376   4.019  0.0031 -0.4943  0.1151
 5936TIP3    H117749   1.388   7.349   3.935  1.5890  0.0793 -0.8073
 5936TIP3    H217750   1.445   7.293   4.064  4.0365 -1.0876 -2.3461
 5937TIP3   OH217751   6.320   1.381   6.706 -0.6614 -0.5337  0.0576
 5937TIP3    H117752   6.413   1.379   6.727 -0.6229  0.3066 -0.0014
 5937TIP3    H217753   6.279   1.330   6.775 -0.3421  0.6642  1.1612
 5938TIP3   OH217754   3.820   0.866   4.553 -0.4948 -0.7686  0.2410
 5938TIP3    H117755   3.750   0.808   4.582 -0.5304 -0.9313 -0.1688
 5938TIP3    H217756   3.891   0.851   4.615 -0.5737 -1.1065  0.2489
 5939TIP3   OH217757   4.687   1.198   3.536 -0.5577  0.2485  0.1248
 5939TIP3    H117758   4.652   1.155   3.458 -1.4444  0.8200  0.2027
 5939TIP3    H217759   4.762   1.248   3.504 -0.2477 -0.3974 -0.1686
 5940TIP3   OH217760   5.511   0.600   6.822 -0.6645 -0.0518 -0.1719
 5940TIP3    H117761   5.526   0.685   6.781  0.2246  0.8907  2.0601
 5940TIP3    H217762   5.450   0.556   6.763 -0.1187  1.6065 -2.0384
 5941TIP3   OH217763   2.824   7.668   6.373  0.2663  0.0468  0.1980
 5941TIP3    H117764   2.895   7.733   6.364  0.9327 -0.7029 -0.0100
 5941TIP3    H217765   2.748   7.710   6.333  0.6787  0.7323  0.1287
 5942TIP3   OH217766   3.334   1.139   3.474  0.9117  0.0885 -0.5133
 5942TIP3    H117767   3.412   1.139   3.419  1.2226  1.5743 -0.0865
 5942TIP3    H217768   3.351   1.071   3.539  1.9980  0.6221 -0.2239
 5943TIP3   OH217769   6.540   1.157   6.331 -0.3930 -0.2518  0.2728
 5943TIP3    H117770   6.615   1.186   6.279 -0.1832  2.1686  1.8126
 5943TIP3    H217771   6.467   1.157   6.269 -0.0627  2.2061 -0.1976
 5944TIP3   OH217772   5.300   1.140   5.461 -0.4726  0.0198  0.6112
 5944TIP3    H117773   5.205   1.125   5.463 -0.4258 -0.6805 -1.2101
 5944TIP3    H217774   5.325   1.149   5.553 -2.2836  0.0613  1.1155
 5945TIP3   OH217775   2.164   7.719   5.377 -0.2881  0.0453  0.1337
 5945TIP3    H117776   2.205   7.794   5.419  0.7194 -0.4531  0.0530
 5945TIP3    H217777   2.080   7.709   5.421  0.3783  0.0679  1.4103
 5946TIP3   OH217778   5.272   1.369   4.123 -0.2501  0.6589  0.4675
 5946TIP3    H117779   5.313   1.286   4.146  1.0317  1.0237 -0.4376
 5946TIP3    H217780   5.345   1.431   4.120 -0.9096  1.3836 -0.8527
 5947TIP3   OH217781   1.565   6.866   5.276 -0.4651 -0.3900  0.7445
 5947TIP3    H117782   1.518   6.943   5.244  1.3415  0.2648 -0.4379
 5947TIP3    H217783   1.648   6.867   5.228  0.3143 -2.1025  1.9963
 5948TIP3   OH217784   4.429   2.175   5.474 -0.6752  0.0734 -0.4573
 5948TIP3    H117785   4.387   2.151   5.392 -0.6637 -0.1917 -0.3869
 5948TIP3    H217786   4.510   2.124   5.475  0.0251  1.1678 -0.9571
 5949TIP3   OH217787   1.037   6.229   6.547  0.1088  0.2055 -0.0482
 5949TIP3    H117788   1.068   6.204   6.634  1.4014  1.5746 -0.0928
 5949TIP3    H217789   0.949   6.193   6.542  0.4627 -0.9105  1.3754
 5950TIP3   OH217790   4.042   7.552   5.497  0.0570  0.0045 -0.3049
 5950TIP3    H117791   3.987   7.593   5.564  1.0458  1.0026 -0.1043
 5950TIP3    H217792   4.055   7.462   5.528  1.3784  0.7553  1.3758
 5951TIP3   OH217793   0.692   6.383   3.843  0.2072  0.2842  0.0945
 5951TIP3    H117794   0.610   6.402   3.797 -0.6845  0.1582  1.5981
 5951TIP3    H217795   0.668   6.318   3.909  2.0845 -1.7857 -1.2134
 5952TIP3   OH217796   5.704   1.373   5.000  0.3837  0.4788 -0.1596
 5952TIP3    H117797   5.657   1.294   4.973  0.2197  0.8456 -0.9822
 5952TIP3    H217798   5.652   1.409   5.072 -0.0313  0.3087 -0.3721
 5953TIP3   OH217799   5.887   1.203   4.736 -0.3416 -0.0889 -0.0941
 5953TIP3    H117800   5.861   1.127   4.787  0.7955 -1.6609 -1.7963
 5953TIP3    H217801   5.806   1.232   4.694 -0.8407 -0.1374  0.8166
 5954TIP3   OH217802   7.521   0.769   5.255  0.5898  0.0424 -0.1500
 5954TIP3    H117803   7.505   0.675   5.258 -1.1762  0.3184 -0.2501
 5954TIP3    H217804   7.508   0.793   5.163  0.0840  0.5175  0.0378
 5955TIP3   OH217805   7.605   2.568  -0.000  0.3264  0.5261  0.5106
 5955TIP3    H117806   7.519   2.600   0.029  0.5811  1.6109  0.0764
 5955TIP3    H217807   7.667   2.634   0.029  1.1079 -0.5571  1.3658
 5956TIP3   OH217808   3.566   1.534   5.186 -0.4235  0.0566  0.1131
 5956TIP3    H117809   3.571   1.600   5.116  0.4257 -0.0464  0.0665
 5956TIP3    H217810   3.495   1.476   5.159 -0.8022  0.6266 -0.1309
 5957TIP3   OH217811   4.113   2.317   5.407  0.9079 -0.4603  0.8837
 5957TIP3    H117812   4.185   2.340   5.466  1.1912  1.1561 -0.0668
 5957TIP3    H217813   4.085   2.400   5.369 -0.8801 -1.1818  0.5530
 5958TIP3   OH217814   3.357   1.863   4.901  0.1716  0.2452 -0.4695
 5958TIP3    H117815   3.304   1.839   4.978  1.2843  0.9499  0.5193
 5958TIP3    H217816   3.292   1.887   4.835 -0.8478 -1.5303 -0.1726
 5959TIP3   OH217817   4.331   0.922   5.518 -0.1698 -0.0738  0.7500
 5959TIP3    H117818   4.355   0.992   5.458  0.8027 -0.1253  1.0676
 5959TIP3    H217819   4.238   0.906   5.501 -0.1814  0.6966  0.0745
 5960TIP3   OH217820   5.625   1.316   6.549 -0.6971  0.2569  0.6713
 5960TIP3    H117821   5.579   1.400   6.544 -1.5396 -0.2036  0.4774
 5960TIP3    H217822   5.555   1.251   6.540 -0.2545 -0.4823  2.3483
 5961TIP3   OH217823   5.441   1.549   4.637 -0.6613  0.0306 -0.0623
 5961TIP3    H117824   5.447   1.643   4.650 -2.2814  0.2860 -0.9785
 5961TIP3    H217825   5.531   1.518   4.643 -0.1684  1.5748  0.6974
 5962TIP3   OH217826   6.639   1.766   4.072 -0.2985 -0.4640 -0.5612
 5962TIP3    H117827   6.592   1.700   4.020 -0.7839 -1.9996  1.7764
 5962TIP3    H217828   6.725   1.771   4.031 -0.6708 -1.6483 -1.5284
 5963TIP3   OH217829   5.077   7.620   6.187 -0.1141  0.2886 -0.3737
 5963TIP3    H117830   5.010   7.561   6.222  1.6220 -0.2274  2.2717
 5963TIP3    H217831   5.035   7.664   6.113 -3.4242  0.1728  1.3519
 5964TIP3   OH217832   6.518   1.495   4.000  0.0731 -0.2435  0.7006
 5964TIP3    H117833   6.460   1.432   4.044  0.8435 -0.3621  1.5810
 5964TIP3    H217834   6.572   1.441   3.942 -1.4695  0.0040 -1.0000
 5965TIP3   OH217835   3.797  -0.000   4.384  0.0030  0.6460  0.4449
 5965TIP3    H117836   3.882   0.003   4.340  0.3311  2.0384  1.1437
 5965TIP3    H217837   3.778   0.091   4.407 -0.8373  0.1309  1.8867
 5966TIP3   OH217838   8.192   1.222   6.440  0.0677 -0.7728  0.0044
 5966TIP3    H117839   8.113   1.275   6.446  0.2208 -0.6369  0.7547
 5966TIP3    H217840   8.176   1.149   6.500 -0.3880 -1.8920 -1.4447
 5967TIP3   OH217841   1.560   6.051   3.899  0.3244 -0.1319  0.3530
 5967TIP3    H117842   1.629   6.009   3.951  0.5702 -1.0074 -0.6541
 5967TIP3    H217843   1.606   6.086   3.823 -0.3903 -1.1056 -0.5480
 5968TIP3   OH217844   4.463   1.635   4.059  0.0981 -0.0839  0.0605
 5968TIP3    H117845   4.468   1.588   3.976  2.5777  1.1916 -0.5604
 5968TIP3    H217846   4.370   1.658   4.068 -0.3599 -1.1060 -1.8542
 5969TIP3   OH217847   5.937   2.876   4.306 -0.1827  0.1701 -0.0087
 5969TIP3    H117848   5.871   2.837   4.363  0.0354  0.2103  0.2728
 5969TIP3    H217849   5.947   2.966   4.338 -0.4257  0.3518 -0.4319
 5970TIP3   OH217850   4.415   0.103   1.418 -0.4881 -0.2894  0.0215
 5970TIP3    H117851   4.322   0.117   1.437  0.3199  1.0521  3.3221
 5970TIP3    H217852   4.438   0.174   1.358 -1.0473  0.7577  1.0318
 5971TIP3   OH217853   5.952   0.596   5.362 -0.0645  0.2023  0.5561
 5971TIP3    H117854   5.872   0.648   5.353 -1.6327 -2.1851  0.1485
 5971TIP3    H217855   6.021   0.659   5.381 -1.7936  2.4671 -0.5621
 5972TIP3   OH217856   5.243   2.011   4.949  0.5209 -0.1982  0.2659
 5972TIP3    H117857   5.174   1.963   4.997 -1.8235  1.9518 -0.8440
 5972TIP3    H217858   5.274   1.948   4.884 -0.4829 -1.1937  0.7210
 5973TIP3   OH217859   1.994   6.626   5.527  0.4652 -0.2792  0.4036
 5973TIP3    H117860   2.068   6.616   5.467  1.1654  1.8734  0.8581
 5973TIP3    H217861   1.932   6.559   5.500  0.4263  1.1478 -3.2407
 5974TIP3   OH217862   2.756   2.825   3.721  0.2771 -0.9824  0.2197
 5974TIP3    H117863   2.800   2.859   3.643  2.4847  0.4013  1.9826
 5974TIP3    H217864   2.729   2.904   3.769 -0.2237 -1.7946  1.2891
 5975TIP3   OH217865   5.248   0.569   3.931 -0.7252 -0.4681 -0.6276
 5975TIP3    H117866   5.207   0.602   4.010 -2.4252 -2.3899 -0.6730
 5975TIP3    H217867   5.177   0.562   3.867  0.1036 -1.5846 -1.4597
 5976TIP3   OH217868   6.452   6.657   0.742  0.0710  0.0067 -0.3781
 5976TIP3    H117869   6.525   6.680   0.799  2.0560 -1.8928 -2.0532
 5976TIP3    H217870   6.460   6.718   0.668  0.2546 -0.5444 -0.8097
 5977TIP3   OH217871   3.855   2.567   4.520  0.1906  0.0175  0.0064
 5977TIP3    H117872   3.861   2.650   4.568  0.6023  0.0652 -0.1325
 5977TIP3    H217873   3.785   2.583   4.455  0.0989  0.1737  0.1412
 5978TIP3   OH217874   4.095   0.591   2.273 -0.7011 -0.3818 -0.3820
 5978TIP3    H117875   4.163   0.586   2.206 -0.8769  0.6090 -0.6390
 5978TIP3    H217876   4.013   0.575   2.227 -0.8441  0.5172 -0.4520
 5979TIP3   OH217877   3.954   2.212   4.695 -0.3719  0.1931  0.0864
 5979TIP3    H117878   3.997   2.245   4.615 -0.7222  0.1349 -0.1266
 5979TIP3    H217879   3.924   2.290   4.740 -0.7752  0.1901 -0.1779
 5980TIP3   OH217880   4.913   7.040   4.224  0.0394  0.3622 -0.5216
 5980TIP3    H117881   5.001   7.060   4.193 -0.0525  0.7074 -0.5674
 5980TIP3    H217882   4.873   7.126   4.240 -0.4401  0.2213 -0.9379
 5981TIP3   OH217883   3.497   8.000   3.562  0.3981  0.1946 -0.1768
 5981TIP3    H117884   3.426   8.053   3.598 -0.0753 -0.0609 -0.7316
 5981TIP3    H217885   3.475   7.989   3.469  0.4271 -1.0693 -0.0476
 5982TIP3   OH217886   3.627   0.694   4.642 -0.2712 -0.0009 -0.4393
 5982TIP3    H117887   3.540   0.681   4.605 -0.2233 -0.4937 -0.3782
 5982TIP3    H217888   3.651   0.609   4.679  0.3488  0.0571 -0.6998
 5983TIP3   OH217889   4.000   0.797   5.030 -0.0194  0.6099  0.1574
 5983TIP3    H117890   3.963   0.791   5.117  0.6336 -0.2027  0.3835
 5983TIP3    H217891   4.094   0.810   5.045 -0.0660  1.7451 -0.4118
 5984TIP3   OH217892   2.418   7.809   4.223 -0.1390 -0.2241 -0.2146
 5984TIP3    H117893   2.403   7.727   4.177  2.3984 -1.0457  0.3653
 5984TIP3    H217894   2.337   7.860   4.208 -1.6687 -2.7197 -0.6954
 5985TIP3   OH217895   1.231   7.088   3.243  0.1649 -0.1494 -0.0075
 5985TIP3    H117896   1.137   7.102   3.235  0.0334 -0.3707  1.0364
 5985TIP3    H217897   1.260   7.068   3.154 -0.6002  0.9267 -0.5051
 5986TIP3   OH217898   1.870   8.067   4.456  0.4763 -0.1353 -1.2615
 5986TIP3    H117899   1.950   8.110   4.427  0.7048 -0.8429 -1.7100
 5986TIP3    H217900   1.883   7.975   4.433  1.0561 -0.9154  1.9161
 5987TIP3   OH217901   5.712   1.571   3.571  0.2465  0.2063 -1.0479
 5987TIP3    H117902   5.738   1.591   3.661 -0.4509  0.2042 -0.8417
 5987TIP3    H217903   5.720   1.655   3.525 -1.3047  0.6696 -0.5138
 5988TIP3   OH217904   3.237   0.184   3.691  0.1845 -0.0520  0.6238
 5988TIP3    H117905   3.198   0.098   3.673  0.3229 -0.2545  1.2927
 5988TIP3    H217906   3.331   0.170   3.680  0.1128  0.3786 -0.7444
 5989TIP3   OH217907   3.175   1.946   4.669 -0.3785  0.9820 -0.6940
 5989TIP3    H117908   3.100   1.895   4.698  0.5967  0.0785  0.2862
 5989TIP3    H217909   3.175   1.938   4.574  0.1830 -1.4861 -0.5145
 5990TIP3   OH217910   5.524   5.444   0.059  0.3150 -0.0405 -0.2155
 5990TIP3    H117911   5.473   5.379   0.107 -0.6508 -0.3447 -1.6210
 5990TIP3    H217912   5.546   5.400  -0.023  0.1765  1.1871 -0.9122
 5991TIP3   OH217913   4.513   0.693   1.695 -0.2218 -0.3541  0.1524
 5991TIP3    H117914   4.603   0.660   1.702  0.4793  1.3229 -0.6935
 5991TIP3    H217915   4.523   0.783   1.665 -2.2202 -0.3401 -0.5302
 5992TIP3   OH217916   6.563   1.793   6.631  0.5542 -0.1820 -0.2662
 5992TIP3    H117917   6.511   1.768   6.555  0.0542  1.1814 -0.3991
 5992TIP3    H217918   6.499   1.808   6.701  0.7744  1.1815 -0.3351
 5993TIP3   OH217919   6.385   1.336   4.175 -0.3064 -0.5072  0.0218
 5993TIP3    H117920   6.443   1.307   4.245  0.9857 -1.8232 -1.5607
 5993TIP3    H217921   6.298   1.337   4.215  0.3619 -1.5716  1.5524
 5994TIP3   OH217922   7.193   7.199   6.804 -0.0991  0.0536  0.3066
 5994TIP3    H117923   7.267   7.142   6.785 -1.0169 -0.8612 -0.5348
 5994TIP3    H217924   7.156   7.221   6.719 -0.0351  1.5551  0.6380
 5995TIP3   OH217925   5.958   1.751   3.431  0.3026  0.3857 -0.1227
 5995TIP3    H117926   6.053   1.736   3.437  0.2725  0.2378  0.0151
 5995TIP3    H217927   5.930   1.762   3.522  0.5012  2.4686 -0.2827
 5996TIP3   OH217928   3.653   2.584   6.567 -0.1247 -0.0751 -0.6930
 5996TIP3    H117929   3.580   2.535   6.607 -0.9425  1.5681 -0.1412
 5996TIP3    H217930   3.712   2.516   6.534  0.1425 -1.4788  2.5071
 5997TIP3   OH217931   5.884   1.449   5.608  0.0882  0.0782 -0.1159
 5997TIP3    H117932   5.909   1.510   5.538  1.0115  0.0952  0.2187
 5997TIP3    H217933   5.904   1.496   5.689  1.6615 -1.0013  0.1427
 5998TIP3   OH217934   3.056   8.118   5.640  0.5347  0.2534 -0.5254
 5998TIP3    H117935   2.976   8.066   5.636 -0.8189  2.3141 -0.7329
 5998TIP3    H217936   3.084   8.127   5.549  0.0303  0.9928 -0.6118
 5999TIP3   OH217937   8.614   3.735   0.111  0.2188  0.7595 -0.2022
 5999TIP3    H117938   8.545   3.735   0.177  0.0413 -0.8763 -0.3544
 5999TIP3    H217939   8.571   3.706   0.030  0.3063  3.3370 -1.2016
 6000TIP3   OH217940   1.462   8.034   4.412  0.5627 -0.1476  0.0625
 6000TIP3    H117941   1.501   7.954   4.375 -1.0225 -1.1415  0.4775
 6000TIP3    H217942   1.510   8.048   4.493 -0.6187 -2.0121  1.1443
 6001TIP3   OH217943   5.368   3.744   5.752  0.4130  0.1784 -0.1669
 6001TIP3    H117944   5.309   3.739   5.676  1.3118  1.7789 -0.9891
 6001TIP3    H217945   5.327   3.808   5.810 -0.4068 -1.2355  0.8387
 6002TIP3   OH217946   7.218   2.823   3.714  0.2628 -0.3792  0.5931
 6002TIP3    H117947   7.276   2.898   3.701  0.6440 -0.7507  0.1026
 6002TIP3    H217948   7.267   2.749   3.679 -0.9807 -0.5168 -0.9230
 6003TIP3   OH217949   5.389   1.184   5.727  0.1555 -0.1398  0.0210
 6003TIP3    H117950   5.423   1.268   5.699  0.8587 -1.3354 -2.8920
 6003TIP3    H217951   5.349   1.201   5.813  3.9957  2.2253  1.4350
 6004TIP3   OH217952   3.941   1.921   4.159  0.6659 -0.4935 -0.3276
 6004TIP3    H117953   3.884   1.981   4.110 -0.0689 -0.4139  0.6065
 6004TIP3    H217954   3.979   1.976   4.228 -1.6670 -1.5459  1.8614
 6005TIP3   OH217955   6.212   1.787   0.119 -0.1653 -0.4421 -0.0675
 6005TIP3    H117956   6.135   1.843   0.121  1.3400  1.8339 -2.1744
 6005TIP3    H217957   6.198   1.728   0.045  0.7904  1.0818 -1.5040
 6006TIP3   OH217958   6.732   1.778   3.612 -0.4559  0.3799 -0.6117
 6006TIP3    H117959   6.788   1.736   3.546 -0.2062  0.1985 -0.2910
 6006TIP3    H217960   6.790   1.839   3.657 -0.5499  0.2884 -0.3654
 6007TIP3   OH217961   7.898   4.276   1.359  0.2980  0.0334 -0.1857
 6007TIP3    H117962   7.906   4.196   1.410 -1.6762 -0.2385 -0.2878
 6007TIP3    H217963   7.826   4.324   1.399 -0.6420  0.2763 -2.0912
 6008TIP3   OH217964   3.724   7.791   5.233  0.8490 -0.0116 -0.0046
 6008TIP3    H117965   3.816   7.769   5.247  0.8930  0.3417  0.2684
 6008TIP3    H217966   3.726   7.854   5.161  0.8542  0.3088  0.2763
 6009TIP3   OH217967   7.247   3.911   0.639 -0.2972 -0.7453 -0.0809
 6009TIP3    H117968   7.251   3.839   0.702  1.7382  0.1023  0.8236
 6009TIP3    H217969   7.178   3.968   0.672  0.4360 -0.5453  1.1420
 6010TIP3   OH217970   2.960   7.915   6.713  0.2751 -0.3672 -0.1381
 6010TIP3    H117971   3.002   7.840   6.756  0.6305 -0.6129 -0.8861
 6010TIP3    H217972   2.878   7.879   6.678 -0.5248  0.0913  1.2517
 6011TIP3   OH217973   0.786   7.963   4.199  0.4135 -0.2846  0.1842
 6011TIP3    H117974   0.818   7.991   4.285 -1.1741  0.4471  0.5511
 6011TIP3    H217975   0.702   8.007   4.189  0.6042 -0.3124 -1.7880
 6012TIP3   OH217976   8.163   7.931   2.709 -0.2978  0.7506 -0.9402
 6012TIP3    H117977   8.183   7.848   2.753 -1.5561  0.9713  0.0920
 6012TIP3    H217978   8.244   7.982   2.716  0.1973 -0.0397 -0.7862
 6013TIP3   OH217979   2.057   7.683   2.881  0.6176  0.3812 -0.2245
 6013TIP3    H117980   2.115   7.738   2.829  0.7256 -1.0146 -1.6402
 6013TIP3    H217981   2.109   7.604   2.899 -0.7465 -0.8220 -1.3833
 6014TIP3   OH217982   5.508   0.920   6.170 -0.4805 -0.0301 -0.0528
 6014TIP3    H117983   5.467   0.884   6.249 -0.6759 -1.0351 -0.6090
 6014TIP3    H217984   5.557   0.847   6.132  0.3098  0.6764 -0.4022
 6015TIP3   OH217985   6.633   3.433   5.646  0.2407  0.0353  0.3936
 6015TIP3    H117986   6.575   3.386   5.705  0.6753  0.9810  1.6063
 6015TIP3    H217987   6.709   3.455   5.700  1.2608 -0.2774 -0.8906
 6016TIP3   OH217988   5.795   0.651   4.895  0.1961 -0.8283 -0.1322
 6016TIP3    H117989   5.840   0.698   4.965  0.1705 -0.6804 -0.2146
 6016TIP3    H217990   5.821   0.559   4.907 -0.0692 -0.8512  0.2658
 6017TIP3   OH217991   6.234   1.122   5.112 -0.0517  0.2078 -0.3571
 6017TIP3    H117992   6.279   1.199   5.146  0.8560  0.4159 -1.9877
 6017TIP3    H217993   6.197   1.150   5.029  1.0115 -1.3264 -1.3817
 6018TIP3   OH217994   4.193   1.490   4.624 -0.5895  0.1458 -0.1352
 6018TIP3    H117995   4.213   1.572   4.669  1.5039  0.4348 -1.5062
 6018TIP3    H217996   4.137   1.516   4.551 -1.4695  0.0936  0.5190
 6019TIP3   OH217997   6.297   0.868   4.011  0.6785  0.2692  0.3746
 6019TIP3    H117998   6.208   0.900   3.993  1.3276  2.1113  0.2948
 6019TIP3    H217999   6.320   0.909   4.094  1.6210  0.1793  0.1551
 6020TIP3   OH218000   4.119   7.289   5.273 -0.3033 -0.3890 -0.2917
 6020TIP3    H118001   4.064   7.222   5.313 -2.1964  0.0158 -2.1261
 6020TIP3    H218002   4.062   7.367   5.268  1.2194  0.7644 -0.0105
 6021TIP3   OH218003   3.496   7.206   5.681  0.0611  0.2103 -0.4245
 6021TIP3    H118004   3.511   7.247   5.595  0.5415  2.3153  0.6381
 6021TIP3    H218005   3.570   7.145   5.691  0.2909  0.3394 -1.2523
 6022TIP3   OH218006   7.861   1.845   5.269  0.0117  0.0800 -0.0221
 6022TIP3    H118007   7.848   1.873   5.360 -0.2890  0.9722 -0.3373
 6022TIP3    H218008   7.801   1.900   5.218 -0.6359 -1.1731 -0.6502
 6023TIP3   OH218009   5.798   1.640   3.882  0.6002 -0.2079 -0.0653
 6023TIP3    H118010   5.869   1.651   3.819  0.4583 -0.3835 -0.2587
 6023TIP3    H218011   5.841   1.609   3.961  0.8137  0.2674  0.0081
 6024TIP3   OH218012   1.190   7.581   2.746 -0.2584 -0.2652  0.3389
 6024TIP3    H118013   1.143   7.502   2.719  0.1620 -1.6390  3.4979
 6024TIP3    H218014   1.282   7.561   2.732 -0.1188 -0.5445  1.5852
 6025TIP3   OH218015   4.690   0.744   4.515 -0.5007  0.1371  0.2932
 6025TIP3    H118016   4.684   0.718   4.606 -2.0681  1.2296  0.5212
 6025TIP3    H218017   4.669   0.838   4.515  0.3991  0.3699 -1.0750
 6026TIP3   OH218018   0.525   3.468   1.987 -0.6829  0.0502 -0.1834
 6026TIP3    H118019   0.619   3.458   1.998 -0.8502  0.3607  1.7757
 6026TIP3    H218020   0.515   3.555   1.947 -0.1568  0.1878 -0.0184
 6027TIP3   OH218021   4.065   7.996   5.120 -0.1104 -0.2011 -0.4242
 6027TIP3    H118022   4.024   7.910   5.111  0.2395 -0.5892  1.5320
 6027TIP3    H218023   4.154   7.977   5.149  0.6347  0.7548 -1.9921
 6028TIP3   OH218024   4.410   0.275   3.846 -0.0584  0.0507 -0.2814
 6028TIP3    H118025   4.361   0.269   3.764  0.1052 -1.5712 -0.2602
 6028TIP3    H218026   4.356   0.333   3.901 -0.0001  1.4143 -1.6269
 6029TIP3   OH218027   1.191   6.850   3.572  0.1470  0.2338 -0.0178
 6029TIP3    H118028   1.118   6.849   3.509  0.4462 -1.8397 -0.3578
 6029TIP3    H218029   1.189   6.938   3.609 -1.4198  0.7794 -1.3317
 6030TIP3   OH218030   3.798   7.768   6.014 -0.0993 -0.2015 -0.1151
 6030TIP3    H118031   3.736   7.825   5.969 -1.1945 -0.4754  1.0188
 6030TIP3    H218032   3.855   7.735   5.945 -0.7128  0.6913 -1.0576
 6031TIP3   OH218033   1.617   0.849   4.523  0.0557 -0.4534 -0.4486
 6031TIP3    H118034   1.684   0.857   4.455 -0.0519 -0.8749 -0.6034
 6031TIP3    H218035   1.661   0.804   4.595  1.0346  2.6002  0.9247
 6032TIP3   OH218036   7.937   7.596   2.145 -0.0254  0.3005  0.1808
 6032TIP3    H118037   7.877   7.586   2.219 -0.9182  0.9342 -0.4441
 6032TIP3    H218038   8.024   7.587   2.183 -0.5530 -2.7827  0.7702
 6033TIP3   OH218039   7.182   1.077   4.371  0.1684  0.1046  0.4362
 6033TIP3    H118040   7.237   1.024   4.314 -0.7388 -0.3618 -0.0185
 6033TIP3    H218041   7.239   1.149   4.399  0.5978  0.4096 -1.1485
 6034TIP3   OH218042   4.275   0.827   6.995  0.6691 -0.4727 -0.7329
 6034TIP3    H118043   4.216   0.810   6.922  1.5962  0.6497 -1.7693
 6034TIP3    H218044   4.270   0.922   7.008  1.4538 -0.5045 -0.1667
 6035TIP3   OH218045   5.741   0.957   4.875  0.1700 -0.4687 -0.2859
 6035TIP3    H118046   5.706   0.973   4.962 -0.2729 -1.3194 -0.3020
 6035TIP3    H218047   5.736   0.862   4.864  1.7360 -0.5380 -0.5983
 6036TIP3   OH218048   6.938   1.254   5.547 -0.0753  0.5668 -0.1064
 6036TIP3    H118049   6.880   1.327   5.529 -0.0311  0.5727 -0.2259
 6036TIP3    H218050   7.014   1.293   5.591 -0.2474  0.5332  0.2180
 6037TIP3   OH218051   5.132   1.644   6.162 -0.1097 -0.0154 -0.2271
 6037TIP3    H118052   5.203   1.625   6.224 -1.3902 -1.7408  0.7282
 6037TIP3    H218053   5.104   1.733   6.185 -0.9814 -0.8541  2.1173
 6038TIP3   OH218054   5.415   2.673   5.031 -0.1228 -0.5918 -0.0319
 6038TIP3    H118055   5.496   2.722   5.025 -0.2953 -0.5467 -2.4485
 6038TIP3    H218056   5.430   2.610   5.101  1.5693  0.1871  0.3246
 6039TIP3   OH218057   6.792   1.034   5.592 -0.3336 -0.0790  0.0662
 6039TIP3    H118058   6.763   1.012   5.504 -0.5854  1.4578 -0.2552
 6039TIP3    H218059   6.859   1.101   5.579 -0.7683  0.5658  1.0702
 6040TIP3   OH218060   4.696   6.796   5.196  0.0143 -0.6238 -0.0850
 6040TIP3    H118061   4.639   6.790   5.272 -0.3338 -0.0065 -0.2914
 6040TIP3    H218062   4.662   6.870   5.146  1.3704  0.1442  0.0973
 6041TIP3   OH218063   5.285   0.960   4.396 -0.1449 -0.0686  0.1227
 6041TIP3    H118064   5.309   1.035   4.450 -0.1176 -0.5715  0.8223
 6041TIP3    H218065   5.195   0.940   4.422 -0.6203  0.5368 -1.0127
 6042TIP3   OH218066   7.033   2.371   4.911  0.5532 -0.3707 -0.0189
 6042TIP3    H118067   6.955   2.374   4.967  1.3570  1.7764  1.0272
 6042TIP3    H218068   7.001   2.337   4.827 -0.9379 -2.2951  1.2898
 6043TIP3   OH218069   1.732   1.616   4.925 -0.0407  0.7743 -0.2199
 6043TIP3    H118070   1.782   1.690   4.890 -0.1779  0.2842 -1.4960
 6043TIP3    H218071   1.688   1.578   4.848  0.2375 -0.7806  0.3560
 6044TIP3   OH218072   3.501   0.124   3.181  0.5446 -0.4651 -0.4216
 6044TIP3    H118073   3.488   0.139   3.275 -1.2957 -1.6082 -0.4598
 6044TIP3    H218074   3.595   0.109   3.172  0.9975  1.3480  0.9850
 6045TIP3   OH218075   2.429   7.970   6.307 -0.1596 -0.3641  0.5483
 6045TIP3    H118076   2.361   8.035   6.322 -2.4005 -2.6958  0.8459
 6045TIP3    H218077   2.474   8.000   6.228  0.3898  2.7349  1.9766
 6046TIP3   OH218078   5.045   0.250   4.545 -0.0753  1.0038  0.8987
 6046TIP3    H118079   5.134   0.247   4.582  0.5740 -0.4172 -0.7705
 6046TIP3    H218080   5.058   0.261   4.451 -1.6275 -1.3714  0.3736
 6047TIP3   OH218081   3.033   0.209   3.918 -0.3687  0.1172 -0.1360
 6047TIP3    H118082   3.085   0.201   3.837  1.3149  1.4703  0.7757
 6047TIP3    H218083   2.966   0.274   3.898 -0.6632 -0.3862 -0.7945
 6048TIP3   OH218084   0.188   0.073   5.995 -0.7733 -0.0038  0.3934
 6048TIP3    H118085   0.185   0.155   5.944 -0.4769 -0.0664  0.2741
 6048TIP3    H218086   0.097   0.048   6.005 -0.8588  0.2781  0.3195
 6049TIP3   OH218087   0.495   6.401   3.595 -0.2179 -0.0825 -0.0504
 6049TIP3    H118088   0.486   6.379   3.503 -0.4418  0.2821 -0.1185
 6049TIP3    H218089   0.502   6.497   3.596 -0.5241 -0.0612  0.3351
 6050TIP3   OH218090   7.268   0.600   5.078 -0.3963 -0.1298  0.0307
 6050TIP3    H118091   7.316   0.552   5.146  0.9205  0.7059 -0.2944
 6050TIP3    H218092   7.236   0.532   5.018  1.8827 -0.5894 -0.7055
 6051TIP3   OH218093   6.604   1.321   4.788  0.0340  0.5126 -0.4125
 6051TIP3    H118094   6.618   1.386   4.856 -0.0354  0.7866 -0.6580
 6051TIP3    H218095   6.664   1.348   4.717 -0.2413  0.5056 -0.6482
 6052TIP3   OH218096   7.670   4.751   4.179 -0.1544 -0.1768  0.2448
 6052TIP3    H118097   7.579   4.746   4.149 -0.2087  1.1158  0.1720
 6052TIP3    H218098   7.722   4.725   4.103 -0.3148  2.5375 -0.8316
 6053TIP3   OH218099   6.494   1.781   4.789  0.0036  0.3416 -0.4270
 6053TIP3    H118100   6.542   1.864   4.799  0.1129  0.1084  1.1572
 6053TIP3    H218101   6.531   1.742   4.710  1.9232  0.5212  0.3320
 6054TIP3   OH218102   5.764   3.065   4.799 -0.3504  0.0986 -0.3952
 6054TIP3    H118103   5.671   3.043   4.802 -0.6361  1.3252 -0.0480
 6054TIP3    H218104   5.794   3.057   4.890  0.0052 -0.7841 -0.5838
 6055TIP3   OH218105   6.666   0.853   4.996  0.4183  0.2009  0.1269
 6055TIP3    H118106   6.701   0.764   4.993  0.4917  0.2361 -0.0686
 6055TIP3    H218107   6.701   0.896   4.918  1.7648  0.9287  1.1036
 6056TIP3   OH218108   5.011   1.218   4.162  0.2114 -0.6630  0.3966
 6056TIP3    H118109   4.992   1.220   4.256  0.7733 -1.3070  0.5300
 6056TIP3    H218110   5.098   1.257   4.155  0.2670 -0.8276  0.1712
 6057TIP3   OH218111   6.577   0.622   3.733  0.5445  0.7083  0.3506
 6057TIP3    H118112   6.637   0.655   3.801  1.7722  0.1979 -0.4631
 6057TIP3    H218113   6.635   0.599   3.660 -0.8954  2.6344 -1.4400
 6058TIP3   OH218114   6.317   1.690   5.680  0.3528 -0.1620  0.0200
 6058TIP3    H118115   6.366   1.766   5.712  2.7778 -1.5291 -0.2844
 6058TIP3    H218116   6.325   1.625   5.749 -1.0074 -0.4375 -0.0726
 6059TIP3   OH218117   7.445   0.437   5.537  0.7946 -0.3001 -0.3497
 6059TIP3    H118118   7.411   0.429   5.625  0.0184  1.7099 -0.4303
 6059TIP3    H218119   7.490   0.354   5.520  0.6433 -0.8371  1.7823
 6060TIP3   OH218120   3.523   7.540   2.527 -0.4468  0.7590 -0.0273
 6060TIP3    H118121   3.457   7.609   2.531  0.4016  1.6208 -0.8916
 6060TIP3    H218122   3.529   7.517   2.434 -1.7227 -1.4743  0.3850
 6061TIP3   OH218123   6.506   1.255   2.357  0.1088  0.3983 -0.3084
 6061TIP3    H118124   6.539   1.201   2.428  0.5036 -0.2546 -0.9818
 6061TIP3    H218125   6.413   1.234   2.351  0.3339 -0.4624 -0.7908
 6062TIP3   OH218126   3.913   0.254   4.406 -0.4624  0.0730  0.2230
 6062TIP3    H118127   4.000   0.219   4.385 -1.0478 -1.7973  0.7599
 6062TIP3    H218128   3.908   0.338   4.360  1.8477  0.4784  0.6715
 6063TIP3   OH218129   7.022   2.043   2.511  0.0335 -0.2143  0.3572
 6063TIP3    H118130   7.108   2.085   2.518  0.2430 -0.6338  0.3564
 6063TIP3    H218131   6.963   2.112   2.481  0.3626  0.0875  0.4027
 6064TIP3   OH218132   0.528   0.685   5.036  0.5466  0.0959  0.1352
 6064TIP3    H118133   0.565   0.605   5.075  1.6542  0.9347  0.8393
 6064TIP3    H218134   0.592   0.710   4.970 -0.3234 -0.1797 -0.8100
 6065TIP3   OH218135   6.172   1.903   1.886  0.7734  1.0455 -0.5433
 6065TIP3    H118136   6.181   1.998   1.876 -1.0199  1.0425 -2.6497
 6065TIP3    H218137   6.079   1.890   1.905  0.6312 -0.4105 -2.0981
 6066TIP3   OH218138   5.195   6.460   4.077  0.7790 -0.3690  0.5508
 6066TIP3    H118139   5.269   6.493   4.127  1.0610 -1.1333  0.6485
 6066TIP3    H218140   5.172   6.531   4.017  2.1008 -0.4310 -0.0404
 6067TIP3   OH218141   7.872   0.327   5.135  1.1076  0.0290  0.0819
 6067TIP3    H118142   7.917   0.389   5.192 -0.6581  1.0715  0.3656
 6067TIP3    H218143   7.835   0.262   5.194  0.1887  0.5164  0.0451
 6068TIP3   OH218144   4.880   0.211   5.432  0.6272  0.1790 -0.2618
 6068TIP3    H118145   4.901   0.304   5.443  0.1552  0.2905 -0.3010
 6068TIP3    H218146   4.849   0.184   5.518  0.0721  0.2379 -0.4411
 6069TIP3   OH218147   7.698   0.794   6.440 -0.1864  0.2644  0.4832
 6069TIP3    H118148   7.780   0.819   6.398  0.2692  2.9636  2.8471
 6069TIP3    H218149   7.632   0.802   6.371  1.3807 -1.1506 -1.2233
 6070TIP3   OH218150   7.993   1.241   5.600  0.4551 -0.9328 -0.0546
 6070TIP3    H118151   7.985   1.184   5.524 -1.0214 -0.4330 -0.2918
 6070TIP3    H218152   7.912   1.226   5.650  0.9490 -0.5037  0.8803
 6071TIP3   OH218153   6.715   3.398   3.449 -0.3130  0.3470 -0.0017
 6071TIP3    H118154   6.658   3.335   3.491  0.0616 -0.2300 -0.3462
 6071TIP3    H218155   6.697   3.481   3.493 -0.1608 -0.1764  1.0654
 6072TIP3   OH218156   6.264   2.427   4.827 -0.2097 -0.4893 -0.1628
 6072TIP3    H118157   6.329   2.484   4.869 -0.2728  0.4738 -1.3417
 6072TIP3    H218158   6.257   2.461   4.738 -1.5816 -1.2303 -0.3454
 6073TIP3   OH218159   6.307   1.683   3.834 -0.1250  0.1491 -0.1967
 6073TIP3    H118160   6.289   1.642   3.918  0.6710  1.1242  0.4551
 6073TIP3    H218161   6.319   1.609   3.774 -0.9503 -0.5433  0.4815
 6074TIP3   OH218162   7.194   1.723   3.480 -0.0388  0.1601  0.5524
 6074TIP3    H118163   7.243   1.648   3.446  0.9499  1.0448 -0.0089
 6074TIP3    H218164   7.236   1.799   3.440 -2.5557  0.9120 -0.8016
 6075TIP3   OH218165   6.600   2.328   5.189  0.0636  0.7302  0.2875
 6075TIP3    H118166   6.619   2.318   5.282  0.1412  0.9548  0.2957
 6075TIP3    H218167   6.570   2.241   5.161  0.3030  0.5945  0.4577
 6076TIP3   OH218168   6.026   0.787   3.716 -0.0493 -0.3485  0.2229
 6076TIP3    H118169   6.060   0.846   3.784 -0.2477 -0.5731  0.5213
 6076TIP3    H218170   6.075   0.706   3.728  0.0160 -0.3411  0.0041
 6077TIP3   OH218171   7.621   1.997   5.213  0.3603 -0.0431 -0.1060
 6077TIP3    H118172   7.605   1.975   5.305  0.6857 -2.7662 -0.6413
 6077TIP3    H218173   7.570   2.077   5.197  0.0410  0.2623  2.3436
 6078TIP3   OH218174   7.706   0.130   5.773 -0.3413 -0.3524  0.3126
 6078TIP3    H118175   7.750   0.195   5.829 -1.7920 -0.0731  1.1496
 6078TIP3    H218176   7.778   0.081   5.733  0.7871  1.8418 -0.4270
 6079TIP3   OH218177   8.067   1.162   4.320 -0.5745 -0.2226  0.2412
 6079TIP3    H118178   8.147   1.135   4.364 -0.5877  1.1968  1.1709
 6079TIP3    H218179   8.097   1.196   4.235 -0.4743 -2.1851 -0.5429
 6080TIP3   OH218180   6.924   1.976   3.299 -0.3756  0.4113 -0.2883
 6080TIP3    H118181   6.892   1.960   3.210 -0.3049  1.9422 -0.6019
 6080TIP3    H218182   6.962   2.064   3.295 -0.4399  0.5129  1.2804
 6081TIP3   OH218183   6.959   2.072   4.769  0.1043  0.1485 -0.6249
 6081TIP3    H118184   7.050   2.100   4.784 -0.2496  0.9088  0.1966
 6081TIP3    H218185   6.914   2.152   4.742 -0.4310 -0.1055 -0.4920
 6082TIP3   OH218186   4.032   7.586   6.631  0.7153  0.2007 -0.6802
 6082TIP3    H118187   4.036   7.522   6.560  0.8506  0.0901 -0.5717
 6082TIP3    H218188   4.086   7.549   6.700  2.0519  1.1568 -1.1901
 6083TIP3   OH218189   7.025   1.760   2.386  0.2149  0.3877  0.3051
 6083TIP3    H118190   6.979   1.735   2.466 -0.0920 -0.7829 -0.2362
 6083TIP3    H218191   7.034   1.856   2.392 -0.5724  0.3953  1.3198
 6084TIP3   OH218192   3.509   6.851   6.338 -0.1743  0.1280  0.2903
 6084TIP3    H118193   3.557   6.933   6.324  2.0149 -1.1405  0.2436
 6084TIP3    H218194   3.535   6.794   6.266 -0.7791 -1.0283  0.9690
 6085TIP3   OH218195   5.143   1.128   2.595  0.4024  0.1042 -0.2448
 6085TIP3    H118196   5.074   1.078   2.638 -0.8949  2.2423  0.2542
 6085TIP3    H218197   5.215   1.130   2.657 -0.1156  0.1278  0.3538
 6086TIP3   OH218198   6.754   1.263   6.178  0.1502  0.3854 -0.2824
 6086TIP3    H118199   6.837   1.233   6.215  0.0759 -0.5296 -0.8541
 6086TIP3    H218200   6.773   1.279   6.086 -0.3740 -0.0680 -0.4678
 6087TIP3   OH218201   5.157   1.175   6.321 -0.3071 -0.3556 -0.1777
 6087TIP3    H118202   5.135   1.124   6.244 -1.8749 -0.6072  0.4120
 6087TIP3    H218203   5.073   1.208   6.353  0.2320 -0.8221  1.8168
 6088TIP3   OH218204   3.446   7.758   4.957  0.2847 -0.0319 -0.1334
 6088TIP3    H118205   3.431   7.828   5.021  1.4986 -0.3986  0.5706
 6088TIP3    H218206   3.433   7.677   5.007 -1.9525 -0.3335 -1.1485
 6089TIP3   OH218207   4.799   2.335   5.979 -0.6352 -0.3986 -0.5809
 6089TIP3    H118208   4.722   2.293   6.014  0.9103 -1.3094  1.8250
 6089TIP3    H218209   4.845   2.266   5.931 -0.5275 -0.2204 -0.7399
 6090TIP3   OH218210   4.129   7.879   7.006  0.0047 -0.1102 -0.3462
 6090TIP3    H118211   4.132   7.973   7.020  1.2083  0.0390 -1.4302
 6090TIP3    H218212   4.217   7.857   6.973  0.0121 -1.7353  0.7132
 6091TIP3   OH218213   7.150   0.901   5.326 -0.7209 -0.5913 -0.1840
 6091TIP3    H118214   7.166   0.844   5.401 -1.5630 -0.5423  0.0349
 6091TIP3    H218215   7.168   0.989   5.358  0.8752 -0.7514 -0.6055
 6092TIP3   OH218216   3.541   8.074   6.026 -0.2519 -0.5579  0.2749
 6092TIP3    H118217   3.628   8.084   6.065  0.5150 -1.2357 -1.2281
 6092TIP3    H218218   3.556   8.020   5.949 -2.3487 -2.5618  1.2346
 6093TIP3   OH218219   5.474   2.473   4.464 -0.7206  0.3876 -0.1602
 6093TIP3    H118220   5.514   2.470   4.551 -0.4237 -0.4288 -0.3206
 6093TIP3    H218221   5.510   2.396   4.419 -0.7156  0.9211 -1.0702
 6094TIP3   OH218222   5.037   0.750   6.168  0.3090 -0.0283 -0.5386
 6094TIP3    H118223   5.039   0.683   6.237  0.4500  0.3489 -0.1729
 6094TIP3    H218224   5.125   0.748   6.131  0.0850 -0.5763 -1.0424
 6095TIP3   OH218225   5.751   8.097   2.422  0.2441  0.6695 -0.0004
 6095TIP3    H118226   5.731   8.053   2.340 -0.1478  0.9259 -0.0452
 6095TIP3    H218227   5.785   8.028   2.479 -1.2777  0.1104  0.2485
 6096TIP3   OH218228   5.988   1.318   1.540  0.1332 -0.2370  0.2252
 6096TIP3    H118229   5.961   1.260   1.611  1.0093 -1.4332 -0.4026
 6096TIP3    H218230   6.003   1.260   1.466  0.9582  0.7987 -0.4318
 6097TIP3   OH218231   8.136   0.242   5.028 -0.1958  0.3285 -0.3916
 6097TIP3    H118232   8.062   0.263   5.085  0.9857  0.0519  1.2572
 6097TIP3    H218233   8.175   0.328   5.008 -0.2273  0.3754 -0.2544
 6098TIP3   OH218234   4.134   7.912   4.099 -0.3629 -0.0851 -0.5587
 6098TIP3    H118235   4.120   8.006   4.095  0.6558  0.0515 -1.2189
 6098TIP3    H218236   4.128   7.891   4.192  0.3300  0.7877 -0.3093
 6099TIP3   OH218237   2.387   4.874   0.742 -0.1079  0.0997 -0.3318
 6099TIP3    H118238   2.371   4.897   0.650  0.1269  0.6110 -0.2417
 6099TIP3    H218239   2.406   4.780   0.739  0.8214  0.3011 -0.9136
 6100TIP3   OH218240   3.960   6.890   4.021 -0.4367 -0.2146  0.0891
 6100TIP3    H118241   3.885   6.854   3.974 -0.8367 -0.7543  1.1144
 6100TIP3    H218242   3.936   6.980   4.041  0.3305  0.4864 -1.9821
 6101TIP3   OH218243   0.517   0.761   5.775  0.0374 -0.4960  0.1622
 6101TIP3    H118244   0.561   0.829   5.724 -1.7264 -0.4427 -1.3324
 6101TIP3    H218245   0.584   0.731   5.838  1.2578  1.6211 -0.0784
 6102TIP3   OH218246   5.724   2.731   4.443  0.1463  0.2158 -0.0425
 6102TIP3    H118247   5.709   2.696   4.356  0.4042 -1.0794  0.4243
 6102TIP3    H218248   5.642   2.773   4.467 -0.2064 -0.1728 -0.5698
 6103TIP3   OH218249   7.132   6.825   4.263  0.0328 -0.1768 -0.3815
 6103TIP3    H118250   7.215   6.821   4.215  0.7210 -1.1161  0.8371
 6103TIP3    H218251   7.159   6.835   4.355 -1.2085 -0.2680 -0.0012
 6104TIP3   OH218252   6.854   7.644   6.014 -0.2061  0.0936 -0.1671
 6104TIP3    H118253   6.942   7.648   6.050 -0.1793  0.8772 -0.3292
 6104TIP3    H218254   6.799   7.688   6.079 -0.6290 -1.1708  0.3694
 6105TIP3   OH218255   8.220   0.373   4.134  0.0656 -0.4261  0.3953
 6105TIP3    H118256   8.171   0.304   4.089  0.4445 -0.4916  0.0874
 6105TIP3    H218257   8.307   0.371   4.095  0.0038  0.3996  0.2120
 6106TIP3   OH218258   6.465   1.293   5.336  0.0765  0.0669 -0.5304
 6106TIP3    H118259   6.460   1.198   5.344  0.9747  0.0943  0.5135
 6106TIP3    H218260   6.374   1.321   5.323 -0.3781 -0.8313  0.5889
 6107TIP3   OH218261   4.555   7.868   4.058  0.0250  0.4381  0.0563
 6107TIP3    H118262   4.585   7.912   4.138 -0.3664  2.0687 -0.6740
 6107TIP3    H218263   4.558   7.775   4.079  1.0845  0.8004  1.5677
 6108TIP3   OH218264   2.126   7.229   3.917 -0.2331  0.0422  0.4654
 6108TIP3    H118265   2.210   7.268   3.891  0.6890 -1.6992  0.7845
 6108TIP3    H218266   2.078   7.218   3.835  0.7181 -0.9227  0.0207
 6109TIP3   OH218267   2.867   7.140   3.503  0.4585  0.1469  0.1854
 6109TIP3    H118268   2.939   7.133   3.566 -1.6173 -0.1294  2.5903
 6109TIP3    H218269   2.818   7.217   3.531 -0.5362 -0.0102 -1.0742
 6110TIP3   OH218270   2.612   7.836   4.825  0.3060 -0.1218  0.7186
 6110TIP3    H118271   2.525   7.874   4.836  0.7987  1.3598 -0.4195
 6110TIP3    H218272   2.596   7.748   4.791 -0.6858  0.9993 -1.8037
 6111TIP3   OH218273   7.263   0.600   3.471 -0.1589  0.5072  0.0745
 6111TIP3    H118274   7.343   0.648   3.488  0.0211  0.0072  0.6585
 6111TIP3    H218275   7.260   0.533   3.539  0.4605 -1.3971 -1.7037
 6112TIP3   OH218276   6.954   2.982   4.796 -0.2479 -0.6306  0.2554
 6112TIP3    H118277   6.962   2.896   4.756  0.5774  0.7468 -2.6571
 6112TIP3    H218278   7.002   3.041   4.738 -0.7835  1.8138  2.1841
 6113TIP3   OH218279   6.805   1.262   4.383  0.7771 -0.5064  0.6154
 6113TIP3    H118280   6.804   1.168   4.371  1.0751 -0.6322  1.5081
 6113TIP3    H218281   6.714   1.290   4.370  0.6977 -0.9087  0.3205
 6114TIP3   OH218282   6.583   2.045   4.755 -0.1758 -0.2652 -0.2170
 6114TIP3    H118283   6.560   2.097   4.678 -0.3943 -0.4075 -0.2484
 6114TIP3    H218284   6.609   2.110   4.821 -0.4138 -0.1160 -0.2685
 6115TIP3   OH218285   0.098   2.050   6.817  0.9948 -0.0635  0.5240
 6115TIP3    H118286   0.016   2.092   6.791  0.0087 -1.4425  1.3363
 6115TIP3    H218287   0.129   2.007   6.737  0.4381 -0.3093  0.4328
 6116TIP3   OH218288   4.602   0.388   4.993 -0.3311  0.1888  0.4029
 6116TIP3    H118289   4.651   0.390   5.076  0.6541  0.8520 -0.1842
 6116TIP3    H218290   4.630   0.308   4.950  0.9972  1.0571 -0.3753
 6117TIP3   OH218291   8.454   2.773   4.309 -0.6732  0.1945 -0.6335
 6117TIP3    H118292   8.376   2.731   4.344  0.0092 -0.0855  0.5556
 6117TIP3    H218293   8.527   2.733   4.356  0.2926 -0.4823 -2.6367
 6118TIP3   OH218294   7.937   1.505   5.635  0.3312  0.1448  0.3987
 6118TIP3    H118295   7.968   1.415   5.624 -0.1347 -0.0502  0.6504
 6118TIP3    H218296   8.016   1.557   5.649  0.6924 -0.0503 -0.9202
 6119TIP3   OH218297   1.230   3.261   0.967  0.3130 -0.8316  0.2725
 6119TIP3    H118298   1.311   3.312   0.971  0.8031 -1.5824  0.0259
 6119TIP3    H218299   1.163   3.324   0.940  0.4174  0.2419  2.4227
 6120TIP3   OH218300   7.522   0.957   5.451  0.4809 -0.1858 -0.1613
 6120TIP3    H118301   7.612   0.957   5.481  0.7634 -0.1063 -1.0100
 6120TIP3    H218302   7.521   0.897   5.376  0.0210  0.5131 -0.7229
 6121TIP3   OH218303   6.069   0.474   4.174 -0.3625 -0.4651  0.2474
 6121TIP3    H118304   6.152   0.522   4.174  0.2992 -1.5464 -1.2816
 6121TIP3    H218305   6.002   0.541   4.160  0.5803  0.0067 -2.3277
 6122TIP3   OH218306   7.032   3.320   3.479 -0.4852  0.0447  0.1606
 6122TIP3    H118307   6.958   3.323   3.541  0.6809  0.1405  1.5695
 6122TIP3    H218308   7.040   3.410   3.447 -0.3596  0.2450  0.7510
 6123TIP3   OH218309   6.875   0.768   5.810  0.4957 -0.6080  0.4097
 6123TIP3    H118310   6.790   0.781   5.852  1.3510 -2.1316  2.6750
 6123TIP3    H218311   6.916   0.854   5.813 -1.6131  0.5993 -2.3276
 6124TIP3   OH218312   3.375   5.749   0.513  0.9758 -0.2298 -0.0552
 6124TIP3    H118313   3.401   5.657   0.500 -1.8517 -0.9965 -0.4784
 6124TIP3    H218314   3.293   5.744   0.561  1.0591  2.1183  0.3671
 6125TIP3   OH218315   5.532   0.679   3.185 -0.5160  0.1977 -0.4877
 6125TIP3    H118316   5.471   0.744   3.219 -0.5254 -1.1106  2.1023
 6125TIP3    H218317   5.617   0.722   3.189 -0.0416 -0.8788  4.1967
 6126TIP3   OH218318   7.693   1.227   4.904 -0.1220  0.2513  0.7759
 6126TIP3    H118319   7.739   1.221   4.987 -2.1509 -1.5882  1.7950
 6126TIP3    H218320   7.603   1.247   4.927 -1.2834 -2.8347 -0.7818
 6127TIP3   OH218321   6.773   1.450   4.603  0.3707  0.0285 -0.2324
 6127TIP3    H118322   6.800   1.391   4.532 -0.0571 -1.0479  0.4773
 6127TIP3    H218323   6.855   1.478   4.643  0.5608 -0.8091 -0.0158
 6128TIP3   OH218324   7.926   1.380   3.875  0.1741  0.1129  0.0291
 6128TIP3    H118325   7.915   1.426   3.791 -1.3324  1.8490  1.1360
 6128TIP3    H218326   7.880   1.435   3.938  2.1628 -0.6403  2.2029
 6129TIP3   OH218327   6.975   0.581   3.114  0.0706  0.2283  0.3714
 6129TIP3    H118328   7.006   0.597   3.024  2.2859 -0.1032  1.0491
 6129TIP3    H218329   6.971   0.668   3.153  1.8848  0.1314  0.8109
 6130TIP3   OH218330   3.966   7.163   4.748 -0.1652 -0.6003 -0.0406
 6130TIP3    H118331   3.994   7.191   4.660 -0.5691 -0.1106 -0.0158
 6130TIP3    H218332   4.009   7.078   4.761 -1.3895 -1.4666 -1.3875
 6131TIP3   OH218333   4.680   0.319   3.930 -0.1712  0.1067  0.4016
 6131TIP3    H118334   4.693   0.225   3.946 -0.3968  0.1181  0.6419
 6131TIP3    H218335   4.595   0.325   3.887 -0.2372  0.2217  0.5507
 6132TIP3   OH218336   3.978   7.413   6.421 -0.1137  0.0212  0.1773
 6132TIP3    H118337   3.930   7.482   6.375 -0.3179 -0.4896 -0.3762
 6132TIP3    H218338   3.936   7.332   6.393 -0.5566 -0.2570  1.6528
 6133TIP3   OH218339   3.099   7.739   3.759  0.0704 -0.4213 -0.4933
 6133TIP3    H118340   3.100   7.798   3.684 -2.4937  1.2963  0.7455
 6133TIP3    H218341   3.164   7.775   3.820  0.7298 -0.6841 -1.0351
 6134TIP3   OH218342   6.314   2.216   3.997 -0.1617  0.6539  0.3726
 6134TIP3    H118343   6.322   2.128   4.034  0.9331  1.0773  1.1484
 6134TIP3    H218344   6.331   2.204   3.903 -2.4536 -0.3363  0.0495
 6135TIP3   OH218345   7.165   1.400   5.054 -0.8335 -0.1477  0.2041
 6135TIP3    H118346   7.122   1.404   5.139  0.6653  0.0914  0.9707
 6135TIP3    H218347   7.133   1.477   5.007 -0.1460  0.8092  1.2950
 6136TIP3   OH218348   7.192   1.988   4.139 -0.1365  0.1435 -0.7322
 6136TIP3    H118349   7.160   2.052   4.202 -0.3898 -0.4911 -0.2059
 6136TIP3    H218350   7.148   1.906   4.164 -0.9628  0.0991 -2.3146
 6137TIP3   OH218351   8.540   1.028   5.850  0.3339  0.1460  0.8238
 6137TIP3    H118352   8.605   0.957   5.859  0.2369 -0.0507 -0.0038
 6137TIP3    H218353   8.586   1.097   5.803 -0.6446 -0.7668 -1.5038
 6138TIP3   OH218354   7.187   1.430   5.599  0.0343  0.1276 -0.1040
 6138TIP3    H118355   7.218   1.345   5.630  0.0226  1.4598  3.7648
 6138TIP3    H218356   7.114   1.452   5.657 -0.4199  2.4685 -1.4917
 6139TIP3   OH218357   7.675   1.314   5.456 -0.3302  0.0296 -0.2079
 6139TIP3    H118358   7.692   1.405   5.480 -1.1246  0.5060 -1.4085
 6139TIP3    H218359   7.667   1.269   5.540  1.0851  0.8552  0.4068
 6140TIP3   OH218360   3.837   3.409   5.339 -0.0692  0.0521 -0.1802
 6140TIP3    H118361   3.835   3.505   5.335  0.1155 -0.0006 -1.9387
 6140TIP3    H218362   3.747   3.384   5.361  0.0655  0.6549  1.0831
 6141TIP3   OH218363   5.073   0.408   3.576  0.0641 -0.1500  0.2121
 6141TIP3    H118364   5.010   0.353   3.623  0.7073  0.1249  1.4003
 6141TIP3    H218365   5.158   0.369   3.595  0.4268  0.6125  0.1713
 6142TIP3   OH218366   2.843   7.839   2.400  0.0269 -0.3007 -0.2241
 6142TIP3    H118367   2.756   7.826   2.437  0.1095  2.8399  1.2854
 6142TIP3    H218368   2.828   7.875   2.313 -0.1983  0.4572  0.1264
 6143TIP3   OH218369   5.544   2.281   4.263  0.0426 -0.0993  0.4333
 6143TIP3    H118370   5.632   2.271   4.228  0.8175  0.3751  2.1759
 6143TIP3    H218371   5.502   2.197   4.245  1.1781 -0.6935  0.4763
 6144TIP3   OH218372   4.072   7.903   6.117 -0.5194 -0.0866  0.0201
 6144TIP3    H118373   4.069   7.974   6.052  1.5128 -0.8754 -0.9684
 6144TIP3    H218374   4.034   7.828   6.072  0.3206 -0.4696 -0.0626
 6145TIP3   OH218375   8.029   2.304   2.169 -0.5904 -0.0058 -0.4324
 6145TIP3    H118376   7.947   2.354   2.174 -0.5593 -0.0924  1.2103
 6145TIP3    H218377   8.090   2.353   2.226 -0.4080 -1.6051  0.7748
 6146TIP3   OH218378   6.928   1.707   5.381  0.2443  0.0171 -0.1360
 6146TIP3    H118379   6.906   1.797   5.407 -2.1566 -0.8868  1.1125
 6146TIP3    H218380   6.973   1.716   5.298  0.6612  2.4343  0.3152
 6147TIP3   OH218381   7.509   2.117   3.656 -0.0551 -0.2439  0.1489
 6147TIP3    H118382   7.425   2.108   3.701 -0.0943  0.1341  0.1478
 6147TIP3    H218383   7.490   2.170   3.579  0.3864  0.7537  0.7151
 6148TIP3   OH218384   8.030   1.115   3.650  0.4094 -0.5291  0.4616
 6148TIP3    H118385   8.048   1.202   3.683  0.9731 -0.5870  0.3015
 6148TIP3    H218386   7.939   1.119   3.619  0.0566 -0.3257  1.5218
 6149TIP3   OH218387   5.798   0.051   5.157  0.2599  0.1612  0.0115
 6149TIP3    H118388   5.763  -0.021   5.106 -2.0104  0.6969  0.7589
 6149TIP3    H218389   5.865   0.091   5.100 -2.1808  0.7514 -2.5660
 6150TIP3   OH218390   3.975   6.566   4.509 -0.3060 -0.0316 -0.5276
 6150TIP3    H118391   3.881   6.578   4.493  0.0783  1.4154 -1.8207
 6150TIP3    H218392   4.009   6.530   4.427  0.3086 -0.4032 -0.1189
 6151TIP3   OH218393   5.512   3.256   3.400 -0.4231 -0.1794  0.0811
 6151TIP3    H118394   5.596   3.230   3.362 -1.6406  0.7623 -3.4460
 6151TIP3    H218395   5.525   3.347   3.426  0.3021 -0.7141  1.6565
 6152TIP3   OH218396   3.374   8.006   4.203  0.0677  0.1134  0.6390
 6152TIP3    H118397   3.289   8.035   4.237  0.4485 -1.4831  3.1052
 6152TIP3    H218398   3.384   7.917   4.237  2.1252 -0.2170 -0.7469
 6153TIP3   OH218399   5.425   2.270   6.639  0.5270  0.3490 -0.7387
 6153TIP3    H118400   5.510   2.252   6.598  0.4775 -0.3344 -0.5507
 6153TIP3    H218401   5.381   2.330   6.579  2.1649  2.7820  0.3638
 6154TIP3   OH218402   1.536   4.208   0.665 -0.0158  0.5317  0.8114
 6154TIP3    H118403   1.448   4.171   0.664  0.5263 -0.9750  3.6494
 6154TIP3    H218404   1.592   4.138   0.632  0.2357  1.2413 -0.3118
 6155TIP3   OH218405   6.576   0.407   4.021 -0.0406 -0.3615 -0.1448
 6155TIP3    H118406   6.629   0.473   3.977  1.4415 -0.8048  0.9165
 6155TIP3    H218407   6.512   0.457   4.071  1.1725  0.3050  0.7774
 6156TIP3   OH218408   6.362   0.241   5.696  0.1828  0.3511 -0.1880
 6156TIP3    H118409   6.374   0.307   5.765  2.7944 -1.3091  1.0435
 6156TIP3    H218410   6.414   0.273   5.622  0.1067  0.4975 -0.1768
 6157TIP3   OH218411   7.029   1.816   3.723  0.2034 -0.0156  0.2391
 6157TIP3    H118412   7.047   1.797   3.631  1.3736 -0.3190  0.5203
 6157TIP3    H218413   6.989   1.902   3.722 -1.3169 -0.7031 -0.6985
 6158TIP3   OH218414   6.922   0.975   4.375 -0.4936 -0.0381  0.0053
 6158TIP3    H118415   7.005   1.022   4.367  0.3500 -1.6816 -1.2230
 6158TIP3    H218416   6.924   0.911   4.304 -1.7211 -1.7651  1.4903
 6159TIP3   OH218417   3.969   0.661   3.337 -0.2096  0.1063 -0.0211
 6159TIP3    H118418   3.950   0.626   3.424 -0.3383 -1.0037 -0.4887
 6159TIP3    H218419   3.931   0.749   3.337  1.4047  0.8457  1.6801
 6160TIP3   OH218420   7.222   0.290   3.914  0.9370 -0.3598  0.0928
 6160TIP3    H118421   7.213   0.198   3.888 -0.7526 -0.4219  0.8393
 6160TIP3    H218422   7.314   0.298   3.940  0.9612 -1.9960  0.5776
 6161TIP3   OH218423   5.961   1.878   4.355  0.3828 -0.1496  0.0277
 6161TIP3    H118424   6.003   1.946   4.302  0.9141 -0.9041 -0.5324
 6161TIP3    H218425   5.875   1.867   4.316  0.2809  0.2321  0.1447
 6162TIP3   OH218426   0.096   2.297   4.391  0.0743 -0.3193  0.1306
 6162TIP3    H118427   0.019   2.342   4.356 -0.3401 -1.2846 -0.1904
 6162TIP3    H218428   0.116   2.344   4.472  0.0884  0.9204 -0.5742
 6163TIP3   OH218429   0.980   7.195   3.934  0.0671  0.0300  0.0852
 6163TIP3    H118430   0.993   7.285   3.965  0.3347  0.9677 -2.5994
 6163TIP3    H218431   1.063   7.173   3.891 -1.1928 -0.1449 -2.3988
 6164TIP3   OH218432   6.085   0.653   5.852  0.0666 -0.1361  0.3637
 6164TIP3    H118433   6.128   0.724   5.900 -1.2891  1.6501 -1.0078
 6164TIP3    H218434   6.138   0.575   5.871  1.7224  1.2831  1.6748
 6165TIP3   OH218435   1.298   5.414   0.255  0.1071  0.7531  0.4693
 6165TIP3    H118436   1.215   5.447   0.219 -0.2463 -1.1841 -0.5797
 6165TIP3    H218437   1.363   5.437   0.188 -0.1009 -0.4424 -0.1518
 6166TIP3   OH218438   6.086   0.743   2.550  0.2837 -0.6917  0.0291
 6166TIP3    H118439   6.086   0.740   2.455  0.5507  1.5777 -0.0598
 6166TIP3    H218440   6.027   0.672   2.576  0.4032 -1.4840 -1.8084
 6167TIP3   OH218441   3.587   7.551   6.397 -0.0928 -0.5031  0.6445
 6167TIP3    H118442   3.641   7.508   6.330 -0.4443 -0.1970  0.1548
 6167TIP3    H218443   3.515   7.590   6.347  1.2436  2.3139  0.8199
 6168TIP3   OH218444   6.903   2.603   3.805  0.0139  0.5058  0.0383
 6168TIP3    H118445   6.810   2.581   3.799  0.0549 -0.0140  1.1707
 6168TIP3    H218446   6.912   2.644   3.891  1.1209 -0.8227  0.5599
 6169TIP3   OH218447   5.673   0.964   5.847  0.3525 -0.2873  0.3253
 6169TIP3    H118448   5.709   1.043   5.888  1.1157 -0.5405  0.1428
 6169TIP3    H218449   5.739   0.897   5.861  0.8226 -0.2789 -1.6637
 6170TIP3   OH218450   0.165   1.231   5.888 -0.2545 -0.1385 -0.0054
 6170TIP3    H118451   0.223   1.305   5.906  0.3159 -0.5556 -0.1098
 6170TIP3    H218452   0.195   1.162   5.947 -0.3899 -0.4901 -0.3445
 6171TIP3   OH218453   1.689   3.456   0.848  0.0724 -0.3747  0.2528
 6171TIP3    H118454   1.751   3.473   0.919  0.4664 -0.1024 -0.1570
 6171TIP3    H218455   1.663   3.364   0.861  1.0077 -0.6636  0.0756
 6172TIP3   OH218456   4.057   7.847   6.380 -0.3376 -0.6140 -0.1854
 6172TIP3    H118457   4.050   7.882   6.291 -0.0034 -2.5470 -0.9989
 6172TIP3    H218458   4.146   7.814   6.386 -0.0256  0.4125  1.2425
 6173TIP3   OH218459   3.528   2.672   5.549 -0.1547  0.1529 -0.4904
 6173TIP3    H118460   3.443   2.633   5.568  0.5066 -0.5122  1.2148
 6173TIP3    H218461   3.536   2.744   5.612  0.5044  0.2765 -0.7131
 6174TIP3   OH218462   8.359   0.539   5.198 -0.1372  0.5039 -0.7563
 6174TIP3    H118463   8.343   0.601   5.127  2.0471  1.3898 -0.5391
 6174TIP3    H218464   8.455   0.529   5.199 -0.2183 -0.3430  1.3285
 6175TIP3   OH218465   7.470   0.097   4.495 -0.0944 -0.5137  0.6988
 6175TIP3    H118466   7.423   0.029   4.544 -0.8227 -1.8918 -1.8257
 6175TIP3    H218467   7.408   0.170   4.489  0.6686  0.3961  3.3611
 6176TIP3   OH218468   5.367   0.562   4.915 -0.4808 -0.2914  0.0743
 6176TIP3    H118469   5.379   0.479   4.868 -2.5720 -0.2179 -0.6209
 6176TIP3    H218470   5.330   0.622   4.851 -2.2848  0.1453  1.4679
 6177TIP3   OH218471   3.272   3.185   4.063 -0.4665  0.5225  0.0053
 6177TIP3    H118472   3.346   3.171   4.003  0.2922  0.3834  0.9580
 6177TIP3    H218473   3.282   3.275   4.093  0.1438  0.0600  1.2266
 6178TIP3   OH218474   4.743   1.833   2.242  0.5048  0.1507 -0.4507
 6178TIP3    H118475   4.698   1.773   2.301  0.5265 -1.3273 -1.8983
 6178TIP3    H218476   4.684   1.842   2.167  0.8516  1.3231 -0.5946
 6179TIP3   OH218477   5.467   2.586   2.049  0.0714 -0.0674 -0.4322
 6179TIP3    H118478   5.467   2.544   2.135  0.1621 -0.9541 -0.8632
 6179TIP3    H218479   5.380   2.625   2.042 -0.0531 -0.2755 -0.0762
 6180TIP3   OH218480   8.614   1.038   5.352  0.1214 -0.1228  0.2531
 6180TIP3    H118481   8.622   1.112   5.413 -1.5497  0.9235 -0.7490
 6180TIP3    H218482   8.543   0.985   5.388  1.0091 -1.0024  0.7168
 6181TIP3   OH218483   0.196   2.324   5.633  1.0820  0.0622  0.1052
 6181TIP3    H118484   0.252   2.384   5.684 -2.3007  2.2080  1.5240
 6181TIP3    H218485   0.234   2.324   5.545  1.6710  3.7617  0.2736
 6182TIP3   OH218486   6.779   2.139   3.986  0.4206  0.0398 -0.0038
 6182TIP3    H118487   6.759   2.054   4.025 -0.6288  1.2105  2.1007
 6182TIP3    H218488   6.745   2.133   3.896 -0.6057 -1.4002  0.4627
 6183TIP3   OH218489   0.018   1.843   3.749 -0.1819  1.0284  0.4288
 6183TIP3    H118490   0.080   1.904   3.708  0.8170  0.6880  1.4079
 6183TIP3    H218491  -0.041   1.817   3.678  1.3565  0.6459 -0.7268
 6184TIP3   OH218492   0.746   2.071   0.597 -0.1315  0.6942  0.2736
 6184TIP3    H118493   0.811   2.094   0.663  1.2619  1.0491 -1.2122
 6184TIP3    H218494   0.716   2.155   0.563  1.5824  0.4654 -1.8771
 6185TIP3   OH218495   4.330   8.024   3.413 -0.4647  0.0325 -0.0585
 6185TIP3    H118496   4.390   7.972   3.359 -0.2574  0.0567  0.1455
 6185TIP3    H218497   4.243   8.000   3.383 -0.3516  0.0016 -0.3657
 6186TIP3   OH218498   5.010   7.008   4.705 -0.0871 -0.0852  0.4925
 6186TIP3    H118499   5.048   7.082   4.658 -1.4733  0.4592  0.1828
 6186TIP3    H218500   4.923   6.998   4.666 -1.5654  0.8170  3.4305
 6187TIP3   OH218501   3.564   7.734   3.325 -0.3308 -0.3817 -0.1962
 6187TIP3    H118502   3.622   7.677   3.377 -1.9007 -0.0029  2.0352
 6187TIP3    H218503   3.554   7.687   3.242  0.6395 -2.0055  0.5656
 6188TIP3   OH218504   7.894   2.111   3.194 -0.2518  0.5032  0.3078
 6188TIP3    H118505   7.861   2.188   3.241  0.7027  0.4116  1.1601
 6188TIP3    H218506   7.869   2.126   3.103  0.7132  2.2940  0.2993
 6189TIP3   OH218507   2.790   8.035   4.915 -0.3362  0.6340  0.0254
 6189TIP3    H118508   2.728   7.963   4.911  1.4952 -1.1505  2.1420
 6189TIP3    H218509   2.749   8.105   4.865 -1.9212 -2.0330 -2.5962
 6190TIP3   OH218510   8.142   1.841   5.466 -0.1519  0.5647 -0.5648
 6190TIP3    H118511   8.171   1.929   5.491 -1.9362  0.7651  0.9626
 6190TIP3    H218512   8.059   1.855   5.420 -0.9244 -0.3692  0.5128
 6191TIP3   OH218513   6.091   2.589   3.713 -0.2999  0.3503  0.6252
 6191TIP3    H118514   6.082   2.673   3.759 -0.3329  0.7043 -0.0169
 6191TIP3    H218515   6.092   2.613   3.620 -1.1179 -0.4409  0.4096
 6192TIP3   OH218516   7.660   1.739   4.339  0.1674 -0.4268  0.0481
 6192TIP3    H118517   7.583   1.796   4.334 -0.4469 -1.2610 -0.0854
 6192TIP3    H218518   7.735   1.799   4.332 -0.4837  0.1086 -2.9779
 6193TIP3   OH218519   0.331   0.944   4.638 -0.6379  0.3636  0.2916
 6193TIP3    H118520   0.408   0.888   4.651  1.1371  2.5314 -0.6099
 6193TIP3    H218521   0.266   0.886   4.599  0.0809 -1.8169  2.1826
 6194TIP3   OH218522   0.824   2.513   4.900 -1.0624 -0.3459 -0.2491
 6194TIP3    H118523   0.766   2.525   4.976 -1.1655  0.7576 -0.4893
 6194TIP3    H218524   0.837   2.419   4.894 -1.6232 -0.4906  0.7231
 6195TIP3   OH218525   1.615   7.639   7.003 -0.2881 -0.0714  0.8136
 6195TIP3    H118526   1.625   7.690   6.922 -0.6800 -0.2334  0.6657
 6195TIP3    H218527   1.550   7.687   7.054 -0.1136 -0.0240  0.9903
 6196TIP3   OH218528   4.111   7.574   4.475  0.0926 -0.1546 -0.0099
 6196TIP3    H118529   4.159   7.557   4.556 -2.4769 -0.2197  1.5468
 6196TIP3    H218530   4.024   7.538   4.490 -0.9959  1.4471 -2.1342
 6197TIP3   OH218531   3.398   7.517   4.304 -0.2798  0.2792 -0.1419
 6197TIP3    H118532   3.374   7.605   4.332  0.8726  0.1111  1.4112
 6197TIP3    H218533   3.316   7.480   4.270 -1.2464  1.2198  1.1131
 6198TIP3   OH218534   5.928   1.488   6.952 -0.3684 -0.5951 -0.4958
 6198TIP3    H118535   5.874   1.566   6.958  0.8032  0.2277 -0.4081
 6198TIP3    H218536   6.011   1.513   6.992  0.4691 -1.4768 -1.6464
 6199TIP3   OH218537   4.304   8.096   6.161  0.3792  0.3226 -0.0656
 6199TIP3    H118538   4.375   8.080   6.098  0.4868  0.6249 -0.0199
 6199TIP3    H218539   4.251   8.017   6.156  0.7731  0.0513 -0.0356
 6200TIP3   OH218540   3.352   6.568   3.671 -0.5803  0.3826  0.9123
 6200TIP3    H118541   3.293   6.574   3.597 -1.4954 -0.1480  1.5863
 6200TIP3    H218542   3.439   6.560   3.632 -1.2399 -2.0531 -0.1582
 6201TIP3   OH218543   8.030   1.486   4.986  0.0646 -0.1005  0.0254
 6201TIP3    H118544   8.100   1.541   5.022  0.0954  1.5026 -2.3466
 6201TIP3    H218545   7.965   1.548   4.955 -0.2514 -1.4321 -2.0422
 6202TIP3   OH218546   7.086   0.597   4.586  0.2351  0.1128  0.1533
 6202TIP3    H118547   6.996   0.579   4.614  0.0140  0.7284 -0.1557
 6202TIP3    H218548   7.085   0.689   4.562  1.2830  0.4820  1.4737
 6203TIP3   OH218549   6.182   0.643   4.596 -0.1041 -0.3128 -0.1406
 6203TIP3    H118550   6.090   0.662   4.613 -0.0808 -1.0248  0.8766
 6203TIP3    H218551   6.221   0.728   4.578 -0.5684  0.2653  1.4454
 6204TIP3   OH218552   6.764   2.851   3.582 -0.1287  0.1301  0.4887
 6204TIP3    H118553   6.840   2.796   3.563 -1.4017 -1.1263 -1.1653
 6204TIP3    H218554   6.742   2.892   3.499 -2.5284 -1.1985  0.4202
 6205TIP3   OH218555   7.243   0.364   3.645  0.0717 -0.2232  0.3830
 6205TIP3    H118556   7.236   0.355   3.740 -0.6623  1.1042  0.4544
 6205TIP3    H218557   7.206   0.283   3.611 -1.5566  0.1609  1.1802
 6206TIP3   OH218558   4.840   2.853   4.596 -0.3693 -0.2646  0.3011
 6206TIP3    H118559   4.774   2.899   4.647  0.6617  0.1357  1.2780
 6206TIP3    H218560   4.900   2.921   4.565  0.0769 -0.7216  0.1352
 6207TIP3   OH218561   5.999   1.595   4.408 -0.2202 -0.0210  0.0348
 6207TIP3    H118562   6.019   1.689   4.400 -0.9404  0.1789  0.5460
 6207TIP3    H218563   5.973   1.584   4.500 -2.2413 -0.3116 -0.5550
 6208TIP3   OH218564   8.072   1.290   5.194  0.0757 -0.5750  0.3066
 6208TIP3    H118565   8.061   1.349   5.269  0.9890  0.0038 -0.0096
 6208TIP3    H218566   8.059   1.346   5.118  0.0241 -0.9814  0.0173
 6209TIP3   OH218567   5.156   7.415   5.382 -0.4936 -0.2288 -0.5432
 6209TIP3    H118568   5.194   7.499   5.407  0.6686 -0.4631 -1.4565
 6209TIP3    H218569   5.170   7.410   5.287  0.1737 -1.8059 -0.3742
 6210TIP3   OH218570   7.987   1.589   5.291  0.1393  0.0817  0.3849
 6210TIP3    H118571   7.978   1.682   5.269 -0.7286 -0.0191  0.2884
 6210TIP3    H218572   8.080   1.578   5.313  0.2019  1.0123  0.6040
 6211TIP3   OH218573   5.679   1.036   3.275  0.2497  0.1497  0.0764
 6211TIP3    H118574   5.725   0.969   3.225  1.0157  0.3964  0.4508
 6211TIP3    H218575   5.748   1.089   3.314 -0.3303  1.5319 -0.7128
 6212TIP3   OH218576   8.097   2.713   3.621 -0.2752 -0.2918  0.1431
 6212TIP3    H118577   8.040   2.667   3.682 -0.3731  0.0067  0.2749
 6212TIP3    H218578   8.185   2.697   3.654 -0.3377 -0.0079  0.4405
 6213TIP3   OH218579   6.614   0.578   5.926 -0.4329 -0.1573 -0.2613
 6213TIP3    H118580   6.682   0.614   5.982  1.2268  1.6033 -3.2831
 6213TIP3    H218581   6.548   0.647   5.920 -1.8710 -1.3350  1.5568
 6214TIP3   OH218582   7.946   2.275   3.968 -0.3006 -0.3714  0.1061
 6214TIP3    H118583   7.884   2.320   3.911 -0.2818 -1.2011 -0.5759
 6214TIP3    H218584   7.973   2.198   3.919  2.9392  1.0772 -0.5484
 6215TIP3   OH218585   6.714   3.149   2.349  0.1703  0.3779  0.1263
 6215TIP3    H118586   6.716   3.121   2.440  1.0978  1.0246  0.3126
 6215TIP3    H218587   6.704   3.244   2.353  0.6191  0.4512 -0.4378
 6216TIP3   OH218588   7.987   4.454   3.546 -0.3234 -0.3806  0.1571
 6216TIP3    H118589   8.079   4.426   3.551 -0.2476 -0.1755 -0.0832
 6216TIP3    H218590   7.958   4.423   3.460 -0.2505  0.2521 -0.0951
 6217TIP3   OH218591   5.037   6.938   2.417  0.1336  0.2730 -0.0510
 6217TIP3    H118592   5.082   7.005   2.468 -0.3509 -0.1197  0.9054
 6217TIP3    H218593   5.096   6.862   2.421 -0.7325 -0.3523  1.4859
 6218TIP3   OH218594   0.450   2.066   3.482  0.3164 -0.0741 -0.3280
 6218TIP3    H118595   0.542   2.068   3.455  0.2584 -0.9899 -0.5971
 6218TIP3    H218596   0.444   2.132   3.552  1.0579  0.3575 -0.6659
 6219TIP3   OH218597   0.374   3.926   2.978  0.5544 -0.2804  0.4393
 6219TIP3    H118598   0.288   3.961   2.955  0.7726  0.2012  0.3490
 6219TIP3    H218599   0.398   3.972   3.059 -0.2840 -2.0813  1.7671
 6220TIP3   OH218600   8.167   1.897   4.561 -0.3765  0.4176  0.5426
 6220TIP3    H118601   8.191   1.990   4.555 -0.4705  0.4537  0.7487
 6220TIP3    H218602   8.218   1.855   4.491  0.2123  0.5131  0.9135
 6221TIP3   OH218603   5.091   2.986   4.253 -0.6652  0.1391  0.1518
 6221TIP3    H118604   5.020   2.922   4.255  0.1377 -0.9501 -2.8246
 6221TIP3    H218605   5.051   3.066   4.220 -0.3614 -0.7585 -2.4914
 6222TIP3   OH218606   8.046   2.274   4.756  0.0623 -0.1299 -0.2260
 6222TIP3    H118607   8.084   2.228   4.681  0.9082  0.6184 -0.2682
 6222TIP3    H218608   7.991   2.342   4.716  1.7145  1.2655 -0.2098
 6223TIP3   OH218609   0.983   3.179   5.020 -0.5632 -0.0913 -0.6623
 6223TIP3    H118610   0.946   3.255   5.064  0.2315 -0.4792  0.7160
 6223TIP3    H218611   0.980   3.109   5.086  0.2258 -0.8087 -1.3692
 6224TIP3   OH218612   4.322   8.126   3.925  0.0935 -0.1147 -0.1533
 6224TIP3    H118613   4.258   8.059   3.900 -1.4594 -0.0699  3.5075
 6224TIP3    H218614   4.400   8.077   3.949 -0.4759 -0.5130  0.8862
 6225TIP3   OH218615   8.111   1.319   2.802 -0.2699 -0.6678  0.1064
 6225TIP3    H118616   8.074   1.276   2.879 -1.5642 -0.5537 -0.4417
 6225TIP3    H218617   8.149   1.400   2.836 -1.6027 -0.1947  0.4939
 6226TIP3   OH218618   7.382   1.919   3.410 -0.6460 -0.1227 -0.2597
 6226TIP3    H118619   7.432   1.851   3.455 -1.9659 -1.2213 -0.4231
 6226TIP3    H218620   7.431   1.935   3.329 -0.5455 -1.1630 -0.4122
 6227TIP3   OH218621   8.082   0.014   4.889 -0.5087  0.0236  0.5425
 6227TIP3    H118622   8.078   0.094   4.942 -0.3622  0.7112 -0.4821
 6227TIP3    H218623   8.000   0.014   4.840 -0.7035 -0.6872  0.8644
 6228TIP3   OH218624   6.851   3.182   3.308  0.1983  0.1919  0.0725
 6228TIP3    H118625   6.886   3.218   3.227  0.3666 -0.2008 -0.0296
 6228TIP3    H218626   6.862   3.252   3.373  1.4898 -0.0557  0.1216
 6229TIP3   OH218627   5.139   7.915   5.617  0.3621  0.2884  0.2843
 6229TIP3    H118628   5.091   7.900   5.536 -2.4377 -0.3685  1.9889
 6229TIP3    H218629   5.126   8.008   5.636 -2.3660 -0.3824  1.9786
 6230TIP3   OH218630   8.498   2.943   3.206  0.4219 -0.0834 -0.1382
 6230TIP3    H118631   8.453   2.867   3.240  0.8613 -0.2496  0.0796
 6230TIP3    H218632   8.565   2.963   3.272  0.2037  0.5865 -0.1144
 6231TIP3   OH218633   0.618   1.808   3.693  0.1581 -0.0760 -0.3344
 6231TIP3    H118634   0.667   1.726   3.689 -0.3066 -0.4134  0.8326
 6231TIP3    H218635   0.664   1.866   3.632  1.2767 -0.7843 -0.1810
 6232TIP3   OH218636   7.987   1.371   1.814 -0.7719 -0.0825  0.3707
 6232TIP3    H118637   8.018   1.462   1.822 -1.5382  0.1698  0.5060
 6232TIP3    H218638   7.965   1.361   1.721  1.6721 -0.9125 -0.1656
 6233TIP3   OH218639   8.388   1.858   3.925 -0.5451 -0.2826 -0.0366
 6233TIP3    H118640   8.460   1.858   3.862 -0.6041  0.8393 -0.1284
 6233TIP3    H218641   8.429   1.852   4.011 -0.5190 -3.0023 -0.2070
 6234TIP3   OH218642   6.053   2.090   2.849 -0.4729 -0.2675 -0.5193
 6234TIP3    H118643   5.961   2.114   2.857 -0.7457 -1.4073 -0.1825
 6234TIP3    H218644   6.098   2.147   2.913 -1.1022 -0.6126  0.2326
 6235TIP3   OH218645   0.280   1.491   4.272 -0.1662  0.1513 -0.3899
 6235TIP3    H118646   0.332   1.412   4.258 -2.5706 -1.3137 -1.3367
 6235TIP3    H218647   0.314   1.554   4.208  2.5665  0.3531  1.1747
 6236TIP3   OH218648   8.149   1.950   3.287 -0.2760  0.1439 -0.1930
 6236TIP3    H118649   8.217   2.014   3.270  1.9380 -2.2221 -0.6411
 6236TIP3    H218650   8.068   2.001   3.292  1.2968  2.8387 -1.2081
 6237TIP3   OH218651   8.121   1.260   4.031  0.3407 -0.6775  0.9040
 6237TIP3    H118652   8.173   1.338   4.048  0.7789 -0.7594 -0.0004
 6237TIP3    H218653   8.051   1.291   3.972  2.0442 -1.4541 -1.6300
 6238TIP3   OH218654   6.248   1.648   3.447  0.0127 -1.1015 -0.0674
 6238TIP3    H118655   6.313   1.697   3.497 -0.4476  0.0693 -0.6106
 6238TIP3    H218656   6.298   1.610   3.374  0.4424 -1.7803  0.5746
 6239TIP3   OH218657   0.841   3.976   6.128 -0.0974  0.0416 -0.1236
 6239TIP3    H118658   0.841   3.981   6.224  3.7049 -0.0752 -0.0128
 6239TIP3    H218659   0.870   4.063   6.100  2.1960 -0.9566 -0.9675
 6240TIP3   OH218660   1.068   3.534   4.978 -0.4371  0.3378  0.8964
 6240TIP3    H118661   1.121   3.480   5.036 -0.5682 -1.5267 -0.6589
 6240TIP3    H218662   0.982   3.538   5.022 -0.7662 -1.6969  0.5009
 6241TIP3   OH218663   8.136   2.208   4.509 -0.0409  0.2974  0.2050
 6241TIP3    H118664   8.075   2.268   4.465  0.4269  1.2430  0.8256
 6241TIP3    H218665   8.183   2.165   4.438 -0.9715  0.0475 -0.2634
 6242TIP3   OH218666   0.792   2.620   6.276 -0.3169  0.5314  0.6325
 6242TIP3    H118667   0.842   2.541   6.254 -1.2105  0.7012 -2.1917
 6242TIP3    H218668   0.812   2.681   6.205 -2.5826  1.5003  0.8016
 6243TIP3   OH218669   6.235   7.788   4.465 -0.1294 -0.2462  0.1834
 6243TIP3    H118670   6.233   7.708   4.518  0.6110 -0.2646  0.1844
 6243TIP3    H218671   6.149   7.792   4.424  0.2015 -1.6311 -0.6823
 6244TIP3   OH218672   6.704   2.885   4.867 -0.1949 -0.2595 -0.2293
 6244TIP3    H118673   6.638   2.954   4.861 -0.2332 -0.3024 -0.2904
 6244TIP3    H218674   6.786   2.928   4.843 -0.2710 -0.3163 -0.5930
 6245TIP3   OH218675   7.066   2.822   4.514  0.3117  0.1485  0.0426
 6245TIP3    H118676   7.106   2.746   4.472 -0.5119  0.6782 -1.7451
 6245TIP3    H218677   7.138   2.885   4.522  1.1210 -0.9946  2.0169
 6246TIP3   OH218678   7.495   0.943   4.418  0.6842 -0.3359  0.1255
 6246TIP3    H118679   7.523   1.028   4.384 -2.1606  0.2760 -0.8571
 6246TIP3    H218680   7.484   0.957   4.512  0.8128  0.2016  0.0633
 6247TIP3   OH218681   1.201   1.988   5.294  1.0172  0.3354 -0.0029
 6247TIP3    H118682   1.187   2.066   5.347 -0.6815  0.1812 -0.1947
 6247TIP3    H218683   1.163   2.009   5.209 -0.6004 -1.1431  0.3350
 6248TIP3   OH218684   6.039   0.372   5.226  0.2492  0.0667 -0.8778
 6248TIP3    H118685   6.133   0.387   5.218  0.2867  0.6982  0.5703
 6248TIP3    H218686   6.008   0.442   5.284 -1.3396  0.6459 -2.3966
 6249TIP3   OH218687   0.760   1.478   5.446  0.2851  0.0996  0.3530
 6249TIP3    H118688   0.798   1.565   5.459 -0.2219  0.2931  0.5645
 6249TIP3    H218689   0.717   1.483   5.361  3.2099 -1.0267 -1.2501
 6250TIP3   OH218690   7.434   1.755   1.847 -0.3370 -0.3706  0.1401
 6250TIP3    H118691   7.343   1.744   1.875 -0.8486  0.4191 -1.1859
 6250TIP3    H218692   7.470   1.820   1.907 -0.3828 -1.3226  1.2198
 6251TIP3   OH218693   8.240   0.953   3.726  0.9695  0.0174  0.0030
 6251TIP3    H118694   8.169   1.010   3.695  0.0022 -0.5298  1.1670
 6251TIP3    H218695   8.256   0.894   3.652 -0.7985 -0.7807  0.2233
 6252TIP3   OH218696   8.107   0.486   3.512  0.1812 -0.0842  0.3289
 6252TIP3    H118697   8.045   0.558   3.520 -0.6781 -0.8524  0.7722
 6252TIP3    H218698   8.163   0.510   3.438 -0.9239  0.4087 -0.3642
 6253TIP3   OH218699   8.495   1.603   3.158 -0.0741 -0.1597 -0.0399
 6253TIP3    H118700   8.589   1.586   3.163 -0.1841 -1.3363 -1.4372
 6253TIP3    H218701   8.484   1.656   3.079 -0.7242 -1.3695 -0.7982
 6254TIP3   OH218702   7.773   3.766   3.207  0.0784  0.6447 -0.2790
 6254TIP3    H118703   7.744   3.679   3.233 -0.8375  1.2750  0.8499
 6254TIP3    H218704   7.709   3.794   3.141 -0.4320  1.0131  0.3664
 6255TIP3   OH218705   0.395   2.500   2.852 -0.1067 -0.1035 -0.4724
 6255TIP3    H118706   0.478   2.496   2.805 -0.4902  1.3615 -1.3197
 6255TIP3    H218707   0.404   2.575   2.910  0.1280 -1.5288  1.3816
 6256TIP3   OH218708   7.131   1.864   2.712 -0.2421 -0.3465 -0.8901
 6256TIP3    H118709   7.118   1.922   2.637  0.7644  0.1798 -0.6609
 6256TIP3    H218710   7.099   1.915   2.787 -1.6375 -1.0303 -1.0064
 6257TIP3   OH218711   0.817   2.774   5.546 -0.4044  0.7190 -0.2436
 6257TIP3    H118712   0.842   2.828   5.621 -0.1245 -1.2027  1.0957
 6257TIP3    H218713   0.746   2.822   5.504 -1.6616  1.0819  2.1989
 6258TIP3   OH218714   0.482   3.296   6.845  0.2024  0.1689  0.0466
 6258TIP3    H118715   0.484   3.378   6.796 -0.7215  0.4432  0.4466
 6258TIP3    H218716   0.412   3.309   6.910  0.2029 -0.8468  0.2587
 6259TIP3   OH218717   0.997   1.695   3.283  0.6561 -0.6797 -0.1277
 6259TIP3    H118718   1.084   1.696   3.243  0.5362 -0.1358 -0.3745
 6259TIP3    H218719   0.941   1.738   3.219  0.3511 -0.3447  0.3697
 6260TIP3   OH218720   0.682   2.082   5.657  0.4729 -0.1691 -0.7201
 6260TIP3    H118721   0.659   2.057   5.747 -0.7801  0.0144 -0.9827
 6260TIP3    H218722   0.732   2.163   5.667  0.3384 -0.1466 -0.1890
 6261TIP3   OH218723   0.873   2.560   5.894 -0.0340  0.2789 -0.2881
 6261TIP3    H118724   0.925   2.528   5.820  0.9532  0.4828  0.3013
 6261TIP3    H218725   0.929   2.626   5.935 -0.9099  0.7443  0.1627
 6262TIP3   OH218726   1.340   3.936   4.627  0.2518 -0.2846  0.8366
 6262TIP3    H118727   1.307   3.996   4.560 -1.6110 -1.3264  0.7718
 6262TIP3    H218728   1.288   3.856   4.615  1.5010 -1.3062  2.0249
 6263TIP3   OH218729   2.687   3.039   5.181  0.5893  0.0369 -0.3371
 6263TIP3    H118730   2.760   2.991   5.220  0.6336 -0.4751 -1.0448
 6263TIP3    H218731   2.609   2.998   5.219  0.6588  0.5603  0.3903
 6264TIP3   OH218732   2.001   1.283   4.760 -0.0655  0.4479  0.1625
 6264TIP3    H118733   1.952   1.319   4.833  1.3018  0.8516  0.8907
 6264TIP3    H218734   1.964   1.196   4.746 -1.7978  1.2010 -0.0936
 6265TIP3   OH218735   4.062   7.206   0.166 -0.3550  0.2343  0.0097
 6265TIP3    H118736   4.070   7.296   0.199  0.0835  0.3415 -0.3746
 6265TIP3    H218737   4.029   7.156   0.241 -0.2622  0.6516  0.3346
 6266TIP3   OH218738   8.534   5.168   6.237  0.1704 -0.2436  0.6007
 6266TIP3    H118739   8.439   5.156   6.242 -0.0983  1.8399  1.1293
 6266TIP3    H218740   8.564   5.161   6.327  0.2144  1.2525  0.7139
 6267TIP3   OH218741   1.603   1.919   5.993 -0.0647 -0.6435 -0.4222
 6267TIP3    H118742   1.518   1.960   5.982 -0.0240 -0.4475  0.0013
 6267TIP3    H218743   1.659   1.989   6.028  0.2055 -0.8380 -0.4643
 6268TIP3   OH218744   1.153   1.092   4.259  0.3617  0.2249 -0.3439
 6268TIP3    H118745   1.201   1.152   4.315  2.7651 -2.4991  0.6467
 6268TIP3    H218746   1.083   1.057   4.314  0.6532  0.0928 -0.0521
 6269TIP3   OH218747   1.850   3.658   6.274  0.1826 -0.1217  0.3795
 6269TIP3    H118748   1.934   3.669   6.318 -0.1045 -1.3700  1.2402
 6269TIP3    H218749   1.858   3.712   6.195  1.4617  0.4658  0.8957
 6270TIP3   OH218750   2.038   2.305   3.280  0.7449  0.0690 -0.2398
 6270TIP3    H118751   1.956   2.257   3.271  0.3830  0.5612  0.3850
 6270TIP3    H218752   2.097   2.265   3.216  0.2897 -0.8694 -0.0754
 6271TIP3   OH218753   2.571   1.949   6.088 -0.3890 -0.7645 -0.3808
 6271TIP3    H118754   2.663   1.937   6.064 -0.3960 -1.1058 -0.2389
 6271TIP3    H218755   2.560   1.898   6.168 -0.6995 -0.7178 -0.3927
 6272TIP3   OH218756   4.989   6.927   0.598  0.3257 -0.3156  0.3291
 6272TIP3    H118757   4.895   6.916   0.609  0.3297 -0.6336  0.0688
 6272TIP3    H218758   5.000   7.019   0.572  0.1011 -0.2384  0.5098
 6273TIP3   OH218759   7.179   7.954   3.143 -0.2191 -0.0330 -0.2085
 6273TIP3    H118760   7.248   7.948   3.210  1.9049  1.1331 -2.2436
 6273TIP3    H218761   7.169   8.048   3.127 -0.7957 -0.2964 -1.4295
 6274TIP3   OH218762   8.340   2.130   5.630  0.0834 -0.6385  0.5543
 6274TIP3    H118763   8.259   2.182   5.627  1.3546  1.5097  2.4561
 6274TIP3    H218764   8.395   2.167   5.561  0.7629  0.2141  1.5324
 6275TIP3   OH218765   8.291   2.181   3.240  0.1869 -0.5952 -0.8598
 6275TIP3    H118766   8.230   2.205   3.170 -0.7486 -0.1508  0.0819
 6275TIP3    H218767   8.361   2.246   3.234  1.1170 -1.7138 -2.5984
 6276TIP3   OH218768   8.144   2.437   4.277  0.0406  0.2461  0.1326
 6276TIP3    H118769   8.146   2.347   4.242 -2.1976 -0.3592  1.4390
 6276TIP3    H218770   8.116   2.490   4.202 -0.5615 -0.4288 -0.1333
 6277TIP3   OH218771   4.404   8.065   1.753 -0.0196 -0.0953  0.2432
 6277TIP3    H118772   4.482   8.033   1.798  0.0537 -0.3093 -0.0330
 6277TIP3    H218773   4.346   8.095   1.823 -0.3706 -1.4463  0.5488
 6278TIP3   OH218774   0.450   3.432   4.842  0.3981  0.2041 -0.4673
 6278TIP3    H118775   0.483   3.373   4.910 -1.1094 -0.8369 -0.6068
 6278TIP3    H218776   0.424   3.511   4.889  0.7770  0.0713 -0.0334
 6279TIP3   OH218777   0.575   0.438   5.784  0.0547  0.2137  0.0078
 6279TIP3    H118778   0.499   0.401   5.830 -1.5366  2.2516 -0.9414
 6279TIP3    H218779   0.589   0.523   5.825 -0.7032  1.5871 -2.5373
 6280TIP3   OH218780   6.385   0.953   0.117 -0.5849  0.3595 -0.1312
 6280TIP3    H118781   6.337   0.946   0.035 -2.7712 -0.7030  1.1570
 6280TIP3    H218782   6.460   0.894   0.107 -1.5243 -0.7217 -0.9278
 6281TIP3   OH218783   2.092   2.404   6.992  0.3862 -0.8250 -0.2533
 6281TIP3    H118784   2.153   2.359   6.935  1.8332  0.2965  0.3709
 6281TIP3    H218785   2.140   2.416   7.074  0.1755  2.0371 -0.4697
 6282TIP3   OH218786   0.412   5.113   5.707 -0.3230  0.2306  0.8451
 6282TIP3    H118787   0.338   5.173   5.713 -0.5981  0.0196 -0.3302
 6282TIP3    H218788   0.378   5.038   5.658  1.4028  1.3070 -2.1423
 6283TIP3   OH218789   0.637   2.238   3.196 -0.4670  0.9207 -0.2903
 6283TIP3    H118790   0.610   2.178   3.126  1.4905  1.3789 -1.4752
 6283TIP3    H218791   0.634   2.184   3.275 -1.7441  0.1224 -0.8664
 6284TIP3   OH218792   0.192   2.686   4.984 -0.2620  0.0154 -0.0768
 6284TIP3    H118793   0.125   2.639   5.035  0.2370  0.6728  1.2125
 6284TIP3    H218794   0.275   2.657   5.022  0.1024  0.7247 -0.3231
 6285TIP3   OH218795   7.870   6.474   2.775 -0.6079 -0.2213  0.1313
 6285TIP3    H118796   7.889   6.551   2.829  0.2664 -0.9008  0.8140
 6285TIP3    H218797   7.900   6.400   2.828  1.4335 -0.8396 -1.8082
 6286TIP3   OH218798   2.124   2.416   4.584 -0.5745  0.0671 -0.1406
 6286TIP3    H118799   2.081   2.483   4.530 -0.0790 -0.6231 -1.4003
 6286TIP3    H218800   2.051   2.368   4.623 -0.9347  0.6902 -0.0264
 6287TIP3   OH218801   2.453   3.058   6.710  0.2969 -0.4268 -0.5705
 6287TIP3    H118802   2.371   3.048   6.661 -0.1707 -1.9048  0.4803
 6287TIP3    H218803   2.450   2.988   6.776  1.3149  0.9746  0.9948
 6288TIP3   OH218804   0.923   2.158   5.277  0.2394 -0.4238 -0.5433
 6288TIP3    H118805   1.012   2.165   5.241  0.9623 -0.3177  1.2187
 6288TIP3    H218806   0.898   2.248   5.295 -0.2016 -0.4600 -0.9852
 6289TIP3   OH218807   1.476   0.762   6.332  0.0116 -0.5448  0.0243
 6289TIP3    H118808   1.498   0.824   6.402  1.0581 -0.1498 -0.6579
 6289TIP3    H218809   1.383   0.744   6.346 -0.0383  0.3246  0.9020
 6290TIP3   OH218810   0.132   4.443   5.693 -0.0956 -0.3060 -0.3892
 6290TIP3    H118811   0.049   4.397   5.680 -0.2615  0.2543 -1.4054
 6290TIP3    H218812   0.174   4.440   5.607  0.2033  0.8336 -0.2876
 6291TIP3   OH218813   3.536   7.663   0.596  0.2964  0.0453 -0.1753
 6291TIP3    H118814   3.442   7.681   0.589  0.1612 -0.7023 -0.3028
 6291TIP3    H218815   3.575   7.747   0.619 -0.4638  0.2650  0.3399
 6292TIP3   OH218816   7.703   3.859   6.536  0.3635  0.3406 -0.6207
 6292TIP3    H118817   7.775   3.846   6.474 -1.0600 -1.4300 -1.9432
 6292TIP3    H218818   7.726   3.804   6.611  0.6455  0.1915 -0.8164
 6293TIP3   OH218819   2.762   2.231   6.022  0.0065 -0.2564 -0.4007
 6293TIP3    H118820   2.796   2.145   5.997 -0.4472 -0.6020  0.1395
 6293TIP3    H218821   2.776   2.235   6.117 -4.0181 -1.6338  0.3773
 6294TIP3   OH218822   4.359   5.139   0.446  0.2560  0.0605  0.1406
 6294TIP3    H118823   4.416   5.192   0.502  0.4379 -1.5924  1.5787
 6294TIP3    H218824   4.281   5.124   0.499 -0.4911  0.2621 -0.8878
 6295TIP3   OH218825   2.123   1.713   6.267  0.3190  0.1704  0.2712
 6295TIP3    H118826   2.147   1.703   6.359 -2.6689 -0.8163  1.0319
 6295TIP3    H218827   2.111   1.807   6.255 -0.3799  0.2047  1.2105
 6296TIP3   OH218828   7.668   3.560   5.422 -0.2927 -0.1975  0.5156
 6296TIP3    H118829   7.586   3.512   5.410 -0.6491  0.6236 -0.3775
 6296TIP3    H218830   7.675   3.573   5.517 -0.7506 -1.0124  0.6694
 6297TIP3   OH218831   2.250   3.378   4.936 -0.0441  0.2174  0.1506
 6297TIP3    H118832   2.187   3.359   5.006 -0.2936  2.0781  0.4741
 6297TIP3    H218833   2.332   3.338   4.964 -0.3735  0.2046  1.0849
 6298TIP3   OH218834   1.027   2.643   5.162  0.9146 -0.3461 -0.4257
 6298TIP3    H118835   1.019   2.700   5.238  1.5751 -0.6142 -0.1485
 6298TIP3    H218836   0.964   2.677   5.099  0.6922  0.1576  0.0667
 6299TIP3   OH218837   0.311   2.152   4.918 -0.2599 -0.5661 -0.1636
 6299TIP3    H118838   0.397   2.127   4.950  0.0385 -1.1839 -1.4125
 6299TIP3    H218839   0.250   2.099   4.969  0.1900 -1.4126 -0.4973
 6300TIP3   OH218840   2.004   2.147   5.847  0.0166  0.1376 -0.2311
 6300TIP3    H118841   1.932   2.111   5.796 -0.1352 -0.9983  0.7492
 6300TIP3    H218842   1.974   2.233   5.874 -0.4200  0.2216 -0.9878
 6301TIP3   OH218843   0.669   1.653   6.223  0.2930 -0.5432 -0.8824
 6301TIP3    H118844   0.724   1.615   6.292  0.4750 -0.6338 -1.0759
 6301TIP3    H218845   0.607   1.708   6.270  0.2291 -0.8338 -0.6238
 6302TIP3   OH218846   1.480   3.545   4.799  0.2902  0.1928  0.0658
 6302TIP3    H118847   1.424   3.603   4.748 -1.6291 -1.0085  0.7592
 6302TIP3    H218848   1.522   3.603   4.863 -0.6763  1.0071 -0.0268
 6303TIP3   OH218849   0.123   3.859   4.330  0.1772  0.0178 -0.3718
 6303TIP3    H118850   0.132   3.768   4.300  2.0544  0.6453 -1.7560
 6303TIP3    H218851   0.148   3.912   4.255 -1.6398  1.7308  0.1840
 6304TIP3   OH218852   1.789   2.063   6.140  0.1992  0.1314 -0.2273
 6304TIP3    H118853   1.879   2.031   6.131  0.1090 -0.1997  0.0096
 6304TIP3    H218854   1.785   2.096   6.230  0.1149  0.2388 -0.2712
 6305TIP3   OH218855   0.701   0.675   5.952 -0.3948 -0.6049 -0.0180
 6305TIP3    H118856   0.718   0.768   5.964 -0.3341 -0.2698 -2.5514
 6305TIP3    H218857   0.649   0.650   6.029 -0.0402  1.3951  0.8961
 6306TIP3   OH218858   2.232   2.172   5.706  0.5560  0.0164  0.2829
 6306TIP3    H118859   2.164   2.169   5.773  2.0234  1.9645  1.9136
 6306TIP3    H218860   2.294   2.105   5.733  1.6177  1.4310  1.4470
 6307TIP3   OH218861   1.421   0.519   4.659 -0.1189  0.7188  0.2743
 6307TIP3    H118862   1.395   0.563   4.740 -0.4773  1.8584 -0.4522
 6307TIP3    H218863   1.457   0.435   4.688 -0.0268  1.2150  1.6270
 6308TIP3   OH218864   2.179   1.865   5.948  0.2617  0.2546  0.0674
 6308TIP3    H118865   2.160   1.773   5.967 -1.1460  0.0788 -2.0154
 6308TIP3    H218866   2.163   1.874   5.854  1.2665  2.4300  0.0692
 6309TIP3   OH218867   0.977   0.336   6.198  0.1128 -0.0626  0.5246
 6309TIP3    H118868   0.960   0.398   6.127  0.0051  0.2571  0.8261
 6309TIP3    H218869   0.934   0.255   6.170 -0.2610  0.1771  0.4045
 6310TIP3   OH218870   4.813   1.720   6.460 -0.6239  0.0999 -0.0062
 6310TIP3    H118871   4.893   1.685   6.499  0.3458  2.6691  0.4354
 6310TIP3    H218872   4.820   1.699   6.367  1.2029  1.3773 -0.1806
 6311TIP3   OH218873   2.964   5.952   0.015  0.3957  0.3764 -0.4470
 6311TIP3    H118874   2.948   6.000  -0.066  0.7837  1.4188  0.0919
 6311TIP3    H218875   2.878   5.944   0.056  0.2411  0.0850 -0.8207
 6312TIP3   OH218876   8.260   2.356   3.969  0.6559  0.1018 -0.2981
 6312TIP3    H118877   8.229   2.445   3.987 -1.1347 -0.5113 -0.2502
 6312TIP3    H218878   8.354   2.367   3.950  0.6203  1.8952  0.4114
 6313TIP3   OH218879   8.366   2.552   6.657  0.2800 -0.2432  0.5416
 6313TIP3    H118880   8.276   2.523   6.673  0.3223 -0.5519  0.2165
 6313TIP3    H218881   8.357   2.628   6.599  0.2029  0.0250  0.9046
 6314TIP3   OH218882   3.163   4.786   0.244  0.1822  0.0848 -0.4771
 6314TIP3    H118883   3.145   4.880   0.242 -0.3372  0.0669  1.6600
 6314TIP3    H218884   3.087   4.746   0.202  0.2059  0.5931 -1.0113
 6315TIP3   OH218885   2.692   2.571   5.383  0.5942  0.2898 -0.4904
 6315TIP3    H118886   2.677   2.527   5.299  1.0672  0.5028 -0.6888
 6315TIP3    H218887   2.784   2.553   5.403  0.3400 -0.2001  0.2423
 6316TIP3   OH218888   0.729   1.557   3.732  0.0506 -0.2002 -0.4124
 6316TIP3    H118889   0.661   1.517   3.678  0.8746 -3.4298  0.7696
 6316TIP3    H218890   0.716   1.519   3.819  3.2238 -0.8515 -0.1410
 6317TIP3   OH218891   8.083   3.344   4.353 -0.1250  0.0033 -0.1680
 6317TIP3    H118892   8.123   3.356   4.439  0.8908  0.4500 -0.6899
 6317TIP3    H218893   7.992   3.371   4.365 -0.2795 -1.0216  1.0323
 6318TIP3   OH218894   2.917   1.395   6.121  0.0240  0.3755 -0.2479
 6318TIP3    H118895   2.972   1.426   6.048  0.3302  1.6875  0.5292
 6318TIP3    H218896   2.876   1.474   6.155  0.0907 -0.2039  1.1833
 6319TIP3   OH218897   6.673   2.372   4.124 -0.4806  0.3512  0.3305
 6319TIP3    H118898   6.690   2.289   4.080 -0.3131 -1.2074  3.2216
 6319TIP3    H218899   6.591   2.403   4.086 -0.2567 -0.8378 -1.1651
 6320TIP3   OH218900   0.636   2.569   5.508 -0.0763  0.0545 -0.2399
 6320TIP3    H118901   0.582   2.556   5.587  0.2678 -2.0095 -0.3122
 6320TIP3    H218902   0.702   2.633   5.535 -1.6488  1.5004  0.2969
 6321TIP3   OH218903   1.765   0.701   6.596 -0.5849 -0.2761 -0.1132
 6321TIP3    H118904   1.760   0.622   6.541  0.5172 -0.5226  0.1357
 6321TIP3    H218905   1.707   0.763   6.553  0.3085 -0.4520 -1.6073
 6322TIP3   OH218906   1.314   0.770   5.614 -0.4526 -0.4623  0.4713
 6322TIP3    H118907   1.252   0.820   5.561 -1.1968 -0.2844  1.4933
 6322TIP3    H218908   1.348   0.703   5.554  1.9921  2.4152 -1.4555
 6323TIP3   OH218909   3.659   7.903   0.558  0.1826 -0.3101  0.2190
 6323TIP3    H118910   3.651   7.880   0.465 -0.5275 -0.2507  0.2629
 6323TIP3    H218911   3.607   7.983   0.567  1.1872  0.3218  0.4317
 6324TIP3   OH218912   1.372   5.383   0.517  0.0155 -0.1304  0.1119
 6324TIP3    H118913   1.346   5.392   0.425  1.0700  1.8923 -0.0123
 6324TIP3    H218914   1.463   5.412   0.519 -0.9483  3.0382  2.3566
 6325TIP3   OH218915   3.194   8.070   0.463 -0.3828 -0.5549 -0.5394
 6325TIP3    H118916   3.168   8.048   0.552 -0.0519 -2.6274 -0.9120
 6325TIP3    H218917   3.263   8.136   0.473 -1.9341  0.8991  0.6364
 6326TIP3   OH218918   0.455   4.951   6.242  0.1688  0.4031 -0.4914
 6326TIP3    H118919   0.439   5.045   6.254 -0.1725  0.2710  0.1276
 6326TIP3    H218920   0.384   4.922   6.185  0.0120  0.4319 -0.3105
 6327TIP3   OH218921   2.451   7.858   0.055 -0.2460  0.0711 -0.4390
 6327TIP3    H118922   2.543   7.882   0.065 -0.6694  1.5205  0.0849
 6327TIP3    H218923   2.425   7.826   0.141  0.1041 -1.5535 -0.9274
 6328TIP3   OH218924   1.752   3.594   5.927  0.1624 -0.0844  0.1298
 6328TIP3    H118925   1.671   3.643   5.911  0.4895 -0.2429 -2.0845
 6328TIP3    H218926   1.811   3.657   5.969 -0.2313  0.7421 -0.5617
 6329TIP3   OH218927   1.393   2.109   5.897  0.2759 -0.2801  0.6573
 6329TIP3    H118928   1.319   2.049   5.887 -1.5229  2.2810 -2.1884
 6329TIP3    H218929   1.359   2.179   5.952  0.9292  0.3458  0.2691
 6330TIP3   OH218930   1.937   2.917   4.788  0.0250  0.0220  0.0871
 6330TIP3    H118931   1.985   2.847   4.832  2.1051  0.7141 -1.0530
 6330TIP3    H218932   1.978   2.925   4.702 -0.7478  2.0806 -0.1285
 6331TIP3   OH218933   1.203   3.576   0.629  0.6931  0.2181 -0.0537
 6331TIP3    H118934   1.224   3.611   0.715 -0.6307  1.8705 -0.3784
 6331TIP3    H218935   1.124   3.524   0.643 -0.4869  1.8401 -0.5422
 6332TIP3   OH218936   2.969   4.455   0.026  1.2684  0.0827 -0.3985
 6332TIP3    H118937   2.947   4.538   0.068  1.3494 -0.5599  0.9388
 6332TIP3    H218938   3.064   4.458   0.016  1.3175 -0.0274  0.0338
 6333TIP3   OH218939   5.435   6.593   0.098 -0.2443  0.3224 -0.5327
 6333TIP3    H118940   5.438   6.498   0.098 -1.5828  0.2727  1.5994
 6333TIP3    H218941   5.422   6.616   0.006 -1.5196 -1.6080 -0.8604
 6334TIP3   OH218942   5.482   5.990   0.358  0.0662  0.3303 -0.1118
 6334TIP3    H118943   5.431   6.012   0.279 -0.5536  0.8115  0.4140
 6334TIP3    H218944   5.437   5.914   0.395  0.3459  0.1180 -0.2078
 6335TIP3   OH218945   1.798   1.085   6.649 -0.8900  0.2203  0.1763
 6335TIP3    H118946   1.849   1.113   6.725 -1.6683 -0.5327  0.9923
 6335TIP3    H218947   1.710   1.119   6.665 -1.2168 -0.5006 -0.0648
 6336TIP3   OH218948   8.365   2.693   2.740  0.4510  0.3694 -0.3873
 6336TIP3    H118949   8.277   2.728   2.756  0.1100 -0.2520 -0.8528
 6336TIP3    H218950   8.415   2.768   2.708 -0.0129  0.6463 -0.4683
 6337TIP3   OH218951   2.230   2.369   6.714  0.1748  0.2071  0.4217
 6337TIP3    H118952   2.272   2.405   6.636  0.8079  0.3644  0.8276
 6337TIP3    H218953   2.303   2.343   6.770 -0.2724  0.4127  1.1043
 6338TIP3   OH218954   1.599   2.262   5.787 -0.5094 -0.0493  0.4398
 6338TIP3    H118955   1.558   2.348   5.782 -0.7518 -0.0323  2.2823
 6338TIP3    H218956   1.527   2.201   5.804 -0.6388 -0.9482 -3.0342
 6339TIP3   OH218957   6.863   0.909   0.236 -0.7387  0.0227 -0.3475
 6339TIP3    H118958   6.940   0.895   0.291 -1.1538  0.3922  0.3395
 6339TIP3    H218959   6.798   0.947   0.295 -1.6877 -0.9293 -0.7635
 6340TIP3   OH218960   5.889   2.976   5.020 -0.0727 -0.1581 -0.3128
 6340TIP3    H118961   5.979   2.950   5.000 -0.2250 -1.0716  0.1778
 6340TIP3    H218962   5.896   3.025   5.102  0.3025  1.9781 -1.5722
 6341TIP3   OH218963   4.786   6.852   4.930 -0.3352  0.1190 -0.0547
 6341TIP3    H118964   4.777   6.793   5.006 -2.7456  0.7807  0.2047
 6341TIP3    H218965   4.878   6.842   4.904  0.1833 -1.1992  2.0687
 6342TIP3   OH218966   1.005   4.048   3.927  0.0158 -0.0526 -0.2339
 6342TIP3    H118967   1.024   3.992   3.852 -0.9198 -0.1045 -0.4348
 6342TIP3    H218968   0.954   4.120   3.891  0.0266  0.2049  0.2607
 6343TIP3   OH218969   8.296   6.124   6.677 -0.3693  0.9985 -0.0635
 6343TIP3    H118970   8.378   6.077   6.663 -0.3700  0.6801  0.9593
 6343TIP3    H218971   8.269   6.151   6.590 -0.2749 -0.7570 -0.6615
 6344TIP3   OH218972   1.364   3.095   3.988  0.0209  0.1405  0.2685
 6344TIP3    H118973   1.447   3.082   3.941 -0.0800  0.0291  0.1198
 6344TIP3    H218974   1.388   3.089   4.081  0.4411  1.6905  0.2684
 6345TIP3   OH218975   3.657   6.267   1.101 -0.1045 -0.1405  0.0331
 6345TIP3    H118976   3.568   6.243   1.077 -0.0667 -2.1737  1.7186
 6345TIP3    H218977   3.672   6.352   1.060 -1.3988 -1.5906 -3.5694
 6346TIP3   OH218978   1.413   2.468   6.976  0.2712  0.2244  0.8003
 6346TIP3    H118979   1.462   2.387   6.961  0.8816  0.9345 -1.2517
 6346TIP3    H218980   1.474   2.524   7.023  0.0837 -0.2684  1.6328
 6347TIP3   OH218981   6.375   5.348   0.425 -0.2043 -0.3606  0.2613
 6347TIP3    H118982   6.451   5.342   0.483  0.3340  1.6717 -0.1707
 6347TIP3    H218983   6.302   5.371   0.483 -0.3854 -1.7501  0.5961
 6348TIP3   OH218984   0.576   3.251   4.996  0.3692  0.6177  0.1584
 6348TIP3    H118985   0.623   3.170   4.980  0.0717  0.7049 -1.2405
 6348TIP3    H218986   0.512   3.229   5.064  1.0769 -0.0100  0.6199
 6349TIP3   OH218987   1.325   2.418   6.026  0.1079 -0.3592  0.6805
 6349TIP3    H118988   1.411   2.459   6.019  0.7544 -1.1483  3.4401
 6349TIP3    H218989   1.270   2.485   6.066 -0.0976 -0.5177  0.6629
 6350TIP3   OH218990   0.329   3.322   5.151 -0.4085  0.0111  0.1158
 6350TIP3    H118991   0.407   3.288   5.194 -0.2096  0.0353 -0.2226
 6350TIP3    H218992   0.275   3.356   5.222  0.8457  1.9435  0.1708
 6351TIP3   OH218993   7.582   1.765   3.567 -0.1346  0.2145  0.3814
 6351TIP3    H118994   7.649   1.833   3.580 -0.6025  0.7984 -0.1805
 6351TIP3    H218995   7.620   1.706   3.503  0.0759  0.2235  0.4975
 6352TIP3   OH218996   4.388   6.790   0.050 -0.2787  0.1630 -0.1894
 6352TIP3    H118997   4.467   6.843   0.051 -1.0534  1.3185  0.9147
 6352TIP3    H218998   4.319   6.849   0.020 -0.8639 -0.6152 -0.3969
 6353TIP3   OH218999   1.484   3.152   1.541  0.4632  0.2192  0.0347
 6353TIP3    H119000   1.572   3.188   1.550 -0.4773  2.6380  0.0221
 6353TIP3    H219001   1.481   3.079   1.603  1.1452  2.8129  3.2835
 6354TIP3   OH219002   4.176   6.651   1.116  0.4624  0.5823 -0.0421
 6354TIP3    H119003   4.105   6.618   1.171  0.7247  1.7184  0.9798
 6354TIP3    H219004   4.150   6.740   1.094  0.1940  0.0323 -2.0560
 6355TIP3   OH219005   1.285   3.456   5.756  0.3937 -0.0499 -0.2617
 6355TIP3    H119006   1.278   3.543   5.796 -1.2777 -0.4627  0.3965
 6355TIP3    H219007   1.255   3.396   5.825  0.3556 -1.0316 -1.1232
 6356TIP3   OH219008   1.300   1.415   6.498 -0.1192  0.6628 -0.0523
 6356TIP3    H119009   1.389   1.441   6.474  0.5542 -0.2536  1.3880
 6356TIP3    H219010   1.244   1.462   6.436  1.3234  1.7748 -0.5514
 6357TIP3   OH219011   0.724   2.946   5.272 -0.1372  0.5249  0.6999
 6357TIP3    H119012   0.645   2.905   5.308  0.5528 -0.6204  0.9524
 6357TIP3    H219013   0.720   3.036   5.302 -1.4814  0.5511  0.5015
 6358TIP3   OH219014   2.741   1.379   5.037 -0.4419 -0.0580 -0.2771
 6358TIP3    H119015   2.647   1.388   5.053 -0.8822  0.0016 -2.7708
 6358TIP3    H219016   2.781   1.437   5.101 -2.1424  0.6377  0.1978
 6359TIP3   OH219017   0.606   0.632   6.803  0.1526 -0.0390  0.1786
 6359TIP3    H119018   0.584   0.539   6.795 -2.6102  0.7483 -2.3336
 6359TIP3    H219019   0.602   0.650   6.897 -1.2410 -2.0355  0.5402
 6360TIP3   OH219020   0.296   3.876   5.480  0.0373 -0.1723 -0.1222
 6360TIP3    H119021   0.294   3.970   5.501 -0.6798 -0.2950  0.4068
 6360TIP3    H219022   0.209   3.845   5.504 -0.0329 -0.7995 -1.1481
 6361TIP3   OH219023   0.159   2.235   7.020 -0.3828  0.5965  0.3183
 6361TIP3    H119024   0.247   2.264   7.043 -1.0164  3.0918 -0.3307
 6361TIP3    H219025   0.170   2.191   6.935  0.5204 -0.8403  1.1562
 6362TIP3   OH219026   1.389   1.098   4.694 -0.0663 -0.5365 -0.1223
 6362TIP3    H119027   1.410   1.115   4.602 -1.9381  0.6187 -0.3477
 6362TIP3    H219028   1.354   1.009   4.695  0.4054 -0.7260 -0.4537
 6363TIP3   OH219029   4.249   4.361   0.866 -0.1131 -0.1676 -0.4273
 6363TIP3    H119030   4.260   4.362   0.771 -3.5963  0.7055 -0.8981
 6363TIP3    H219031   4.181   4.295   0.882 -0.1057  0.2358  1.3935
 6364TIP3   OH219032   8.501   1.852   4.465  0.0583  0.3253 -0.7962
 6364TIP3    H119033   8.415   1.822   4.435  0.0170  0.4397 -0.7920
 6364TIP3    H219034   8.529   1.783   4.526 -0.1979  0.4698 -0.5103
 6365TIP3   OH219035   8.243   5.259   4.351 -0.0637 -0.3476 -0.1765
 6365TIP3    H119036   8.254   5.300   4.265  1.6981 -2.1258 -0.8428
 6365TIP3    H219037   8.316   5.293   4.403  0.5811 -1.5055 -0.3012
 6366TIP3   OH219038   2.551   4.492   5.740  0.0293 -0.0272  0.1004
 6366TIP3    H119039   2.560   4.566   5.681 -1.1301 -0.4572 -0.6242
 6366TIP3    H219040   2.572   4.415   5.687  1.1465 -0.2418  0.8242
 6367TIP3   OH219041   1.639   1.155   4.234 -0.1947 -0.6314  0.1209
 6367TIP3    H119042   1.723   1.171   4.190  0.4148 -1.0369  1.1174
 6367TIP3    H219043   1.582   1.226   4.203  0.0777 -1.1588 -1.6600
 6368TIP3   OH219044   2.155   3.659   6.087  0.2447 -0.8055  0.0413
 6368TIP3    H119045   2.161   3.641   6.181  0.4831 -2.5780 -0.2984
 6368TIP3    H219046   2.245   3.680   6.061  0.2634 -0.7922  0.1171
 6369TIP3   OH219047   1.019   4.845   5.314 -0.1762 -0.0704  0.4224
 6369TIP3    H119048   0.928   4.815   5.316 -0.3803  0.4114 -1.2185
 6369TIP3    H219049   1.062   4.786   5.252  0.4902  0.0628  0.7622
 6370TIP3   OH219050   0.673   3.668   3.785 -0.6219 -0.1072 -0.3906
 6370TIP3    H119051   0.646   3.685   3.695 -1.3870  1.9286  0.1879
 6370TIP3    H219052   0.767   3.650   3.778 -0.0045  3.0623 -1.3136
 6371TIP3   OH219053   1.125   3.054   6.155 -0.5635  0.1214 -0.3159
 6371TIP3    H119054   1.118   2.962   6.132 -0.4382  0.1229 -0.3592
 6371TIP3    H219055   1.116   3.100   6.071 -1.2523  0.1781 -0.2171
 6372TIP3   OH219056   1.368   3.996   4.884 -0.3088  0.3443 -0.3698
 6372TIP3    H119057   1.331   3.962   4.802  2.5892 -0.8416 -1.2734
 6372TIP3    H219058   1.438   4.056   4.856 -1.9221  3.0688  1.2614
 6373TIP3   OH219059   1.245   1.333   5.220 -0.1929  0.2126  0.2253
 6373TIP3    H119060   1.153   1.332   5.246 -0.5132  0.4385 -0.8527
 6373TIP3    H219061   1.282   1.255   5.261 -0.5046  0.9143  1.9038
 6374TIP3   OH219062   0.595   1.472   6.019  0.0284  0.2305  0.5822
 6374TIP3    H119063   0.668   1.448   5.961 -0.1579 -0.1017  0.4827
 6374TIP3    H219064   0.631   1.540   6.076  0.8825 -1.0334  1.5822
 6375TIP3   OH219065   2.830   0.889   6.723 -0.2731 -0.2976  0.0096
 6375TIP3    H119066   2.891   0.816   6.711 -0.0943 -0.4014  1.5612
 6375TIP3    H219067   2.756   0.851   6.771 -0.8030  0.2270 -0.3744
 6376TIP3   OH219068   4.535   5.511   0.065  0.5335  0.4748  0.0242
 6376TIP3    H119069   4.535   5.439   0.129 -1.4263  0.2367 -0.2059
 6376TIP3    H219070   4.464   5.568   0.094  0.3523  0.9346 -1.3217
 6377TIP3   OH219071   1.862   2.627   4.854  0.0129 -0.1674 -0.2917
 6377TIP3    H119072   1.868   2.532   4.847  0.2993 -0.0908 -1.1194
 6377TIP3    H219073   1.768   2.644   4.865 -0.1401 -0.4871 -1.0651
 6378TIP3   OH219074   0.267   2.079   6.392  0.2525 -0.0400 -0.3402
 6378TIP3    H119075   0.190   2.136   6.398  0.5743  0.1284  3.2539
 6378TIP3    H219076   0.299   2.073   6.482  2.9983 -2.1245 -1.3997
 6379TIP3   OH219077   7.606   8.087   4.615 -0.0731  0.6927 -0.6043
 6379TIP3    H119078   7.563   8.103   4.530 -0.4538 -0.4275 -0.6326
 6379TIP3    H219079   7.695   8.118   4.603 -0.2180  0.8480 -1.3113
 6380TIP3   OH219080   8.567   2.737   6.766  0.0522  0.1750  0.1083
 6380TIP3    H119081   8.507   2.674   6.725  1.0409  0.2014 -1.4014
 6380TIP3    H219082   8.509   2.807   6.798 -0.7449  0.1196 -1.1811
 6381TIP3   OH219083   8.427   2.943   6.282 -0.2605  0.2125 -0.3365
 6381TIP3    H119084   8.412   2.970   6.191 -2.0830  2.5438  0.6101
 6381TIP3    H219085   8.434   3.025   6.331  0.6739 -1.0160  1.6642
 6382TIP3   OH219086   1.544   3.364   6.341  0.7501  0.4319  0.4311
 6382TIP3    H119087   1.455   3.329   6.335  1.5110 -1.6341  1.0788
 6382TIP3    H219088   1.534   3.456   6.316 -1.5299  0.1791  0.2615
 6383TIP3   OH219089   1.617   1.327   4.513  0.1281  0.4519  0.2329
 6383TIP3    H119090   1.534   1.309   4.469  0.6841  0.9234 -1.0606
 6383TIP3    H219091   1.680   1.267   4.471  0.5410  0.4448  0.8513
 6384TIP3   OH219092   7.208   2.068   5.355  0.3488  0.3994 -0.0379
 6384TIP3    H119093   7.161   2.000   5.306 -0.2198  0.2171  0.7475
 6384TIP3    H219094   7.171   2.150   5.323  1.4824  0.3930 -1.4573
 6385TIP3   OH219095   1.673   2.392   6.333  0.3219  0.1649  0.4112
 6385TIP3    H119096   1.659   2.446   6.411  1.9501  2.5636 -0.9176
 6385TIP3    H219097   1.586   2.355   6.314 -1.0371  2.9720  0.8851
 6386TIP3   OH219098   4.164   5.717   1.831  0.0359  0.1481  0.2558
 6386TIP3    H119099   4.242   5.732   1.884 -0.3028  0.2012  0.7348
 6386TIP3    H219100   4.177   5.772   1.754 -0.1542  1.1835  0.9572
 6387TIP3   OH219101   1.035   3.723   6.073  0.0053 -0.1643 -0.2487
 6387TIP3    H119102   0.951   3.734   6.118 -0.6618  0.5133 -1.6296
 6387TIP3    H219103   1.029   3.781   5.997  0.8763 -1.7436 -1.5421
 6388TIP3   OH219104   4.404   5.494   0.963 -0.2461 -0.0032 -0.3387
 6388TIP3    H119105   4.471   5.443   0.917 -0.3213 -0.3485 -0.0651
 6388TIP3    H219106   4.382   5.564   0.902 -0.1152 -0.2755 -0.7035
 6389TIP3   OH219107   2.642   5.343   0.554 -0.1932  0.2538 -0.0268
 6389TIP3    H119108   2.703   5.316   0.622 -0.0671 -0.7035 -0.5083
 6389TIP3    H219109   2.591   5.264   0.535 -0.3114  0.5439 -0.9492
 6390TIP3   OH219110   3.878   5.817   0.015  0.1745 -0.9172 -0.1993
 6390TIP3    H119111   3.930   5.879  -0.036 -0.4375 -0.0842  0.1888
 6390TIP3    H219112   3.861   5.861   0.097 -0.6864 -1.4076 -0.1110
 6391TIP3   OH219113   1.332   1.625   5.943  0.0256 -0.2630 -0.3520
 6391TIP3    H119114   1.417   1.612   5.901  0.4650  2.5050 -0.4109
 6391TIP3    H219115   1.275   1.657   5.873 -0.0017  1.6485  0.5313
 6392TIP3   OH219116   4.835   5.476   0.629 -0.2852 -0.3092 -0.1447
 6392TIP3    H119117   4.813   5.396   0.582 -2.1595  0.5110 -0.6826
 6392TIP3    H219118   4.829   5.452   0.722 -0.8707 -0.7748 -0.3061
 6393TIP3   OH219119   0.628   2.687   5.874  0.1199  0.3408 -0.5559
 6393TIP3    H119120   0.633   2.777   5.841  2.5597  0.5463  0.2771
 6393TIP3    H219121   0.716   2.653   5.864 -0.2682 -1.2572  1.1433
 6394TIP3   OH219122   1.429   2.204   6.550  0.0379 -0.6014  0.1131
 6394TIP3    H119123   1.488   2.208   6.626  0.0971 -1.4813  0.1191
 6394TIP3    H219124   1.483   2.168   6.480 -0.3547 -0.9293 -0.0213
 6395TIP3   OH219125   1.036   3.033   5.255 -0.0103 -0.1133 -0.6500
 6395TIP3    H119126   1.004   2.949   5.287 -0.9503 -0.4584 -2.4333
 6395TIP3    H219127   0.995   3.098   5.313  0.5809 -0.8615  0.6159
 6396TIP3   OH219128   8.252   3.992   4.621 -0.0891  0.4888  0.4649
 6396TIP3    H119129   8.337   3.974   4.580  0.8746 -1.1545  3.0290
 6396TIP3    H219130   8.203   3.910   4.613 -1.5513  1.4841 -1.1607
 6397TIP3   OH219131   8.005   5.875   4.659  0.5130  0.5900  0.4268
 6397TIP3    H119132   8.051   5.854   4.578 -0.3220 -0.3653  0.1925
 6397TIP3    H219133   7.982   5.968   4.650 -0.6376  0.1902 -0.9661
 6398TIP3   OH219134   1.102   3.685   5.686  0.5382  0.1235 -0.5894
 6398TIP3    H119135   1.020   3.678   5.638  0.1324 -0.1271  0.1371
 6398TIP3    H219136   1.091   3.763   5.741 -0.5430 -1.7905  2.0118
 6399TIP3   OH219137   0.933   4.460   4.958 -0.0263 -0.2361 -0.3822
 6399TIP3    H119138   0.932   4.419   5.044 -0.8086  0.5865  0.0092
 6399TIP3    H219139   1.006   4.418   4.912 -0.0561 -1.1852  0.4242
 6400TIP3   OH219140   1.840   2.136   6.409 -0.3564  0.1792  0.4830
 6400TIP3    H119141   1.774   2.201   6.386  0.2306  0.3651 -0.6637
 6400TIP3    H219142   1.923   2.184   6.408  0.2543 -0.8889 -1.7575
 6401TIP3   OH219143   0.881   4.244   6.061  0.7166  0.7575 -0.5094
 6401TIP3    H119144   0.862   4.319   6.004 -0.3304 -0.1877 -1.4261
 6401TIP3    H219145   0.822   4.254   6.135 -0.4628  0.0837 -1.3332
 6402TIP3   OH219146   1.939   1.804   3.948  0.0140 -0.5420  0.3561
 6402TIP3    H119147   1.966   1.720   3.912 -0.1574 -0.3391 -0.2436
 6402TIP3    H219148   2.019   1.857   3.946  0.0811 -0.6342  0.5750
 6403TIP3   OH219149   8.011   5.561   4.477 -0.1724 -0.2103  0.2913
 6403TIP3    H119150   8.030   5.654   4.464 -0.4953  0.0071  1.3969
 6403TIP3    H219151   8.010   5.525   4.388  0.3935  0.7514 -0.1159
 6404TIP3   OH219152   0.768   1.753   5.981 -0.1847  0.1930  0.1064
 6404TIP3    H119153   0.731   1.731   6.067  0.0918  2.8732  0.9678
 6404TIP3    H219154   0.695   1.741   5.920 -0.6315 -0.8938  0.8377
 6405TIP3   OH219155   1.687   3.753   3.786 -0.1910 -0.1834 -0.6131
 6405TIP3    H119156   1.671   3.667   3.823 -0.5921  0.6352  1.1684
 6405TIP3    H219157   1.727   3.803   3.857 -0.4703  1.2652 -1.4508
 6406TIP3   OH219158   8.314   3.280   4.202  0.1216  0.5820 -0.4600
 6406TIP3    H119159   8.248   3.304   4.266 -1.1500  0.0017 -1.5156
 6406TIP3    H219160   8.357   3.203   4.239 -1.6003 -0.6521 -0.9227
 6407TIP3   OH219161   8.417   0.491   4.796  0.0136  0.1476 -0.1807
 6407TIP3    H119162   8.402   0.585   4.793 -0.1662  0.1202 -0.1577
 6407TIP3    H219163   8.491   0.480   4.857  0.9518  0.3754 -1.2715
 6408TIP3   OH219164   5.740   7.829   0.214 -0.7345 -0.0835  0.2808
 6408TIP3    H119165   5.806   7.820   0.145  0.9037  2.9841  1.3534
 6408TIP3    H219166   5.746   7.920   0.241 -2.2002 -0.9090  3.6478
 6409TIP3   OH219167   1.088   1.635   5.484  0.0933 -0.1160 -0.2594
 6409TIP3    H119168   1.048   1.613   5.400  0.5197 -1.6266 -0.0743
 6409TIP3    H219169   1.152   1.703   5.463 -0.4916  0.2142 -1.0008
 6410TIP3   OH219170   4.183   3.373   5.516 -0.4552 -0.2110 -0.1692
 6410TIP3    H119171   4.245   3.415   5.575 -1.5363 -0.1401  0.9402
 6410TIP3    H219172   4.237   3.342   5.443  0.6312  1.3652 -0.0744
 6411TIP3   OH219173   1.245   1.835   6.437 -0.7411  0.1783 -0.3701
 6411TIP3    H119174   1.171   1.861   6.492 -0.6872 -1.8081  0.6771
 6411TIP3    H219175   1.318   1.827   6.498 -0.6367 -1.8502 -0.7406
 6412TIP3   OH219176   7.372   6.970   3.938 -0.1588  0.2192  0.5332
 6412TIP3    H119177   7.384   6.952   3.845 -1.2863  0.0458  0.4087
 6412TIP3    H219178   7.290   7.019   3.942  0.3896  1.0786  1.3450
 6413TIP3   OH219179   1.302   3.737   5.118 -0.6080  0.2457  0.3204
 6413TIP3    H119180   1.289   3.645   5.139 -0.0590  0.3246  1.0554
 6413TIP3    H219181   1.282   3.745   5.025  0.6371 -0.8677 -0.0482
 6414TIP3   OH219182   2.120   1.580   4.117  0.0299  0.7830  0.0109
 6414TIP3    H119183   2.204   1.617   4.091  1.1569 -1.1714  0.8077
 6414TIP3    H219184   2.075   1.561   4.034  1.3691 -0.4083 -0.4589
 6415TIP3   OH219185   2.872   2.078   4.666 -0.0099  0.0469 -0.9737
 6415TIP3    H119186   2.959   2.116   4.653 -0.3732  0.9481 -0.8017
 6415TIP3    H219187   2.817   2.118   4.598 -0.5139  0.2345 -0.4668
 6416TIP3   OH219188   1.608   1.149   5.758 -0.4327 -0.0925  0.0211
 6416TIP3    H119189   1.577   1.214   5.821  0.7955  0.8267 -0.3241
 6416TIP3    H219190   1.602   1.066   5.806 -1.2898  0.3511  0.7157
 6417TIP3   OH219191   1.237   0.044   6.163  0.2213 -0.0733  0.3770
 6417TIP3    H119192   1.261   0.130   6.198  0.2190  0.0537  0.0671
 6417TIP3    H219193   1.142   0.047   6.154  0.1427 -0.3860  1.0993
 6418TIP3   OH219194   2.794   1.126   2.472 -0.0902 -0.5541  0.1121
 6418TIP3    H119195   2.753   1.057   2.524 -0.7028 -1.7805 -1.9459
 6418TIP3    H219196   2.848   1.080   2.409  0.8529  0.9258 -0.1791
 6419TIP3   OH219197   2.445   3.542   6.011 -0.1211  0.1622 -0.1520
 6419TIP3    H119198   2.420   3.566   5.921  1.3247 -0.7998 -0.8326
 6419TIP3    H219199   2.540   3.554   6.013 -0.3101  1.5028  1.6851
 6420TIP3   OH219200   1.613   4.097   6.340  0.2063  0.0660 -0.4097
 6420TIP3    H119201   1.608   4.112   6.434  1.0061 -0.1782 -0.3250
 6420TIP3    H219202   1.545   4.154   6.303 -1.7606 -1.6391  0.4937
 6421TIP3   OH219203   1.306   3.242   6.286 -0.1902 -0.2914  0.1092
 6421TIP3    H119204   1.257   3.242   6.368 -2.9189  1.6643 -1.4268
 6421TIP3    H219205   1.251   3.192   6.226  1.6182 -1.4123 -0.6343
 6422TIP3   OH219206   0.311   1.267   6.688  0.4178  0.3412 -0.1043
 6422TIP3    H119207   0.243   1.258   6.622 -0.6419 -0.7130  1.1068
 6422TIP3    H219208   0.382   1.211   6.656 -0.5330 -1.0726  0.1995
 6423TIP3   OH219209   4.922   6.233   0.563  0.5193  0.4236 -0.5677
 6423TIP3    H119210   4.934   6.187   0.480 -0.1175 -1.3965  0.3241
 6423TIP3    H219211   5.010   6.237   0.601  0.4222 -1.1283 -0.1245
 6424TIP3   OH219212   2.404   2.119   6.235 -0.1880 -0.2661  0.6242
 6424TIP3    H119213   2.329   2.148   6.183 -1.3441 -0.1466  2.3190
 6424TIP3    H219214   2.462   2.076   6.172 -0.9956  0.9259 -0.9562
 6425TIP3   OH219215   2.867   7.126   0.017 -0.1701 -0.3609  0.4703
 6425TIP3    H119216   2.814   7.106   0.095  0.8097 -2.4147  0.6532
 6425TIP3    H219217   2.947   7.165   0.052  0.1259 -0.9742  0.4989
 6426TIP3   OH219218   0.030   2.444   4.937 -0.1008 -0.2834  0.6097
 6426TIP3    H119219  -0.047   2.415   4.889  0.9345  0.1169 -1.3496
 6426TIP3    H219220   0.103   2.427   4.877  1.0520  1.6634  1.4243
 6427TIP3   OH219221   6.894   0.193   0.967  0.0493  0.0635 -0.3174
 6427TIP3    H119222   6.854   0.275   0.996 -0.6813 -0.6782  0.8048
 6427TIP3    H219223   6.954   0.169   1.038 -0.5925 -0.9708 -0.1237
 6428TIP3   OH219224   4.159   8.028   1.902  0.5872  0.4054 -0.0069
 6428TIP3    H119225   4.208   8.085   1.961 -0.3727  0.0311  1.1507
 6428TIP3    H219226   4.145   7.947   1.951  0.5086 -0.2274 -1.0481
 6429TIP3   OH219227   1.366   2.749   5.817  0.7656 -0.2325 -0.0520
 6429TIP3    H119228   1.419   2.816   5.861  1.8036 -1.0391 -0.0659
 6429TIP3    H219229   1.292   2.734   5.877 -0.9412  2.8340 -1.2604
 6430TIP3   OH219230   8.398   1.253   6.885  0.0537  0.0998  0.3587
 6430TIP3    H119231   8.342   1.214   6.952  0.2850 -0.9667 -0.0497
 6430TIP3    H219232   8.457   1.182   6.859  1.9567  1.3484  1.1471
 6431TIP3   OH219233   2.922   2.082   5.652 -0.1779 -0.2073 -0.4770
 6431TIP3    H119234   2.901   2.168   5.615  0.0939 -0.2633 -0.7660
 6431TIP3    H219235   2.840   2.052   5.691  0.4382  1.4483  2.1757
 6432TIP3   OH219236   0.503   2.557   6.273 -0.1852  0.2100  0.2363
 6432TIP3    H119237   0.440   2.625   6.295 -0.5737 -0.0706 -0.0037
 6432TIP3    H219238   0.587   2.603   6.263 -0.5579  0.7337 -0.5241
 6433TIP3   OH219239   2.072   0.790   4.274 -0.2326 -0.3319 -0.6322
 6433TIP3    H119240   2.011   0.718   4.258 -2.3625  1.7055 -2.1089
 6433TIP3    H219241   2.101   0.817   4.187 -2.5432  3.0668 -0.4648
 6434TIP3   OH219242   6.615   6.905   6.177 -0.1209  0.8589  0.0354
 6434TIP3    H119243   6.629   6.962   6.101 -0.1324  1.7056  0.6620
 6434TIP3    H219244   6.584   6.823   6.139 -0.3891  1.3596 -0.8668
 6435TIP3   OH219245   2.213   1.454   4.899  0.7116 -0.1621  0.6866
 6435TIP3    H119246   2.182   1.445   4.989  0.3372 -0.4292  0.5327
 6435TIP3    H219247   2.205   1.366   4.862 -1.5070  0.4383 -0.3698
 6436TIP3   OH219248   0.972   2.558   5.647 -0.0018 -0.1519 -0.5008
 6436TIP3    H119249   1.066   2.563   5.629 -0.0532 -1.1401 -1.0770
 6436TIP3    H219250   0.936   2.635   5.603  0.7250  1.0869  1.0271
 6437TIP3   OH219251   2.671   2.828   4.541  0.0386 -0.4059 -0.3297
 6437TIP3    H119252   2.661   2.794   4.452 -0.3519 -0.7976 -0.1344
 6437TIP3    H219253   2.587   2.812   4.583 -0.3203  1.2345 -0.3731
 6438TIP3   OH219254   1.492   2.784   3.249 -0.3062  0.3277 -0.6306
 6438TIP3    H119255   1.407   2.800   3.291  0.7866  3.5301  0.4992
 6438TIP3    H219256   1.494   2.846   3.176  1.3227  0.7120 -0.2701
 6439TIP3   OH219257   4.493   5.980   0.507  0.0503  0.0155  0.0079
 6439TIP3    H119258   4.439   5.917   0.459  0.5273  0.0561 -0.5878
 6439TIP3    H219259   4.500   6.056   0.448  1.1438 -0.1736 -0.1201
 6440TIP3   OH219260   0.823   4.039   4.280  0.3071  0.2695 -0.4217
 6440TIP3    H119261   0.866   4.011   4.199 -1.0380  1.5424 -1.6093
 6440TIP3    H219262   0.755   3.973   4.296  0.0946  0.4120 -0.7350
 6441TIP3   OH219263   7.111   6.283   0.144 -0.3413  0.4903  0.1728
 6441TIP3    H119264   7.085   6.271   0.236 -1.4083  0.2518 -0.1536
 6441TIP3    H219265   7.050   6.349   0.111  0.2662  0.8306 -0.2686
 6442TIP3   OH219266   8.557   2.713   6.347 -0.6448 -0.2215 -0.3277
 6442TIP3    H119267   8.578   2.691   6.256 -0.9854  1.7268 -0.9126
 6442TIP3    H219268   8.510   2.796   6.341  1.9553  1.4814  1.8472
 6443TIP3   OH219269   3.195   3.340   6.263 -0.8806  0.1256 -0.5133
 6443TIP3    H119270   3.283   3.302   6.272 -1.3688 -0.2593  3.0853
 6443TIP3    H219271   3.211   3.432   6.242  0.3301 -0.3984 -2.0228
 6444TIP3   OH219272   1.907   3.098   5.503 -0.1005  0.3966 -0.3728
 6444TIP3    H119273   1.982   3.075   5.448  0.2504  0.8854 -0.0932
 6444TIP3    H219274   1.877   3.014   5.538 -1.5298 -0.1750 -2.8594
 6445TIP3   OH219275   1.778   3.745   5.253  0.0700 -0.0689  0.7129
 6445TIP3    H119276   1.708   3.724   5.315 -1.3485 -1.9880 -1.4263
 6445TIP3    H219277   1.845   3.679   5.269  0.3712  0.3701  1.2429
 6446TIP3   OH219278   2.953   4.110   3.413 -0.0138  0.1012 -0.0347
 6446TIP3    H119279   2.996   4.134   3.495  0.7001 -1.1438 -0.0250
 6446TIP3    H219280   2.947   4.192   3.363 -0.0260  0.7678  1.0611
 6447TIP3   OH219281   2.521   2.209   5.375 -0.7378  0.4796 -0.3658
 6447TIP3    H119282   2.452   2.150   5.344 -0.2293  0.1476 -0.8903
 6447TIP3    H219283   2.491   2.239   5.460 -1.3995  0.1186 -0.4677
 6448TIP3   OH219284   3.483   2.915   4.593  0.8392 -0.6373 -0.0410
 6448TIP3    H119285   3.529   2.832   4.596  0.1507 -1.0384 -0.4857
 6448TIP3    H219286   3.552   2.981   4.605  1.2859 -1.2889  1.0786
 6449TIP3   OH219287   1.409   4.738   3.851  0.5256  0.0522 -0.1029
 6449TIP3    H119288   1.464   4.666   3.882  0.0710 -1.9785 -3.6928
 6449TIP3    H219289   1.470   4.810   3.836  1.2770 -0.1904  1.6820
 6450TIP3   OH219290   1.334   2.912   6.298  0.1858 -0.3370 -0.0399
 6450TIP3    H119291   1.383   2.947   6.372 -0.1347  0.0810 -0.0210
 6450TIP3    H219292   1.264   2.977   6.283 -1.4911 -1.8294  1.1186
 6451TIP3   OH219293   8.423   6.223   4.462 -0.2760  0.4571  0.0709
 6451TIP3    H119294   8.394   6.306   4.424 -0.9787  0.0366 -0.3236
 6451TIP3    H219295   8.348   6.165   4.453  0.7647 -0.7372 -1.2389
 6452TIP3   OH219296   2.469   1.085   4.374 -0.8036 -0.1011 -0.3359
 6452TIP3    H119297   2.461   1.143   4.298  1.5039  2.4378  1.2816
 6452TIP3    H219298   2.397   1.112   4.432 -1.6316 -1.0113 -0.9182
 6453TIP3   OH219299   4.714   2.683   5.608  0.2301  0.0445 -0.0760
 6453TIP3    H119300   4.642   2.654   5.553 -0.4975  0.8789  0.4224
 6453TIP3    H219301   4.673   2.738   5.675  1.3679  0.8273 -0.0060
 6454TIP3   OH219302   2.383   2.489   4.491  0.3248  0.0137 -0.4062
 6454TIP3    H119303   2.298   2.455   4.517 -0.2167  2.4786  1.2754
 6454TIP3    H219304   2.386   2.478   4.396 -1.9409  0.0354 -0.4979
 6455TIP3   OH219305   2.469   0.110   3.596  0.6296 -0.5614  0.2853
 6455TIP3    H119306   2.399   0.105   3.531  0.2077  1.8341  0.5024
 6455TIP3    H219307   2.550   0.112   3.544  0.3683 -0.1790 -0.1148
 6456TIP3   OH219308   0.836   1.500   6.397 -0.5590  0.1996  0.5648
 6456TIP3    H119309   0.796   1.499   6.484 -0.0882  0.9000  0.7904
 6456TIP3    H219310   0.914   1.554   6.407 -0.6789  0.5568 -0.3732
 6457TIP3   OH219311   0.668   3.849   3.979 -0.4232  0.7648  0.0110
 6457TIP3    H119312   0.650   3.775   3.921  1.5423 -0.3325  0.7440
 6457TIP3    H219313   0.641   3.926   3.929  2.2445 -0.0644 -2.8549
 6458TIP3   OH219314   1.508   7.721   4.994  0.3443 -0.6267 -0.0760
 6458TIP3    H119315   1.532   7.776   5.069 -1.2601  1.1426 -0.8245
 6458TIP3    H219316   1.543   7.768   4.919 -2.2769  0.1561 -0.8601
 6459TIP3   OH219317   1.520   1.254   3.930  0.2634  0.1492 -0.7538
 6459TIP3    H119318   1.454   1.191   3.959 -1.1399  0.9462 -2.1218
 6459TIP3    H219319   1.531   1.314   4.004  0.2273 -0.5908 -0.1443
 6460TIP3   OH219320   2.433   1.328   3.817 -0.1008  0.0786  0.3038
 6460TIP3    H119321   2.382   1.396   3.861 -1.1041 -0.4343 -0.0481
 6460TIP3    H219322   2.422   1.250   3.871  1.5259  0.3319  1.0191
 6461TIP3   OH219323   2.348   2.344   3.752 -0.2068  0.3433  0.0768
 6461TIP3    H119324   2.402   2.306   3.683  1.2406 -1.4939  2.1702
 6461TIP3    H219325   2.262   2.355   3.712  0.7243 -0.2830 -2.1446
 6462TIP3   OH219326   5.818   1.104   3.984  0.3997  0.0377  0.9179
 6462TIP3    H119327   5.747   1.046   4.012 -0.2292  0.4119  0.1186
 6462TIP3    H219328   5.847   1.147   4.064 -0.8679  0.5310  1.1348
 6463TIP3   OH219329   1.314   0.286   4.813  0.0294 -0.7019  0.7612
 6463TIP3    H119330   1.223   0.275   4.786  0.3068 -1.2007  0.0274
 6463TIP3    H219331   1.333   0.207   4.864  0.5777 -1.4404 -0.5564
 6464TIP3   OH219332   1.281   3.826   3.994 -0.3000  0.2388  0.2683
 6464TIP3    H119333   1.336   3.754   4.027 -0.9755  0.4890  1.9768
 6464TIP3    H219334   1.228   3.852   4.069 -0.7797  1.8652 -0.6141
 6465TIP3   OH219335   5.811   2.973   5.437  0.1118 -0.3464  0.0192
 6465TIP3    H119336   5.888   2.917   5.435  0.1901 -0.2741  0.7854
 6465TIP3    H219337   5.830   3.038   5.504 -1.6673 -1.8783  2.0838
 6466TIP3   OH219338   3.600   4.025   4.948  0.2522 -0.0607 -0.1747
 6466TIP3    H119339   3.672   4.068   4.902  0.8006  0.5129  1.1979
 6466TIP3    H219340   3.543   4.098   4.975 -0.5728 -0.4710 -0.7866
 6467TIP3   OH219341   5.058   6.425   0.218  0.5052  0.0507 -0.2901
 6467TIP3    H119342   5.132   6.474   0.253 -0.0138  0.8298 -0.2831
 6467TIP3    H219343   5.082   6.333   0.230  1.6042  0.3036 -0.5776
 6468TIP3   OH219344   4.250   5.812   0.136 -0.7130  0.5215  0.5317
 6468TIP3    H119345   4.266   5.787   0.227  0.7266 -2.8067 -0.5762
 6468TIP3    H219346   4.249   5.730   0.087 -2.7953  2.1288 -2.3102
 6469TIP3   OH219347   3.254   3.608   6.233 -0.6488  0.0148 -0.5836
 6469TIP3    H119348   3.219   3.678   6.289  0.4334  1.1112 -1.2786
 6469TIP3    H219349   3.261   3.647   6.146 -0.5704 -1.1294 -1.0994
 6470TIP3   OH219350   1.166   4.220   6.081 -0.2030 -0.6589  0.2796
 6470TIP3    H119351   1.191   4.297   6.031  0.0080 -0.5964  0.4821
 6470TIP3    H219352   1.071   4.216   6.073 -0.0350 -1.6162 -1.5586
 6471TIP3   OH219353   4.376   2.375   5.883 -0.2460 -0.0106 -0.3503
 6471TIP3    H119354   4.434   2.318   5.833 -1.8220 -0.1946 -2.0056
 6471TIP3    H219355   4.403   2.464   5.860 -0.0936 -0.0949 -0.4977
 6472TIP3   OH219356   2.105   2.714   4.220  0.5675 -0.1491  0.3035
 6472TIP3    H119357   2.064   2.699   4.305  1.9182  2.1162  1.3992
 6472TIP3    H219358   2.112   2.627   4.181 -0.0779 -1.2172  2.4837
 6473TIP3   OH219359   2.675   3.533   2.871  0.1166  0.6118  0.2601
 6473TIP3    H119360   2.770   3.547   2.872  0.1536  0.4231 -0.7055
 6473TIP3    H219361   2.649   3.551   2.781 -0.9625  1.9379  0.8223
 6474TIP3   OH219362   4.151   2.736   5.347 -0.7227 -0.2906 -0.3587
 6474TIP3    H119363   4.100   2.816   5.358 -1.0422 -0.4345 -0.7873
 6474TIP3    H219364   4.106   2.688   5.277 -1.3091 -1.4470  0.7804
 6475TIP3   OH219365   3.048   1.166   3.928  0.2623 -0.4381  0.3479
 6475TIP3    H119366   3.046   1.125   3.841 -0.6774  0.2806  0.0187
 6475TIP3    H219367   2.972   1.130   3.973 -0.7974  1.2218 -0.0851
 6476TIP3   OH219368   3.254   5.517   6.720  0.3120 -0.9067  0.2764
 6476TIP3    H119369   3.228   5.449   6.782  2.1714 -1.9158 -0.0113
 6476TIP3    H219370   3.225   5.484   6.635 -2.2855  0.5013  0.5478
 6477TIP3   OH219371   1.283   1.663   3.604 -0.0693 -0.1105  0.1748
 6477TIP3    H119372   1.203   1.623   3.638 -0.3096 -1.2199 -1.6210
 6477TIP3    H219373   1.257   1.753   3.580 -1.1724 -0.8915 -1.6949
 6478TIP3   OH219374   1.698   2.489   2.512  0.0742  0.2293 -0.4833
 6478TIP3    H119375   1.790   2.468   2.494 -0.5994 -2.6197 -0.8694
 6478TIP3    H219376   1.685   2.465   2.604  0.6984  4.4842  0.8255
 6479TIP3   OH219377   2.786   3.477   6.470 -0.6292 -0.8688 -0.1281
 6479TIP3    H119378   2.707   3.528   6.491  0.1252  0.5332 -0.5772
 6479TIP3    H219379   2.799   3.421   6.545 -1.4413 -0.3264  0.4336
 6480TIP3   OH219380   2.559   3.073   4.277 -0.2671 -0.5325 -0.1633
 6480TIP3    H119381   2.557   3.069   4.373  2.7892 -2.1193 -0.1163
 6480TIP3    H219382   2.565   2.981   4.250 -0.3136 -0.0495 -1.8477
 6481TIP3   OH219383   6.135   5.434   1.602 -0.3099  0.1150  0.4162
 6481TIP3    H119384   6.152   5.528   1.597 -0.2314  0.0697 -0.2174
 6481TIP3    H219385   6.220   5.395   1.622  0.0548  0.0169 -1.2591
 6482TIP3   OH219386   6.487   7.528   3.097 -0.3093 -0.3137 -0.0534
 6482TIP3    H119387   6.405   7.515   3.144 -0.2449  0.7512  0.3820
 6482TIP3    H219388   6.553   7.536   3.166 -0.2739  1.6550 -0.2904
 6483TIP3   OH219389   3.116   3.427   5.347 -0.5441  0.2000  0.1467
 6483TIP3    H119390   3.143   3.491   5.413 -0.2814 -0.5209  0.7414
 6483TIP3    H219391   3.118   3.475   5.264  0.7563  0.6555  0.4350
 6484TIP3   OH219392   2.240   2.609   5.449  0.2790  1.3875  0.0140
 6484TIP3    H119393   2.326   2.588   5.485  0.3341  0.9514 -0.3675
 6484TIP3    H219394   2.223   2.699   5.477  0.7692  1.4008  0.2614
 6485TIP3   OH219395   3.851   3.331   6.161 -0.1782 -0.8025  0.0185
 6485TIP3    H119396   3.854   3.346   6.067 -1.9262 -0.9230 -0.0682
 6485TIP3    H219397   3.790   3.397   6.194 -0.6587 -1.6627  0.8748
 6486TIP3   OH219398   8.054   7.473   1.701  0.2320  0.5530  0.5404
 6486TIP3    H119399   8.090   7.387   1.725  1.7688  0.7828 -0.7920
 6486TIP3    H219400   8.004   7.501   1.777  1.1283 -0.7651  1.6367
 6487TIP3   OH219401   1.647   1.830   3.994  0.3564 -0.1153 -0.1423
 6487TIP3    H119402   1.736   1.798   3.983  0.8918  1.4758 -0.5931
 6487TIP3    H219403   1.592   1.763   3.954  1.2092 -1.8738  1.5359
 6488TIP3   OH219404   7.448   8.015   2.946  0.2768 -0.1542  0.2202
 6488TIP3    H119405   7.536   8.008   2.907  0.7360 -0.4599  1.3036
 6488TIP3    H219406   7.401   7.939   2.912  1.1217 -1.2248  1.3643
 6489TIP3   OH219407   6.124   7.794   0.400  0.3002  0.3596  0.4797
 6489TIP3    H119408   6.113   7.841   0.483 -0.3523 -0.8755  1.0986
 6489TIP3    H219409   6.168   7.712   0.424  1.1662  0.4993 -0.5576
 6490TIP3   OH219410   0.957   3.264   5.390  0.3688 -0.2412  0.6506
 6490TIP3    H119411   0.930   3.332   5.328 -0.6890 -1.5951 -0.3975
 6490TIP3    H219412   0.943   3.304   5.476  0.1239  1.0079  0.0471
 6491TIP3   OH219413   2.357   3.619   6.900  0.6028 -0.1510  0.3969
 6491TIP3    H119414   2.440   3.601   6.945 -0.2436 -3.2288  0.7922
 6491TIP3    H219415   2.371   3.587   6.811  1.2895  3.3309 -0.8133
 6492TIP3   OH219416   3.781   3.050   5.261  0.1443  0.2226  0.0750
 6492TIP3    H119417   3.729   3.126   5.234  1.3840  0.5179 -1.5425
 6492TIP3    H219418   3.842   3.036   5.189 -1.1429 -3.3577 -0.4276
 6493TIP3   OH219419   5.854   6.652   0.154 -0.0288 -0.7381  0.6570
 6493TIP3    H119420   5.824   6.584   0.215 -0.1330 -0.7030  0.6459
 6493TIP3    H219421   5.925   6.611   0.105 -0.0952 -0.8413  0.6471
 6494TIP3   OH219422   1.416   4.659   6.628 -0.0603  0.6343 -0.1081
 6494TIP3    H119423   1.363   4.726   6.671 -0.3897  0.7495 -0.6890
 6494TIP3    H219424   1.506   4.680   6.654 -0.3626  0.0140  1.4546
 6495TIP3   OH219425   4.613   7.024   0.340 -0.3326  0.3761  0.1552
 6495TIP3    H119426   4.584   6.976   0.264  2.4747 -0.5618 -0.3976
 6495TIP3    H219427   4.587   7.115   0.323 -1.6625 -0.1842 -0.8675
 6496TIP3   OH219428   5.071   2.174   3.642  0.0836  0.0111 -0.5550
 6496TIP3    H119429   5.089   2.175   3.548  0.2647 -1.2214 -0.5524
 6496TIP3    H219430   5.147   2.128   3.680  0.5709  1.5041  0.3211
 6497TIP3   OH219431   4.902   1.562   5.438  0.3113 -0.0467 -0.3753
 6497TIP3    H119432   4.873   1.585   5.526 -2.0385  0.4293 -1.2283
 6497TIP3    H219433   4.987   1.604   5.429 -0.0018  0.9724  1.2055
 6498TIP3   OH219434   0.415   2.865   6.685 -0.1458  0.6548 -0.5382
 6498TIP3    H119435   0.459   2.928   6.627  0.8084  1.2747  0.8156
 6498TIP3    H219436   0.481   2.843   6.750 -0.4835 -1.7737 -0.9780
 6499TIP3   OH219437   1.540   2.638   4.811 -0.5281  0.4470 -0.2703
 6499TIP3    H119438   1.494   2.715   4.778  0.0880  0.8661 -0.1608
 6499TIP3    H219439   1.551   2.654   4.905  1.4539  1.2091 -0.5974
 6500TIP3   OH219440   4.973   1.378   5.879 -0.2389  0.4682  0.1790
 6500TIP3    H119441   5.066   1.362   5.869 -0.2373  1.6335 -1.9020
 6500TIP3    H219442   4.930   1.298   5.848  0.0373  0.1340  0.6521
 6501TIP3   OH219443   2.325   3.127   5.601 -0.0051 -0.4087  0.0137
 6501TIP3    H119444   2.317   3.183   5.524 -0.8402  0.4149  0.6930
 6501TIP3    H219445   2.278   3.174   5.670  0.7638 -1.1261  1.0332
 6502TIP3   OH219446   3.301   2.776   5.214  0.1899  0.0927  0.1386
 6502TIP3    H119447   3.251   2.836   5.269 -0.4936 -0.2041 -0.1569
 6502TIP3    H219448   3.281   2.689   5.249  1.8959  0.0900  1.1542
 6503TIP3   OH219449   1.527   2.566   5.516 -0.9002  0.2375 -0.4621
 6503TIP3    H119450   1.573   2.641   5.478 -0.8365 -0.1895 -1.2322
 6503TIP3    H219451   1.591   2.495   5.512 -0.7168  0.3204  0.9187
 6504TIP3   OH219452   2.465   4.300   4.123  0.6199  0.0928 -0.3329
 6504TIP3    H119453   2.454   4.393   4.146  3.4550  0.0704  1.3951
 6504TIP3    H219454   2.419   4.253   4.193  0.0124  0.1711 -0.6760
 6505TIP3   OH219455   5.621   4.026   0.102  0.4884  0.1765  0.4745
 6505TIP3    H119456   5.692   3.963   0.093  0.4734 -0.0081  1.5148
 6505TIP3    H219457   5.568   3.992   0.174  0.6793  1.5517  1.2905
 6506TIP3   OH219458   2.579   2.132   4.554 -0.4251  0.3762  0.5057
 6506TIP3    H119459   2.578   2.174   4.469  1.1462 -1.4932 -0.4912
 6506TIP3    H219460   2.567   2.039   4.535  0.2462 -0.0933  2.2737
 6507TIP3   OH219461   3.267   1.543   5.044  0.1341  0.0091  0.1859
 6507TIP3    H119462   3.190   1.494   5.015  0.1060 -0.7888  1.5763
 6507TIP3    H219463   3.239   1.635   5.045 -0.7137 -0.2560  0.4284
 6508TIP3   OH219464   5.782   1.059   6.601 -0.6273  0.6884 -0.0646
 6508TIP3    H119465   5.841   1.052   6.526 -2.2655 -0.4383 -1.2930
 6508TIP3    H219466   5.722   1.130   6.577 -1.3796  0.0837 -0.0102
 6509TIP3   OH219467   3.428   1.903   5.273  0.0923  0.4050  0.2153
 6509TIP3    H119468   3.409   1.820   5.317  0.7070  0.3427  0.3690
 6509TIP3    H219469   3.521   1.919   5.290  1.3326 -1.4239 -4.0168
 6510TIP3   OH219470   1.513   1.906   3.586  0.7611 -0.4048  0.0720
 6510TIP3    H119471   1.584   1.848   3.612  1.5755  0.2698 -0.5946
 6510TIP3    H219472   1.548   1.955   3.511 -0.6565 -0.5550 -0.7013
 6511TIP3   OH219473   2.842   2.966   4.714 -0.1105 -0.7576  0.4440
 6511TIP3    H119474   2.779   3.006   4.774  1.8207 -0.8522  2.6274
 6511TIP3    H219475   2.789   2.928   4.645 -2.2016  2.7765 -0.0005
 6512TIP3   OH219476   2.616   2.408   5.194  0.0634 -0.5274  0.2061
 6512TIP3    H119477   2.584   2.328   5.235 -1.8874 -0.5699 -1.3395
 6512TIP3    H219478   2.703   2.385   5.161  0.1579 -1.5371  1.1390
 6513TIP3   OH219479   3.057   2.147   5.053 -0.0853 -0.0036  0.1611
 6513TIP3    H119480   3.125   2.120   5.115  0.3034 -0.6183 -0.5280
 6513TIP3    H219481   3.102   2.207   4.993 -0.1981 -0.2837 -0.2010
 6514TIP3   OH219482   2.603   2.665   6.845  0.1813  0.3483  0.0430
 6514TIP3    H119483   2.694   2.653   6.873  0.5170  2.6311  0.0396
 6514TIP3    H219484   2.610   2.710   6.761 -0.9450 -0.6146 -0.5832
 6515TIP3   OH219485   1.684   2.814   6.488  0.0210  0.1327 -0.1482
 6515TIP3    H119486   1.646   2.762   6.559 -2.0464  1.5756 -0.1541
 6515TIP3    H219487   1.613   2.873   6.461  2.2382  2.7782 -0.3020
 6516TIP3   OH219488   1.454   2.159   5.128  0.6326 -0.2197 -0.0600
 6516TIP3    H119489   1.497   2.242   5.148  0.6473  0.1347 -1.5705
 6516TIP3    H219490   1.395   2.178   5.056 -0.2696 -1.2546  0.3785
 6517TIP3   OH219491   5.619   2.108   4.953 -0.1301  0.2220  0.3231
 6517TIP3    H119492   5.546   2.165   4.933 -0.5905  0.4686  2.5806
 6517TIP3    H219493   5.592   2.022   4.921 -1.3067  0.3698  0.8909
 6518TIP3   OH219494   3.870   2.887   3.994 -0.0758 -0.1258 -0.1341
 6518TIP3    H119495   3.865   2.906   4.087  1.9832 -0.2396  0.0316
 6518TIP3    H219496   3.924   2.809   3.988  0.9341  0.6491 -1.4794
 6519TIP3   OH219497   4.150   4.529   6.501 -0.3561 -0.6650  0.2435
 6519TIP3    H119498   4.100   4.474   6.561 -0.7209  1.5862  2.1176
 6519TIP3    H219499   4.237   4.533   6.540 -0.3872  0.1931  0.2422
 6520TIP3   OH219500   3.609   4.664   6.097  0.0923  0.0169  0.2203
 6520TIP3    H119501   3.696   4.634   6.073  0.0193 -2.0091  2.3011
 6520TIP3    H219502   3.557   4.656   6.016  1.3994 -0.4397 -0.5871
 6521TIP3   OH219503   4.266   5.830   0.408 -0.1752  0.1181 -0.8906
 6521TIP3    H119504   4.250   5.924   0.412  0.2274  0.2655 -2.3754
 6521TIP3    H219505   4.179   5.790   0.412 -0.3585  0.5597 -0.4740
 6522TIP3   OH219506   6.267   2.006   5.594 -0.2997  0.2375 -0.4616
 6522TIP3    H119507   6.272   2.101   5.611  2.2933 -0.2951  2.0723
 6522TIP3    H219508   6.344   1.987   5.540 -0.4157 -0.5693 -0.3473
 6523TIP3   OH219509   0.690   2.158   4.777 -0.3353 -0.0340 -0.0577
 6523TIP3    H119510   0.646   2.114   4.850  0.7246  1.5057  1.5614
 6523TIP3    H219511   0.702   2.089   4.712 -1.8246 -1.3203  0.9675
 6524TIP3   OH219512   3.123   2.208   4.655  0.8066 -0.2864 -0.0464
 6524TIP3    H119513   3.181   2.133   4.665  1.8748  0.4801 -0.4660
 6524TIP3    H219514   3.150   2.249   4.573 -0.8157 -0.3432 -0.6366
 6525TIP3   OH219515   2.009   3.269   6.028  0.2395  0.1108 -0.2999
 6525TIP3    H119516   2.009   3.321   6.109 -1.8032  0.5510 -0.5630
 6525TIP3    H219517   1.918   3.271   5.998 -0.0359 -4.0520 -0.0437
 6526TIP3   OH219518   4.037   3.816   4.388 -0.0113  0.8741 -0.1971
 6526TIP3    H119519   4.127   3.847   4.401  0.7550 -0.3782 -2.3473
 6526TIP3    H219520   4.040   3.723   4.409 -1.2735  1.2146  1.6196
 6527TIP3   OH219521   1.826   4.360   4.116 -0.0565  0.0458 -0.1876
 6527TIP3    H119522   1.814   4.267   4.097 -2.2097 -0.4285  3.0255
 6527TIP3    H219523   1.737   4.394   4.126  0.7508  1.7784  1.4879
 6528TIP3   OH219524   2.733   1.535   4.577 -0.4697  0.1479 -0.0794
 6528TIP3    H119525   2.739   1.523   4.482  1.3306 -0.3678  0.0729
 6528TIP3    H219526   2.813   1.582   4.601 -0.4126 -0.5941  1.2907
 6529TIP3   OH219527   1.962   1.915   4.518 -0.7568 -0.5443 -0.0483
 6529TIP3    H119528   2.024   1.987   4.507 -0.1994 -1.2595 -1.6700
 6529TIP3    H219529   1.910   1.914   4.437 -1.1249 -1.6229  0.1875
 6530TIP3   OH219530   2.613   1.657   5.894  0.0984  0.6199  0.2493
 6530TIP3    H119531   2.682   1.718   5.919  3.1388 -0.9519 -3.5684
 6530TIP3    H219532   2.559   1.706   5.832 -1.4654  1.4141  2.1895
 6531TIP3   OH219533   8.534   1.223   0.614 -0.1598 -0.2216 -0.2135
 6531TIP3    H119534   8.620   1.250   0.644 -0.8448  0.7198  0.9325
 6531TIP3    H219535   8.516   1.278   0.538 -0.6088  0.9910  0.7708
 6532TIP3   OH219536   4.802   3.562   3.579 -0.1572  0.0389 -0.3039
 6532TIP3    H119537   4.835   3.480   3.543 -0.3296 -0.6316  1.0658
 6532TIP3    H219538   4.719   3.577   3.533 -0.3167 -0.7493 -0.2720
 6533TIP3   OH219539   6.482   3.437   5.012  0.3536 -0.1796  0.0690
 6533TIP3    H119540   6.439   3.439   5.097 -0.1913  1.5268 -0.2310
 6533TIP3    H219541   6.576   3.441   5.033  0.3426 -2.5440  0.6678
 6534TIP3   OH219542   3.943   2.348   3.018 -0.1284  0.2113  0.7062
 6534TIP3    H119543   4.011   2.393   3.068  0.9463 -1.4698  0.8191
 6534TIP3    H219544   3.915   2.276   3.075  0.6785 -1.3704 -0.8325
 6535TIP3   OH219545   2.906   2.014   6.074  0.0824 -0.0511 -0.3883
 6535TIP3    H119546   2.938   1.950   6.010  0.8634 -0.4741  0.4104
 6535TIP3    H219547   2.915   1.970   6.158 -0.2461  0.7725  0.0845
 6536TIP3   OH219548   8.460   3.927   5.326 -0.1172 -0.1433  0.2319
 6536TIP3    H119549   8.468   3.832   5.326 -3.4294 -0.5451  3.5396
 6536TIP3    H219550   8.523   3.957   5.392  0.5354 -0.0910 -0.4153
 6537TIP3   OH219551   2.463   0.896   4.085  0.1284 -0.9064 -0.5106
 6537TIP3    H119552   2.550   0.870   4.116  0.6437  0.0120 -1.1719
 6537TIP3    H219553   2.417   0.924   4.165  1.4578  1.4504 -0.5396
 6538TIP3   OH219554   2.157   7.568   6.027  0.0695 -0.1537  0.1384
 6538TIP3    H119555   2.202   7.551   5.944 -0.8286  1.7227 -0.7872
 6538TIP3    H219556   2.093   7.498   6.034  1.8732 -1.7970  0.5557
 6539TIP3   OH219557   2.913   1.898   5.027  0.2681 -0.0958  0.2920
 6539TIP3    H119558   2.853   1.877   5.098  0.2748  0.2041  0.3850
 6539TIP3    H219559   2.946   1.985   5.047 -1.3449  0.8832 -1.1863
 6540TIP3   OH219560   3.389   3.687   6.898  0.0851  0.0556  0.7486
 6540TIP3    H119561   3.364   3.738   6.975  0.4138 -0.6695  1.3548
 6540TIP3    H219562   3.482   3.667   6.912  0.2953  0.4189 -0.1279
 6541TIP3   OH219563   0.490   0.744   2.912  0.3776  0.0058  0.1143
 6541TIP3    H119564   0.403   0.733   2.874 -0.5641  1.4705  1.7765
 6541TIP3    H219565   0.478   0.809   2.981  2.5663 -0.6463  1.1520
 6542TIP3   OH219566   2.708   2.830   2.482 -0.9428 -0.0992 -0.0802
 6542TIP3    H119567   2.753   2.849   2.400 -2.2560  0.0702 -0.7821
 6542TIP3    H219568   2.733   2.902   2.540 -1.4301  0.7603 -0.9232
 6543TIP3   OH219569   4.303   4.528   5.148 -0.3959  0.1628 -0.1702
 6543TIP3    H119570   4.267   4.515   5.060  0.1260  1.2628 -0.5521
 6543TIP3    H219571   4.397   4.541   5.134 -0.5624  2.0585  0.3913
 6544TIP3   OH219572   2.246   1.395   4.293  0.2718  1.0913  0.4160
 6544TIP3    H119573   2.220   1.457   4.225  1.3669  2.5056  1.2689
 6544TIP3    H219574   2.341   1.393   4.289  0.3842  1.8875  2.5221
 6545TIP3   OH219575   1.669   3.236   4.085 -0.2868  0.2702 -0.6439
 6545TIP3    H119576   1.651   3.327   4.059  1.3614  0.0404 -2.7084
 6545TIP3    H219577   1.622   3.183   4.021  1.1533 -0.3230 -1.2272
 6546TIP3   OH219578   3.441   1.933   4.335 -0.0521 -0.3611  0.7139
 6546TIP3    H119579   3.451   1.838   4.340  0.5585 -0.2236  2.6447
 6546TIP3    H219580   3.360   1.952   4.382  0.0057  0.1040  0.6341
 6547TIP3   OH219581   3.811   2.856   5.655  0.2843  0.5985 -0.2281
 6547TIP3    H119582   3.763   2.783   5.693  0.8499 -0.7748 -2.1231
 6547TIP3    H219583   3.799   2.927   5.719  0.4754 -1.3604  2.0806
 6548TIP3   OH219584   3.113   0.700   3.636  0.1886 -0.1781  0.0330
 6548TIP3    H119585   3.088   0.611   3.608 -1.2608  0.6215 -1.3396
 6548TIP3    H219586   3.035   0.732   3.683  0.8164  0.2664  0.7739
 6549TIP3   OH219587   3.157   3.675   3.295  0.4855 -0.1465  0.4318
 6549TIP3    H119588   3.194   3.608   3.238  1.3090 -0.6237  1.4959
 6549TIP3    H219589   3.099   3.627   3.354  0.4269  0.1875  0.6494
 6550TIP3   OH219590   2.179   4.408   4.612 -0.4782 -0.4697 -0.2458
 6550TIP3    H119591   2.095   4.424   4.569  0.6503  1.1067 -1.9275
 6550TIP3    H219592   2.189   4.313   4.610 -1.7072 -0.5904 -1.0186
 6551TIP3   OH219593   2.239   1.178   6.136 -0.0262  0.0847  0.5906
 6551TIP3    H119594   2.240   1.083   6.130  0.4410  0.0881  0.6077
 6551TIP3    H219595   2.162   1.198   6.190 -0.2494 -0.2697  0.4060
 6552TIP3   OH219596   3.410   1.283   2.798 -0.2951 -0.0519  0.7775
 6552TIP3    H119597   3.425   1.188   2.804  0.1137 -0.1666 -1.5758
 6552TIP3    H219598   3.496   1.322   2.818  0.0893 -0.2776 -0.3680
 6553TIP3   OH219599   3.155   5.214   4.545 -0.5154  0.2796  0.3876
 6553TIP3    H119600   3.179   5.295   4.591 -0.8881  0.4371  0.3108
 6553TIP3    H219601   3.132   5.153   4.616 -1.7297  0.7296  0.4023
 6554TIP3   OH219602   5.128   4.797   0.024 -0.0465  0.1654  0.4257
 6554TIP3    H119603   5.120   4.810  -0.071 -0.2390  1.3882  0.5947
 6554TIP3    H219604   5.040   4.814   0.058  0.0637 -0.0879  0.8492
 6555TIP3   OH219605   1.484   2.693   5.100 -0.1088  0.0924  0.0322
 6555TIP3    H119606   1.544   2.767   5.098  0.4918 -0.4023 -0.4407
 6555TIP3    H219607   1.437   2.703   5.182  1.1648  0.0574  0.7765
 6556TIP3   OH219608   1.923   2.563   5.768  0.3908 -0.7368  0.0388
 6556TIP3    H119609   1.885   2.484   5.806  0.1172 -0.7586 -0.2759
 6556TIP3    H219610   2.011   2.567   5.805  0.4945 -1.3268 -0.1266
 6557TIP3   OH219611   4.735   8.018   3.290  0.3043 -0.8733 -0.7523
 6557TIP3    H119612   4.724   7.924   3.307 -0.8350 -0.5144  0.6900
 6557TIP3    H219613   4.827   8.035   3.308 -0.0832 -1.2169  1.8169
 6558TIP3   OH219614   8.016   2.342   0.353  0.1347  0.2371  0.8131
 6558TIP3    H119615   8.055   2.328   0.267 -0.3232  0.7157  0.5274
 6558TIP3    H219616   7.943   2.401   0.337 -1.1359 -1.1815  1.2332
 6559TIP3   OH219617   3.345   0.435   3.827 -0.3086  0.2533 -0.6128
 6559TIP3    H119618   3.287   0.367   3.793  0.5212 -0.1645 -1.2155
 6559TIP3    H219619   3.419   0.435   3.767  0.4920  0.5248  0.3659
 6560TIP3   OH219620   1.185   3.725   4.846  0.0568  0.5900  0.1001
 6560TIP3    H119621   1.227   3.685   4.770  0.5077  0.4004  0.4488
 6560TIP3    H219622   1.148   3.650   4.894  0.5192  0.6328  0.5212
 6561TIP3   OH219623   1.598   2.193   4.518  0.1642 -0.1532  0.5588
 6561TIP3    H119624   1.563   2.281   4.532 -1.0686 -0.4904 -0.2962
 6561TIP3    H219625   1.525   2.144   4.479  1.0015 -1.4076  0.5284
 6562TIP3   OH219626   1.265   2.151   6.247  0.0839 -0.0747 -0.2975
 6562TIP3    H119627   1.186   2.179   6.202 -0.7699 -2.2171 -0.2092
 6562TIP3    H219628   1.250   2.058   6.266  2.0798 -0.1911  0.8673
 6563TIP3   OH219629   6.353   5.369   1.336  0.4061 -0.3495 -0.2352
 6563TIP3    H119630   6.371   5.281   1.302  0.8281 -0.0637 -0.7591
 6563TIP3    H219631   6.348   5.357   1.431  3.1060 -0.5210 -0.0562
 6564TIP3   OH219632   2.935   4.490   6.475 -0.3271  0.0855  0.0815
 6564TIP3    H119633   2.880   4.520   6.403  0.2159  0.5746 -0.1343
 6564TIP3    H219634   2.991   4.566   6.495  1.7428 -1.0923 -1.1027
 6565TIP3   OH219635   4.310   6.551   0.650 -0.4588 -0.0271 -0.1836
 6565TIP3    H119636   4.267   6.479   0.696  0.1312 -0.1346  0.2069
 6565TIP3    H219637   4.272   6.549   0.562 -0.1694 -1.0586 -0.2929
 6566TIP3   OH219638   2.131   1.907   4.731 -0.5765  0.2416  0.4266
 6566TIP3    H119639   2.058   1.894   4.670 -0.7503 -0.4682  0.7650
 6566TIP3    H219640   2.172   1.989   4.704  0.0489 -0.6391 -1.3464
 6567TIP3   OH219641   1.542   0.902   3.965 -0.5405 -0.2660  0.1498
 6567TIP3    H119642   1.600   0.840   4.010 -1.0005 -1.0872 -0.3831
 6567TIP3    H219643   1.494   0.946   4.036  0.3256  0.0207  0.5651
 6568TIP3   OH219644   4.067   4.840   6.531 -0.6762  0.1000  0.0958
 6568TIP3    H119645   4.097   4.788   6.606 -0.3931  2.5993  1.7821
 6568TIP3    H219646   4.138   4.835   6.468 -1.1613 -2.5187 -0.2731
 6569TIP3   OH219647   5.087   4.032   3.525  0.4785 -0.2358 -0.2422
 6569TIP3    H119648   5.151   4.033   3.596 -0.3399  1.9554  0.5029
 6569TIP3    H219649   5.139   4.025   3.445  1.5246 -0.3955  0.4485
 6570TIP3   OH219650   2.182   1.939   3.888  0.9637 -0.7309  0.1146
 6570TIP3    H119651   2.190   1.934   3.793 -1.9104 -1.5563 -0.1227
 6570TIP3    H219652   2.202   2.031   3.910  3.1580 -0.8920 -1.0706
 6571TIP3   OH219653   4.007   1.278   3.774  0.1177  0.1282 -0.3089
 6571TIP3    H119654   3.984   1.208   3.834 -0.3901  1.6478  1.3384
 6571TIP3    H219655   4.007   1.238   3.687 -2.9756 -1.2353  0.2763
 6572TIP3   OH219656   2.872   2.348   5.081 -0.4822 -0.1604 -0.1410
 6572TIP3    H119657   2.871   2.368   4.988 -1.1454 -3.0605 -0.8010
 6572TIP3    H219658   2.925   2.268   5.088  1.8319  1.5221  2.3115
 6573TIP3   OH219659   4.245   2.483   4.792 -0.1965  0.6647  0.2676
 6573TIP3    H119660   4.198   2.565   4.780 -1.0510 -0.1886 -2.6291
 6573TIP3    H219661   4.195   2.436   4.859 -4.2190 -0.6796 -3.4791
 6574TIP3   OH219662   4.680   2.302   5.171  0.3803  0.0127 -0.3352
 6574TIP3    H119663   4.645   2.213   5.173 -0.5905  0.4186  1.9255
 6574TIP3    H219664   4.739   2.307   5.246 -1.6798  2.0636  1.2378
 6575TIP3   OH219665   1.400   3.154   5.042  0.3838 -0.2941  0.0884
 6575TIP3    H119666   1.348   3.083   5.005 -1.2515  1.0507 -0.2701
 6575TIP3    H219667   1.478   3.159   4.986  0.2696 -1.4775 -0.1747
 6576TIP3   OH219668   2.842   3.027   2.634  0.7173  0.7226 -0.4903
 6576TIP3    H119669   2.873   3.066   2.716 -1.5096  2.5841 -0.4777
 6576TIP3    H219670   2.855   3.096   2.569 -1.8152  0.9633 -0.7861
 6577TIP3   OH219671   2.011   1.242   6.280 -0.2376 -0.7001 -0.7001
 6577TIP3    H119672   1.944   1.183   6.315  0.8545 -1.4602  0.0976
 6577TIP3    H219673   1.977   1.330   6.300 -0.9142 -1.0848 -0.1285
 6578TIP3   OH219674   3.370   3.313   4.434 -0.1064 -0.2664 -0.0041
 6578TIP3    H119675   3.425   3.316   4.356 -1.4023  1.0582 -0.8797
 6578TIP3    H219676   3.302   3.249   4.414 -0.2548 -0.1620  0.1540
 6579TIP3   OH219677   2.968   2.693   5.671  0.0428 -0.1427 -0.3917
 6579TIP3    H119678   2.895   2.741   5.631 -0.3606  0.3902  0.9492
 6579TIP3    H219679   2.931   2.606   5.691 -0.2472  0.1437  0.3321
 6580TIP3   OH219680   2.591   2.115   5.127  0.1344 -0.0645 -0.0656
 6580TIP3    H119681   2.659   2.048   5.133 -0.7100 -0.7853  1.5869
 6580TIP3    H219682   2.586   2.152   5.215 -0.4852  1.1013 -0.5848
 6581TIP3   OH219683   4.121   4.937   5.564  0.3919 -0.6201  0.2942
 6581TIP3    H119684   4.142   4.868   5.626 -0.4394 -0.2009  1.0512
 6581TIP3    H219685   4.034   4.915   5.532  0.1723  0.0070  0.4472
 6582TIP3   OH219686   2.644   3.869   5.651 -0.0173 -0.6439  0.2772
 6582TIP3    H119687   2.589   3.900   5.579  1.6171 -0.8554 -1.0835
 6582TIP3    H219688   2.715   3.821   5.609  0.2434 -1.9295  2.0995
 6583TIP3   OH219689   2.685   5.443   5.616  0.4119 -0.1848  0.4183
 6583TIP3    H119690   2.622   5.446   5.545 -1.1249 -0.8612  1.7190
 6583TIP3    H219691   2.680   5.530   5.656 -0.5228 -0.5907  1.2046
 6584TIP3   OH219692   5.574   5.693   0.644  0.0408 -0.8247 -0.3877
 6584TIP3    H119693   5.478   5.696   0.645  0.0424 -0.7492 -0.1894
 6584TIP3    H219694   5.600   5.785   0.634  0.0911 -0.8246 -0.2631
 6585TIP3   OH219695   3.164   2.885   5.419  0.1597 -0.2892 -0.2030
 6585TIP3    H119696   3.170   2.894   5.514 -0.4778 -2.7735  0.1111
 6585TIP3    H219697   3.146   2.973   5.387 -0.6252  0.3990  2.0749
 6586TIP3   OH219698   1.928   2.825   6.338 -0.2389 -0.5045 -0.2000
 6586TIP3    H119699   1.954   2.904   6.385 -0.2593 -0.3909 -0.3814
 6586TIP3    H219700   1.837   2.811   6.364 -0.6831  0.3376 -1.2759
 6587TIP3   OH219701   5.308   0.032   6.057  0.0056 -0.0643  0.8848
 6587TIP3    H119702   5.239   0.078   6.105 -0.2681  1.1504 -0.6416
 6587TIP3    H219703   5.345   0.099   5.999  0.1605 -1.5527 -0.7643
 6588TIP3   OH219704   2.043   2.270   6.536  0.0259 -0.5562  0.0063
 6588TIP3    H119705   2.108   2.288   6.604 -0.6914 -1.1587  0.8590
 6588TIP3    H219706   1.960   2.300   6.574 -0.2016  0.2501 -1.0961
 6589TIP3   OH219707   3.113   2.961   7.022  0.0830  0.0681  0.0277
 6589TIP3    H119708   3.119   3.045   6.977 -2.3904 -0.2367 -0.9845
 6589TIP3    H219709   3.027   2.962   7.063 -0.2337 -2.1852 -0.4864
 6590TIP3   OH219710   1.345   1.178   3.571 -0.3114  0.6587 -0.0865
 6590TIP3    H119711   1.410   1.247   3.560  0.2224  0.0791 -0.6123
 6590TIP3    H219712   1.381   1.123   3.641 -0.2152  0.3227 -0.3962
 6591TIP3   OH219713   5.563   7.054   0.696 -0.0976 -0.0008  0.1140
 6591TIP3    H119714   5.531   7.063   0.606 -0.0820 -1.5649 -0.0600
 6591TIP3    H219715   5.628   6.985   0.691  0.0916  0.0909  1.2874
 6592TIP3   OH219716   1.843   2.360   5.903  0.1405 -0.2041  0.1685
 6592TIP3    H119717   1.845   2.359   5.999 -1.3085 -0.4454  0.2152
 6592TIP3    H219718   1.763   2.312   5.881 -0.2463  1.0189 -1.1330
 6593TIP3   OH219719   1.519   2.367   4.717 -0.2502  0.0069 -0.5005
 6593TIP3    H119720   1.537   2.453   4.754 -1.1237 -0.0544  0.0945
 6593TIP3    H219721   1.537   2.306   4.788 -0.0771 -0.2717 -0.7793
 6594TIP3   OH219722   1.598   3.039   4.463  0.0387 -0.2641 -0.0583
 6594TIP3    H119723   1.692   3.059   4.468 -0.2378  0.5909  2.5928
 6594TIP3    H219724   1.590   2.953   4.504 -0.4441  0.0510  0.5106
 6595TIP3   OH219725   3.418   2.337   4.181 -0.3198 -0.3390 -0.6163
 6595TIP3    H119726   3.449   2.254   4.145 -1.9239 -0.8120 -0.9484
 6595TIP3    H219727   3.384   2.314   4.267  0.3106  0.1950 -0.2179
 6596TIP3   OH219728   0.827   1.386   5.753  0.0135 -0.1859  0.0326
 6596TIP3    H119729   0.912   1.378   5.711  1.2377 -2.4977  2.7867
 6596TIP3    H219730   0.790   1.466   5.717  2.5992 -0.0461 -2.4967
 6597TIP3   OH219731   2.282   4.921   6.702  0.4381  0.0566 -0.2340
 6597TIP3    H119732   2.262   5.012   6.725  0.9263  0.0315  0.3166
 6597TIP3    H219733   2.344   4.927   6.629  0.3293  0.1680 -0.3154
 6598TIP3   OH219734   2.932   5.320   5.673  0.4962  0.3157 -0.4275
 6598TIP3    H119735   2.923   5.273   5.591  0.0136 -0.8230  0.2577
 6598TIP3    H219736   2.844   5.351   5.693  0.8007  1.4813 -0.8446
 6599TIP3   OH219737   5.488   0.622   5.391  0.1381 -0.3525 -0.5343
 6599TIP3    H119738   5.441   0.684   5.447 -0.7852 -0.5180 -1.1159
 6599TIP3    H219739   5.448   0.537   5.410  1.0121 -0.6919 -0.1650
 6600TIP3   OH219740   4.304   2.353   6.375 -0.2409 -0.1014 -0.1612
 6600TIP3    H119741   4.327   2.427   6.318  0.3847 -0.2267 -0.0765
 6600TIP3    H219742   4.208   2.348   6.371 -0.3319  1.0904  0.2990
 6601TIP3   OH219743   4.585   2.697   4.416  0.0975  0.4039 -0.2201
 6601TIP3    H119744   4.616   2.781   4.382  0.1854 -0.3285 -2.0045
 6601TIP3    H219745   4.610   2.633   4.349 -1.1691 -0.8640  0.4876
 6602TIP3   OH219746   8.528   7.446   2.907  1.0137  0.6704 -0.0354
 6602TIP3    H119747   8.536   7.399   2.825 -0.7325  0.9734 -0.3995
 6602TIP3    H219748   8.508   7.536   2.881  3.6133  1.4993  0.6625
 6603TIP3   OH219749   4.279   5.701   5.550  0.1107  0.1127 -0.9950
 6603TIP3    H119750   4.235   5.635   5.497 -0.0359 -2.6036  2.3048
 6603TIP3    H219751   4.369   5.669   5.559  0.5574  1.3485 -0.8554
 6604TIP3   OH219752   2.180   5.149   4.800  0.0871 -0.5451 -0.0621
 6604TIP3    H119753   2.230   5.187   4.728  0.5381 -1.9818 -0.5286
 6604TIP3    H219754   2.246   5.125   4.865 -0.4754  2.8241  1.8925
 6605TIP3   OH219755   4.715   2.923   2.575 -0.1615  0.4398  0.1379
 6605TIP3    H119756   4.794   2.946   2.526  0.1824 -0.5729  0.2023
 6605TIP3    H219757   4.685   3.006   2.612 -0.3766  1.1896 -1.6972
 6606TIP3   OH219758   5.331   0.909   4.983  0.1919  0.0426  0.0636
 6606TIP3    H119759   5.353   0.835   4.925  0.0444 -0.4217  0.5910
 6606TIP3    H219760   5.296   0.976   4.924  1.6673  0.2521 -0.6119
 6607TIP3   OH219761   1.980   1.178   6.850  0.6959 -0.0845  0.2832
 6607TIP3    H119762   2.075   1.186   6.865  1.2101  1.2938 -3.2732
 6607TIP3    H219763   1.944   1.261   6.878  0.7443 -0.0325  0.1911
 6608TIP3   OH219764   3.197   6.845   0.567  0.1482  0.0739  0.3384
 6608TIP3    H119765   3.217   6.889   0.649 -3.6387 -0.1990  1.5314
 6608TIP3    H219766   3.147   6.910   0.516  0.0826 -0.6716 -0.5758
 6609TIP3   OH219767   2.785   2.267   6.299  0.5510 -0.7181  0.3986
 6609TIP3    H119768   2.794   2.348   6.349 -1.9164 -1.0564  1.4759
 6609TIP3    H219769   2.831   2.201   6.351  0.0379 -0.5930  1.0129
 6610TIP3   OH219770   2.399   1.524   5.445 -0.1338  0.3541 -0.1053
 6610TIP3    H119771   2.456   1.510   5.521  0.1674 -1.4773 -0.6270
 6610TIP3    H219772   2.311   1.503   5.477 -0.0074 -0.4132 -0.2519
 6611TIP3   OH219773   1.541   2.132   6.296  0.2535 -0.4443  0.0372
 6611TIP3    H119774   1.569   2.066   6.232 -1.1753  0.3678 -1.4590
 6611TIP3    H219775   1.446   2.134   6.289  0.0969 -0.1315  2.0148
 6612TIP3   OH219776   1.558   1.509   4.706 -0.4952 -0.1979 -0.2160
 6612TIP3    H119777   1.593   1.444   4.646 -1.1017  0.1115 -0.9202
 6612TIP3    H219778   1.541   1.586   4.652 -0.0685  0.4463  0.5501
 6613TIP3   OH219779   3.777   0.880   3.379 -0.1984 -0.1287  0.3078
 6613TIP3    H119780   3.795   0.947   3.445  0.0163  0.3990 -0.2773
 6613TIP3    H219781   3.742   0.929   3.304  1.4786 -0.4675 -0.7247
 6614TIP3   OH219782   2.548   0.901   3.636  0.5180 -0.3069 -0.2143
 6614TIP3    H119783   2.508   0.889   3.550  1.9339  0.0342 -0.9390
 6614TIP3    H219784   2.550   0.813   3.675  0.1226 -0.5041 -0.6450
 6615TIP3   OH219785   2.227   2.735   3.583  0.2949 -0.0354  0.3014
 6615TIP3    H119786   2.282   2.722   3.505 -1.9355 -1.1808 -1.1258
 6615TIP3    H219787   2.287   2.719   3.656  1.7306 -1.9569 -1.2198
 6616TIP3   OH219788   6.208   6.779   0.417 -0.3307 -0.7499  0.1827
 6616TIP3    H119789   6.236   6.742   0.333  0.3373  1.1497 -0.4673
 6616TIP3    H219790   6.118   6.750   0.427 -0.9890  0.3815 -2.0381
 6617TIP3   OH219791   0.979   1.936   5.459 -0.3338 -0.1076 -0.3914
 6617TIP3    H119792   1.063   1.920   5.415 -0.7652 -0.5275 -1.0757
 6617TIP3    H219793   0.937   2.004   5.406  0.0703  0.9343  0.6177
 6618TIP3   OH219794   1.719   0.560   5.510 -0.5862 -0.1589 -0.6245
 6618TIP3    H119795   1.733   0.636   5.454  1.4464  0.6022  0.8354
 6618TIP3    H219796   1.803   0.513   5.507 -0.5926 -0.3419  1.3727
 6619TIP3   OH219797   4.068   4.696   0.048 -0.3398  0.2549  0.3459
 6619TIP3    H119798   4.006   4.756   0.006  1.9434  0.6578 -2.7029
 6619TIP3    H219799   4.105   4.646  -0.025  2.4621 -0.3707  2.1287
 6620TIP3   OH219800   3.569   4.633   3.677  0.1520  0.4269  0.2010
 6620TIP3    H119801   3.537   4.721   3.696 -0.7572  0.3852 -1.0364
 6620TIP3    H219802   3.491   4.577   3.684  0.4673 -0.0832 -0.2651
 6621TIP3   OH219803   4.097   0.815   3.634  0.5554  0.0994  0.2929
 6621TIP3    H119804   4.152   0.881   3.593  1.1744 -0.6093 -0.0152
 6621TIP3    H219805   4.129   0.809   3.724 -0.5446  1.3656  0.7871
 6622TIP3   OH219806   1.631   1.942   4.642  0.1989 -0.5530 -0.0013
 6622TIP3    H119807   1.718   1.923   4.678 -0.4035 -1.3708  1.0553
 6622TIP3    H219808   1.632   2.036   4.626  1.0314 -0.4354  0.6904
 6623TIP3   OH219809   3.979   3.089   5.076  0.0539 -0.5711  0.2680
 6623TIP3    H119810   4.051   3.151   5.070  1.8494 -2.4265  2.0557
 6623TIP3    H219811   4.020   3.003   5.073 -2.1239 -1.6770  0.9006
 6624TIP3   OH219812   1.460   3.960   5.653  0.0005 -0.2887  0.5781
 6624TIP3    H119813   1.531   4.022   5.641 -0.1643 -0.1376  0.3743
 6624TIP3    H219814   1.499   3.875   5.630  0.0912 -0.1955  0.3803
 6625TIP3   OH219815   5.367   7.867   0.120  0.4619 -0.4254  0.1374
 6625TIP3    H119816   5.332   7.943   0.074  0.6478 -0.8618 -0.7408
 6625TIP3    H219817   5.437   7.835   0.063  0.7847 -0.8926  0.7931
 6626TIP3   OH219818   8.473   1.921   4.186 -0.2503  0.0659 -0.3046
 6626TIP3    H119819   8.394   1.974   4.192 -0.2092 -0.0014  0.9673
 6626TIP3    H219820   8.493   1.898   4.277  1.0664 -0.1505 -0.6443
 6627TIP3   OH219821   4.981   6.089   0.057  0.3809  0.2383  0.1193
 6627TIP3    H119822   5.050   6.066  -0.005 -0.2627 -2.7851  0.4546
 6627TIP3    H219823   5.008   6.050   0.139 -0.7730  0.6914  0.7319
 6628TIP3   OH219824   7.365   0.373   2.057 -0.0278 -0.2063  0.0893
 6628TIP3    H119825   7.398   0.287   2.033  2.7122  0.7022  0.4835
 6628TIP3    H219826   7.372   0.376   2.153 -1.9292 -0.2275  0.2596
 6629TIP3   OH219827   3.206   2.686   5.808 -0.5447  0.0824 -0.1931
 6629TIP3    H119828   3.127   2.695   5.754 -1.1135  0.2236  0.6533
 6629TIP3    H219829   3.233   2.595   5.794 -1.0969 -0.0908 -0.1600
 6630TIP3   OH219830   1.869   5.542   5.774  0.0632  0.5025  0.0293
 6630TIP3    H119831   1.918   5.589   5.842 -0.0620  0.3695  0.2119
 6630TIP3    H219832   1.777   5.561   5.793  0.0484  0.8856 -0.4117
 6631TIP3   OH219833   2.930   2.946   5.957 -0.0438 -0.0478 -0.6699
 6631TIP3    H119834   2.986   2.869   5.971  0.6215  0.6212  0.3709
 6631TIP3    H219835   2.841   2.910   5.956  0.3488 -1.0185 -1.6105
 6632TIP3   OH219836   1.829   3.768   5.568  0.3167  0.1080 -0.2161
 6632TIP3    H119837   1.855   3.786   5.659  0.0980 -0.4863 -0.0395
 6632TIP3    H219838   1.734   3.760   5.571  0.4081 -1.0523 -0.3014
 6633TIP3   OH219839   5.257   3.181   5.638 -0.4100  0.4646  0.4413
 6633TIP3    H119840   5.334   3.163   5.691 -0.1415 -0.2495 -0.1807
 6633TIP3    H219841   5.184   3.177   5.700 -0.0974 -0.3361  0.7649
 6634TIP3   OH219842   3.740   4.177   6.824 -0.0305 -0.3630  0.8195
 6634TIP3    H119843   3.677   4.179   6.752  0.0773  1.1486  0.7642
 6634TIP3    H219844   3.686   4.168   6.903 -0.1381 -2.2383  0.5531
 6635TIP3   OH219845   4.084   3.489   5.748 -0.1893 -0.1899  0.2526
 6635TIP3    H119846   4.093   3.426   5.677 -0.5323  0.7482 -0.6390
 6635TIP3    H219847   4.055   3.570   5.705  0.0084  0.5086  1.4041
 6636TIP3   OH219848   2.942   1.419   4.083 -0.2975 -0.0965  0.4432
 6636TIP3    H119849   3.024   1.376   4.060  0.0450  0.8975 -0.2219
 6636TIP3    H219850   2.874   1.355   4.063  0.0401  0.4498 -2.5974
 6637TIP3   OH219851   2.300   4.188   5.554 -0.0002  0.0241 -0.4666
 6637TIP3    H119852   2.308   4.166   5.461  0.4983  0.8522 -0.6254
 6637TIP3    H219853   2.353   4.123   5.599 -1.7079 -1.5044 -0.6027
 6638TIP3   OH219854   3.587   1.825   5.598  0.1423  0.3120  0.5773
 6638TIP3    H119855   3.575   1.752   5.658  0.5184  0.0977  0.3964
 6638TIP3    H219856   3.609   1.899   5.655 -1.9051  0.6918  0.8958
 6639TIP3   OH219857   1.566   1.445   6.423  0.3352 -0.0385  0.1121
 6639TIP3    H119858   1.556   1.529   6.378  0.8338 -0.3665 -0.6121
 6639TIP3    H219859   1.650   1.451   6.468  0.9517 -0.6386 -0.9737
 6640TIP3   OH219860   4.656   1.240   5.549  0.0134  0.5482 -0.2230
 6640TIP3    H119861   4.561   1.233   5.560  0.2177  0.2903  1.5976
 6640TIP3    H219862   4.682   1.307   5.612  1.5285 -2.3826  2.4635
 6641TIP3   OH219863   1.508   1.717   4.513 -0.1581 -0.1850 -0.7069
 6641TIP3    H119864   1.595   1.696   4.478 -0.4518 -1.0959 -0.9036
 6641TIP3    H219865   1.447   1.677   4.451 -0.7326  0.6654 -0.7100
 6642TIP3   OH219866   1.853   2.579   3.492  0.6170 -0.2900  0.0745
 6642TIP3    H119867   1.917   2.591   3.421 -1.1101  2.9793 -1.0268
 6642TIP3    H219868   1.779   2.534   3.451  0.7633 -0.9293  0.5032
 6643TIP3   OH219869   0.341   6.759   2.779 -0.0842 -0.0061 -0.1582
 6643TIP3    H119870   0.427   6.799   2.793  0.3030 -0.7537 -0.3755
 6643TIP3    H219871   0.308   6.742   2.868  0.6429 -1.0970 -0.0955
 6644TIP3   OH219872   2.491   1.313   4.195  0.5361 -0.2107 -0.1033
 6644TIP3    H119873   2.513   1.400   4.160  3.0146 -0.8458 -0.1519
 6644TIP3    H219874   2.519   1.252   4.127 -0.2243 -1.1211  0.3919
 6645TIP3   OH219875   4.381   2.674   4.052  0.1855  0.3366  0.4729
 6645TIP3    H119876   4.467   2.687   4.092 -0.3412 -0.0573  1.7729
 6645TIP3    H219877   4.368   2.750   3.996  1.3340  0.4477  0.3490
 6646TIP3   OH219878   1.307   2.332   4.563 -0.0663  0.5512  0.4671
 6646TIP3    H119879   1.281   2.424   4.560  1.6968  1.0803  1.0912
 6646TIP3    H219880   1.384   2.330   4.619  0.8124 -1.0889 -0.7382
 6647TIP3   OH219881   3.457   4.564   5.907  0.2137 -0.2899 -0.2379
 6647TIP3    H119882   3.453   4.484   5.856  0.3700 -0.9329  0.7478
 6647TIP3    H219883   3.373   4.568   5.953 -0.2793  0.7354 -1.1911
 6648TIP3   OH219884   2.471   2.274   5.631 -0.0496 -0.8702 -0.7011
 6648TIP3    H119885   2.504   2.312   5.713  1.8662  0.6128 -2.0985
 6648TIP3    H219886   2.376   2.284   5.637  0.1433  0.3290  0.8115
 6649TIP3   OH219887   2.641   2.810   6.619  0.0912  0.2274 -0.6846
 6649TIP3    H119888   2.558   2.821   6.572 -0.0175 -0.9238 -0.7780
 6649TIP3    H219889   2.696   2.881   6.588 -0.8948  1.0535 -0.5573
 6650TIP3   OH219890   1.596   1.688   5.179  0.0600  0.4093 -0.3875
 6650TIP3    H119891   1.533   1.619   5.197 -0.7836  1.1173 -0.5486
 6650TIP3    H219892   1.633   1.665   5.093  0.8169 -0.5802  0.1978
 6651TIP3   OH219893   0.362   4.357   4.039  0.2685  0.6838 -0.0524
 6651TIP3    H119894   0.271   4.371   4.068 -0.2642  2.6233 -2.4982
 6651TIP3    H219895   0.413   4.360   4.120 -1.5229  2.5479  1.0717
 6652TIP3   OH219896   5.277   2.187   5.476  0.1061 -0.1566  0.4086
 6652TIP3    H119897   5.290   2.143   5.392 -0.5823 -0.6123  0.5361
 6652TIP3    H219898   5.253   2.277   5.453  1.8256  0.2669  0.1495
 6653TIP3   OH219899   3.953   3.794   4.959  0.1397 -0.0903 -0.1709
 6653TIP3    H119900   3.876   3.741   4.940 -0.0524 -0.3467  1.2175
 6653TIP3    H219901   3.921   3.885   4.955  0.2765 -0.1004 -1.7146
 6654TIP3   OH219902   5.632   5.259   4.736 -0.2237  0.1857  0.4715
 6654TIP3    H119903   5.688   5.194   4.779 -1.0737 -1.4800 -0.8599
 6654TIP3    H219904   5.693   5.323   4.699  0.5645  0.8479  2.8667
 6655TIP3   OH219905   2.750   3.782   4.730  0.4419 -0.5997  0.2597
 6655TIP3    H119906   2.822   3.728   4.696  0.8755 -0.0418  0.2755
 6655TIP3    H219907   2.777   3.871   4.709  0.2719 -0.3175  1.2559
 6656TIP3   OH219908   4.256   0.727   5.928 -0.4775 -0.4833  0.0276
 6656TIP3    H119909   4.167   0.755   5.908 -0.2657  0.3086  0.2015
 6656TIP3    H219910   4.246   0.669   6.004 -0.9281 -1.0503 -0.4531
 6657TIP3   OH219911   3.662   3.627   5.310  0.3408  0.5252 -0.2356
 6657TIP3    H119912   3.673   3.697   5.374 -0.9397 -1.5730  2.3748
 6657TIP3    H219913   3.620   3.669   5.235 -0.8996  2.4597  1.4883
 6658TIP3   OH219914   2.866   2.935   5.368  0.4182  0.1917 -0.1566
 6658TIP3    H119915   2.946   2.886   5.387 -0.1034 -0.5215  0.2344
 6658TIP3    H219916   2.801   2.900   5.430 -0.0112  1.2522  0.0005
 6659TIP3   OH219917   4.386   2.603   4.557 -0.2772 -0.6529 -0.1294
 6659TIP3    H119918   4.460   2.643   4.511 -0.3707  0.6493  0.8423
 6659TIP3    H219919   4.313   2.612   4.496 -0.7110  2.2515  0.7419
 6660TIP3   OH219920   3.757   1.743   4.361  0.3739  0.4002 -0.4489
 6660TIP3    H119921   3.758   1.826   4.313  0.4080 -0.1343 -1.3872
 6660TIP3    H219922   3.672   1.741   4.404  0.0110  0.5181 -1.1516
 6661TIP3   OH219923   6.052   3.612   6.359 -0.8212 -0.2336 -0.6603
 6661TIP3    H119924   6.055   3.619   6.454 -1.5884 -1.5034 -0.5261
 6661TIP3    H219925   6.144   3.611   6.332 -0.5307 -2.3447  0.2899
 6662TIP3   OH219926   6.304   1.391   3.746 -0.6235  0.1280 -0.1972
 6662TIP3    H119927   6.324   1.405   3.653 -0.3781  1.0790 -0.0034
 6662TIP3    H219928   6.344   1.307   3.767 -1.6164 -0.6231 -1.2262
 6663TIP3   OH219929   4.353   0.893   4.171 -0.7309  0.0757  0.0234
 6663TIP3    H119930   4.336   0.984   4.195 -0.2705  0.4947 -1.2078
 6663TIP3    H219931   4.447   0.882   4.182 -0.5453  0.2138 -1.3528
 6664TIP3   OH219932   5.687   1.220   6.252  0.4611 -0.0941 -0.4031
 6664TIP3    H119933   5.697   1.257   6.339 -2.4302 -1.6497  0.6440
 6664TIP3    H219934   5.727   1.133   6.259 -0.9044 -0.7145 -0.2592
 6665TIP3   OH219935   5.622   1.427   5.604  0.2680  1.2216 -0.6659
 6665TIP3    H119936   5.607   1.399   5.695 -1.4812  0.4880 -1.1530
 6665TIP3    H219937   5.717   1.431   5.595  0.4622  1.0312  1.1238
 6666TIP3   OH219938   3.074   0.432   3.626 -0.3348  0.1829 -0.3237
 6666TIP3    H119939   3.130   0.355   3.614 -0.5186 -0.2109  1.2143
 6666TIP3    H219940   2.996   0.397   3.669 -1.3379  0.8979 -1.5300
 6667TIP3   OH219941   1.322   6.813   2.764  0.2418 -0.6762 -0.9595
 6667TIP3    H119942   1.235   6.773   2.759 -0.2484  0.3332 -0.5056
 6667TIP3    H219943   1.379   6.741   2.793 -0.9301 -0.6216  1.5661
 6668TIP3   OH219944   7.965   3.255   5.041  0.5598 -0.0495 -0.8141
 6668TIP3    H119945   7.906   3.324   5.071  0.3320 -0.4736 -0.2759
 6668TIP3    H219946   8.040   3.302   5.005  0.8833  0.4762  0.5117
 6669TIP3   OH219947   6.183   1.306   5.350  0.2158 -0.2081  0.1743
 6669TIP3    H119948   6.106   1.252   5.331 -1.4270  2.1078  0.0459
 6669TIP3    H219949   6.167   1.387   5.303  1.9103  0.9905  1.6212
 6670TIP3   OH219950   4.697   2.549   5.043  0.2521  0.3772 -0.5278
 6670TIP3    H119951   4.704   2.462   5.081 -0.1843  0.4660 -0.2285
 6670TIP3    H219952   4.785   2.585   5.047  0.4991 -0.1794 -0.9683
 6671TIP3   OH219953   4.596   2.790   5.164 -0.5788 -0.5615 -0.2862
 6671TIP3    H119954   4.579   2.712   5.111  2.1089 -2.7201  1.9057
 6671TIP3    H219955   4.571   2.764   5.253  1.3509  0.7042  0.6463
 6672TIP3   OH219956   4.314   2.964   4.368  0.6319 -0.0145  0.1256
 6672TIP3    H119957   4.282   2.874   4.380 -1.0017  0.6112  0.5932
 6672TIP3    H219958   4.245   3.019   4.406  0.4111  1.5566 -2.4117
 6673TIP3   OH219959   4.515   1.983   5.859  0.1117 -0.0411 -0.1534
 6673TIP3    H119960   4.519   2.060   5.802 -1.6608  0.9331  0.9694
 6673TIP3    H219961   4.546   2.015   5.944 -0.7701 -0.5176  0.3530
 6674TIP3   OH219962   4.433   4.948   3.866 -0.1569 -0.4384  0.7380
 6674TIP3    H119963   4.371   4.998   3.919 -0.2464 -1.2888  1.4455
 6674TIP3    H219964   4.393   4.862   3.857 -1.3230  0.4198 -2.8321
 6675TIP3   OH219965   4.978   2.658   5.494  0.9117 -0.1342 -0.0917
 6675TIP3    H119966   4.890   2.663   5.530  0.2881 -2.1100 -1.2654
 6675TIP3    H219967   5.019   2.741   5.520 -0.3858 -0.3203  2.7520
 6676TIP3   OH219968   5.029   0.544   6.354  0.1646  0.3565 -0.2382
 6676TIP3    H119969   5.039   0.458   6.395  1.1029 -0.0607 -1.2900
 6676TIP3    H219970   4.935   0.554   6.339 -0.3653  1.1519  3.2972
 6677TIP3   OH219971   3.894   1.728   4.887  0.6721  0.0392 -0.0211
 6677TIP3    H119972   3.804   1.710   4.916  1.1388 -1.1974  0.6808
 6677TIP3    H219973   3.884   1.791   4.815 -0.5789  2.6527  2.3357
 6678TIP3   OH219974   5.497   1.577   5.157 -0.3674  0.4860  0.2609
 6678TIP3    H119975   5.547   1.548   5.233 -1.1859  1.2773  1.1058
 6678TIP3    H219976   5.436   1.505   5.139 -0.4723  0.4813  0.6285
 6679TIP3   OH219977   5.298   2.557   3.264 -0.6733  0.1569 -0.3132
 6679TIP3    H119978   5.233   2.575   3.196 -0.1116 -0.5515 -1.0405
 6679TIP3    H219979   5.340   2.476   3.237 -2.1183 -1.4755  2.1244
 6680TIP3   OH219980   6.924   1.186   4.933  0.0438 -0.3708 -0.3237
 6680TIP3    H119981   6.966   1.125   4.873 -0.6466  0.0211 -1.2146
 6680TIP3    H219982   6.947   1.154   5.021  1.5785 -0.5811 -0.7918
 6681TIP3   OH219983   6.128   3.239   1.194 -0.8812  0.4148  0.2107
 6681TIP3    H119984   6.107   3.297   1.121 -1.4873 -0.5708 -0.4173
 6681TIP3    H219985   6.043   3.215   1.231 -0.6418 -0.1108  0.4295
 6682TIP3   OH219986   4.016   0.828   4.746  0.4522  0.4648 -0.1501
 6682TIP3    H119987   4.106   0.804   4.766  0.0571  0.1356  1.3058
 6682TIP3    H219988   3.976   0.845   4.831 -1.0318  0.0136 -0.7334
 6683TIP3   OH219989   3.793   2.231   5.409  0.1892  0.4103  0.1308
 6683TIP3    H119990   3.888   2.234   5.424  0.1628 -0.8367  0.6265
 6683TIP3    H219991   3.778   2.146   5.369 -0.6253  0.9421 -0.7046
 6684TIP3   OH219992   5.822   3.700   2.294 -0.3122  0.2104 -0.1160
 6684TIP3    H119993   5.900   3.708   2.238  0.9120 -0.3974  1.4681
 6684TIP3    H219994   5.785   3.615   2.270  0.4002 -0.2010  0.2104
 6685TIP3   OH219995   4.863   3.675   4.852  0.3922  0.2879  0.2343
 6685TIP3    H119996   4.919   3.629   4.915 -1.2924 -0.7132  1.0271
 6685TIP3    H219997   4.887   3.639   4.767  0.1493 -0.9720  0.6924
 6686TIP3   OH219998   6.288   2.637   5.337  0.6019 -0.0106 -0.1102
 6686TIP3    H119999   6.217   2.576   5.358  1.0277  0.1991  2.0242
 6686TIP3    H220000   6.290   2.639   5.242  0.4342 -3.1982 -0.2355
 6687TIP3   OH220001   4.934   2.258   3.899  0.7064 -0.8313  0.5261
 6687TIP3    H120002   5.006   2.255   3.836  1.0609 -3.2357  0.9886
 6687TIP3    H220003   4.862   2.298   3.852  1.1896 -1.9369 -1.1815
 6688TIP3   OH220004   6.852   2.872   5.366 -0.1752  0.1661 -0.3747
 6688TIP3    H120005   6.804   2.830   5.437 -0.5213  0.8997 -0.1638
 6688TIP3    H220006   6.795   2.863   5.290  0.1831 -0.5956 -0.5558
 6689TIP3   OH220007   3.340   2.123   3.599  0.0043  0.8513  0.4359
 6689TIP3    H120008   3.342   2.124   3.694  0.8828 -0.6422  0.4454
 6689TIP3    H220009   3.432   2.133   3.573 -0.3741  2.7194 -0.2941
 6690TIP3   OH220010   4.109   3.346   3.404  0.4973  0.0164  0.1703
 6690TIP3    H120011   4.092   3.394   3.323  0.2737  0.1910  0.3174
 6690TIP3    H220012   4.105   3.254   3.379 -1.4910  0.0292  0.3477
 6691TIP3   OH220013   5.080   2.386   4.975  0.2952  0.2149 -0.6415
 6691TIP3    H120014   5.029   2.463   5.000 -0.9530 -0.9026  0.3094
 6691TIP3    H220015   5.150   2.420   4.920 -1.4710  1.7619 -1.9574
 6692TIP3   OH220016   5.101   3.799   3.817 -0.2665 -0.0323 -0.2450
 6692TIP3    H120017   5.134   3.719   3.858 -0.8180 -0.3382 -0.3923
 6692TIP3    H220018   5.089   3.860   3.891  2.2574  0.6805 -0.3864
 6693TIP3   OH220019   4.282   3.958   4.495  0.1155  0.1341 -0.1280
 6693TIP3    H120020   4.374   3.946   4.520  0.0840 -0.2994 -0.2074
 6693TIP3    H220021   4.238   3.983   4.576 -0.0249 -1.4849  0.3108
 6694TIP3   OH220022   5.000   3.347   5.273 -0.2376 -0.2590  0.0484
 6694TIP3    H120023   4.954   3.413   5.325  1.3069  2.9492 -2.4277
 6694TIP3    H220024   4.936   3.320   5.207 -1.5226 -2.8190  2.2391
 6695TIP3   OH220025   4.499   3.097   6.114  0.2432  0.1660  0.3401
 6695TIP3    H120026   4.550   3.155   6.056  0.1377  0.9013  0.9718
 6695TIP3    H220027   4.409   3.102   6.080  0.2378  0.3621  0.3834
 6696TIP3   OH220028   4.859   2.215   3.235 -0.1055  0.0359  0.5083
 6696TIP3    H120029   4.840   2.124   3.209  0.7287 -0.0600  0.2237
 6696TIP3    H220030   4.879   2.259   3.153 -0.3138  0.4312  0.6719
 6697TIP3   OH220031   5.876   1.584   5.181  0.1910 -0.4393 -0.1743
 6697TIP3    H120032   5.915   1.614   5.263 -1.4105  0.6660  0.1965
 6697TIP3    H220033   5.794   1.542   5.207  0.6658 -1.9241 -1.0292
 6698TIP3   OH220034   4.913   3.171   4.163  0.2649  0.0960  0.9420
 6698TIP3    H120035   4.832   3.181   4.213  0.8480  1.1734  1.7029
 6698TIP3    H220036   4.884   3.156   4.073 -0.7983 -2.1084  1.6232
 6699TIP3   OH220037   6.232   2.564   6.325 -0.7037 -0.4210  0.1012
 6699TIP3    H120038   6.287   2.616   6.384 -0.7347 -1.0688  0.7094
 6699TIP3    H220039   6.203   2.490   6.379 -0.0671 -1.4585 -0.9485
 6700TIP3   OH220040   6.287   0.650   4.202  0.2727  0.0257 -0.4662
 6700TIP3    H120041   6.378   0.631   4.226 -0.0819 -0.5654  0.4026
 6700TIP3    H220042   6.294   0.692   4.116  1.4964  1.5757  0.3721
 6701TIP3   OH220043   5.774   2.660   5.287 -0.5675 -0.2582  0.4194
 6701TIP3    H120044   5.812   2.610   5.215 -2.3181 -1.2541  0.1620
 6701TIP3    H220045   5.840   2.657   5.356  1.2097  0.8756 -1.1860
 6702TIP3   OH220046   0.461   8.070   3.017  0.4510 -0.1575 -0.0807
 6702TIP3    H120047   0.510   8.143   3.057  0.2109  0.5880 -1.1461
 6702TIP3    H220048   0.388   8.055   3.078  0.8587  0.0645  0.4728
 6703TIP3   OH220049   4.804   4.035   3.978  0.2418  0.0824 -0.0968
 6703TIP3    H120050   4.792   3.949   3.938  1.1799  0.9749 -2.3813
 6703TIP3    H220051   4.734   4.088   3.940  1.4607  1.0766 -0.9911
 6704TIP3   OH220052   3.034   3.902   3.860 -0.3486 -0.0632 -0.1582
 6704TIP3    H120053   3.120   3.872   3.890  0.2388  1.6607 -0.0283
 6704TIP3    H220054   2.987   3.923   3.940 -0.5985 -0.2456 -0.2585
 6705TIP3   OH220055   4.999   3.859   6.136 -0.0652 -0.1647 -0.2686
 6705TIP3    H120056   4.956   3.799   6.198 -1.3931 -0.5953 -1.5798
 6705TIP3    H220057   4.927   3.898   6.087  0.8749  1.5588 -0.3179
 6706TIP3   OH220058   4.298   3.581   6.544  0.1284  0.6230 -0.4112
 6706TIP3    H120059   4.390   3.602   6.557  0.4605 -0.6816 -0.5982
 6706TIP3    H220060   4.295   3.485   6.543 -0.7184  0.6287 -3.8473
 6707TIP3   OH220061   8.400   0.447   4.386 -0.4120  0.1497  0.8337
 6707TIP3    H120062   8.343   0.477   4.316 -0.1664 -1.0099  0.1120
 6707TIP3    H220063   8.485   0.435   4.343  0.2231  1.2711  1.7579
 6708TIP3   OH220064   3.206   2.068   5.238  0.2103  0.5619  0.0870
 6708TIP3    H120065   3.211   2.116   5.321  1.4966 -0.5219  0.6640
 6708TIP3    H220066   3.288   2.019   5.234  0.0576  0.4286 -1.7323
 6709TIP3   OH220067   5.494   7.834   5.978 -0.1508 -0.5969  0.4490
 6709TIP3    H120068   5.454   7.855   5.894 -2.3011 -1.2527  1.2509
 6709TIP3    H220069   5.586   7.859   5.969 -0.7408  0.9629 -1.4862
 6710TIP3   OH220070   4.295   3.802   5.954  0.3530  0.0214 -0.0514
 6710TIP3    H120071   4.261   3.768   5.871 -2.6029  0.4136  0.9125
 6710TIP3    H220072   4.267   3.737   6.019  1.5498  0.3335  0.7877
 6711TIP3   OH220073   1.124   8.081   3.190  0.2384  0.0299 -0.0753
 6711TIP3    H120074   1.046   8.074   3.136 -0.0483  1.5066  0.1316
 6711TIP3    H220075   1.163   7.993   3.187  0.1059  0.0191 -2.4680
 6712TIP3   OH220076   3.124   3.009   6.265  0.4812 -0.0307  0.4842
 6712TIP3    H120077   3.132   2.961   6.183  2.3783  1.2955 -0.1253
 6712TIP3    H220078   3.099   3.097   6.239  1.0142  0.3741  1.3401
 6713TIP3   OH220079   3.846   2.705   5.983  0.0711 -0.3389  0.0746
 6713TIP3    H120080   3.776   2.716   5.918  0.1945 -1.2145 -0.2141
 6713TIP3    H220081   3.829   2.772   6.048 -1.5588 -1.0939  0.4534
 6714TIP3   OH220082   6.688   1.189   6.602 -0.7629 -0.0714 -0.5337
 6714TIP3    H120083   6.727   1.250   6.540 -0.8421 -0.5262 -1.0342
 6714TIP3    H220084   6.618   1.239   6.645 -1.0786  0.0715 -1.2128
 6715TIP3   OH220085   3.611   2.256   6.299 -0.6505  0.1225  0.1128
 6715TIP3    H120086   3.517   2.274   6.304 -0.5347  1.1367 -0.9962
 6715TIP3    H220087   3.647   2.333   6.255  0.8322  0.1744  1.3898
 6716TIP3   OH220088   0.965   0.329   0.313  1.0718  0.4225  0.1285
 6716TIP3    H120089   0.908   0.343   0.389 -0.5525 -1.9747 -0.5859
 6716TIP3    H220090   1.023   0.258   0.339  0.9406  0.0339 -0.6143
 6717TIP3   OH220091   5.018   0.973   6.590 -0.2527  0.2758  0.2185
 6717TIP3    H120092   5.006   1.066   6.569  0.4802  0.7388  1.8350
 6717TIP3    H220093   4.929   0.939   6.601 -0.5057  0.8967  0.0999
 6718TIP3   OH220094   3.938   0.519   4.327  0.3367 -0.2932 -0.5267
 6718TIP3    H120095   4.005   0.587   4.338  0.4419 -0.3545 -0.7781
 6718TIP3    H220096   3.866   0.564   4.283  0.3813 -0.3259 -0.6354
 6719TIP3   OH220097   4.196   1.194   4.541 -0.0598 -0.0508 -0.3746
 6719TIP3    H120098   4.200   1.274   4.593  1.6845  0.9735 -1.9989
 6719TIP3    H220099   4.246   1.130   4.590  0.2297  0.4440 -0.0217
 6720TIP3   OH220100   4.138   2.291   3.768  0.6717 -0.4389 -0.4820
 6720TIP3    H120101   4.227   2.275   3.798  0.5039 -1.2569 -0.3933
 6720TIP3    H220102   4.124   2.385   3.780  1.1334 -0.4952  0.5534
 6721TIP3   OH220103   6.192   0.137   4.442  0.2907  0.0244 -0.0712
 6721TIP3    H120104   6.253   0.158   4.371 -1.6154  0.6794 -1.5889
 6721TIP3    H220105   6.121   0.090   4.398  0.4813 -2.2086  1.9357
 6722TIP3   OH220106   6.873   1.679   4.390 -0.2711 -0.0034  0.2553
 6722TIP3    H120107   6.899   1.743   4.456 -1.2727  1.0990 -0.3944
 6722TIP3    H220108   6.899   1.594   4.426  0.3733  0.7073  1.4683
 6723TIP3   OH220109   3.004   2.046   2.682 -0.1348 -0.1476  0.7372
 6723TIP3    H120110   3.064   2.111   2.718 -0.0031  0.7537 -1.0682
 6723TIP3    H220111   3.036   2.029   2.593 -0.7097 -1.9918  0.8499
 6724TIP3   OH220112   5.956   1.031   4.348 -0.4786  0.4211 -0.2126
 6724TIP3    H120113   5.861   1.026   4.364 -0.3817  1.3697  0.7065
 6724TIP3    H220114   5.980   0.943   4.321 -1.6276  0.1715 -0.4666
 6725TIP3   OH220115   4.733   1.255   4.693  0.2265 -0.1698 -0.1205
 6725TIP3    H120116   4.700   1.254   4.602  1.0675  0.7396 -0.4349
 6725TIP3    H220117   4.654   1.265   4.746 -0.0512  1.7806 -0.8614
 6726TIP3   OH220118   4.318   2.714   2.666 -0.0917 -0.3393 -0.5882
 6726TIP3    H120119   4.267   2.790   2.637 -0.4149 -0.3816 -0.1328
 6726TIP3    H220120   4.283   2.693   2.752  1.9195  0.7335  0.5166
 6727TIP3   OH220121   6.827   7.822   0.067 -0.3607  0.4634 -0.8213
 6727TIP3    H120122   6.896   7.885   0.046  1.5954 -1.2394  0.3230
 6727TIP3    H220123   6.786   7.857   0.146  0.4359  0.5199 -0.4326
 6728TIP3   OH220124   4.316   3.274   5.283  0.0109 -0.3664  0.3471
 6728TIP3    H120125   4.403   3.309   5.300 -0.8069  2.2123 -0.5857
 6728TIP3    H220126   4.332   3.184   5.255  2.2350 -0.4731  1.8067
 6729TIP3   OH220127   4.969   3.024   5.341 -0.5271  0.5291 -0.2774
 6729TIP3    H120128   5.058   3.059   5.340 -1.2130  2.3458 -0.4833
 6729TIP3    H220129   4.960   2.983   5.427  1.1001 -1.3192 -0.9587
 6730TIP3   OH220130   5.231   1.298   6.614 -0.5118 -0.5018 -0.4241
 6730TIP3    H120131   5.299   1.264   6.557  1.7398  2.2284  0.4918
 6730TIP3    H220132   5.264   1.284   6.703 -2.0919 -0.9873  0.1126
 6731TIP3   OH220133   4.626   2.157   4.879 -0.6367  0.0430  0.0738
 6731TIP3    H120134   4.702   2.196   4.836 -1.0713  0.1900 -0.5622
 6731TIP3    H220135   4.637   2.179   4.972 -1.1365  2.1259 -0.3340
 6732TIP3   OH220136   2.004   0.109   3.504  0.3260 -0.7200 -0.0468
 6732TIP3    H120137   1.908   0.108   3.511  0.1116 -1.0925 -2.5237
 6732TIP3    H220138   2.026   0.023   3.469  1.5902 -0.6617  0.5886
 6733TIP3   OH220139   5.525   1.169   4.906 -0.6914 -0.2525  0.3816
 6733TIP3    H120140   5.450   1.222   4.877 -0.2275  0.7466  0.9637
 6733TIP3    H220141   5.564   1.136   4.825 -1.7012 -0.6892  0.0713
 6734TIP3   OH220142   4.955   1.997   4.791 -0.4149  0.1090  0.0900
 6734TIP3    H120143   4.973   2.056   4.865 -1.0838  1.2948 -0.6860
 6734TIP3    H220144   4.874   1.952   4.815 -0.0908 -0.2553  0.5222
 6735TIP3   OH220145   4.770   3.465   3.893  0.5148  0.2165 -0.2452
 6735TIP3    H120146   4.743   3.482   3.983 -1.3019 -0.8970 -0.5433
 6735TIP3    H220147   4.816   3.544   3.866  0.5290  0.8080  1.4596
 6736TIP3   OH220148   4.575   0.980   4.501  0.4234 -0.3431  0.2494
 6736TIP3    H120149   4.494   0.984   4.551 -0.5201 -1.9924 -1.0917
 6736TIP3    H220150   4.609   1.070   4.503 -1.1366  0.2410  1.3046
 6737TIP3   OH220151   4.779   3.768   4.162 -0.3196 -0.1234  0.5137
 6737TIP3    H120152   4.766   3.790   4.069  0.1631 -2.2789 -0.0857
 6737TIP3    H220153   4.757   3.675   4.168  2.4798 -0.7449  1.9705
 6738TIP3   OH220154   6.029   2.816   5.457 -0.2141  0.4005 -0.6048
 6738TIP3    H120155   6.105   2.862   5.493 -0.5664 -0.3178  1.1028
 6738TIP3    H220156   6.056   2.724   5.452 -0.9946  0.1180  0.1486
 6739TIP3   OH220157   5.112   4.889   6.475  0.2049  0.0218 -0.2713
 6739TIP3    H120158   5.149   4.973   6.500  1.7482 -0.5237 -0.6700
 6739TIP3    H220159   5.066   4.859   6.553  1.5779  0.1896  0.6163
 6740TIP3   OH220160   4.326   2.857   5.812  0.3236 -0.2780 -0.4294
 6740TIP3    H120161   4.296   2.844   5.901  1.2080 -0.8642 -0.2023
 6740TIP3    H220162   4.249   2.886   5.764  0.3055  2.0457  0.9619
 6741TIP3   OH220163   5.186   3.330   5.066  0.0867  0.1403  0.5413
 6741TIP3    H120164   5.273   3.330   5.104  0.4388  0.4775 -0.2423
 6741TIP3    H220165   5.128   3.360   5.136  0.7400  0.8699  0.7687
 6742TIP3   OH220166   5.784   1.980   3.048 -0.4741 -0.0377 -0.0339
 6742TIP3    H120167   5.858   1.949   3.101 -1.1278 -0.8316  0.4509
 6742TIP3    H220168   5.792   1.931   2.966  0.6371  1.3183 -0.7454
 6743TIP3   OH220169   5.875   2.549   6.276  0.4407 -0.2309 -0.2200
 6743TIP3    H120170   5.888   2.538   6.182  0.1473  2.5056 -0.6218
 6743TIP3    H220171   5.962   2.543   6.314  0.8743  1.1714 -0.9685
 6744TIP3   OH220172   5.538   2.145   4.605  0.2464 -0.1945  0.7377
 6744TIP3    H120173   5.466   2.156   4.667 -0.0948 -2.1861  0.7521
 6744TIP3    H220174   5.503   2.084   4.540  1.1010  0.7275 -0.6025
 6745TIP3   OH220175   7.653   2.458   4.850  0.1036 -0.3484  0.4488
 6745TIP3    H120176   7.644   2.433   4.759  0.4288  0.7347  0.1053
 6745TIP3    H220177   7.610   2.544   4.856  1.4347  0.3035  0.9528
 6746TIP3   OH220178   6.465   4.278   5.580  0.3589  0.1144  0.0599
 6746TIP3    H120179   6.437   4.355   5.629  0.7551  0.3990 -0.1519
 6746TIP3    H220180   6.469   4.208   5.645 -0.1546  0.2380  0.2235
 6747TIP3   OH220181   4.694   3.466   3.269 -0.4394 -0.1250 -0.2207
 6747TIP3    H120182   4.706   3.524   3.194 -1.3087 -1.4391 -1.4072
 6747TIP3    H220183   4.664   3.523   3.339  3.5892  1.7094  0.1512
 6748TIP3   OH220184   3.429   2.092   4.618 -0.2554 -0.0776 -0.4655
 6748TIP3    H120185   3.432   1.998   4.634 -0.3152 -0.3587 -2.0668
 6748TIP3    H220186   3.427   2.131   4.705 -0.9946 -1.5824  0.2011
 6749TIP3   OH220187   4.985   3.638   5.141  0.4462  0.7918 -0.1376
 6749TIP3    H120188   5.074   3.621   5.171  0.5543  2.6819  0.6776
 6749TIP3    H220189   4.930   3.622   5.217 -0.1372 -1.9775 -1.0641
 6750TIP3   OH220190   4.752   1.896   4.578 -0.0124  0.1113 -0.0292
 6750TIP3    H120191   4.751   1.802   4.558  2.7478  0.1605 -0.6828
 6750TIP3    H220192   4.724   1.901   4.669 -1.4986 -1.2025 -0.3817
 6751TIP3   OH220193   4.747   2.532   3.796  0.8026 -0.1279  0.3062
 6751TIP3    H120194   4.826   2.548   3.746  2.0459 -1.4126  1.8221
 6751TIP3    H220195   4.691   2.481   3.738  2.4251 -2.0184  0.3593
 6752TIP3   OH220196   5.028   2.020   4.526  0.1133 -0.8173  0.3654
 6752TIP3    H120197   4.936   1.993   4.530  0.1877 -1.0602  0.4442
 6752TIP3    H220198   5.049   2.047   4.616  0.4822 -1.9584  0.6267
 6753TIP3   OH220199   4.485   3.614   5.387  0.1842 -0.1225  0.1570
 6753TIP3    H120200   4.539   3.666   5.447 -0.6108 -0.1290  0.8955
 6753TIP3    H220201   4.528   3.529   5.385 -0.8923 -0.7614  2.3392
 6754TIP3   OH220202   7.034   4.138   2.213 -0.5852  0.5832  0.4852
 6754TIP3    H120203   7.046   4.188   2.132  1.5558 -1.8693 -0.7750
 6754TIP3    H220204   7.054   4.200   2.283  2.2962  1.4351 -1.0330
 6755TIP3   OH220205   4.174   1.308   5.639 -0.8819  0.1372  0.3732
 6755TIP3    H120206   4.109   1.348   5.581 -0.8933 -0.1639  0.1817
 6755TIP3    H220207   4.125   1.240   5.686 -0.4163 -0.9376 -0.6668
 6756TIP3   OH220208   5.439   1.741   4.951  0.6874 -0.1945 -0.5900
 6756TIP3    H120209   5.473   1.668   5.002 -0.0621  0.9464  1.5938
 6756TIP3    H220210   5.516   1.779   4.908  1.3222 -1.1861 -0.3235
 6757TIP3   OH220211   3.056   3.943   5.504 -0.5296  0.4904  0.1922
 6757TIP3    H120212   3.044   4.038   5.508  0.1686  0.5742  0.2620
 6757TIP3    H220213   3.069   3.924   5.411  1.7157  0.7580  0.4242
 6758TIP3   OH220214   3.626   2.085   3.552  0.1240 -0.3690  0.6782
 6758TIP3    H120215   3.679   2.026   3.498  1.6039 -1.1220  2.8546
 6758TIP3    H220216   3.634   2.049   3.640 -2.4477  0.6683  1.3676
 6759TIP3   OH220217   4.202   2.549   3.824 -0.0175  0.0844 -0.3839
 6759TIP3    H120218   4.251   2.578   3.901 -1.9790 -0.0805  0.9584
 6759TIP3    H220219   4.118   2.594   3.830 -0.1590  0.1880 -2.5381
 6760TIP3   OH220220   3.005   1.045   3.664  0.3929 -0.2189 -0.4642
 6760TIP3    H120221   2.958   0.967   3.694 -0.0555  0.3588  0.3556
 6760TIP3    H220222   3.001   1.040   3.569  2.9223 -2.7371 -0.4949
 6761TIP3   OH220223   5.450   1.953   4.388  0.0514  0.4214  0.5615
 6761TIP3    H120224   5.391   1.936   4.314 -0.0278  2.2698  0.1777
 6761TIP3    H220225   5.535   1.918   4.360  0.0871  1.3556 -0.5290
 6762TIP3   OH220226   3.730   1.133   4.542 -0.0489  0.3353 -0.0161
 6762TIP3    H120227   3.784   1.132   4.463 -0.5308 -0.1263 -0.3436
 6762TIP3    H220228   3.768   1.065   4.598 -0.0451  0.2830 -0.0827
 6763TIP3   OH220229   4.615   1.244   5.287  0.0889 -0.3895  0.0866
 6763TIP3    H120230   4.655   1.263   5.372  0.2709 -0.0738 -0.0701
 6763TIP3    H220231   4.552   1.314   5.273  1.4520  0.6413 -0.9327
 6764TIP3   OH220232   2.181   2.385   5.208  0.0243  0.1231 -0.3012
 6764TIP3    H120233   2.145   2.430   5.285 -1.0512 -0.7160 -0.3031
 6764TIP3    H220234   2.244   2.447   5.172  1.4550  0.0262  1.9644
 6765TIP3   OH220235   5.669   2.810   5.035 -0.0360 -0.0921 -0.1841
 6765TIP3    H120236   5.685   2.804   5.130  0.6181  1.3722 -0.1819
 6765TIP3    H220237   5.731   2.876   5.005  0.5216 -1.3364 -1.8346
 6766TIP3   OH220238   5.766   0.560   3.350 -0.0773  0.4316  0.0375
 6766TIP3    H120239   5.700   0.542   3.417 -1.3255  2.6160 -0.5490
 6766TIP3    H220240   5.849   0.547   3.395 -0.8919 -0.1337  1.4415
 6767TIP3   OH220241   4.668   2.418   4.154  0.1385 -0.4958  0.2692
 6767TIP3    H120242   4.678   2.497   4.101 -0.2033 -0.7360 -0.1468
 6767TIP3    H220243   4.752   2.410   4.201 -0.6980  1.4622  2.1617
 6768TIP3   OH220244   0.832   7.653   3.731  0.2501 -0.5536  0.0949
 6768TIP3    H120245   0.829   7.642   3.826  1.1157 -1.0928  0.0589
 6768TIP3    H220246   0.821   7.747   3.718 -0.3996 -0.5367  0.7002
 6769TIP3   OH220247   4.869   2.554   4.577  0.0104  0.4410  0.0291
 6769TIP3    H120248   4.818   2.536   4.498 -0.2275 -0.0810  0.3000
 6769TIP3    H220249   4.850   2.646   4.597 -0.5286  0.3593 -0.0911
 6770TIP3   OH220250   7.258   1.104   5.005 -0.2209 -0.9204  0.1612
 6770TIP3    H120251   7.225   1.190   5.031  1.2283 -0.1458 -0.5451
 6770TIP3    H220252   7.283   1.062   5.087 -0.0174 -0.2943  0.4243
 6771TIP3   OH220253   3.825   3.114   5.755  0.7782 -0.1177  0.2187
 6771TIP3    H120254   3.862   3.151   5.675 -0.6325  1.3528  0.2129
 6771TIP3    H220255   3.841   3.180   5.822 -0.6257 -0.0370  0.4975
 6772TIP3   OH220256   3.445   1.425   3.218 -0.0059 -0.1640  0.7961
 6772TIP3    H120257   3.528   1.462   3.191  0.1677 -1.2434 -0.2136
 6772TIP3    H220258   3.422   1.471   3.299  2.2285 -0.8043  1.8281
 6773TIP3   OH220259   5.888   4.083   3.257  0.3223 -0.5401  0.2104
 6773TIP3    H120260   5.905   4.151   3.192 -0.7007 -1.4997 -1.1022
 6773TIP3    H220261   5.797   4.057   3.241  0.1077 -0.9218  1.9112
 6774TIP3   OH220262   3.934   2.196   5.810 -0.5068 -0.0726  0.6426
 6774TIP3    H120263   3.974   2.133   5.869  2.0176 -0.0642 -0.9933
 6774TIP3    H220264   4.008   2.242   5.769 -2.1740  0.4138 -1.9735
 6775TIP3   OH220265   4.645   1.926   4.144  0.9024 -0.2829  0.2391
 6775TIP3    H120266   4.653   1.972   4.061  1.9823 -2.1123 -0.7125
 6775TIP3    H220267   4.565   1.874   4.134  1.1528 -0.6745  0.2235
 6776TIP3   OH220268   2.615   3.185   6.233  0.1705 -0.2415 -0.3505
 6776TIP3    H120269   2.542   3.129   6.261  0.2139  1.0152  2.3546
 6776TIP3    H220270   2.577   3.273   6.228  1.2828  0.2724  0.2164
 6777TIP3   OH220271   4.648   3.219   5.915 -0.0255  0.2062  0.8421
 6777TIP3    H120272   4.698   3.298   5.932 -0.3820  0.5247  0.4381
 6777TIP3    H220273   4.714   3.151   5.901  0.3151  0.7678 -0.3731
 6778TIP3   OH220274   4.329   1.787   6.045 -0.6254  0.0554  0.5887
 6778TIP3    H120275   4.371   1.851   5.987 -1.0209  0.9459  1.2650
 6778TIP3    H220276   4.400   1.754   6.100 -0.4885  0.2244  0.5130
 6779TIP3   OH220277   6.128   1.879   6.158  0.1113 -0.0488  0.3599
 6779TIP3    H120278   6.065   1.808   6.172  0.6285 -0.6905 -0.5407
 6779TIP3    H220279   6.150   1.873   6.065  1.9185 -0.1585  0.7916
 6780TIP3   OH220280   5.323   2.072   5.232 -0.3764 -0.1098 -0.3163
 6780TIP3    H120281   5.264   2.050   5.160 -1.9962 -0.5764  1.1129
 6780TIP3    H220282   5.356   1.987   5.263 -0.9985 -0.0278  0.5736
 6781TIP3   OH220283   3.278   2.250   5.456  0.1031 -0.8613  0.0681
 6781TIP3    H120284   3.367   2.223   5.479 -0.3718 -2.5526  0.0301
 6781TIP3    H220285   3.230   2.247   5.539 -0.1330 -0.8457 -0.0687
 6782TIP3   OH220286   5.563   2.831   6.836  0.2388  0.3928 -0.2246
 6782TIP3    H120287   5.476   2.828   6.797  0.4629 -1.9653 -0.5853
 6782TIP3    H220288   5.550   2.878   6.918 -1.2821  0.4885 -0.5018
 6783TIP3   OH220289   5.838   3.417   6.353  0.3017 -0.1808 -0.0978
 6783TIP3    H120290   5.872   3.340   6.398 -0.2741  0.5370  1.6304
 6783TIP3    H220291   5.908   3.482   6.360  0.1006  0.0253  0.0714
 6784TIP3   OH220292   4.935   4.113   5.815  0.5702 -0.2746  0.2440
 6784TIP3    H120293   5.023   4.104   5.852 -0.0682 -3.3250  1.1368
 6784TIP3    H220294   4.916   4.207   5.824  2.4868 -0.0587  2.9794
 6785TIP3   OH220295   4.860   2.417   3.424  0.3825  0.2327 -0.4901
 6785TIP3    H120296   4.851   2.335   3.377 -0.2695 -0.2356  0.4428
 6785TIP3    H220297   4.848   2.485   3.357 -2.8139 -0.3948 -0.6148
 6786TIP3   OH220298   1.948   4.353   6.284 -0.8008  0.7812 -0.0516
 6786TIP3    H120299   2.025   4.407   6.300 -0.7452  0.5794  0.3934
 6786TIP3    H220300   1.970   4.268   6.323  0.2480 -0.4786 -3.2172
 6787TIP3   OH220301   5.274   3.207   4.364  0.6203  0.3320 -0.3006
 6787TIP3    H120302   5.267   3.130   4.421 -1.2826 -1.8863 -3.4055
 6787TIP3    H220303   5.308   3.172   4.281 -1.6915  2.5580 -2.2605
 6788TIP3   OH220304   6.900   2.306   4.661 -0.0815  0.4326 -0.3210
 6788TIP3    H120305   6.822   2.323   4.610  0.4814  2.4905 -0.5524
 6788TIP3    H220306   6.972   2.318   4.599  0.4501 -0.7519  0.0559
 6789TIP3   OH220307   4.134   3.894   5.197 -0.2395  0.5040  0.5500
 6789TIP3    H120308   4.207   3.934   5.150  0.0047  0.6761  1.0721
 6789TIP3    H220309   4.093   3.836   5.133 -0.3569  1.3008 -0.0962
 6790TIP3   OH220310   5.252   3.340   5.934  0.2757 -0.3498  0.0653
 6790TIP3    H120311   5.283   3.341   6.024  0.9502 -0.8320 -0.1611
 6790TIP3    H220312   5.318   3.390   5.885  1.2272 -2.1853 -0.5810
 6791TIP3   OH220313   5.483   4.030   3.839 -0.4382  0.2386  0.0686
 6791TIP3    H120314   5.436   4.091   3.782 -0.0712  0.3563 -0.1091
 6791TIP3    H220315   5.451   3.944   3.815 -1.6806  0.4269  0.9872
 6792TIP3   OH220316   5.041   2.362   4.658  0.6385  0.5139 -0.4784
 6792TIP3    H120317   4.987   2.436   4.630 -1.0691  0.1230  1.6145
 6792TIP3    H220318   5.110   2.401   4.713  0.1744  0.6409  0.0184
 6793TIP3   OH220319   3.597   3.718   6.081  0.3934  0.1714  0.1664
 6793TIP3    H120320   3.642   3.699   6.164 -0.1722  1.7404  0.8658
 6793TIP3    H220321   3.574   3.633   6.046  1.0777 -0.5348  1.3975
 6794TIP3   OH220322   3.793   1.425   4.651 -0.4611 -0.2114  0.3962
 6794TIP3    H120323   3.796   1.383   4.737  0.1560  1.0895  1.0367
 6794TIP3    H220324   3.744   1.365   4.596  0.2327 -1.6547  1.3329
 6795TIP3   OH220325   4.835   4.074   6.391  0.0308  0.4007 -0.1776
 6795TIP3    H120326   4.840   3.979   6.376  0.4858  0.3715  0.1345
 6795TIP3    H220327   4.793   4.109   6.312 -1.2233 -0.1889  0.2185
 6796TIP3   OH220328   6.541   2.089   5.069 -0.1195  0.0268 -0.2142
 6796TIP3    H120329   6.523   1.996   5.059 -1.6031  0.4617 -1.9650
 6796TIP3    H220330   6.596   2.111   4.994 -0.6444  0.7669 -0.3904
 6797TIP3   OH220331   4.765   4.274   6.898 -0.2482  0.5774 -0.1198
 6797TIP3    H120332   4.751   4.333   6.971 -4.0556  1.0873 -1.1382
 6797TIP3    H220333   4.851   4.297   6.864  0.9965  1.2362  3.3134
 6798TIP3   OH220334   6.464   0.283   5.413 -0.1221 -0.4577 -0.0760
 6798TIP3    H120335   6.531   0.229   5.372  0.4371 -1.2739  1.8381
 6798TIP3    H220336   6.461   0.362   5.360  2.2008 -0.5083 -0.3542
 6799TIP3   OH220337   5.597   1.379   3.779  0.3138  0.1856  0.0297
 6799TIP3    H120338   5.665   1.325   3.739 -1.4549 -1.5187 -0.7822
 6799TIP3    H220339   5.561   1.430   3.707 -0.5848 -0.3621  0.0931
 6800TIP3   OH220340   5.576   0.109   4.610  0.2100 -0.2832  0.3833
 6800TIP3    H120341   5.490   0.133   4.644  1.3887  2.5238  1.5881
 6800TIP3    H220342   5.581   0.150   4.524 -0.0441 -1.2672 -0.0941
 6801TIP3   OH220343   5.654   1.683   5.758  0.4511  0.3440  0.3131
 6801TIP3    H120344   5.744   1.679   5.790  0.6545  3.4610  0.2545
 6801TIP3    H220345   5.653   1.627   5.681  2.6909  1.3520 -0.4798
 6802TIP3   OH220346   4.569   3.309   5.326  0.1041  0.1943 -0.2775
 6802TIP3    H120347   4.639   3.327   5.264  0.4443 -0.2537 -0.0342
 6802TIP3    H220348   4.578   3.215   5.345  0.9782  0.6291  1.6188
 6803TIP3   OH220349   6.210   1.297   5.616  0.4400 -0.8512  0.3750
 6803TIP3    H120350   6.234   1.374   5.667  0.7527 -1.3359  0.9819
 6803TIP3    H220351   6.230   1.319   5.526  0.4971 -0.2138  0.5461
 6804TIP3   OH220352   3.794   1.427   5.307 -0.1823  0.4975 -0.4932
 6804TIP3    H120353   3.743   1.444   5.386  0.4094  4.6087 -0.9083
 6804TIP3    H220354   3.744   1.467   5.237  1.4016  0.6927 -1.5470
 6805TIP3   OH220355   3.333   1.090   2.987  0.0619 -0.5868  0.0946
 6805TIP3    H120356   3.270   1.017   2.990  0.1590 -0.7171 -0.9494
 6805TIP3    H220357   3.280   1.167   2.968  0.1001 -0.5505  0.1335
 6806TIP3   OH220358   3.770   3.300   4.469  0.1816 -0.1037  0.5983
 6806TIP3    H120359   3.714   3.285   4.545 -0.0633  0.4938  0.5365
 6806TIP3    H220360   3.844   3.351   4.503 -1.2388  2.4910 -0.0562
 6807TIP3   OH220361   5.610   3.406   3.859  0.3024 -0.5718 -0.2463
 6807TIP3    H120362   5.647   3.466   3.795 -0.1780  0.0684  0.0678
 6807TIP3    H220363   5.685   3.365   3.901  0.6253 -0.5216 -0.7795
 6808TIP3   OH220364   5.477   3.874   4.112  0.0544  0.4537  0.3903
 6808TIP3    H120365   5.439   3.954   4.076 -0.3727  0.2877  0.4747
 6808TIP3    H220366   5.422   3.852   4.187  0.0247 -0.0518  0.2254
 6809TIP3   OH220367   6.678   3.883   5.256 -0.0492  0.0547  0.1310
 6809TIP3    H120368   6.625   3.892   5.177 -0.5841  1.7625  0.6803
 6809TIP3    H220369   6.637   3.810   5.304 -0.7905  0.1726 -0.3216
 6810TIP3   OH220370   5.090   3.289   3.854  0.1286 -0.0248  0.0083
 6810TIP3    H120371   5.143   3.362   3.885  0.3381  0.0635 -0.5456
 6810TIP3    H220372   5.154   3.224   3.822 -0.1176  0.7801 -2.2027
 6811TIP3   OH220373   7.156   1.175   5.342 -0.0705  0.0187 -0.3371
 6811TIP3    H120374   7.106   1.254   5.361 -1.9201 -1.0000 -0.8081
 6811TIP3    H220375   7.247   1.198   5.362 -0.9634  1.3029  2.4649
 6812TIP3   OH220376   6.148   3.193   4.989  0.4801  0.0724  0.2696
 6812TIP3    H120377   6.215   3.137   4.949 -0.0107 -0.1057 -0.3177
 6812TIP3    H220378   6.099   3.228   4.914 -1.2118 -1.2062  0.7372
 6813TIP3   OH220379   5.487   2.541   5.847  0.4580 -0.1277 -0.1198
 6813TIP3    H120380   5.503   2.511   5.937  0.9261  0.3924 -0.0259
 6813TIP3    H220381   5.502   2.464   5.793 -0.3741 -0.5942  0.2952
 6814TIP3   OH220382   4.832   1.723   5.060  0.4675 -0.2107 -0.0776
 6814TIP3    H120383   4.801   1.754   4.975  1.3345  0.9969  0.0273
 6814TIP3    H220384   4.866   1.635   5.044 -0.2630 -0.3635 -0.7850
 6815TIP3   OH220385   6.064   6.268   1.533  0.3182  0.1080 -0.1141
 6815TIP3    H120386   6.016   6.210   1.592  0.8199  0.5872  0.7831
 6815TIP3    H220387   6.136   6.215   1.500 -0.2742 -0.3254 -0.7208
 6816TIP3   OH220388   5.718   0.857   2.727 -0.1364  0.3071  0.3434
 6816TIP3    H120389   5.687   0.913   2.656 -0.3535  0.2053  0.3563
 6816TIP3    H220390   5.669   0.885   2.804  1.2555  1.4865  0.8102
 6817TIP3   OH220391   4.389   0.899   3.848  0.5943 -0.7579 -0.4974
 6817TIP3    H120392   4.471   0.863   3.882  0.7185  0.9916  1.1308
 6817TIP3    H220393   4.321   0.864   3.906  0.1327 -2.3516 -1.9547
 6818TIP3   OH220394   5.056   3.370   4.311  0.3865  0.1294 -0.4564
 6818TIP3    H120395   5.007   3.328   4.240  2.0956  1.3918 -2.4733
 6818TIP3    H220396   5.129   3.310   4.328 -0.5929 -0.6676  0.9681
 6819TIP3   OH220397   4.363   3.028   5.146 -0.3667 -0.1019 -0.3985
 6819TIP3    H120398   4.308   2.972   5.092 -0.4694  0.2462 -0.6584
 6819TIP3    H220399   4.437   3.051   5.089 -1.2091  1.4446 -0.8744
 6820TIP3   OH220400   5.892   3.688   3.353 -0.4352 -0.1957 -0.2380
 6820TIP3    H120401   5.967   3.738   3.385 -0.0629  0.6354 -2.3547
 6820TIP3    H220402   5.926   3.641   3.277 -1.4003 -1.8661  0.3395
 6821TIP3   OH220403   6.518   4.190   4.314 -0.1655  0.5594  0.0119
 6821TIP3    H120404   6.514   4.101   4.280  2.5314  0.2003  0.4901
 6821TIP3    H220405   6.555   4.241   4.242 -0.6225  1.0602  0.1329
 6822TIP3   OH220406   2.520   2.218   3.552  0.3973 -0.0863 -0.1784
 6822TIP3    H120407   2.602   2.207   3.601  1.2360 -1.0972 -1.7403
 6822TIP3    H220408   2.549   2.238   3.463 -1.0465 -1.9168 -1.0843
 6823TIP3   OH220409   6.066   1.551   3.776 -0.5644  0.4772  0.3369
 6823TIP3    H120410   6.136   1.615   3.761 -1.8772  1.4971 -1.6951
 6823TIP3    H220411   6.057   1.505   3.692 -2.9053  0.9647  0.2766
 6824TIP3   OH220412   3.585   2.749   5.855 -0.1527 -0.0879  0.5969
 6824TIP3    H120413   3.512   2.688   5.848  0.2291 -0.4834 -0.0291
 6824TIP3    H220414   3.544   2.833   5.877 -0.7922 -0.3116  0.2752
 6825TIP3   OH220415   5.065   1.572   4.251 -0.0219 -0.4432 -0.5668
 6825TIP3    H120416   5.131   1.504   4.266  0.0927 -0.1768  0.1462
 6825TIP3    H220417   5.084   1.605   4.163  1.1539  0.0188 -0.1468
 6826TIP3   OH220418   3.216   3.378   5.976 -0.7437  0.0302 -0.1306
 6826TIP3    H120419   3.133   3.362   5.933 -1.2275  1.4596  0.2181
 6826TIP3    H220420   3.219   3.314   6.048 -0.4040 -1.6500 -1.6211
 6827TIP3   OH220421   7.299   0.913   4.189 -0.3956 -0.6086  0.6303
 6827TIP3    H120422   7.221   0.857   4.179  0.2212 -1.6501  1.5934
 6827TIP3    H220423   7.368   0.853   4.216  0.5359  0.4689  0.6618
 6828TIP3   OH220424   3.483   8.080   4.894 -0.0868 -0.1643 -0.1740
 6828TIP3    H120425   3.528   8.050   4.815 -1.7994  0.7309 -1.5367
 6828TIP3    H220426   3.493   8.176   4.892 -1.2093 -0.0392 -0.0039
 6829TIP3   OH220427   3.107   2.616   6.728  0.1622  0.1633  0.5616
 6829TIP3    H120428   3.082   2.704   6.699 -1.3427 -0.3950  0.1024
 6829TIP3    H220429   3.122   2.568   6.647  0.0262 -0.2653  0.7916
 6830TIP3   OH220430   3.108   1.885   5.538  0.3990  0.7934  0.2167
 6830TIP3    H120431   3.098   1.900   5.444 -1.7193  0.6117  0.3910
 6830TIP3    H220432   3.048   1.947   5.580  0.1783 -0.1604  1.3658
 6831TIP3   OH220433   5.295   3.371   6.217  0.5004  0.1788  0.1994
 6831TIP3    H120434   5.264   3.352   6.306  1.9826  0.9207  0.8870
 6831TIP3    H220435   5.390   3.370   6.224  0.6471 -1.5213 -1.7839
 6832TIP3   OH220436   4.089   3.182   4.745 -0.1629 -0.2406 -0.0611
 6832TIP3    H120437   4.174   3.215   4.717 -1.4055  1.6999 -1.7957
 6832TIP3    H220438   4.084   3.203   4.838  1.8444 -1.7548  0.3989
 6833TIP3   OH220439   7.858   6.174   3.855 -0.5238 -0.1732  0.6992
 6833TIP3    H120440   7.918   6.197   3.926  1.1185 -1.1229 -0.3615
 6833TIP3    H220441   7.788   6.125   3.897  0.3286 -0.5440  1.6921
 6834TIP3   OH220442   5.507   2.980   4.870  0.3022  0.2450  0.4369
 6834TIP3    H120443   5.549   2.899   4.898  1.4080  0.7660  0.3235
 6834TIP3    H220444   5.470   3.017   4.950  0.0057 -0.2476  0.5290
 6835TIP3   OH220445   7.904   5.380   0.808  0.6295 -0.0045 -0.0142
 6835TIP3    H120446   7.820   5.409   0.772 -0.0896  0.3127  1.8077
 6835TIP3    H220447   7.938   5.456   0.854  0.8736 -0.7483  1.0628
 6836TIP3   OH220448   4.406   3.575   5.023 -0.1452 -0.3192  0.0235
 6836TIP3    H120449   4.314   3.563   5.045  0.3831 -0.9486  2.0096
 6836TIP3    H220450   4.439   3.635   5.089  1.3886 -1.8815  0.7296
 6837TIP3   OH220451   4.425   3.278   4.949  0.4033 -0.1578 -0.5171
 6837TIP3    H120452   4.439   3.351   5.009 -0.1532 -1.6424  1.4789
 6837TIP3    H220453   4.345   3.300   4.903 -0.2094  0.1245  0.6584
 6838TIP3   OH220454   3.671   3.850   5.169 -0.1455 -0.4100  0.0725
 6838TIP3    H120455   3.748   3.891   5.208  0.5678 -0.8271 -0.8855
 6838TIP3    H220456   3.633   3.918   5.114 -0.3398 -0.2704  0.3802
 6839TIP3   OH220457   5.239   5.091   5.303 -0.0616 -0.3875  0.2828
 6839TIP3    H120458   5.144   5.079   5.307 -0.0038 -0.3463  2.4839
 6839TIP3    H220459   5.270   5.063   5.389  2.0535 -1.4734 -0.8112
 6840TIP3   OH220460   7.845   6.422   0.199 -0.3341 -0.0275  0.1172
 6840TIP3    H120461   7.770   6.397   0.145 -0.3227  0.0362  0.0716
 6840TIP3    H220462   7.814   6.415   0.289 -0.5037  0.3430  0.0875
 6841TIP3   OH220463   3.106   2.825   6.532  0.2069 -0.6933  0.2448
 6841TIP3    H120464   3.038   2.882   6.496  0.0065 -0.4462  0.9939
 6841TIP3    H220465   3.145   2.783   6.456 -1.5651 -1.7225 -0.1224
 6842TIP3   OH220466   3.858   3.073   4.678  0.1214 -0.3895 -0.4660
 6842TIP3    H120467   3.790   3.118   4.728  0.1200 -0.9858  0.0715
 6842TIP3    H220468   3.940   3.104   4.716  0.1278 -0.5841 -0.3230
 6843TIP3   OH220469   4.763   4.037   5.611 -0.1234 -0.0628  0.4125
 6843TIP3    H120470   4.803   4.028   5.525 -0.1452 -1.0706  0.5044
 6843TIP3    H220471   4.837   4.041   5.672 -0.0840  1.4966  0.2799
 6844TIP3   OH220472   3.525   2.995   5.671  0.0541 -0.1824 -0.1748
 6844TIP3    H120473   3.502   3.001   5.578  0.9013 -0.6497 -0.4238
 6844TIP3    H220474   3.610   3.040   5.677 -0.1541  0.1311  0.4301
 6845TIP3   OH220475   5.094   5.147   4.974 -0.3736  0.2152  0.4901
 6845TIP3    H120476   5.054   5.202   4.907  0.2081 -1.3450 -1.1477
 6845TIP3    H220477   5.178   5.120   4.937  0.3629  0.0713  2.2103
 6846TIP3   OH220478   2.477   3.326   5.066  0.0710 -0.8047  0.1280
 6846TIP3    H120479   2.525   3.378   5.131  0.9243  0.4824 -1.4753
 6846TIP3    H220480   2.525   3.243   5.061  1.6680  0.1379 -0.8127
 6847TIP3   OH220481   3.835   2.376   4.882  0.1770  0.1273 -0.1061
 6847TIP3    H120482   3.882   2.364   4.964 -0.8210  0.3346  0.5030
 6847TIP3    H220483   3.802   2.466   4.886 -0.8041 -0.2189 -0.2465
 6848TIP3   OH220484   3.476   0.852   4.330 -0.2374  0.3111  0.4812
 6848TIP3    H120485   3.399   0.897   4.363 -0.5092 -0.2147  0.5572
 6848TIP3    H220486   3.478   0.873   4.236 -0.4870  0.2967  0.4744
 6849TIP3   OH220487   4.815   1.874   6.109 -0.0265  0.1223 -0.2374
 6849TIP3    H120488   4.726   1.842   6.126  0.0431  0.9039  1.6790
 6849TIP3    H220489   4.833   1.847   6.019 -2.4867  0.6337 -0.9111
 6850TIP3   OH220490   2.739   7.420   4.863 -0.1015 -0.4056  0.2207
 6850TIP3    H120491   2.724   7.326   4.871 -0.8948 -0.3616 -0.6842
 6850TIP3    H220492   2.734   7.452   4.953  1.7811 -1.4497  0.7356
 6851TIP3   OH220493   7.483   1.155   4.636  0.1344 -0.3420 -0.3634
 6851TIP3    H120494   7.454   1.109   4.715 -0.5201 -1.4359 -1.2440
 6851TIP3    H220495   7.459   1.247   4.652 -1.7528 -0.8706 -0.1323
 6852TIP3   OH220496   4.059   1.337   4.313  0.6618 -0.0038 -0.0051
 6852TIP3    H120497   4.133   1.310   4.368 -0.6248  0.4626  2.0297
 6852TIP3    H220498   4.009   1.397   4.368 -0.9267  0.1419 -1.5522
 6853TIP3   OH220499   2.882   3.476   3.805  0.3169 -0.5461 -0.7778
 6853TIP3    H120500   2.808   3.489   3.747  0.4844 -1.1131 -1.1317
 6853TIP3    H220501   2.936   3.554   3.795  0.3118 -0.6179 -1.3405
 6854TIP3   OH220502   3.469   1.211   4.554  0.2121 -0.1547  0.0633
 6854TIP3    H120503   3.557   1.178   4.535  0.1668 -0.8642  1.0380
 6854TIP3    H220504   3.480   1.266   4.631  0.0594  1.0610 -0.7665
 6855TIP3   OH220505   4.804   0.550   4.001 -0.3036 -0.0049 -0.2965
 6855TIP3    H120506   4.762   0.542   4.086  1.5822 -1.8456  0.4852
 6855TIP3    H220507   4.782   0.470   3.954 -1.8419  1.2540 -1.8244
 6856TIP3   OH220508   6.467   3.302   4.292  0.1696 -0.3125  0.1540
 6856TIP3    H120509   6.440   3.211   4.304 -0.5855 -0.1455 -0.2060
 6856TIP3    H220510   6.408   3.351   4.350  0.3060 -0.0170  0.0407
 6857TIP3   OH220511   5.956   1.630   4.663 -0.1746  0.0664  0.0080
 6857TIP3    H120512   6.037   1.671   4.693  0.4792 -0.8880 -0.4037
 6857TIP3    H220513   5.915   1.595   4.742  0.2679 -0.2203  0.1125
 6858TIP3   OH220514   3.909   1.186   5.000 -0.0557  0.0785  0.0333
 6858TIP3    H120515   3.940   1.098   4.978  1.8229  0.8476 -0.5506
 6858TIP3    H220516   3.823   1.193   4.959 -0.2037 -1.4693  0.0599
 6859TIP3   OH220517   4.620   0.882   4.217 -0.5606  0.1771  0.2534
 6859TIP3    H120518   4.634   0.887   4.311  1.7323  0.7379 -0.0934
 6859TIP3    H220519   4.683   0.817   4.186 -1.2492  0.0418 -0.9087
 6860TIP3   OH220520   3.010   4.092   5.801 -0.8836 -0.3236  0.6073
 6860TIP3    H120521   2.919   4.063   5.798 -0.5368 -1.4090  0.0563
 6860TIP3    H220522   3.005   4.186   5.815 -2.1106 -0.1486 -0.8962
 6861TIP3   OH220523   5.917   2.342   4.065 -0.3996  0.4416  0.2463
 6861TIP3    H120524   5.896   2.353   4.157 -2.2459 -1.9259  0.1664
 6861TIP3    H220525   5.844   2.384   4.019 -0.7277 -0.4905 -0.0980
 6862TIP3   OH220526   5.224   1.223   5.944 -0.1572  0.0707 -0.1861
 6862TIP3    H120527   5.305   1.233   5.994  0.2320 -1.3102 -0.5184
 6862TIP3    H220528   5.166   1.174   6.002  0.5932 -2.3094 -1.3376
 6863TIP3   OH220529   3.811   3.818   5.876  0.3326  0.0534  0.7578
 6863TIP3    H120530   3.772   3.744   5.830  0.9165 -0.0772  0.4562
 6863TIP3    H220531   3.739   3.858   5.924 -0.7798  1.4904 -1.9856
 6864TIP3   OH220532   4.308   3.922   4.229 -0.1586 -0.7472  0.2903
 6864TIP3    H120533   4.402   3.923   4.248 -0.6163  1.0421  2.6559
 6864TIP3    H220534   4.266   3.932   4.314 -2.4930 -0.2425 -0.8735
 6865TIP3   OH220535   1.204   3.179   0.004 -0.2754 -0.0334  0.7259
 6865TIP3    H120536   1.241   3.095  -0.026  1.2343  0.9639 -0.2923
 6865TIP3    H220537   1.257   3.203   0.080 -0.8728 -0.1333  1.1718
 6866TIP3   OH220538   5.167   4.186   5.999 -0.0826 -0.3428  0.5949
 6866TIP3    H120539   5.148   4.240   6.076 -0.1497  1.1922 -0.4765
 6866TIP3    H220540   5.256   4.209   5.975 -0.2054 -0.5024 -0.0265
 6867TIP3   OH220541   7.296   0.920   3.799 -0.0565 -0.0394 -0.1409
 6867TIP3    H120542   7.215   0.966   3.822  0.4595  0.6456  0.3490
 6867TIP3    H220543   7.344   0.983   3.744  0.0514 -0.5260 -0.6127
 6868TIP3   OH220544  -0.011   3.075   3.966  0.5166  0.1761  0.0612
 6868TIP3    H120545   0.011   3.156   3.920  0.1124 -0.3532 -1.0742
 6868TIP3    H220546   0.019   3.005   3.908 -1.5309 -0.5171 -0.1894
 6869TIP3   OH220547   6.314   1.472   4.629  0.0900 -0.5416 -0.1764
 6869TIP3    H120548   6.308   1.401   4.692  1.0144 -0.3933  0.0922
 6869TIP3    H220549   6.265   1.544   4.669 -0.4998 -0.8877 -0.2654
 6870TIP3   OH220550   6.707   4.072   4.956 -0.8076  0.2178 -0.1160
 6870TIP3    H120551   6.661   4.149   4.990 -1.6506 -1.0378  1.6876
 6870TIP3    H220552   6.652   3.998   4.983  0.3504 -1.0602 -1.2110
 6871TIP3   OH220553   7.214   2.667   3.130  0.1887 -0.3496  0.0554
 6871TIP3    H120554   7.125   2.646   3.102  0.0093 -2.0087  1.7233
 6871TIP3    H220555   7.203   2.713   3.213  0.8425  0.5386 -0.3451
 6872TIP3   OH220556   6.895   2.665   4.090  0.2716  0.1115  0.0505
 6872TIP3    H120557   6.805   2.679   4.061  0.5952  2.7277  0.1413
 6872TIP3    H220558   6.888   2.599   4.159 -1.5073 -0.1649 -0.3643
 6873TIP3   OH220559   5.011   1.713   4.685  0.3463  0.2291 -0.0522
 6873TIP3    H120560   5.071   1.702   4.759  0.7641  0.7903 -0.3008
 6873TIP3    H220561   4.973   1.799   4.698 -1.6088 -0.7522  0.9553
 6874TIP3   OH220562   7.104   0.400   6.194 -0.0204  0.0300  0.2832
 6874TIP3    H120563   7.051   0.368   6.121 -1.7513 -0.9871  1.9495
 6874TIP3    H220564   7.063   0.484   6.218 -0.1697 -0.1882  0.8070
 6875TIP3   OH220565   5.885   1.988   5.068 -0.2738 -0.5020 -0.3680
 6875TIP3    H120566   5.843   2.003   5.153 -0.0491 -1.0302 -0.1567
 6875TIP3    H220567   5.824   2.025   5.004 -0.7521 -0.6795 -0.0198
 6876TIP3   OH220568   7.921   1.603   3.334 -0.2007  0.1117  0.2515
 6876TIP3    H120569   7.889   1.692   3.319  0.2333  0.2579  0.1806
 6876TIP3    H220570   7.843   1.553   3.358 -0.5610  0.3555 -0.4052
 6877TIP3   OH220571   6.781   1.957   1.211 -0.4128 -0.1425  0.2584
 6877TIP3    H120572   6.875   1.975   1.211 -0.4387  0.2198 -2.1825
 6877TIP3    H220573   6.759   1.940   1.302  2.4445 -2.5258  0.5694
 6878TIP3   OH220574   5.405   3.106   5.101  0.2954  0.1627  0.0421
 6878TIP3    H120575   5.443   3.191   5.122  1.3587 -0.6447  1.5026
 6878TIP3    H220576   5.351   3.084   5.177  2.8120 -2.0313  1.2567
 6879TIP3   OH220577   7.593   2.862   5.942 -0.3840  0.3707  0.6008
 6879TIP3    H120578   7.569   2.954   5.955  0.8152  0.6359  1.0888
 6879TIP3    H220579   7.515   2.813   5.967 -0.9957  1.2545  0.4584
 6880TIP3   OH220580   5.701   2.172   3.247  0.0563  0.1025  0.1864
 6880TIP3    H120581   5.737   2.116   3.178  1.8091  1.2037  0.1628
 6880TIP3    H220582   5.763   2.162   3.319  0.0902  1.5814  0.3688
 6881TIP3   OH220583   7.282   0.483   4.247 -0.0208 -0.3917 -0.0755
 6881TIP3    H120584   7.322   0.549   4.304 -2.1193 -0.1088  1.0895
 6881TIP3    H220585   7.243   0.420   4.307 -0.9113 -0.9237 -1.2046
 6882TIP3   OH220586   0.265   3.282   3.866  0.1813  0.0129 -0.0351
 6882TIP3    H120587   0.288   3.281   3.959  1.5179  0.8724 -0.3369
 6882TIP3    H220588   0.346   3.306   3.822 -0.0054 -2.0806 -1.5782
 6883TIP3   OH220589   5.845   2.178   3.787 -0.0671 -0.0178 -0.8331
 6883TIP3    H120590   5.898   2.161   3.865 -0.0869 -0.1756 -0.8533
 6883TIP3    H220591   5.823   2.091   3.754 -0.7674  0.0467 -0.5347
 6884TIP3   OH220592   7.053   2.070   3.909  0.1321 -0.3990  0.1565
 6884TIP3    H120593   6.993   2.131   3.952 -0.1458 -1.3787  1.1720
 6884TIP3    H220594   7.078   2.009   3.977  3.2458  0.6914  0.0849
 6885TIP3   OH220595   6.375   3.874   3.887  0.3401  0.4913  0.2736
 6885TIP3    H120596   6.290   3.895   3.926 -0.1663  1.0234 -1.0878
 6885TIP3    H220597   6.417   3.816   3.950 -1.2336 -0.1645  0.7323
 6886TIP3   OH220598   6.983   1.129   5.898 -0.0650 -0.5775  0.5225
 6886TIP3    H120599   7.030   1.049   5.921 -0.5135 -1.6301 -2.0283
 6886TIP3    H220600   7.007   1.192   5.966  2.8436 -1.9205  0.8171
 6887TIP3   OH220601   7.739   1.110   4.601  0.1704  0.0489  0.2626
 6887TIP3    H120602   7.646   1.131   4.607  0.4623  1.1494  0.9782
 6887TIP3    H220603   7.781   1.191   4.571  0.8144 -0.6479 -0.7739
 6888TIP3   OH220604   5.627   2.493   6.377 -0.6669  0.0295 -0.0816
 6888TIP3    H120605   5.715   2.511   6.343  0.0238 -1.2562  0.9465
 6888TIP3    H220606   5.603   2.409   6.338 -1.1480  0.0454  0.1775
 6889TIP3   OH220607   4.963   2.977   2.771 -0.0484  0.0604 -0.2699
 6889TIP3    H120608   4.923   2.991   2.857  1.6751 -1.6025  0.8403
 6889TIP3    H220609   5.041   3.034   2.772 -0.2229  0.3139 -0.8842
 6890TIP3   OH220610   7.106   5.185   4.479 -0.4709  0.1182 -0.6390
 6890TIP3    H120611   7.068   5.203   4.565  0.2593 -0.0009 -0.2885
 6890TIP3    H220612   7.083   5.094   4.461  0.5533 -0.2936  0.0567
 6891TIP3   OH220613   7.015   1.510   3.656 -0.2161 -0.5272  0.1117
 6891TIP3    H120614   7.026   1.584   3.715  0.8353  0.0629 -0.8040
 6891TIP3    H220615   6.947   1.538   3.595  1.1227  0.2613 -1.0727
 6892TIP3   OH220616   5.727   0.774   5.360 -0.0949  0.2822 -0.2937
 6892TIP3    H120617   5.732   0.832   5.436 -0.7275 -0.3717  0.2621
 6892TIP3    H220618   5.647   0.723   5.374  1.2179 -1.7618 -0.0007
 6893TIP3   OH220619   7.712   2.190   4.117  0.2204  0.9137 -0.0634
 6893TIP3    H120620   7.658   2.158   4.044  1.6937  0.9814 -1.1953
 6893TIP3    H220621   7.791   2.223   4.075  2.8805 -2.7214  1.8851
 6894TIP3   OH220622   6.101   1.511   5.031 -0.2935  0.2708 -0.1335
 6894TIP3    H120623   6.026   1.546   5.080  0.5099  1.4913  0.2514
 6894TIP3    H220624   6.069   1.430   4.992 -1.1845 -0.3115  1.7806
 6895TIP3   OH220625   6.621   3.566   4.392 -0.1170 -0.2913  0.4127
 6895TIP3    H120626   6.657   3.516   4.318  1.6606 -0.0874  1.1020
 6895TIP3    H220627   6.661   3.653   4.383 -2.7074  0.8586 -0.4290
 6896TIP3   OH220628   6.230   5.034   1.306 -0.1148 -0.4893  0.2899
 6896TIP3    H120629   6.309   4.993   1.270  0.1343 -1.3514  1.8003
 6896TIP3    H220630   6.158   4.993   1.258  0.3480  0.5883 -1.3778
 6897TIP3   OH220631   5.730   5.180   2.327 -0.5144  0.1674 -0.3721
 6897TIP3    H120632   5.687   5.186   2.242 -0.4421  0.2748 -0.4012
 6897TIP3    H220633   5.667   5.135   2.383 -1.5042  2.1563  0.1549
 6898TIP3   OH220634   7.361   1.650   3.041 -0.6786  0.2829  0.3256
 6898TIP3    H120635   7.346   1.656   2.947  1.3028 -1.9487 -0.1810
 6898TIP3    H220636   7.412   1.728   3.063 -0.3721  0.3435 -0.6075
 6899TIP3   OH220637   6.948   3.028   2.266  0.5034  0.6250  0.6305
 6899TIP3    H120638   6.986   3.089   2.203  0.3687  0.4800  0.4050
 6899TIP3    H220639   6.913   3.083   2.336 -0.2460  0.8441  0.0853
 6900TIP3   OH220640   1.391   4.172   0.234 -0.1654 -0.4651  0.1399
 6900TIP3    H120641   1.301   4.184   0.265  0.1619  0.4288  0.7376
 6900TIP3    H220642   1.423   4.096   0.282 -0.8854 -1.3386 -0.7197
 6901TIP3   OH220643   6.019   4.648   1.875 -0.0339 -0.0156 -0.3771
 6901TIP3    H120644   6.016   4.740   1.903  0.1669 -0.1711  0.1601
 6901TIP3    H220645   5.944   4.607   1.918  0.3268 -0.2769  0.0029
 6902TIP3   OH220646   4.467   1.732   4.944 -0.4513 -0.2797  0.6143
 6902TIP3    H120647   4.374   1.751   4.936 -0.0669  0.6411 -1.9940
 6902TIP3    H220648   4.476   1.642   4.913 -0.3286  0.0398 -0.3070
 6903TIP3   OH220649   7.117   3.351   4.889  0.0676 -0.7065  0.0970
 6903TIP3    H120650   7.113   3.282   4.956  2.5238 -0.1584  0.8719
 6903TIP3    H220651   7.199   3.397   4.908 -0.4618  1.0433 -1.7681
 6904TIP3   OH220652   5.779   3.789   5.600 -0.2767 -0.3209  0.1725
 6904TIP3    H120653   5.761   3.882   5.589 -0.2750 -0.2290  0.9766
 6904TIP3    H220654   5.723   3.747   5.535 -1.4897  0.1356  0.9062
 6905TIP3   OH220655   5.211   3.659   5.527  0.2153 -0.2532  0.3949
 6905TIP3    H120656   5.168   3.580   5.559 -1.4560 -0.1452 -1.4645
 6905TIP3    H220657   5.287   3.627   5.479 -0.4508 -0.7446 -0.3401
 6906TIP3   OH220658   6.490   1.773   5.290  0.0747  0.2344  0.7841
 6906TIP3    H120659   6.576   1.736   5.271 -0.7754 -0.9868 -0.8534
 6906TIP3    H220660   6.450   1.785   5.204 -1.6717  0.0700  1.5610
 6907TIP3   OH220661   8.029   3.819   4.756 -0.9850  0.6961 -0.4446
 6907TIP3    H120662   7.950   3.822   4.810 -1.2879  0.8305 -0.8892
 6907TIP3    H220663   8.018   3.740   4.703  0.3839 -0.7200  1.2913
 6908TIP3   OH220664   6.930   1.814   3.981 -0.0327 -0.0942 -0.0662
 6908TIP3    H120665   7.001   1.772   4.031  1.3702 -0.4663 -2.3073
 6908TIP3    H220666   6.958   1.807   3.890 -1.9972  1.6211 -0.8264
 6909TIP3   OH220667   6.614   2.670   4.012  0.1232 -0.2326  0.2124
 6909TIP3    H120668   6.601   2.743   4.073  0.6009 -1.2633  1.5451
 6909TIP3    H220669   6.546   2.607   4.035  0.2579 -0.5956 -0.3715
 6910TIP3   OH220670   6.329   0.458   1.974 -0.3151 -0.2155 -0.1333
 6910TIP3    H120671   6.343   0.550   1.954 -2.0091  0.0263 -0.2248
 6910TIP3    H220672   6.327   0.453   2.070  0.7490 -0.3150 -0.1097
 6911TIP3   OH220673   2.196   8.065   2.937 -0.1763 -0.4678 -0.0697
 6911TIP3    H120674   2.262   8.069   2.868  0.7456 -0.1291  0.8237
 6911TIP3    H220675   2.233   8.007   3.003 -0.8962 -0.5068  0.3074
 6912TIP3   OH220676   5.314   5.028   1.424  0.4443 -0.4171 -0.6691
 6912TIP3    H120677   5.223   5.008   1.443  0.0329  2.1878  0.3861
 6912TIP3    H220678   5.353   4.944   1.400 -1.8796 -1.8120  0.2632
 6913TIP3   OH220679   5.169   2.420   5.809 -0.0539  0.1635  0.0944
 6913TIP3    H120680   5.207   2.338   5.840 -3.3039 -1.4031  0.1164
 6913TIP3    H220681   5.196   2.426   5.717  1.0052 -0.3998  0.3566
 6914TIP3   OH220682   5.206   3.149   5.341  0.3813 -0.1788 -0.1544
 6914TIP3    H120683   5.140   3.215   5.322  1.3966  0.3620 -1.9634
 6914TIP3    H220684   5.235   3.168   5.430 -2.2623 -0.7776  0.8966
 6915TIP3   OH220685   7.314   4.245   3.687  0.1129 -0.3390  0.7360
 6915TIP3    H120686   7.362   4.215   3.765  0.9602 -2.2762 -0.4983
 6915TIP3    H220687   7.276   4.165   3.650  0.2812  0.4709 -1.2370
 6916TIP3   OH220688   7.664   2.850   5.644  0.6040 -0.1837  0.4006
 6916TIP3    H120689   7.677   2.903   5.723  2.9983 -0.5030  0.2693
 6916TIP3    H220690   7.570   2.832   5.642  0.4082  0.3610  2.8390
 6917TIP3   OH220691   5.363   1.747   3.796  0.2099 -0.4405  0.0083
 6917TIP3    H120692   5.326   1.707   3.717  0.3922  0.2407 -0.4334
 6917TIP3    H220693   5.435   1.801   3.763  1.9235 -2.1328  0.8975
 6918TIP3   OH220694   4.879   3.995   5.353 -0.1797  0.1570  0.4312
 6918TIP3    H120695   4.930   3.986   5.272 -0.9828  0.0873 -0.0793
 6918TIP3    H220696   4.918   3.932   5.413  1.6505  1.5549  0.7419
 6919TIP3   OH220697   5.631   5.217   2.780  0.1778 -0.5957  0.2263
 6919TIP3    H120698   5.572   5.284   2.814  0.3406 -1.2836  1.9070
 6919TIP3    H220699   5.700   5.266   2.736 -1.6395  0.2239 -1.8088
 6920TIP3   OH220700   7.207   2.380   5.530 -0.2808 -0.5830 -0.6042
 6920TIP3    H120701   7.137   2.445   5.523 -0.6354 -0.6776  1.4887
 6920TIP3    H220702   7.288   2.430   5.532 -0.4047 -0.3596 -1.4229
 6921TIP3   OH220703   7.981   2.706   3.347 -0.3613  0.2719  0.7960
 6921TIP3    H120704   7.989   2.798   3.324 -2.5546  0.7212  1.7226
 6921TIP3    H220705   8.047   2.692   3.416  1.5039  0.5645 -0.8810
 6922TIP3   OH220706   4.261   3.610   3.977  0.1558 -0.1709 -0.3305
 6922TIP3    H120707   4.267   3.546   4.047  0.6368  0.3784  0.1367
 6922TIP3    H220708   4.172   3.600   3.943  0.0273 -0.6611  0.1441
 6923TIP3   OH220709   5.862   4.451   4.197  0.0218  0.2225  0.0917
 6923TIP3    H120710   5.864   4.469   4.104  1.0124  1.3319  0.3199
 6923TIP3    H220711   5.955   4.445   4.223 -0.0968  3.6837  1.6894
 6924TIP3   OH220712   0.423   3.794   4.800  0.4363 -0.4814 -0.1585
 6924TIP3    H120713   0.350   3.743   4.767 -0.6200 -0.7536  2.4468
 6924TIP3    H220714   0.390   3.883   4.807 -0.0396 -0.7998  2.0375
 6925TIP3   OH220715   7.774   0.169   4.637 -0.4698 -0.7669  0.6918
 6925TIP3    H120716   7.758   0.189   4.729 -1.1736  1.6098  0.0847
 6925TIP3    H220717   7.853   0.218   4.616 -0.6566 -0.8125 -0.1148
 6926TIP3   OH220718   6.930   2.473   1.768 -0.3370 -0.1753 -0.0543
 6926TIP3    H120719   6.973   2.397   1.728 -0.0535  0.5976 -1.2635
 6926TIP3    H220720   6.965   2.548   1.720 -1.0042  0.6811  0.7774
 6927TIP3   OH220721   7.851   1.929   4.260  0.7255 -0.3387 -0.0103
 6927TIP3    H120722   7.936   1.920   4.216  0.5921 -3.2754  0.2514
 6927TIP3    H220723   7.801   1.988   4.203  1.3056 -2.3567 -2.7147
 6928TIP3   OH220724   5.978   1.494   4.054  0.4076 -0.0872  0.5177
 6928TIP3    H120725   5.996   1.412   4.098 -1.1986 -0.5048  0.4382
 6928TIP3    H220726   6.021   1.486   3.969 -0.6861 -1.3215  0.0641
 6929TIP3   OH220727   8.017   2.052   5.862  0.1405 -0.3230 -0.1582
 6929TIP3    H120728   8.080   1.989   5.826  1.3166  2.1201 -2.5977
 6929TIP3    H220729   7.933   2.008   5.854  1.1488 -2.3924  0.1430
 6930TIP3   OH220730   5.410   2.758   2.399  0.1454 -0.6788 -0.3253
 6930TIP3    H120731   5.318   2.768   2.376 -0.5120 -0.0239  2.4146
 6930TIP3    H220732   5.453   2.834   2.358 -0.9944  0.5538  0.7118
 6931TIP3   OH220733   5.081   1.798   5.366  0.3168 -0.2394  0.2939
 6931TIP3    H120734   5.055   1.808   5.275  0.1415 -1.4151  0.2024
 6931TIP3    H220735   5.152   1.734   5.364 -1.4058 -2.2333  1.2124
 6932TIP3   OH220736   7.232   4.075   3.066 -0.7986 -0.6018  0.1815
 6932TIP3    H120737   7.224   3.986   3.030  0.3749  0.0555 -1.8121
 6932TIP3    H220738   7.324   4.098   3.051 -1.2113  1.1299  0.2447
 6933TIP3   OH220739   6.304   2.010   4.793 -0.2973 -0.0080 -0.7783
 6933TIP3    H120740   6.394   2.041   4.783 -0.1503  0.1170  0.8655
 6933TIP3    H220741   6.284   1.967   4.710  1.7052 -1.1464 -0.6881
 6934TIP3   OH220742   6.179   1.398   4.387 -0.1633  0.0788 -0.1725
 6934TIP3    H120743   6.111   1.466   4.380  0.0235  0.2441 -0.4010
 6934TIP3    H220744   6.220   1.415   4.472 -1.1351 -0.7075  0.4672
 6935TIP3   OH220745   5.085   1.891   3.524 -0.1928 -0.2432  0.4410
 6935TIP3    H120746   5.152   1.857   3.582  0.4904  0.1455 -0.1148
 6935TIP3    H220747   5.130   1.904   3.440 -0.7928  0.6692  0.2547
 6936TIP3   OH220748   7.076   1.749   4.202  0.1232  0.5049 -0.2717
 6936TIP3    H120749   7.137   1.687   4.241 -0.0943  1.3100  1.3752
 6936TIP3    H220750   6.992   1.729   4.241 -0.2122  0.9514 -0.7569
 6937TIP3   OH220751   7.120   1.910   3.058 -0.3710  0.4752 -0.2499
 6937TIP3    H120752   7.154   1.830   3.018 -0.0221 -0.2180  1.3639
 6937TIP3    H220753   7.043   1.881   3.106 -0.6350  1.2386 -0.2208
 6938TIP3   OH220754   5.325   1.279   3.862 -0.0588 -0.2917  0.5124
 6938TIP3    H120755   5.286   1.294   3.948 -0.6524 -0.1893  0.2249
 6938TIP3    H220756   5.419   1.284   3.878 -0.1715  0.0039  1.1047
 6939TIP3   OH220757   6.463   1.807   3.519  0.0558 -0.3426  0.8541
 6939TIP3    H120758   6.552   1.784   3.544  1.0214 -1.3171 -3.0811
 6939TIP3    H220759   6.471   1.890   3.472 -0.7876 -1.3613 -1.1716
 6940TIP3   OH220760   7.262   2.116   3.545 -0.4390 -0.2956  0.1236
 6940TIP3    H120761   7.307   2.047   3.496 -0.7646 -2.2171  2.4775
 6940TIP3    H220762   7.194   2.148   3.485  1.8805  0.3745 -2.2393
 6941TIP3   OH220763   6.260   2.953   4.851  0.4456 -0.6151 -0.1229
 6941TIP3    H120764   6.319   2.962   4.775 -0.1397 -0.8565 -0.6125
 6941TIP3    H220765   6.185   2.904   4.817 -0.4201  0.4136  0.2932
 6942TIP3   OH220766   7.730   3.463   2.682  0.1536 -0.3350 -0.0492
 6942TIP3    H120767   7.763   3.553   2.678 -0.8428  0.0935  1.0656
 6942TIP3    H220768   7.809   3.409   2.683  0.7920  0.5842  0.4821
 6943TIP3   OH220769   7.584   4.328   6.305 -0.1786  0.1765 -0.1237
 6943TIP3    H120770   7.539   4.309   6.223  1.5482  0.1732 -1.1004
 6943TIP3    H220771   7.677   4.314   6.285  0.1948 -0.6762  2.0656
 6944TIP3   OH220772   5.596   2.224   5.947  0.9814 -0.5312 -0.1112
 6944TIP3    H120773   5.606   2.236   5.852  0.2138 -0.1787 -0.1536
 6944TIP3    H220774   5.523   2.163   5.955 -0.2704  1.0053  0.2946
 6945TIP3   OH220775   7.117   0.212   4.733  0.4472 -0.3175 -0.0337
 6945TIP3    H120776   7.043   0.186   4.678  0.7043 -1.9912  0.3899
 6945TIP3    H220777   7.131   0.138   4.791  3.1771 -0.5088 -0.8669
 6946TIP3   OH220778   3.816   7.578   3.490  0.1108  0.1332  0.7110
 6946TIP3    H120779   3.757   7.513   3.450  2.2998 -1.7475  0.4210
 6946TIP3    H220780   3.828   7.547   3.580  0.1104  0.9049  0.9810
 6947TIP3   OH220781   6.847   2.423   5.101 -0.3599  0.4210  0.7746
 6947TIP3    H120782   6.871   2.507   5.140 -2.4170  1.3405  0.1064
 6947TIP3    H220783   6.779   2.389   5.158  1.1134 -1.2599  1.5665
 6948TIP3   OH220784   8.420   7.078   6.879  0.1219  0.6898  0.1104
 6948TIP3    H120785   8.362   7.025   6.823 -0.1526  1.2120 -0.1074
 6948TIP3    H220786   8.428   7.028   6.960 -0.9640  0.7939  0.2969
 6949TIP3   OH220787   8.585   4.671   2.834 -0.0387  0.0143 -0.6746
 6949TIP3    H120788   8.614   4.738   2.772 -0.2857 -0.3837 -1.2292
 6949TIP3    H220789   8.522   4.716   2.890 -0.5768  0.1282 -1.3556
 6950TIP3   OH220790   4.286   1.987   4.508  0.0772 -0.4489 -0.1617
 6950TIP3    H120791   4.306   1.905   4.462  3.3966  0.8836 -1.1867
 6950TIP3    H220792   4.327   1.977   4.593 -1.2636 -0.6300  0.4794
 6951TIP3   OH220793   4.238   4.726   5.733 -0.2683 -0.2911  0.1077
 6951TIP3    H120794   4.254   4.759   5.822  1.4653 -1.8931  0.4297
 6951TIP3    H220795   4.211   4.635   5.745 -0.3797 -0.4116 -0.9847
 6952TIP3   OH220796   7.495   2.269   5.236  0.2348 -0.2778  0.0738
 6952TIP3    H120797   7.403   2.251   5.256 -0.0963  1.0381 -0.2315
 6952TIP3    H220798   7.493   2.317   5.153  1.1789 -0.0557  0.1734
 6953TIP3   OH220799   5.963   3.020   3.562  0.2640 -0.0718 -0.6994
 6953TIP3    H120800   5.956   2.963   3.639 -1.2792 -0.8299 -1.3767
 6953TIP3    H220801   5.941   3.107   3.595 -3.3411 -0.8523 -0.8129
 6954TIP3   OH220802   7.923   4.760   1.337  0.0464 -0.0438  0.3863
 6954TIP3    H120803   7.853   4.770   1.402  0.8973 -0.8010  1.4159
 6954TIP3    H220804   7.997   4.808   1.373  0.6977 -0.9172  0.2242
 6955TIP3   OH220805   6.256   2.470   4.510  0.2565  0.2623  0.2789
 6955TIP3    H120806   6.241   2.388   4.463  0.7514 -0.1774  0.8821
 6955TIP3    H220807   6.205   2.535   4.462  1.7837  0.0743 -1.6267
 6956TIP3   OH220808   8.506   2.411   4.237 -0.2463  0.1136 -0.5924
 6956TIP3    H120809   8.568   2.461   4.185  0.2719  1.3612  1.1812
 6956TIP3    H220810   8.421   2.449   4.216 -0.0318  0.6555 -0.4857
 6957TIP3   OH220811   6.265   4.663   4.421  0.4400 -0.3813  0.4157
 6957TIP3    H120812   6.220   4.598   4.367 -0.8994  0.7088  0.1991
 6957TIP3    H220813   6.358   4.644   4.408  0.1028 -1.1803 -0.9680
 6958TIP3   OH220814   5.862   3.150   5.618 -0.6349  0.5847  0.2055
 6958TIP3    H120815   5.904   3.237   5.615  1.3290 -0.2938  0.9022
 6958TIP3    H220816   5.863   3.127   5.711 -0.1036 -0.6451 -0.0911
 6959TIP3   OH220817   7.679   4.314   5.213  0.1360 -0.7182 -0.3266
 6959TIP3    H120818   7.662   4.238   5.158  1.5237 -1.0677 -0.2808
 6959TIP3    H220819   7.772   4.310   5.232  0.0488  0.4982  0.4230
 6960TIP3   OH220820   6.944   3.781   3.635  0.2752 -0.5821  0.2077
 6960TIP3    H120821   6.932   3.741   3.722  0.1045 -0.5822  0.1831
 6960TIP3    H220822   6.993   3.861   3.653 -0.7833  0.0206  0.4332
 6961TIP3   OH220823   7.056   1.039   3.884  0.6330 -0.3079 -0.6972
 6961TIP3    H120824   7.049   1.131   3.857 -1.9244 -0.2310  0.0860
 6961TIP3    H220825   7.043   1.041   3.979  1.8362 -1.3650 -0.5020
 6962TIP3   OH220826   6.212   3.140   2.875  0.0032  0.5756  0.4880
 6962TIP3    H120827   6.299   3.168   2.902  0.3085  2.4928 -2.2908
 6962TIP3    H220828   6.174   3.217   2.832 -1.7855 -1.2430 -1.2792
 6963TIP3   OH220829   4.478   4.277   2.651 -0.1229  0.1351 -0.3587
 6963TIP3    H120830   4.389   4.304   2.674 -0.6248 -0.3892 -1.6378
 6963TIP3    H220831   4.516   4.352   2.607 -0.5660 -0.2641 -1.4369
 6964TIP3   OH220832   7.163   3.790   3.072 -0.5824  0.2132 -1.0763
 6964TIP3    H120833   7.132   3.742   2.995 -1.7012 -0.3606 -0.2920
 6964TIP3    H220834   7.215   3.726   3.121 -1.3157  0.0511 -0.4915
 6965TIP3   OH220835   4.837   4.130   4.243  0.7931 -0.0421  0.1647
 6965TIP3    H120836   4.820   4.223   4.228 -1.9937 -0.3547  1.0096
 6965TIP3    H220837   4.831   4.090   4.156 -1.2748  0.1519  0.1755
 6966TIP3   OH220838   7.254   1.770   3.908  0.7079  0.1036  0.3492
 6966TIP3    H120839   7.274   1.855   3.947  0.4419 -0.5256  1.9153
 6966TIP3    H220840   7.200   1.790   3.832 -0.4292  1.2826  1.4318
 6967TIP3   OH220841   6.346   1.228   4.753 -0.3288  0.5540 -0.2180
 6967TIP3    H120842   6.414   1.294   4.771 -0.3302  0.6105 -0.4128
 6967TIP3    H220843   6.382   1.146   4.786 -1.1667  1.0153  1.8599
 6968TIP3   OH220844   6.377   4.373   3.206 -0.1975  0.0102 -0.0942
 6968TIP3    H120845   6.333   4.320   3.273 -0.4595  0.0818 -0.2070
 6968TIP3    H220846   6.453   4.410   3.251 -1.2150  1.3126  0.6287
 6969TIP3   OH220847   7.867   4.173   3.920 -0.4136 -0.0797  0.2523
 6969TIP3    H120848   7.810   4.211   3.986 -1.0873 -0.4222 -0.1318
 6969TIP3    H220849   7.930   4.243   3.900 -1.4782  0.7588 -0.2411
 6970TIP3   OH220850   8.077   4.829   3.833  0.3256  0.6025 -0.4185
 6970TIP3    H120851   8.132   4.811   3.757  1.0771 -0.7294  0.4203
 6970TIP3    H220852   7.995   4.783   3.814  1.1389 -1.2117  0.3355
 6971TIP3   OH220853   8.028   3.957   3.491 -0.3226  0.3174 -0.1860
 6971TIP3    H120854   8.011   4.034   3.546 -0.4963  0.4786 -0.4629
 6971TIP3    H220855   8.086   3.902   3.544 -1.4706 -0.1065  0.6604
 6972TIP3   OH220856   4.317   3.128   5.572 -0.2251 -0.3214 -0.3405
 6972TIP3    H120857   4.232   3.085   5.583  0.1318 -1.1277 -0.7118
 6972TIP3    H220858   4.362   3.077   5.505  0.3474  0.4188 -0.5330
 6973TIP3   OH220859   6.035   2.103   4.150  0.2864  0.0183  0.1700
 6973TIP3    H120860   6.000   2.183   4.111  2.1264  1.5593  1.5807
 6973TIP3    H220861   6.092   2.067   4.082 -1.7713 -1.0076 -1.0733
 6974TIP3   OH220862   6.516   2.242   3.181  0.0240  0.1718  0.4672
 6974TIP3    H120863   6.553   2.190   3.252  0.8076 -1.2723 -0.9790
 6974TIP3    H220864   6.591   2.290   3.145 -0.2189  0.2242  0.0275
 6975TIP3   OH220865   5.791   2.164   2.826  0.2267 -0.5865 -1.1140
 6975TIP3    H120866   5.755   2.193   2.910 -0.2195 -0.8554 -1.2085
 6975TIP3    H220867   5.745   2.082   2.808  0.2631 -0.4878 -1.6594
 6976TIP3   OH220868   6.308   3.960   3.247 -0.4342  0.3275 -0.2786
 6976TIP3    H120869   6.353   3.899   3.305 -0.8340 -0.1915 -0.5109
 6976TIP3    H220870   6.224   3.917   3.229  0.3010 -0.2216 -2.4818
 6977TIP3   OH220871   6.604   1.313   5.665  0.2898  0.0197 -0.1220
 6977TIP3    H120872   6.622   1.393   5.615  0.9849 -0.2934 -0.3909
 6977TIP3    H220873   6.539   1.266   5.612  1.7820 -0.7975 -1.2832
 6978TIP3   OH220874   5.630   0.455   3.076  0.3509  0.3449 -0.2161
 6978TIP3    H120875   5.629   0.381   3.137 -0.8189 -0.3536 -1.0527
 6978TIP3    H220876   5.595   0.528   3.126 -0.0916 -0.0914  0.1172
 6979TIP3   OH220877   5.461   3.592   4.022 -0.3494  0.8005 -0.0590
 6979TIP3    H120878   5.504   3.678   4.022 -2.3032  1.8227 -0.1461
 6979TIP3    H220879   5.515   3.538   3.966  0.6453  2.1436 -0.4198
 6980TIP3   OH220880   2.559   7.824   5.206 -0.0821 -0.0204  0.3814
 6980TIP3    H120881   2.475   7.814   5.162 -0.6267  1.2468  1.0910
 6980TIP3    H220882   2.540   7.809   5.299  0.0220  2.3136  0.8232
 6981TIP3   OH220883   4.919   1.205   3.849 -0.3418 -0.4668 -0.2260
 6981TIP3    H120884   4.954   1.127   3.805  0.2622 -1.3613  1.7330
 6981TIP3    H220885   4.935   1.277   3.789  0.2896 -1.6692 -1.5183
 6982TIP3   OH220886   8.385   2.123   3.524 -0.0960 -0.7740  0.2883
 6982TIP3    H120887   8.335   2.128   3.443  0.3588 -0.1306  0.0411
 6982TIP3    H220888   8.320   2.135   3.594 -0.6200 -2.1996  0.0594
 6983TIP3   OH220889   5.726   1.500   6.142  0.1345  0.1636  0.0396
 6983TIP3    H120890   5.641   1.530   6.173  1.0297  1.7022  1.1119
 6983TIP3    H220891   5.746   1.423   6.196 -0.3414  0.1118  0.1404
 6984TIP3   OH220892   7.730   1.184   5.173  0.3562 -0.0441  0.5951
 6984TIP3    H120893   7.788   1.135   5.231  1.8510 -0.8761 -1.5330
 6984TIP3    H220894   7.667   1.225   5.231  0.4030 -2.7063  2.6178
 6985TIP3   OH220895   8.362   3.001   5.192 -0.4335  0.2614 -0.2001
 6985TIP3    H120896   8.391   2.918   5.229 -1.4463 -0.6256 -1.3741
 6985TIP3    H220897   8.271   2.986   5.166 -0.7207  1.8195 -0.1860
 6986TIP3   OH220898   5.491   3.964   3.478  0.3289 -0.1869 -0.3091
 6986TIP3    H120899   5.527   3.901   3.417 -1.8529 -0.4552 -1.3799
 6986TIP3    H220900   5.461   3.911   3.552  0.8761 -0.1193 -0.0402
 6987TIP3   OH220901   5.406   2.816   3.156  0.4076  0.3112 -0.1048
 6987TIP3    H120902   5.441   2.782   3.073 -1.0935  0.7364 -0.9359
 6987TIP3    H220903   5.378   2.905   3.135 -0.7063  0.1474  0.6602
 6988TIP3   OH220904   4.476   1.109   6.124  0.1095  0.1592 -0.4226
 6988TIP3    H120905   4.389   1.137   6.097 -0.0368  0.1034 -0.0020
 6988TIP3    H220906   4.461   1.045   6.193  0.4640 -0.4439 -0.9023
 6989TIP3   OH220907   7.197   2.172   6.516  0.2621 -0.4002 -0.7880
 6989TIP3    H120908   7.194   2.080   6.490  0.1145 -0.3159 -1.0661
 6989TIP3    H220909   7.147   2.218   6.448  1.2448  0.0132 -1.2466
 6990TIP3   OH220910   5.520   1.496   4.040 -0.4588 -0.0096  0.4605
 6990TIP3    H120911   5.534   1.591   4.039  0.6123 -0.1657  0.3321
 6990TIP3    H220912   5.568   1.464   3.964 -0.7918 -0.6562  0.5247
 6991TIP3   OH220913   4.716   3.777   3.861 -0.8972  0.2388  0.2729
 6991TIP3    H120914   4.630   3.737   3.850 -1.1763  0.8088  0.3828
 6991TIP3    H220915   4.720   3.846   3.795 -0.2832 -0.1849 -0.1404
 6992TIP3   OH220916   4.927   4.096   4.949 -0.4387 -0.0464  0.0450
 6992TIP3    H120917   4.943   4.152   5.025  0.4285  1.2331 -1.0421
 6992TIP3    H220918   4.978   4.017   4.966  0.6748  0.7088  0.2756
 6993TIP3   OH220919   3.341   3.096   5.232  0.1038 -0.5653  0.1186
 6993TIP3    H120920   3.359   3.021   5.288 -1.5952 -0.2831  1.0583
 6993TIP3    H220921   3.250   3.118   5.249  0.0099  0.4899 -1.6162
 6994TIP3   OH220922   5.766   3.246   3.286  0.3551 -0.0688  0.4666
 6994TIP3    H120923   5.756   3.322   3.343 -0.2575 -0.3841  0.7815
 6994TIP3    H220924   5.860   3.229   3.286  0.3822  0.0488  1.2292
 6995TIP3   OH220925   6.871   1.450   4.971 -0.4671  0.0127  0.0725
 6995TIP3    H120926   6.871   1.356   4.958 -1.9094 -0.0023  0.0727
 6995TIP3    H220927   6.791   1.468   5.021 -0.5540  1.2968 -0.4874
 6996TIP3   OH220928   5.614   3.175   3.015 -0.0505  0.0477 -0.0750
 6996TIP3    H120929   5.640   3.151   3.103  1.0801 -1.7231 -0.8598
 6996TIP3    H220930   5.696   3.200   2.971 -0.5694  0.7242 -0.6891
 6997TIP3   OH220931   4.260   5.858   6.199 -0.6708 -0.3902  0.1726
 6997TIP3    H120932   4.276   5.823   6.112  0.8018 -1.5215  0.8683
 6997TIP3    H220933   4.257   5.953   6.187 -0.8373 -0.5566 -1.1517
 6998TIP3   OH220934   7.290   3.697   1.573 -0.1474 -0.4882 -0.1831
 6998TIP3    H120935   7.379   3.725   1.593  0.3608 -0.3942 -2.4172
 6998TIP3    H220936   7.247   3.690   1.658  0.8387  3.2084  0.6938
 6999TIP3   OH220937   6.571   3.313   6.377  0.1724  0.3553 -0.1397
 6999TIP3    H120938   6.481   3.306   6.408 -0.1368  1.5610 -0.7025
 6999TIP3    H220939   6.582   3.239   6.317 -0.3662  0.0566  0.1340
 7000TIP3   OH220940   0.058   4.612   3.931 -0.1282  0.2592 -0.1303
 7000TIP3    H120941   0.142   4.656   3.916  0.9086 -1.8405 -0.6478
 7000TIP3    H220942   0.072   4.561   4.011 -1.6105  1.5609  0.9833
 7001TIP3   OH220943   7.149   2.240   5.150 -0.2925  0.1848  0.3878
 7001TIP3    H120944   7.199   2.175   5.100 -0.4969 -0.0498  0.4874
 7001TIP3    H220945   7.152   2.319   5.096  0.6466  0.3313  0.6553
 7002TIP3   OH220946   5.098   4.203   5.264 -0.3670  0.2533 -0.1043
 7002TIP3    H120947   5.015   4.229   5.223 -1.1740 -1.3678  0.4747
 7002TIP3    H220948   5.165   4.230   5.200 -1.2755  2.0117 -0.3591
 7003TIP3   OH220949   5.609   2.310   3.688  0.0648  0.5775 -0.5136
 7003TIP3    H120950   5.585   2.346   3.774 -2.1143 -1.4538 -0.2046
 7003TIP3    H220951   5.672   2.241   3.707  0.1705  0.6525 -0.5976
 7004TIP3   OH220952   6.791   1.468   5.493 -0.2434 -0.5957 -0.2047
 7004TIP3    H120953   6.824   1.547   5.451 -2.2398  1.9363  2.7075
 7004TIP3    H220954   6.734   1.427   5.428  0.8203  0.3428 -1.7508
 7005TIP3   OH220955   5.391   0.741   4.286  0.1716 -0.0699  0.7816
 7005TIP3    H120956   5.346   0.819   4.319  0.2455 -0.1873  1.1616
 7005TIP3    H220957   5.408   0.761   4.194  1.1303  0.7991  1.1326
 7006TIP3   OH220958   7.637   3.555   3.963 -0.0797  0.0801 -0.7625
 7006TIP3    H120959   7.556   3.508   3.981 -0.3342  0.7589 -0.1531
 7006TIP3    H220960   7.700   3.486   3.939 -0.9352 -0.4065 -1.6264
 7007TIP3   OH220961   7.663   2.361   3.100  0.4519  0.1477 -0.1565
 7007TIP3    H120962   7.700   2.419   3.166  1.0019 -3.4742  2.9306
 7007TIP3    H220963   7.568   2.367   3.113  0.3262  2.6340 -1.9755
 7008TIP3   OH220964   6.423   2.392   6.615  0.1151 -0.2741  0.7477
 7008TIP3    H120965   6.352   2.423   6.559  0.8639  0.6625  0.3180
 7008TIP3    H220966   6.379   2.358   6.693 -0.8787 -0.8779 -0.0668
 7009TIP3   OH220967   5.925   1.103   3.375  0.5657  0.3359  0.2804
 7009TIP3    H120968   5.967   1.166   3.434  2.5289  0.9668 -1.7325
 7009TIP3    H220969   5.965   1.019   3.397  1.8739  0.7022 -0.6766
 7010TIP3   OH220970   6.360   3.331   4.786  0.1821  0.5531 -0.6424
 7010TIP3    H120971   6.368   3.362   4.876  1.7909  0.2605 -0.6762
 7010TIP3    H220972   6.419   3.386   4.735  0.2232 -0.0888 -1.3086
 7011TIP3   OH220973   6.845   2.797   6.021 -0.2648 -0.3424 -0.2351
 7011TIP3    H120974   6.789   2.765   5.951  0.0246 -2.2121  0.3588
 7011TIP3    H220975   6.912   2.729   6.030  0.6554  0.6813  0.7362
 7012TIP3   OH220976   6.465   1.864   5.816 -0.6255  0.1516  0.0835
 7012TIP3    H120977   6.532   1.833   5.878 -1.1698  1.8741  1.6019
 7012TIP3    H220978   6.508   1.936   5.769 -0.6227 -0.3406 -0.6682
 7013TIP3   OH220979   0.912   3.948   0.232  0.2153  0.1601  0.4945
 7013TIP3    H120980   0.931   3.860   0.265 -0.9621 -0.6564 -0.9478
 7013TIP3    H220981   0.923   3.941   0.137  0.0893  1.5680  0.3642
 7014TIP3   OH220982   6.776   0.307   4.221  0.2773  0.2845  0.0435
 7014TIP3    H120983   6.783   0.217   4.254 -2.6988  0.2703  0.7589
 7014TIP3    H220984   6.762   0.297   4.127  0.9209  0.0516 -0.0314
 7015TIP3   OH220985   6.785   2.711   5.599 -0.3974  0.1700 -0.0074
 7015TIP3    H120986   6.805   2.690   5.691 -0.5156 -0.6577 -0.1676
 7015TIP3    H220987   6.697   2.677   5.585  0.8281 -2.5895 -1.3223
 7016TIP3   OH220988   4.558   7.942   6.060  0.0448 -0.2786 -0.3379
 7016TIP3    H120989   4.509   7.861   6.065  0.5147 -0.5277  0.2481
 7016TIP3    H220990   4.590   7.957   6.149  1.2641 -0.2733 -0.7656
 7017TIP3   OH220991   7.818   2.387   5.517  0.7898 -0.4005  0.5808
 7017TIP3    H120992   7.797   2.312   5.573 -0.7824  0.2456  0.8824
 7017TIP3    H220993   7.810   2.463   5.575  0.4838  0.1532 -0.1845
 7018TIP3   OH220994   8.424   5.352   0.172 -0.1095  0.0773  0.0050
 7018TIP3    H120995   8.347   5.377   0.121 -0.9669  0.8137  1.6364
 7018TIP3    H220996   8.391   5.286   0.234  0.4584  0.7743  1.0553
 7019TIP3   OH220997   5.870   0.796   5.122 -0.2321 -0.0288  0.6523
 7019TIP3    H120998   5.932   0.855   5.164  0.0174 -0.1790  0.4896
 7019TIP3    H220999   5.790   0.806   5.174 -0.7932  1.9189 -0.5343
 7020TIP3   OH221000   6.704   2.441   6.680  0.7309  0.2756  0.1326
 7020TIP3    H121001   6.614   2.436   6.646 -0.8708  1.3207  3.9178
 7020TIP3    H221002   6.731   2.531   6.662  0.7845  0.1597 -0.3888
 7021TIP3   OH221003   6.715   3.636   3.572  0.2739  0.3030  0.1563
 7021TIP3    H121004   6.782   3.704   3.581  1.5281 -1.0685  1.6126
 7021TIP3    H221005   6.700   3.607   3.662 -3.2084  1.4299 -0.0073
 7022TIP3   OH221006   4.914   2.358   2.206 -0.1604  0.2869  0.6199
 7022TIP3    H121007   4.971   2.414   2.259 -0.7693 -0.3358  1.9557
 7022TIP3    H221008   4.963   2.276   2.196 -1.0043 -0.4410  2.2123
 7023TIP3   OH221009   4.876   3.004   3.011  0.1635  0.5550 -0.5693
 7023TIP3    H121010   4.946   3.018   3.075 -0.0329  2.3536 -0.7335
 7023TIP3    H221011   4.796   3.006   3.064  0.0501  1.3375 -0.7660
 7024TIP3   OH221012   6.546   4.981   4.804  0.0441 -0.1414 -0.2832
 7024TIP3    H121013   6.472   5.038   4.783 -0.1029 -0.0517  0.4813
 7024TIP3    H221014   6.598   5.031   4.867  1.7434  0.5638 -2.1924
 7025TIP3   OH221015   7.288   2.505   3.716 -0.2188  0.9936  0.3820
 7025TIP3    H121016   7.237   2.425   3.732  1.7592 -0.4651 -0.3682
 7025TIP3    H221017   7.320   2.531   3.802  0.1912  0.2413  0.4611
 7026TIP3   OH221018   5.809   2.206   4.538 -0.0701  0.1177 -0.0945
 7026TIP3    H121019   5.861   2.139   4.582  0.5200  0.3323 -0.4660
 7026TIP3    H221020   5.721   2.168   4.532 -0.1798  0.1073  1.3299
 7027TIP3   OH221021   8.232   3.414   5.000  0.0867  0.0598 -0.3307
 7027TIP3    H121022   8.240   3.347   5.068 -1.8076  1.2823  1.1465
 7027TIP3    H221023   8.319   3.418   4.960  0.7774 -1.8400  0.9173
 7028TIP3   OH221024   3.568   2.641   1.362 -0.7362  0.5242  0.1497
 7028TIP3    H121025   3.585   2.675   1.450 -0.1435 -1.0265  0.6489
 7028TIP3    H221026   3.532   2.716   1.315 -1.0307  1.3909  1.6945
 7029TIP3   OH221027  -0.001   3.622   3.886 -0.1074 -0.0675 -0.1368
 7029TIP3    H121028  -0.056   3.668   3.950 -0.5089 -0.6820 -0.0262
 7029TIP3    H221029   0.088   3.638   3.916 -0.2796 -0.0760  0.3989
 7030TIP3   OH221030   7.697   2.442   5.273 -0.1411 -0.6062  0.1846
 7030TIP3    H121031   7.624   2.386   5.299  0.0590 -0.9251  0.0676
 7030TIP3    H221032   7.758   2.438   5.348 -0.3099 -0.2218  0.3446
 7031TIP3   OH221033   0.792   4.575   4.663  0.0739  0.2893  0.5399
 7031TIP3    H121034   0.798   4.611   4.752  0.5278  0.2873  0.5117
 7031TIP3    H221035   0.882   4.574   4.632 -0.0455 -0.0392  0.2069
 7032TIP3   OH221036   6.040   3.847   3.165 -0.1243  0.3318  0.0067
 7032TIP3    H121037   5.969   3.893   3.209  0.1382 -0.6018  1.4583
 7032TIP3    H221038   6.027   3.865   3.072 -1.4839  1.2411  0.3601
 7033TIP3   OH221039   7.162   2.280   3.299  0.0873 -0.5347 -0.4172
 7033TIP3    H121040   7.208   2.357   3.331  0.5473 -0.8479 -0.3206
 7033TIP3    H221041   7.071   2.308   3.290  0.5511  0.4983 -2.0150
 7034TIP3   OH221042   5.428   1.722   4.235 -0.2388  0.3570 -0.6428
 7034TIP3    H121043   5.421   1.703   4.329  1.7520  1.1063 -0.3240
 7034TIP3    H221044   5.338   1.718   4.203 -1.0472  0.9440  1.4731
 7035TIP3   OH221045   6.510   1.113   3.936  0.4537  0.2618 -0.1410
 7035TIP3    H121046   6.469   1.078   4.015  2.2969 -2.1212 -0.2000
 7035TIP3    H221047   6.550   1.196   3.964 -0.6912  0.4766  0.9087
 7036TIP3   OH221048   7.657   4.387   2.295 -0.7535 -0.0337 -0.1048
 7036TIP3    H121049   7.711   4.327   2.346 -1.1278 -0.2553  0.0404
 7036TIP3    H221050   7.578   4.399   2.349 -0.8540  0.2673 -0.3178
 7037TIP3   OH221051   0.180   3.651   4.536 -0.7054 -0.1531  0.0784
 7037TIP3    H121052   0.155   3.735   4.498  0.5528 -0.6118 -1.8542
 7037TIP3    H221053   0.152   3.586   4.471  1.4025 -0.9636 -0.0553
 7038TIP3   OH221054   6.127   2.027   3.573  0.1317 -0.7328 -0.5660
 7038TIP3    H121055   6.038   1.996   3.588 -0.1318 -0.7353 -2.0404
 7038TIP3    H221056   6.177   1.993   3.647 -1.0774 -0.7727  0.2465
 7039TIP3   OH221057   5.688   1.826   4.257  0.1305 -0.3497 -0.0104
 7039TIP3    H121058   5.647   1.825   4.171  0.1505  1.1556 -0.0665
 7039TIP3    H221059   5.678   1.737   4.291 -0.3260 -0.8153 -1.3506
 7040TIP3   OH221060   7.561   1.495   4.235 -0.4540 -0.5567  0.3004
 7040TIP3    H121061   7.487   1.486   4.294 -0.1550  0.4351  0.8359
 7040TIP3    H221062   7.618   1.559   4.277 -0.9573  1.2879 -1.7784
 7041TIP3   OH221063   6.583   2.066   5.666  0.1366 -0.3892  0.6269
 7041TIP3    H121064   6.551   2.142   5.715  0.8409  0.4419 -0.1784
 7041TIP3    H221065   6.547   2.077   5.579 -0.9458 -1.7631  0.8958
 7042TIP3   OH221066   6.497   2.027   5.390 -0.0222  0.1324 -0.3567
 7042TIP3    H121067   6.468   1.942   5.357 -1.0948  1.0285 -1.7696
 7042TIP3    H221068   6.593   2.025   5.383 -0.0250 -1.0845 -0.0528
 7043TIP3   OH221069   6.913   2.940   4.288 -0.0984  0.2806 -0.6511
 7043TIP3    H121070   6.911   2.860   4.235  0.0340  0.2805 -0.6560
 7043TIP3    H221071   6.982   2.924   4.352 -0.5532  0.1043 -0.2011
 7044TIP3   OH221072   5.289   1.387   5.098  0.2791  0.2683  0.4930
 7044TIP3    H121073   5.311   1.299   5.126  2.3272  0.7323  0.4008
 7044TIP3    H221074   5.265   1.377   5.006  1.5166 -0.0631  0.1933
 7045TIP3   OH221075   4.175   2.484   2.126 -0.2776 -0.3670  0.5362
 7045TIP3    H121076   4.179   2.424   2.201 -1.3517 -0.8503  0.2246
 7045TIP3    H221077   4.146   2.567   2.164  0.6346 -0.1961  0.8785
 7046TIP3   OH221078   5.686   1.376   5.300 -0.1071  0.0228  0.1409
 7046TIP3    H121079   5.691   1.280   5.293 -0.0758  0.0939 -0.9217
 7046TIP3    H221080   5.630   1.391   5.376  0.7066 -0.8309  0.9337
 7047TIP3   OH221081   0.077   4.541   5.134 -0.8570 -0.1621 -0.7060
 7047TIP3    H121082   0.032   4.618   5.167 -0.5452  0.4686 -1.7424
 7047TIP3    H221083   0.168   4.567   5.126 -0.5632 -0.9702 -0.0404
 7048TIP3   OH221084   0.549   2.495   3.536  0.2998 -0.2170 -0.3579
 7048TIP3    H121085   0.577   2.534   3.453 -0.6613 -0.2350 -0.6998
 7048TIP3    H221086   0.461   2.462   3.519 -1.4869  3.1895  1.6928
 7049TIP3   OH221087   6.772   7.394   0.149  0.5640  0.4986  0.2385
 7049TIP3    H121088   6.801   7.444   0.073 -2.0035  1.9505  0.1372
 7049TIP3    H221089   6.762   7.304   0.117  1.1480  0.7545 -0.6813
 7050TIP3   OH221090   6.786   2.951   3.021  0.2520 -0.6742 -0.2021
 7050TIP3    H121091   6.701   2.941   2.978 -0.8778 -0.2289  1.8408
 7050TIP3    H221092   6.796   3.046   3.032  0.0688 -0.8157  1.3241
 7051TIP3   OH221093   6.283   1.638   5.411 -0.2202 -0.2986  0.5297
 7051TIP3    H121094   6.346   1.698   5.370 -1.9524  0.2278 -1.4487
 7051TIP3    H221095   6.281   1.665   5.503  1.9346  0.0855  0.5060
 7052TIP3   OH221096   5.581   3.415   4.641 -0.3215  0.3272 -0.6687
 7052TIP3    H121097   5.542   3.482   4.697 -0.6374  0.9579 -1.6327
 7052TIP3    H221098   5.528   3.416   4.562  0.1485 -0.5275 -0.9994
 7053TIP3   OH221099   7.219   4.370   4.407  0.0047 -0.7906  0.1554
 7053TIP3    H121100   7.125   4.363   4.389  0.5553 -2.0831 -2.5085
 7053TIP3    H221101   7.240   4.461   4.390 -0.5876 -0.7394 -0.3356
 7054TIP3   OH221102   6.385   4.268   6.915  0.3103  0.5968  0.3884
 7054TIP3    H121103   6.441   4.221   6.853  0.3982  0.1566  0.7924
 7054TIP3    H221104   6.362   4.350   6.871 -0.0590  0.0573 -0.4380
 7055TIP3   OH221105   7.604   4.327   2.992 -0.0688 -0.5326  0.5243
 7055TIP3    H121106   7.617   4.360   2.903  2.2122  0.5389  1.2347
 7055TIP3    H221107   7.519   4.363   3.017  0.1778  0.8248 -0.4936
 7056TIP3   OH221108   7.708   2.121   5.915  0.2053 -0.4953  0.0699
 7056TIP3    H121109   7.713   2.044   5.971  0.6420 -0.2282  0.4043
 7056TIP3    H221110   7.621   2.158   5.931 -0.6838 -1.8966 -1.4034
 7057TIP3   OH221111   7.376   2.630   4.979  0.3639 -0.4057  0.2032
 7057TIP3    H121112   7.362   2.662   5.068 -0.0691 -0.4670  0.1608
 7057TIP3    H221113   7.422   2.701   4.934  1.9112 -0.9576  0.8831
 7058TIP3   OH221114   8.290   3.930   6.146  0.2709 -0.1465 -0.3363
 7058TIP3    H121115   8.342   3.937   6.066  0.9970  1.4114  0.2688
 7058TIP3    H221116   8.220   3.868   6.123 -0.4433  1.4543 -2.6699
 7059TIP3   OH221117   6.107   2.619   5.960  0.1610 -0.7857 -0.7499
 7059TIP3    H121118   6.057   2.695   5.932 -1.4043 -1.0483  1.2014
 7059TIP3    H221119   6.062   2.544   5.921  0.3113 -0.8686 -0.7651
 7060TIP3   OH221120   0.547   4.394   5.575 -0.0491 -0.4115 -0.5619
 7060TIP3    H121121   0.559   4.461   5.642  0.2187 -0.3600 -0.6617
 7060TIP3    H221122   0.613   4.327   5.596 -0.4727 -0.7552 -0.3204
 7061TIP3   OH221123   7.259   0.736   6.593  0.6448 -0.0416 -0.3898
 7061TIP3    H121124   7.200   0.676   6.638  0.5606  0.1296 -0.2709
 7061TIP3    H221125   7.347   0.706   6.616  0.6021 -0.0296 -0.2127
 7062TIP3   OH221126   5.526   2.936   4.487 -0.4532 -0.0271  0.3228
 7062TIP3    H121127   5.440   2.946   4.528 -0.6129  0.3756 -0.0939
 7062TIP3    H221128   5.581   3.002   4.529 -0.2730 -0.4677  0.7806
 7063TIP3   OH221129   5.354   1.177   4.554  0.1416 -0.4492 -0.9436
 7063TIP3    H121130   5.326   1.257   4.509  2.6851  1.0498 -0.0027
 7063TIP3    H221131   5.322   1.187   4.643  1.2868  0.0319 -0.5659
 7064TIP3   OH221132   7.600   3.386   3.368  0.1027 -0.1646  0.3428
 7064TIP3    H121133   7.636   3.368   3.281  1.8660 -0.3329  1.0862
 7064TIP3    H221134   7.506   3.402   3.352 -0.1895 -3.1243 -1.2006
 7065TIP3   OH221135   6.321   0.875   3.333  0.4529  0.0456  0.2417
 7065TIP3    H121136   6.378   0.858   3.408  0.8235 -1.4941 -0.3604
 7065TIP3    H221137   6.238   0.832   3.355  0.6989 -0.7746 -0.3946
 7066TIP3   OH221138   6.354   1.719   4.468  0.1573 -0.5968 -0.0107
 7066TIP3    H121139   6.435   1.691   4.511  0.5597  1.3058  0.5273
 7066TIP3    H221140   6.366   1.695   4.376  1.0236 -0.9953  0.1981
 7067TIP3   OH221141   6.529   1.008   1.248  0.2110 -0.2628 -0.2113
 7067TIP3    H121142   6.559   1.095   1.219 -0.4468  0.2039  0.5081
 7067TIP3    H221143   6.436   1.019   1.265  0.2202 -1.0025  0.3271
 7068TIP3   OH221144   7.055   0.751   4.170  0.2615 -0.0234 -0.5288
 7068TIP3    H121145   7.078   0.710   4.087 -0.7201 -0.3537 -0.6412
 7068TIP3    H221146   6.998   0.688   4.214  1.3394 -0.1562  0.7130
 7069TIP3   OH221147   5.202   2.506   4.362  0.3283  0.6534 -0.1278
 7069TIP3    H121148   5.170   2.416   4.359 -0.6474  0.9712  0.4827
 7069TIP3    H221149   5.282   2.501   4.414 -0.4671  0.3440  1.0943
 7070TIP3   OH221150   6.859   2.036   3.676  0.5549 -0.1085 -0.5335
 7070TIP3    H121151   6.886   2.125   3.701 -0.0875 -1.0906  4.1649
 7070TIP3    H221152   6.811   2.048   3.594  2.3069  3.5927 -1.1328
 7071TIP3   OH221153   5.562   0.916   2.191 -0.0821  0.2745 -0.5011
 7071TIP3    H121154   5.590   0.916   2.100  1.0362 -0.3681 -0.1659
 7071TIP3    H221155   5.625   0.860   2.236 -1.1629 -0.1554  0.5043
 7072TIP3   OH221156   7.309   2.995   4.561 -0.1727 -0.2880 -0.1693
 7072TIP3    H121157   7.329   3.026   4.473  1.3962  0.2451  0.3521
 7072TIP3    H221158   7.278   3.073   4.608 -0.3736 -0.4272 -0.0676
 7073TIP3   OH221159   6.096   4.531   5.509 -0.2298  0.0473 -0.3978
 7073TIP3    H121160   6.095   4.552   5.602 -0.1232  0.6257 -0.5233
 7073TIP3    H221161   6.167   4.584   5.473 -0.1915 -0.2637 -0.7819
 7074TIP3   OH221162   4.256   2.323   4.085  0.4103 -0.1009  0.0911
 7074TIP3    H121163   4.248   2.229   4.100  1.0033 -0.1164  0.3577
 7074TIP3    H221164   4.303   2.330   4.002 -1.2449 -0.0250 -0.8468
 7075TIP3   OH221165   8.067   0.456   4.350 -0.1771  0.1576 -0.4020
 7075TIP3    H121166   8.097   0.440   4.261  0.8635 -1.5333  0.2148
 7075TIP3    H221167   7.973   0.473   4.341  0.4785  3.0961 -2.1079
 7076TIP3   OH221168   6.234   3.700   4.544 -0.0544  0.5818  0.4343
 7076TIP3    H121169   6.277   3.785   4.543  0.4830  0.3102  0.2954
 7076TIP3    H221170   6.165   3.707   4.478  0.9786  0.4026 -0.6946
 7077TIP3   OH221171   6.889   3.194   4.138 -1.1094 -1.0151  0.1620
 7077TIP3    H121172   6.930   3.127   4.191  0.4311 -0.9715 -0.9444
 7077TIP3    H221173   6.899   3.275   4.188 -1.5897 -1.3482  0.7895
 7078TIP3   OH221174   6.624   1.683   4.568 -0.1689 -0.0295  0.1597
 7078TIP3    H121175   6.642   1.590   4.575  0.9071  0.2026  0.6572
 7078TIP3    H221176   6.678   1.712   4.494  1.5724  0.6793  1.6672
 7079TIP3   OH221177   7.030   2.011   4.399 -0.0522  0.7281 -0.2538
 7079TIP3    H121178   6.973   1.967   4.462  0.1931  1.1550  0.2748
 7079TIP3    H221179   7.118   2.004   4.438 -0.3013  3.6542  0.9764
 7080TIP3   OH221180   6.730   5.313   3.370  0.2511  0.0600  0.2165
 7080TIP3    H121181   6.654   5.297   3.315  0.7905  0.8769 -0.7695
 7080TIP3    H221182   6.695   5.314   3.460 -0.3751 -2.9873  0.0802
 7081TIP3   OH221183   6.484   4.163   5.862  0.4096  0.2181 -0.2090
 7081TIP3    H121184   6.531   4.123   5.935  0.3878  0.1292 -0.2444
 7081TIP3    H221185   6.419   4.220   5.903 -0.3004 -0.6247 -0.1458
 7082TIP3   OH221186   6.603   4.191   6.755 -0.1786  0.0920 -0.2953
 7082TIP3    H121187   6.585   4.100   6.779  0.2019  0.1497  0.2254
 7082TIP3    H221188   6.674   4.186   6.691 -0.4798 -0.0013 -0.6255
 7083TIP3   OH221189   7.972   4.379   4.320 -0.0124  0.2911 -0.0142
 7083TIP3    H121190   8.007   4.437   4.252  3.0075  1.0306  2.1142
 7083TIP3    H221191   7.923   4.437   4.378  0.3393  0.1868  0.3812
 7084TIP3   OH221192   8.393   3.674   3.315  0.2703 -0.3433  0.4969
 7084TIP3    H121193   8.488   3.662   3.311  0.4498  1.3460 -0.6068
 7084TIP3    H221194   8.375   3.702   3.404  1.0810  1.4679  0.1084
 7085TIP3   OH221195   7.678   2.713   5.192  0.5023 -0.0743  0.3213
 7085TIP3    H121196   7.706   2.622   5.197  2.4967  0.4624 -0.2397
 7085TIP3    H221197   7.585   2.710   5.170  0.2940 -1.9688  1.4473
 7086TIP3   OH221198   4.825   2.359   3.000  0.7758  0.7921  0.5435
 7086TIP3    H121199   4.748   2.304   2.985  1.1420  0.1309  1.0262
 7086TIP3    H221200   4.818   2.429   2.935  0.7958 -0.3667 -0.7308
 7087TIP3   OH221201   6.214   3.836   4.261 -0.7959  0.2178  0.2457
 7087TIP3    H121202   6.124   3.847   4.293 -1.4028 -0.5670 -1.1090
 7087TIP3    H221203   6.215   3.747   4.224  0.4960  0.2794  0.1128
 7088TIP3   OH221204   7.127   2.651   2.234 -0.3622  0.1398  0.5296
 7088TIP3    H121205   7.184   2.696   2.297 -0.6765  0.8682  0.3016
 7088TIP3    H221206   7.039   2.682   2.256 -0.6333 -0.6899  0.6358
 7089TIP3   OH221207   7.601   4.635   5.600 -0.2096 -0.5960  0.5552
 7089TIP3    H121208   7.596   4.723   5.561  0.8396 -0.5234  0.5803
 7089TIP3    H221209   7.581   4.649   5.693 -0.1477 -0.3987  0.5394
 7090TIP3   OH221210   6.652   0.520   5.139  0.2368  0.0034  0.0709
 7090TIP3    H121211   6.659   0.431   5.105  1.5021  0.2390 -0.3269
 7090TIP3    H221212   6.572   0.520   5.190 -0.9480 -0.7561 -1.7310
 7091TIP3   OH221213   6.656   3.901   4.623  0.0756 -0.4631  0.3004
 7091TIP3    H121214   6.649   3.855   4.707  1.7330 -0.1658  0.6247
 7091TIP3    H221215   6.720   3.970   4.640  0.4442 -0.4236 -1.2276
 7092TIP3   OH221216   8.471   3.181   2.759 -0.2286  0.3812  0.2912
 7092TIP3    H121217   8.539   3.135   2.808 -1.5100  0.0374  1.7935
 7092TIP3    H221218   8.415   3.220   2.826 -1.4568  0.7517 -0.9185
 7093TIP3   OH221219   8.074   2.187   4.199  0.8270  0.2521 -0.4071
 7093TIP3    H121220   8.088   2.094   4.181 -2.5747 -0.6188  0.8504
 7093TIP3    H221221   8.016   2.217   4.129 -0.6435  0.5521  0.8809
 7094TIP3   OH221222   7.357   4.612   4.398 -0.3614 -0.0010 -0.2632
 7094TIP3    H121223   7.434   4.569   4.434  0.2917  0.3583 -1.2191
 7094TIP3    H221224   7.362   4.702   4.432 -0.4003  0.0009 -0.2625
 7095TIP3   OH221225   8.141   3.572   3.305 -0.2927 -0.4671 -0.0410
 7095TIP3    H121226   8.233   3.583   3.329 -1.0220 -0.5410  2.9621
 7095TIP3    H221227   8.120   3.651   3.256  1.0438  0.1272  0.3153
 7096TIP3   OH221228   6.380   1.323   3.479  0.5304  0.4389 -0.1451
 7096TIP3    H121229   6.384   1.228   3.485  0.2843  0.5535  2.6807
 7096TIP3    H221230   6.304   1.341   3.424  0.3201 -0.9935 -0.3208
 7097TIP3   OH221231   5.672   2.568   3.007  0.6483 -0.5117 -0.1249
 7097TIP3    H121232   5.590   2.596   2.967 -0.3580 -2.1176  0.7185
 7097TIP3    H221233   5.645   2.500   3.069  2.3362  0.7310  2.0394
 7098TIP3   OH221234   5.399   3.442   4.444  0.1653  0.0393 -0.5274
 7098TIP3    H121235   5.324   3.499   4.458  0.9014  1.1739 -1.0921
 7098TIP3    H221236   5.361   3.360   4.411 -0.7576  0.9919 -1.9140
 7099TIP3   OH221237   8.523   1.424   3.747 -0.3114  0.0188 -0.1221
 7099TIP3    H121238   8.592   1.456   3.805 -0.0727 -1.2590  0.3166
 7099TIP3    H221239   8.443   1.430   3.800 -0.2797 -0.0335 -0.0671
 7100TIP3   OH221240   0.237   1.910   3.595 -0.1596 -0.9504 -0.4258
 7100TIP3    H121241   0.284   1.858   3.530 -1.5339  0.7154 -2.8544
 7100TIP3    H221242   0.290   1.989   3.604  0.1570 -1.2865  0.6826
 7101TIP3   OH221243   2.510   5.406   4.070  0.2672  0.1938 -0.4479
 7101TIP3    H121244   2.425   5.400   4.026 -1.1776  1.0219  2.1470
 7101TIP3    H221245   2.532   5.499   4.067  0.1237  0.2684  0.6061
 7102TIP3   OH221246   5.984   3.779   2.028 -0.3801 -0.0187 -0.8110
 7102TIP3    H121247   5.969   3.849   2.093 -2.1111 -0.0526 -1.1409
 7102TIP3    H221248   6.015   3.825   1.950  0.6115  0.1404 -0.3324
 7103TIP3   OH221249   0.485   3.162   3.405 -0.3214  0.5468  0.4164
 7103TIP3    H121250   0.424   3.211   3.350 -1.2245 -1.4699 -0.4150
 7103TIP3    H221251   0.562   3.218   3.411 -1.7444  2.5498  0.3931
 7104TIP3   OH221252   8.564   3.426   4.221  0.1171 -0.7770  0.2270
 7104TIP3    H121253   8.568   3.366   4.147 -0.2885  1.2885 -1.5284
 7104TIP3    H221254   8.478   3.467   4.214  0.8718  0.9157  0.6618
 7105TIP3   OH221255   7.504   3.877   4.470  0.1297  0.4289  0.7675
 7105TIP3    H121256   7.503   3.947   4.535 -0.2860 -0.8591  2.1803
 7105TIP3    H221257   7.529   3.799   4.519  0.8106 -0.3856 -0.8315
 7106TIP3   OH221258   8.032   3.810   3.121 -0.7269  0.1619  0.5102
 7106TIP3    H121259   8.043   3.770   3.034  0.0197 -2.2119  1.6582
 7106TIP3    H221260   7.941   3.790   3.144 -0.5326 -0.3667  0.8266
 7107TIP3   OH221261   7.940   3.633   3.768 -0.0532  0.0338 -0.3236
 7107TIP3    H121262   7.894   3.555   3.739  0.1794 -0.3172  0.2549
 7107TIP3    H221263   7.887   3.706   3.734 -1.2368 -0.3614  0.6657
 7108TIP3   OH221264   6.684   3.319   2.940 -0.4158 -0.0740  0.1378
 7108TIP3    H121265   6.623   3.246   2.945 -0.6331  0.0648 -0.4276
 7108TIP3    H221266   6.683   3.345   2.848 -0.3079  0.6129  0.3265
 7109TIP3   OH221267   7.551   2.812   4.893 -0.1597 -0.0589 -0.0169
 7109TIP3    H121268   7.597   2.870   4.832  0.7409 -1.3821 -0.6056
 7109TIP3    H221269   7.584   2.837   4.979  1.3491 -0.6849 -0.3937
 7110TIP3   OH221270   6.502   2.534   1.416  0.1474 -0.1452 -0.3070
 7110TIP3    H121271   6.453   2.595   1.472 -1.3719  0.9720 -2.7668
 7110TIP3    H221272   6.526   2.586   1.340  1.1542 -1.9519 -1.2463
 7111TIP3   OH221273   8.000   2.981   3.930 -1.0948  0.4655 -0.9117
 7111TIP3    H121274   7.995   3.049   3.996 -1.5689  0.1271 -0.5952
 7111TIP3    H221275   8.052   3.019   3.859 -0.2786  0.6980 -0.1897
 7112TIP3   OH221276   1.647   4.754   3.256 -0.1204  0.0495 -0.0936
 7112TIP3    H121277   1.674   4.728   3.344  1.3123  0.9224 -0.2634
 7112TIP3    H221278   1.556   4.783   3.266 -0.5741 -1.5928  0.7411
 7113TIP3   OH221279   8.023   2.377   2.837  0.0952 -0.5814 -0.5347
 7113TIP3    H121280   7.993   2.464   2.864  0.9297  0.2297 -2.1405
 7113TIP3    H221281   8.019   2.379   2.741  1.0453 -1.9806 -0.6243
 7114TIP3   OH221282   6.913   4.551   3.265 -0.4215 -0.2258 -0.0144
 7114TIP3    H121283   6.882   4.588   3.348 -1.2614  2.2846 -1.3832
 7114TIP3    H221284   6.994   4.598   3.247 -0.5039 -0.4065 -0.8534
 7115TIP3   OH221285   1.613   4.449   1.732 -0.6683 -0.0884 -0.4049
 7115TIP3    H121286   1.615   4.354   1.721 -2.5991  0.0369 -2.0481
 7115TIP3    H221287   1.670   4.483   1.663  0.9149 -0.0815  0.8797
 7116TIP3   OH221288   6.631   4.770   1.667  0.2451 -0.0443 -0.2547
 7116TIP3    H121289   6.562   4.751   1.604  0.1331  0.9675 -0.4458
 7116TIP3    H221290   6.672   4.685   1.683 -0.9939 -0.6571 -0.1863
 7117TIP3   OH221291   6.533   4.248   3.660 -0.4613 -0.4069 -0.6589
 7117TIP3    H121292   6.521   4.157   3.687  1.0396 -0.6597 -0.7924
 7117TIP3    H221293   6.563   4.242   3.569  2.0936  0.0825  0.1010
 7118TIP3   OH221294   5.746   2.970   3.384  0.1918 -0.1765 -0.1773
 7118TIP3    H121295   5.821   2.968   3.444  1.3622  0.8846 -1.5816
 7118TIP3    H221296   5.747   3.059   3.348 -1.9409 -0.0427  0.0144
 7119TIP3   OH221297   5.584   1.812   2.552 -0.1161 -0.0266  0.3002
 7119TIP3    H121298   5.530   1.744   2.511  2.5556 -2.2018  0.2585
 7119TIP3    H221299   5.574   1.798   2.646 -1.2883  0.9591  0.3369
 7120TIP3   OH221300   7.964   4.611   4.749 -0.2055 -0.4469  0.7111
 7120TIP3    H121301   8.025   4.538   4.752  0.4545  0.1079  0.7781
 7120TIP3    H221302   8.009   4.678   4.698 -0.5711  0.1304  1.1444
 7121TIP3   OH221303   4.599   8.069   2.996  0.2029  0.1788  0.4142
 7121TIP3    H121304   4.569   8.093   2.909 -0.8945 -0.5744  0.5755
 7121TIP3    H221305   4.584   8.147   3.049  1.3698  0.8172 -0.1844
 7122TIP3   OH221306   3.630   7.844   1.737  0.1468 -0.1569 -0.7465
 7122TIP3    H121307   3.678   7.770   1.773 -0.9622 -0.4420  0.1885
 7122TIP3    H221308   3.630   7.909   1.808  1.5034  0.9256 -1.7178
 7123TIP3   OH221309   7.630   2.774   3.119  0.2599 -0.3420 -0.1605
 7123TIP3    H121310   7.618   2.869   3.118  0.4250 -0.2960  1.1542
 7123TIP3    H221311   7.553   2.741   3.166  0.4859 -0.8120 -0.1184
 7124TIP3   OH221312   6.906   3.548   0.768  0.2826  0.2566  0.6930
 7124TIP3    H121313   6.967   3.550   0.694  1.1013 -1.0607  1.2949
 7124TIP3    H221314   6.819   3.548   0.728  0.6540  2.3202 -0.1790
 7125TIP3   OH221315   7.189   2.610   4.374  0.8343 -0.0553 -0.1059
 7125TIP3    H121316   7.180   2.622   4.279  0.3150 -0.2275 -0.0768
 7125TIP3    H221317   7.182   2.516   4.387  1.7018 -0.1130  0.0221
 7126TIP3   OH221318   6.489   2.066   3.413 -0.1457  0.3320 -0.5488
 7126TIP3    H121319   6.406   2.107   3.438  0.7650  1.7651  0.1985
 7126TIP3    H221320   6.470   2.020   3.331 -2.0785 -0.7230  0.4567
 7127TIP3   OH221321   7.639   1.576   4.572 -0.0457  0.5689  0.0183
 7127TIP3    H121322   7.629   1.645   4.506 -1.7100  1.7645  1.4426
 7127TIP3    H221323   7.664   1.623   4.652 -1.5734 -0.3919  1.1071
 7128TIP3   OH221324   7.832   5.285   4.581  0.9874  0.5264 -0.6436
 7128TIP3    H121325   7.872   5.367   4.611 -3.1198  1.8510  1.6159
 7128TIP3    H221326   7.795   5.306   4.495  0.2384  1.0087 -0.2165
 7129TIP3   OH221327   8.100   4.529   6.193  0.1175  0.1477 -0.7692
 7129TIP3    H121328   8.080   4.597   6.258 -0.9683 -0.7292 -0.1543
 7129TIP3    H221329   8.170   4.478   6.233  0.3404  0.3818 -0.8564
 7130TIP3   OH221330   0.248   1.422   1.345 -0.2151  0.3922  0.2595
 7130TIP3    H121331   0.224   1.513   1.365 -0.0197  0.3745  0.5782
 7130TIP3    H221332   0.285   1.426   1.257  1.1290  0.8525  0.8294
 7131TIP3   OH221333   0.568   2.162   4.276  0.5100 -0.0367 -0.1354
 7131TIP3    H121334   0.505   2.119   4.334 -0.2578  0.0275 -0.9067
 7131TIP3    H221335   0.610   2.229   4.331 -0.0773 -0.0980  0.3930
 7132TIP3   OH221336   7.391   2.451   1.794 -0.1974 -0.3466 -0.5346
 7132TIP3    H121337   7.443   2.434   1.716  1.9583  1.0350  0.5363
 7132TIP3    H221338   7.377   2.546   1.793 -0.0660 -0.2995  0.7833
 7133TIP3   OH221339   7.574   4.465   4.474 -0.0261 -0.3266 -0.6045
 7133TIP3    H121340   7.650   4.477   4.531  0.7225  1.8375 -1.9748
 7133TIP3    H221341   7.561   4.370   4.470  1.6363 -0.6411  0.8925
 7134TIP3   OH221342   6.224   3.595   4.114  0.3967 -0.0463  0.0046
 7134TIP3    H121343   6.212   3.511   4.158 -0.3881  0.7944  1.4279
 7134TIP3    H221344   6.137   3.620   4.085  0.7076  0.0422 -0.8912
 7135TIP3   OH221345   7.957   2.548   1.564  0.5626  0.2052 -0.0500
 7135TIP3    H121346   7.991   2.460   1.548  0.9325  0.2739  0.3582
 7135TIP3    H221347   7.915   2.573   1.481  0.6413 -0.2709 -0.2338
 7136TIP3   OH221348   7.631   5.419   6.313  1.1492  0.1695 -0.0664
 7136TIP3    H121349   7.621   5.351   6.380 -1.6337  0.1619 -0.4385
 7136TIP3    H221350   7.641   5.371   6.231  3.1323  0.1984  0.1330
 7137TIP3   OH221351   0.112   4.456   4.172  0.2384  0.0613 -0.1737
 7137TIP3    H121352   0.040   4.404   4.208  1.5628 -1.3895  0.3869
 7137TIP3    H221353   0.144   4.508   4.246 -1.4865  2.1897 -0.8709
 7138TIP3   OH221354   1.113   3.852   3.724 -0.7185 -0.5121 -0.1565
 7138TIP3    H121355   1.174   3.809   3.785 -1.0426 -0.0272  0.5167
 7138TIP3    H221356   1.166   3.867   3.645 -0.2834 -1.1129  0.0152
 7139TIP3   OH221357   1.153   2.696   3.584 -0.2799  0.1479  0.3673
 7139TIP3    H121358   1.068   2.738   3.594 -0.8552 -1.1089  0.8447
 7139TIP3    H221359   1.196   2.709   3.669 -0.6386 -0.5921  0.6720
 7140TIP3   OH221360   1.269   3.369   3.963 -0.2152  0.7188  0.0007
 7140TIP3    H121361   1.184   3.376   4.007  0.0181 -1.2577  0.8095
 7140TIP3    H221362   1.294   3.277   3.973  0.7768  0.6726 -2.5592
 7141TIP3   OH221363   6.119   0.886   1.918  0.0257 -0.0215 -0.4487
 7141TIP3    H121364   6.160   0.944   1.982  0.9675 -0.7145 -0.4163
 7141TIP3    H221365   6.113   0.939   1.838  0.5297  0.2433 -0.3120
 7142TIP3   OH221366   8.158   1.731   3.486  0.4698  0.1528  0.1394
 7142TIP3    H121367   8.094   1.802   3.473  1.0258  0.8271  1.0055
 7142TIP3    H221368   8.177   1.700   3.398 -0.6425  0.3205 -0.1684
 7143TIP3   OH221369   8.099   5.795   5.782  0.7355 -1.0392 -0.1615
 7143TIP3    H121370   8.184   5.810   5.740 -0.2751  1.7904 -1.3267
 7143TIP3    H221371   8.082   5.876   5.829 -0.7054 -2.1150  1.1911
 7144TIP3   OH221372   7.320   2.473   3.422  0.2577  0.5900 -0.4120
 7144TIP3    H121373   7.371   2.546   3.385  1.4392  0.3393  0.7007
 7144TIP3    H221374   7.302   2.500   3.512 -1.2615  0.4937 -0.6685
 7145TIP3   OH221375   7.376   3.275   4.040 -0.1537  0.4938  0.5038
 7145TIP3    H121376   7.425   3.244   4.116  0.5073  0.0531 -0.0937
 7145TIP3    H221377   7.415   3.228   3.966 -2.3883 -0.9511  0.1791
 7146TIP3   OH221378   0.542   4.110   4.553 -0.5877 -0.4906 -0.2889
 7146TIP3    H121379   0.451   4.086   4.568  0.0996 -2.7973  0.5003
 7146TIP3    H221380   0.567   4.161   4.631 -1.1257 -0.0891 -0.3818
 7147TIP3   OH221381   0.240   2.495   2.606 -0.0058  0.0546 -0.3419
 7147TIP3    H121382   0.278   2.458   2.686  0.6524  0.8717 -0.2699
 7147TIP3    H221383   0.244   2.589   2.620  0.8326  0.2212 -1.6721
 7148TIP3   OH221384   6.804   2.794   1.687 -0.1297  0.0156  0.1420
 7148TIP3    H121385   6.773   2.847   1.613  1.5922  0.9141  0.0185
 7148TIP3    H221386   6.726   2.775   1.738 -0.8691  2.2965 -0.0798
 7149TIP3   OH221387   0.366   3.102   2.644 -0.0713 -0.6720 -0.0625
 7149TIP3    H121388   0.379   3.191   2.678 -0.6486 -1.1934  1.5836
 7149TIP3    H221389   0.319   3.115   2.562 -1.2750  0.4883  0.7886
 7150TIP3   OH221390   5.358   1.148   2.773  0.6867  0.9351 -0.0314
 7150TIP3    H121391   5.390   1.103   2.851  0.8723  0.5761 -0.3114
 7150TIP3    H221392   5.314   1.226   2.806 -0.8101 -0.1385  0.5548
 7151TIP3   OH221393   0.436   3.244   4.126 -0.0667 -0.1642  0.2735
 7151TIP3    H121394   0.412   3.280   4.212  0.8278 -1.0042  0.8861
 7151TIP3    H221395   0.510   3.297   4.097 -0.9006  0.6656 -0.3761
 7152TIP3   OH221396   6.966   2.509   2.062  0.4899  0.0419 -0.3593
 7152TIP3    H121397   7.000   2.489   1.975  1.4014 -1.2177  0.2793
 7152TIP3    H221398   7.035   2.561   2.103  1.1654 -1.5114  0.5084
 7153TIP3   OH221399   7.760   2.158   2.896 -0.7106  0.6225  0.3352
 7153TIP3    H121400   7.699   2.166   2.823  0.3621  0.6568 -0.5752
 7153TIP3    H221401   7.780   2.248   2.922  0.3033  0.6585 -0.5279
 7154TIP3   OH221402   7.740   1.015   2.395 -0.7273  0.0394  0.3317
 7154TIP3    H121403   7.829   1.017   2.430 -0.9520  0.6903  0.8722
 7154TIP3    H221404   7.685   1.040   2.469 -1.1457  2.2008 -0.6833
 7155TIP3   OH221405   5.292   2.884   3.922 -0.0509 -0.2506  0.3386
 7155TIP3    H121406   5.385   2.883   3.946 -0.0782  0.1019  0.4764
 7155TIP3    H221407   5.286   2.829   3.844  0.1629 -0.8126  0.7166
 7156TIP3   OH221408   7.584   4.946   5.145 -0.5820  0.0136 -0.2738
 7156TIP3    H121409   7.625   4.901   5.071 -1.1709 -0.7017 -0.1745
 7156TIP3    H221410   7.646   4.937   5.217  0.0070  0.7378 -0.6960
 7157TIP3   OH221411   7.153   4.252   6.156 -0.1458  0.5031 -0.7805
 7157TIP3    H121412   7.117   4.212   6.235  1.7481  1.2991  0.5147
 7157TIP3    H221413   7.101   4.332   6.144  0.4061  1.0717  0.4466
 7158TIP3   OH221414   1.179   0.143   0.351  0.1654 -0.1355 -0.7737
 7158TIP3    H121415   1.222   0.128   0.435 -0.3439 -1.7495 -0.7763
 7158TIP3    H221416   1.250   0.144   0.287  0.3619 -1.0940 -0.5795
 7159TIP3   OH221417   7.791   3.710   6.763  0.3389 -0.3377 -0.3164
 7159TIP3    H121418   7.864   3.764   6.794  0.5322 -0.1626 -1.0828
 7159TIP3    H221419   7.823   3.620   6.772  0.5157 -0.2743 -0.3028
 7160TIP3   OH221420   0.052   3.026   2.929  0.0697  0.3110 -1.1852
 7160TIP3    H121421   0.019   2.964   2.995 -0.6624  1.4171 -0.5048
 7160TIP3    H221422   0.146   3.006   2.923  0.3847  0.9603  1.0447
 7161TIP3   OH221423   8.084   4.661   2.264  0.3863  0.6471  0.0015
 7161TIP3    H121424   8.134   4.639   2.185  0.3918 -2.8764  0.8982
 7161TIP3    H221425   8.133   4.732   2.304  1.2391  1.4443 -2.3586
 7162TIP3   OH221426   5.956   2.353   3.611  0.7006  0.1670  0.7647
 7162TIP3    H121427   5.986   2.432   3.656  1.5904 -0.5358  1.4199
 7162TIP3    H221428   5.906   2.305   3.677  0.7473 -0.1559  0.5682
 7163TIP3   OH221429   7.562   1.812   3.149 -0.2285 -0.3012 -0.5224
 7163TIP3    H121430   7.571   1.901   3.115  0.9740  0.3483  1.4066
 7163TIP3    H221431   7.636   1.802   3.208 -1.8826 -1.6311  1.3768
 7164TIP3   OH221432   6.674   3.093   4.364 -0.3660 -0.0771 -0.5162
 7164TIP3    H121433   6.674   3.151   4.288  0.8986  1.1068  0.3500
 7164TIP3    H221434   6.757   3.046   4.357  1.3462  2.4077  1.8260
 7165TIP3   OH221435   7.311   1.747   2.363  0.0173 -0.3865 -0.1570
 7165TIP3    H121436   7.217   1.750   2.346 -0.2148 -0.9418  0.9938
 7165TIP3    H221437   7.341   1.836   2.344 -1.6290  1.2365  4.3403
 7166TIP3   OH221438   0.617   0.284   4.127  0.4866  0.0638 -0.1702
 7166TIP3    H121439   0.682   0.351   4.149  0.3336  0.0202  0.4279
 7166TIP3    H221440   0.615   0.284   4.032  0.4170  0.9812 -0.1765
 7167TIP3   OH221441   1.235   2.944   5.073  0.1672 -0.1407 -0.0643
 7167TIP3    H121442   1.189   2.994   5.140 -1.5811  0.1473 -1.4374
 7167TIP3    H221443   1.283   2.877   5.121  0.4699  1.2362  1.5954
 7168TIP3   OH221444   0.413   3.339   2.759  0.4979  0.5269  0.3375
 7168TIP3    H121445   0.502   3.344   2.795  0.0088  1.9725  1.3660
 7168TIP3    H221446   0.367   3.413   2.797 -1.1997 -0.2743 -0.1005
 7169TIP3   OH221447   6.864   2.285   2.459  0.3781  0.0595 -0.2783
 7169TIP3    H121448   6.849   2.325   2.374  2.3128  0.9404 -0.2151
 7169TIP3    H221449   6.778   2.289   2.502 -0.3743  0.5306 -1.7726
 7170TIP3   OH221450   6.895   3.447   4.282  0.0246 -0.3818  0.3016
 7170TIP3    H121451   6.990   3.455   4.268  0.1511 -0.4452  1.1076
 7170TIP3    H221452   6.885   3.450   4.377 -0.7231 -1.0733  0.2445
 7171TIP3   OH221453   7.460   4.684   3.029  0.2430  0.4274  0.1977
 7171TIP3    H121454   7.427   4.640   3.107 -0.7065  1.3680  0.3422
 7171TIP3    H221455   7.554   4.692   3.043  0.2373 -0.4243  0.7292
 7172TIP3   OH221456   7.633   2.895   3.484  0.0539  0.3206 -0.0961
 7172TIP3    H121457   7.662   2.982   3.512 -0.0413  1.5579 -3.6035
 7172TIP3    H221458   7.710   2.840   3.495  1.1862  1.6555 -1.1785
 7173TIP3   OH221459   0.093   3.389   2.661  0.0514 -0.3006 -0.2401
 7173TIP3    H121460   0.078   3.345   2.745 -0.2037  3.1935  1.6191
 7173TIP3    H221461   0.185   3.417   2.665 -0.1881  0.5782 -0.7655
 7174TIP3   OH221462   0.079   3.788   3.108 -0.3310 -0.6130 -0.3504
 7174TIP3    H121463   0.076   3.788   3.012 -1.1743 -0.4882 -0.3251
 7174TIP3    H221464   0.031   3.867   3.134  1.2531  0.2244  0.1453
 7175TIP3   OH221465   7.905   3.194   3.340  0.3992  0.2698  0.0974
 7175TIP3    H121466   7.887   3.138   3.416  1.5297 -0.6167 -0.2607
 7175TIP3    H221467   7.844   3.267   3.349  0.6368  0.2794  1.9728
 7176TIP3   OH221468   7.601   0.883   2.790 -0.3008  0.1011 -0.1113
 7176TIP3    H121469   7.682   0.931   2.774 -1.0312  0.7940 -1.8585
 7176TIP3    H221470   7.532   0.948   2.782 -1.2656 -1.0862 -1.8401
 7177TIP3   OH221471   7.936   0.834   5.492 -0.5113  0.0549  0.2094
 7177TIP3    H121472   7.914   0.768   5.426  0.9482 -1.1224  0.8886
 7177TIP3    H221473   7.927   0.917   5.446 -2.4594 -0.5845 -0.6334
 7178TIP3   OH221474   8.036   2.516   2.576  0.1642  1.0106 -0.1247
 7178TIP3    H121475   8.030   2.609   2.553  0.2595  0.8372 -0.8614
 7178TIP3    H221476   8.123   2.490   2.547  0.3249  0.8073  0.5298
 7179TIP3   OH221477   6.075   2.643   2.635 -0.1817  0.2748 -0.1210
 7179TIP3    H121478   6.018   2.720   2.642 -0.5747 -0.0268  0.0378
 7179TIP3    H221479   6.037   2.580   2.696 -1.0029 -0.7476 -1.6585
 7180TIP3   OH221480   7.636   1.844   4.985 -0.4976  0.1364 -0.3330
 7180TIP3    H121481   7.598   1.756   4.990  2.3931 -1.2142 -0.7200
 7180TIP3    H221482   7.627   1.880   5.073 -1.9007 -0.4478 -0.2251
 7181TIP3   OH221483   4.267   7.515   4.710  0.2796  0.0593  0.4234
 7181TIP3    H121484   4.339   7.499   4.649 -0.4236 -0.0365 -0.3940
 7181TIP3    H221485   4.270   7.441   4.770  0.5027 -0.2574  0.0279
 7182TIP3   OH221486   6.904   0.601   6.027 -0.8338  0.2981 -0.3046
 7182TIP3    H121487   6.903   0.651   5.945  0.4229 -0.3619 -0.7368
 7182TIP3    H221488   6.898   0.667   6.096  1.3801  1.1048 -0.8533
 7183TIP3   OH221489   1.361   0.733   2.755 -0.2824 -0.5963 -0.0434
 7183TIP3    H121490   1.320   0.785   2.823  1.4660 -1.2927  1.5854
 7183TIP3    H221491   1.339   0.779   2.673 -0.2148  1.7147  1.1979
 7184TIP3   OH221492   6.574   1.551   4.959  0.5103  0.3083  0.0051
 7184TIP3    H121493   6.553   1.640   4.931 -1.3633 -0.8422 -2.3277
 7184TIP3    H221494   6.502   1.526   5.017 -0.7727 -0.9089 -2.0681
 7185TIP3   OH221495   6.295   4.177   3.431  0.1916  0.0806 -1.0292
 7185TIP3    H121496   6.300   4.125   3.351  3.5201 -0.6701 -0.3890
 7185TIP3    H221497   6.351   4.131   3.494  0.5359  2.6193  0.6069
 7186TIP3   OH221498   1.069   3.769   4.537 -0.1576 -0.2168 -0.0549
 7186TIP3    H121499   1.018   3.789   4.616 -1.0829  3.6066 -1.5472
 7186TIP3    H221500   1.003   3.739   4.474  0.0583  0.5002 -0.6156
 7187TIP3   OH221501   6.690   4.577   4.237  0.0239 -0.2677  0.2372
 7187TIP3    H121502   6.743   4.498   4.241  0.6376  0.1265  0.1138
 7187TIP3    H221503   6.669   4.588   4.144  0.2835 -0.0681  0.2000
 7188TIP3   OH221504   7.605   6.430   4.237 -0.4701  0.1129  0.1836
 7188TIP3    H121505   7.547   6.430   4.312 -1.4625 -0.0675 -0.5717
 7188TIP3    H221506   7.555   6.386   4.168 -0.1415  1.6127 -1.0245
 7189TIP3   OH221507   6.937   4.388   4.185 -0.0233 -0.1508 -0.2880
 7189TIP3    H121508   6.942   4.295   4.161  1.1005 -0.4466  0.9731
 7189TIP3    H221509   6.951   4.389   4.280  0.4618  1.3378 -0.3515
 7190TIP3   OH221510   0.144   4.092   2.948  0.1507 -0.3583 -0.7130
 7190TIP3    H121511   0.050   4.103   2.964 -0.3587 -2.3774 -1.9911
 7190TIP3    H221512   0.156   4.123   2.858  1.1696  2.0966  0.2497
 7191TIP3   OH221513   7.272   3.388   2.346  0.1696 -0.1845  0.0907
 7191TIP3    H121514   7.241   3.475   2.371 -0.7203 -0.6288  0.5430
 7191TIP3    H221515   7.257   3.383   2.252 -2.6739 -1.0073  0.5511
 7192TIP3   OH221516   8.240   4.574   2.982  0.1828  0.3641  0.0385
 7192TIP3    H121517   8.174   4.619   2.930 -0.8990 -0.2016  0.8933
 7192TIP3    H221518   8.301   4.643   3.009 -1.3017  1.2632  1.1065
 7193TIP3   OH221519   6.971   3.710   1.451  0.5458  0.3330 -0.1339
 7193TIP3    H121520   7.027   3.785   1.469  1.4114 -0.1763 -0.6270
 7193TIP3    H221521   6.882   3.742   1.464  0.9845  0.9438  1.4096
 7194TIP3   OH221522   1.440   6.113   2.733  0.2229  0.0494  0.1524
 7194TIP3    H121523   1.525   6.085   2.699 -0.3608 -1.0598 -0.4147
 7194TIP3    H221524   1.432   6.070   2.818 -0.3021 -0.8310 -0.3389
 7195TIP3   OH221525   6.523   4.250   4.016 -0.2071  0.4824 -0.1825
 7195TIP3    H121526   6.451   4.309   4.038 -0.3283 -0.3897  1.9069
 7195TIP3    H221527   6.485   4.162   4.025  0.0493  0.0525 -2.9330
 7196TIP3   OH221528   5.887   1.937   4.606 -0.4950  0.6908 -0.5502
 7196TIP3    H121529   5.978   1.920   4.632 -0.3428  2.4937  0.1930
 7196TIP3    H221530   5.883   1.911   4.515  1.3329  2.4305 -1.1669
 7197TIP3   OH221531   7.301   3.000   2.880 -0.0593  0.2735  0.0567
 7197TIP3    H121532   7.316   2.906   2.883 -2.6886 -0.2382 -0.9838
 7197TIP3    H221533   7.290   3.025   2.972 -0.6526 -0.6815  0.2525
 7198TIP3   OH221534   0.217   0.998   1.496 -0.0589 -0.0505 -0.3447
 7198TIP3    H121535   0.141   1.017   1.442  0.1857 -1.8719 -1.3711
 7198TIP3    H221536   0.180   0.958   1.575 -0.3458  1.7452  0.4631
 7199TIP3   OH221537   6.995   6.534   1.824  0.5141 -0.1386 -0.4039
 7199TIP3    H121538   7.054   6.610   1.827 -0.1803  0.4119 -0.3769
 7199TIP3    H221539   7.051   6.459   1.842  0.9171  0.5619  1.4550
 7200TIP3   OH221540   7.116   0.489   2.420 -0.1584  0.2871  0.4455
 7200TIP3    H121541   7.078   0.433   2.487 -1.2026  0.5159  0.0669
 7200TIP3    H221542   7.193   0.442   2.388 -0.0393 -0.1178  1.3406
 7201TIP3   OH221543   8.476   2.780   0.460  0.1458  0.0802  0.4772
 7201TIP3    H121544   8.529   2.732   0.396 -0.0059 -0.4060  0.7163
 7201TIP3    H221545   8.537   2.800   0.531 -0.0997 -0.8683  0.9544
 7202TIP3   OH221546   6.195   1.430   1.664 -0.1412  0.1710  0.5442
 7202TIP3    H121547   6.170   1.522   1.669  0.5507  0.3577  0.5557
 7202TIP3    H221548   6.116   1.386   1.633 -0.1603  0.9085 -0.4912
 7203TIP3   OH221549   8.338   1.265   5.305  0.5913  0.0736  0.3278
 7203TIP3    H121550   8.258   1.298   5.264  0.9325  1.5279  0.7867
 7203TIP3    H221551   8.322   1.272   5.399  0.9696 -0.3479  0.4246
 7204TIP3   OH221552   8.486   0.848   4.616  0.5728  0.1344 -0.2224
 7204TIP3    H121553   8.442   0.828   4.699  1.7700  0.7380  0.5729
 7204TIP3    H221554   8.421   0.828   4.549 -0.2733 -0.7538  0.8458
 7205TIP3   OH221555   7.208   4.419   5.049  0.1424 -0.1590  0.3982
 7205TIP3    H121556   7.245   4.491   4.998  1.1300 -1.1002 -0.2311
 7205TIP3    H221557   7.153   4.371   4.987  0.5608 -0.7309  0.4624
 7206TIP3   OH221558   7.703   3.331   4.235 -0.8133  0.0482  0.1121
 7206TIP3    H121559   7.736   3.294   4.153 -3.2047 -1.8058 -0.1025
 7206TIP3    H221560   7.642   3.264   4.268 -0.6152  1.1835  2.9127
 7207TIP3   OH221561   0.363   3.330   6.480  0.0816  0.0316  0.7394
 7207TIP3    H121562   0.452   3.367   6.483 -1.4459  4.1380 -0.2301
 7207TIP3    H221563   0.348   3.314   6.387  0.3967 -2.2847  1.0788
 7208TIP3   OH221564   0.821   2.801   5.056  0.1274  0.3095  0.1853
 7208TIP3    H121565   0.746   2.742   5.047  0.1358  0.0405  1.7158
 7208TIP3    H221566   0.792   2.865   5.121  0.8652  0.7794  0.0436
 7209TIP3   OH221567   0.814   2.333   4.061 -0.0110 -0.1248 -0.2093
 7209TIP3    H121568   0.822   2.241   4.087  1.2490 -0.2412 -0.9573
 7209TIP3    H221569   0.876   2.379   4.117  0.2059  0.1040 -0.6338
 7210TIP3   OH221570   8.440   2.444   4.570  0.0950  0.8164  0.1576
 7210TIP3    H121571   8.525   2.484   4.550 -1.0839  3.5795  0.4956
 7210TIP3    H221572   8.422   2.471   4.660 -0.9518 -0.1280  0.2311
 7211TIP3   OH221573   0.399   5.064   4.872 -0.2108  0.5989 -0.2905
 7211TIP3    H121574   0.342   5.134   4.902  0.5142  2.1497 -2.4289
 7211TIP3    H221575   0.393   5.067   4.777  0.5711 -1.6295 -0.4401
 7212TIP3   OH221576   0.245   6.180   6.018  0.0686  0.2225  0.3217
 7212TIP3    H121577   0.231   6.243   5.947  0.5281 -0.9141 -0.7893
 7212TIP3    H221578   0.185   6.108   5.999 -1.4755  0.9144  2.3643
 7213TIP3   OH221579   2.261   1.809   6.965  0.1730  0.0078 -0.4613
 7213TIP3    H121580   2.242   1.717   6.944  1.6025 -1.0316  2.5438
 7213TIP3    H221581   2.344   1.827   6.920 -0.0981 -0.1619 -1.0367
 7214TIP3   OH221582   0.397   4.702   6.578 -0.1641  0.4019 -0.0394
 7214TIP3    H121583   0.376   4.642   6.649  0.3737  1.3331  0.9334
 7214TIP3    H221584   0.436   4.647   6.510 -1.0155 -0.5527  0.2378
 7215TIP3   OH221585   0.143   4.455   4.772 -0.0011  0.6054 -0.2990
 7215TIP3    H121586   0.068   4.484   4.824 -2.4511  1.2411 -3.9346
 7215TIP3    H221587   0.113   4.463   4.681  3.6437 -1.5239 -1.8083
 7216TIP3   OH221588   4.470   2.353   4.300  0.4184 -0.1688 -0.5612
 7216TIP3    H121589   4.391   2.359   4.245  0.5918 -0.4844 -0.8449
 7216TIP3    H221590   4.543   2.362   4.238  0.6019  0.5035 -0.2528
 7217TIP3   OH221591   6.211   3.834   6.058 -0.1253  0.5462 -0.1476
 7217TIP3    H121592   6.204   3.849   5.964  0.5914  0.5176 -0.2091
 7217TIP3    H221593   6.304   3.846   6.078 -0.4851  1.9782  0.7984
 7218TIP3   OH221594   2.675   3.827   5.932  0.2074  0.3178  0.2172
 7218TIP3    H121595   2.662   3.810   5.838  1.1084  2.9496 -0.4408
 7218TIP3    H221596   2.741   3.763   5.959  0.0514 -0.3748 -0.9956
 7219TIP3   OH221597   1.986   4.541   3.702  0.3126 -0.3055 -0.2932
 7219TIP3    H121598   2.071   4.548   3.657  2.1967 -0.6567  3.0084
 7219TIP3    H221599   1.962   4.449   3.695  2.1568 -1.0119  1.9838
 7220TIP3   OH221600   1.318   2.650   6.177 -0.1181  0.0386 -0.2281
 7220TIP3    H121601   1.354   2.737   6.193 -0.4618  0.5430 -2.0727
 7220TIP3    H221602   1.234   2.666   6.135  0.2460 -1.1845 -1.4475
 7221TIP3   OH221603   2.639   4.530   4.504 -0.3145  0.3466  0.2661
 7221TIP3    H121604   2.716   4.536   4.561 -0.1749 -0.4420  0.1599
 7221TIP3    H221605   2.615   4.438   4.506 -1.3808  0.6265  0.4598
 7222TIP3   OH221606   0.154   5.315   6.120 -0.0625 -0.0367 -0.3898
 7222TIP3    H121607   0.161   5.410   6.133  0.2611 -0.1482  0.2593
 7222TIP3    H221608   0.076   5.290   6.169 -0.6275  0.0142 -1.2455
 7223TIP3   OH221609   2.801   3.708   6.777 -0.5864  0.1338 -0.0076
 7223TIP3    H121610   2.776   3.742   6.691 -0.7196 -0.2307 -0.1142
 7223TIP3    H221611   2.896   3.699   6.772 -0.6045  0.0315 -0.1433
 7224TIP3   OH221612   8.137   2.941   6.417  0.1026  0.0802 -0.2431
 7224TIP3    H121613   8.174   3.026   6.441 -0.7575 -0.4130  3.0683
 7224TIP3    H221614   8.210   2.880   6.425  0.4344  0.3079 -1.4638
 7225TIP3   OH221615   6.587   4.359   6.149 -0.5755  0.0029 -0.2652
 7225TIP3    H121616   6.662   4.410   6.116 -1.0921  0.8624 -0.1234
 7225TIP3    H221617   6.622   4.270   6.160  0.4137  0.3854 -0.2332
 7226TIP3   OH221618   1.146   4.629   5.604  0.3575  0.5131  0.2010
 7226TIP3    H121619   1.240   4.630   5.590  0.6906  0.3906  2.1979
 7226TIP3    H221620   1.135   4.588   5.690 -1.4743  0.9907  0.2264
 7227TIP3   OH221621   1.992   2.610   4.441  0.1328  0.0022  0.1206
 7227TIP3    H121622   1.931   2.660   4.495 -0.2693 -0.3949  0.0399
 7227TIP3    H221623   1.938   2.542   4.400  0.6345 -0.3688  0.0652
 7228TIP3   OH221624   0.494   5.086   5.195  0.5774  0.6640  0.1079
 7228TIP3    H121625   0.540   5.029   5.133 -1.5048 -2.0280  0.8821
 7228TIP3    H221626   0.556   5.099   5.267  1.0750 -0.8012 -0.0247
 7229TIP3   OH221627   7.574   3.708   3.042 -1.1636  0.3828  0.1056
 7229TIP3    H121628   7.613   3.714   2.955  0.3377  0.0945  0.7451
 7229TIP3    H221629   7.525   3.790   3.052  1.5184  2.0138  0.3573
 7230TIP3   OH221630   1.974   4.787   5.410  0.3101 -0.2315 -0.1749
 7230TIP3    H121631   1.891   4.816   5.448 -0.7996 -0.8670 -2.0446
 7230TIP3    H221632   1.954   4.702   5.371  1.4231  0.3427 -2.0526
 7231TIP3   OH221633   1.212   3.810   6.886  0.5911 -0.0279  0.0417
 7231TIP3    H121634   1.227   3.902   6.866 -0.2252 -0.0381 -0.6420
 7231TIP3    H221635   1.154   3.811   6.962  0.4378  0.0198 -0.0771
 7232TIP3   OH221636   8.243   4.788   5.200  0.4546 -0.0814 -0.2109
 7232TIP3    H121637   8.181   4.715   5.196 -0.8067  0.8524  1.6156
 7232TIP3    H221638   8.255   4.814   5.108 -0.6104 -1.2971 -0.7197
 7233TIP3   OH221639   1.362   4.406   5.382  0.2721 -0.2332 -0.0825
 7233TIP3    H121640   1.392   4.470   5.447  0.5644  0.3597 -0.7966
 7233TIP3    H221641   1.426   4.335   5.388  0.9645  0.3504 -0.5408
 7234TIP3   OH221642   4.719   7.665   0.437  0.6199  0.3375  0.6744
 7234TIP3    H121643   4.714   7.573   0.461  0.5721  0.0162 -0.5285
 7234TIP3    H221644   4.776   7.666   0.360 -1.0981  1.0684 -0.5971
 7235TIP3   OH221645   1.317   5.048   1.821  0.1722  0.3828 -0.4912
 7235TIP3    H121646   1.362   4.971   1.786  0.1712 -0.3672  1.1253
 7235TIP3    H221647   1.224   5.029   1.806  0.1311 -0.2427  0.4890
 7236TIP3   OH221648   1.319   5.487   5.096 -0.2739 -0.1492  0.2759
 7236TIP3    H121649   1.407   5.449   5.101 -0.1346  0.1099 -0.2230
 7236TIP3    H221650   1.262   5.418   5.130 -0.1838 -1.3494 -1.9225
 7237TIP3   OH221651   0.540   4.097   4.153  0.2439 -0.2407  0.0535
 7237TIP3    H121652   0.582   4.022   4.195  0.1169  0.5390  1.5790
 7237TIP3    H221653   0.522   4.159   4.224 -0.6851  0.7604 -1.0189
 7238TIP3   OH221654   7.721   4.269   4.126 -0.5357 -0.3790 -0.0531
 7238TIP3    H121655   7.716   4.178   4.155  1.7644 -0.8590 -0.9892
 7238TIP3    H221656   7.741   4.319   4.205 -1.4555 -0.7346  0.4021
 7239TIP3   OH221657   1.009   2.177   6.168 -0.5971  0.2191 -0.0426
 7239TIP3    H121658   0.972   2.265   6.176 -1.0225  0.3606 -2.8683
 7239TIP3    H221659   0.934   2.120   6.157 -0.1757 -0.0318 -1.7170
 7240TIP3   OH221660   8.310   5.263   6.609 -0.0298  0.0889 -0.3979
 7240TIP3    H121661   8.292   5.326   6.539  0.7268  1.3943  0.5585
 7240TIP3    H221662   8.237   5.273   6.670  1.0638  1.4540  0.7241
 7241TIP3   OH221663   7.420   3.808   4.191  0.2318 -0.6128  0.1416
 7241TIP3    H121664   7.469   3.729   4.171 -0.6877 -0.7701 -1.5628
 7241TIP3    H221665   7.438   3.825   4.284  0.4113 -2.8119  0.5172
 7242TIP3   OH221666   1.687   3.023   5.281 -0.0773 -0.5425 -0.1023
 7242TIP3    H121667   1.694   2.994   5.190 -0.3638 -1.7898  0.2683
 7242TIP3    H221668   1.738   3.104   5.284  0.2272 -0.6832 -1.2925
 7243TIP3   OH221669   2.143   4.867   6.374 -0.0667 -1.2505 -0.1161
 7243TIP3    H121670   2.123   4.954   6.339  0.1934 -0.0004  2.6489
 7243TIP3    H221671   2.178   4.818   6.300 -1.3513  0.6061 -2.0140
 7244TIP3   OH221672   1.696   4.648   3.613  0.7638 -0.2294  0.2294
 7244TIP3    H121673   1.646   4.725   3.584  1.1506  0.0321  0.2636
 7244TIP3    H221674   1.721   4.668   3.703 -0.0107 -0.8310  0.5826
 7245TIP3   OH221675   7.791   4.404   5.913 -0.1811 -0.3086  0.4106
 7245TIP3    H121676   7.794   4.419   5.819 -0.9328 -0.5721  0.3451
 7245TIP3    H221677   7.823   4.485   5.951 -0.7171  0.1158 -0.0448
 7246TIP3   OH221678   2.093   1.530   5.417 -0.7942 -0.3470  0.2192
 7246TIP3    H121679   2.137   1.576   5.345  0.9553 -3.3459 -0.7290
 7246TIP3    H221680   2.015   1.492   5.378 -0.8486 -0.3896  0.3679
 7247TIP3   OH221681   7.210   4.023   3.847  0.1531  0.4429 -0.5618
 7247TIP3    H121682   7.127   3.999   3.889 -0.9301  2.0685 -1.7455
 7247TIP3    H221683   7.261   4.064   3.918  0.2176 -1.1142  0.3202
 7248TIP3   OH221684   2.170   4.669   5.896  0.0771  0.2482  0.3063
 7248TIP3    H121685   2.128   4.648   5.812 -1.5423 -0.5469  1.2962
 7248TIP3    H221686   2.115   4.739   5.933  0.0299 -0.2989  1.2797
 7249TIP3   OH221687   1.187   6.009   7.012  0.1491  0.2033 -0.2767
 7249TIP3    H121688   1.100   5.982   7.043 -0.3386  1.3091 -0.6367
 7249TIP3    H221689   1.209   5.946   6.944  0.1764 -0.8205  0.6683
 7250TIP3   OH221690   7.283   3.827   6.224 -0.4041 -0.3347  0.5551
 7250TIP3    H121691   7.279   3.870   6.139 -1.6108 -2.4655 -0.4928
 7250TIP3    H221692   7.327   3.891   6.281  0.4098  1.1075 -1.6343
 7251TIP3   OH221693   2.415   4.493   5.986  0.2360 -0.0705  0.4880
 7251TIP3    H121694   2.334   4.542   5.970 -0.9908 -2.1199  0.2471
 7251TIP3    H221695   2.467   4.507   5.907 -0.6765 -0.2348 -0.1576
 7252TIP3   OH221696   8.551   2.955   3.495  0.6624  0.4260 -0.2037
 7252TIP3    H121697   8.469   2.950   3.543  0.5881 -2.9797 -0.5131
 7252TIP3    H221698   8.611   3.002   3.553 -0.9498  1.1917  0.8607
 7253TIP3   OH221699   1.358   6.863   1.613  0.1048  0.4830  0.0310
 7253TIP3    H121700   1.312   6.900   1.688 -1.1276 -0.7351 -0.0977
 7253TIP3    H221701   1.450   6.858   1.641 -0.1223  1.3136  0.9374
 7254TIP3   OH221702   6.462   1.959   0.151  0.1813 -0.4287 -0.1432
 7254TIP3    H121703   6.414   1.987   0.229  0.0398 -0.1339 -0.3335
 7254TIP3    H221704   6.401   1.901   0.105  0.0922 -0.2361 -0.2685
 7255TIP3   OH221705   1.065   4.655   5.105  0.0499 -0.0485  0.3310
 7255TIP3    H121706   1.033   4.578   5.058 -0.2553 -0.2803  0.9157
 7255TIP3    H221707   1.079   4.721   5.037  0.4941 -0.6823 -0.1956
 7256TIP3   OH221708   8.277   5.534   6.539 -0.2623 -0.3153 -0.5715
 7256TIP3    H121709   8.206   5.596   6.555  0.1198 -0.4693  1.9064
 7256TIP3    H221710   8.354   5.588   6.526 -0.0230 -0.2222  1.1067
 7257TIP3   OH221711   4.495   7.473   0.846 -0.0757  0.5987 -0.8220
 7257TIP3    H121712   4.474   7.502   0.935  2.0568 -1.2647  0.3348
 7257TIP3    H221713   4.584   7.503   0.831  1.1478 -2.6888 -0.6631
 7258TIP3   OH221714   7.812   3.983   4.993 -0.1942  0.3019  0.7481
 7258TIP3    H121715   7.850   3.901   5.025  1.1647  0.1170 -1.2591
 7258TIP3    H221716   7.754   3.957   4.922  0.2903  1.0479  0.0602
 7259TIP3   OH221717   1.546   4.268   4.774 -0.4909 -0.1639  0.5509
 7259TIP3    H121718   1.510   4.247   4.860 -0.4693  0.4744  0.7212
 7259TIP3    H221719   1.471   4.302   4.725 -0.3793  0.0282  0.5131
 7260TIP3   OH221720   2.619   3.603   6.991 -0.2286  0.1651 -0.2083
 7260TIP3    H121721   2.685   3.624   6.925 -1.4571 -1.6609 -2.0657
 7260TIP3    H221722   2.624   3.508   7.001  0.0995  0.4102  2.5573
 7261TIP3   OH221723   7.774   2.009   6.428 -0.1113  0.2132  0.0718
 7261TIP3    H121724   7.803   2.073   6.492 -1.3182  0.5251  0.3110
 7261TIP3    H221725   7.713   2.057   6.371  0.7922 -0.1063 -1.1868
 7262TIP3   OH221726   1.147   4.799   4.843  0.0171 -0.2633 -0.1318
 7262TIP3    H121727   1.204   4.732   4.807  0.4239 -0.2185  0.4366
 7262TIP3    H221728   1.196   4.881   4.833 -0.4042 -0.0765 -0.6617
 7263TIP3   OH221729   7.228   0.630   0.794 -0.0336  0.1912 -0.4156
 7263TIP3    H121730   7.174   0.690   0.846  0.0994 -0.2711  0.2652
 7263TIP3    H221731   7.237   0.674   0.709 -0.0318  1.0774  0.0356
 7264TIP3   OH221732   0.520   4.096   5.037 -0.5804 -0.3717 -0.0933
 7264TIP3    H121733   0.445   4.149   5.010  0.1323 -0.6542 -2.8687
 7264TIP3    H221734   0.584   4.159   5.070 -1.7629 -0.0701  1.6766
 7265TIP3   OH221735   1.239   4.726   4.488 -0.6150  0.1006  0.1853
 7265TIP3    H121736   1.325   4.718   4.447  0.0768  1.0021  1.4591
 7265TIP3    H221737   1.209   4.813   4.464 -1.1726 -0.1943 -0.2208
 7266TIP3   OH221738   0.502   3.754   2.328  1.1131  0.0069  0.0916
 7266TIP3    H121739   0.572   3.695   2.299  0.5511  0.0434 -1.3607
 7266TIP3    H221740   0.521   3.837   2.284  1.2373  0.5913  1.2194
 7267TIP3   OH221741   0.440   3.058   5.928  0.1948  0.2113  0.0487
 7267TIP3    H121742   0.473   2.993   5.990 -1.2977 -0.6316 -0.0170
 7267TIP3    H221743   0.513   3.117   5.914  1.4292 -1.1865  0.4866
 7268TIP3   OH221744   6.528   3.200   3.552  0.2321  0.1596  0.1485
 7268TIP3    H121745   6.483   3.215   3.469 -0.5669 -0.0808  0.5276
 7268TIP3    H221746   6.480   3.255   3.615  1.9373  1.7193  0.1112
 7269TIP3   OH221747   6.409   1.326   0.069 -0.1612  0.3897 -0.1517
 7269TIP3    H121748   6.443   1.341  -0.019 -1.3958 -1.3803 -0.9770
 7269TIP3    H221749   6.472   1.369   0.127  1.2676  0.6339 -1.8332
 7270TIP3   OH221750   1.745   4.022   4.745 -0.5226 -0.1824 -0.4010
 7270TIP3    H121751   1.715   4.113   4.742  0.3055  0.1247  0.4388
 7270TIP3    H221752   1.796   4.016   4.825  0.1945 -1.1604 -0.9220
 7271TIP3   OH221753   8.246   4.264   4.407  0.0703  0.4036  0.2638
 7271TIP3    H121754   8.158   4.299   4.389  0.4935  0.7101 -1.3304
 7271TIP3    H221755   8.232   4.170   4.422 -0.4983  0.3964 -0.2846
 7272TIP3   OH221756   8.312   4.399   5.273 -0.0760  0.3253  0.2967
 7272TIP3    H121757   8.292   4.305   5.267 -1.3305  0.5968 -0.0875
 7272TIP3    H221758   8.363   4.407   5.353 -1.5380 -0.4584  1.3522
 7273TIP3   OH221759   2.496   3.372   5.769 -1.2965 -0.0882  0.5191
 7273TIP3    H121760   2.581   3.392   5.730 -0.9494 -0.3178  1.1452
 7273TIP3    H221761   2.516   3.310   5.839 -2.2315 -1.9322 -0.8075
 7274TIP3   OH221762   0.666   3.607   6.146  0.0638 -0.4021  0.5240
 7274TIP3    H121763   0.696   3.645   6.063 -0.1924  0.5989  0.8810
 7274TIP3    H221764   0.746   3.582   6.192  0.2195 -0.6521  0.1168
 7275TIP3   OH221765   1.183   4.980   6.540 -1.0734 -0.2703  0.0452
 7275TIP3    H121766   1.233   5.060   6.552  1.5711 -2.0017  0.9868
 7275TIP3    H221767   1.208   4.949   6.453 -0.5575 -1.1098  0.4906
 7276TIP3   OH221768   5.500   2.039   0.822 -0.1393 -0.2624  0.3014
 7276TIP3    H121769   5.422   2.074   0.866 -1.0546 -0.1212 -1.4171
 7276TIP3    H221770   5.500   1.946   0.846 -0.1252 -0.0013  1.3362
 7277TIP3   OH221771   0.950   5.321   6.034 -0.1113  0.4626  0.0891
 7277TIP3    H121772   1.031   5.370   6.018  0.4283 -0.5315 -0.2712
 7277TIP3    H221773   0.976   5.250   6.092 -0.9310  0.7023  0.7666
 7278TIP3   OH221774   7.704   2.356   4.360 -0.1489  0.2469  0.6327
 7278TIP3    H121775   7.777   2.405   4.321  0.7865 -0.6715  1.2064
 7278TIP3    H221776   7.669   2.303   4.288  0.1616  0.2066  0.5114
 7279TIP3   OH221777   6.716   0.966   0.453  0.0962  0.1084 -0.2718
 7279TIP3    H121778   6.780   1.011   0.508  0.1299  0.8085 -0.8836
 7279TIP3    H221779   6.736   0.873   0.465  1.6838  0.3354 -0.9748
 7280TIP3   OH221780   0.846   3.851   4.666  0.3827  0.6201 -0.2080
 7280TIP3    H121781   0.808   3.874   4.751 -0.1531  0.7646 -0.4832
 7280TIP3    H221782   0.774   3.812   4.617  0.7049  0.4805 -0.5786
 7281TIP3   OH221783   0.889   3.701   5.520 -0.0524 -0.0667  0.0341
 7281TIP3    H121784   0.885   3.673   5.429 -2.8606 -1.3047  0.4985
 7281TIP3    H221785   0.836   3.781   5.523  0.4530  0.2554  0.4953
 7282TIP3   OH221786   1.315   2.788   5.285  0.0314  0.0537 -0.0574
 7282TIP3    H121787   1.365   2.843   5.346  0.9840 -0.5564 -0.2699
 7282TIP3    H221788   1.224   2.797   5.313  0.2088  1.5275  0.0682
 7283TIP3   OH221789   8.253   3.865   4.948 -0.0554  0.3659 -0.1267
 7283TIP3    H121790   8.193   3.859   4.873 -0.6523 -1.1718  0.4490
 7283TIP3    H221791   8.225   3.795   5.006  1.4195  0.5417  0.8157
 7284TIP3   OH221792   1.471   1.911   5.066 -0.0818 -0.5715 -0.0147
 7284TIP3    H121793   1.539   1.875   5.122 -2.2629  0.0405  3.1516
 7284TIP3    H221794   1.470   2.004   5.086 -0.7345 -0.2953 -1.2690
 7285TIP3   OH221795   1.382   3.193   4.548  0.1980 -0.4966  0.0867
 7285TIP3    H121796   1.438   3.249   4.601  1.7944 -0.8341 -1.2172
 7285TIP3    H221797   1.442   3.140   4.495 -1.3211 -0.7705 -1.4431
 7286TIP3   OH221798   2.525   4.836   4.291  0.2779  0.1183  0.0067
 7286TIP3    H121799   2.533   4.929   4.270 -0.6219  0.0251 -0.7573
 7286TIP3    H221800   2.436   4.827   4.324  0.4583 -0.4248  0.3404
 7287TIP3   OH221801   1.738   4.899   4.324 -0.6153 -0.3518 -0.0566
 7287TIP3    H121802   1.744   4.869   4.234  0.1501 -0.5744  0.0716
 7287TIP3    H221803   1.659   4.954   4.325 -0.1521  0.3516 -1.0558
 7288TIP3   OH221804   0.161   5.190   5.866  0.1820  0.7472 -0.1926
 7288TIP3    H121805   0.142   5.264   5.809 -0.9500  1.3634  0.9406
 7288TIP3    H221806   0.195   5.229   5.946  0.8718 -0.0489 -0.0883
 7289TIP3   OH221807   3.599   3.872   3.497 -0.4636 -0.5115  0.2658
 7289TIP3    H121808   3.667   3.836   3.553 -0.7546 -0.3809  0.7014
 7289TIP3    H221809   3.522   3.879   3.553 -0.6882 -0.1504 -0.0794
 7290TIP3   OH221810   1.081   6.269   6.836  0.6440  0.0063 -0.2716
 7290TIP3    H121811   1.109   6.196   6.891 -1.0083  0.1366  0.7526
 7290TIP3    H221812   1.098   6.347   6.889  1.3448  0.3110 -0.9264
 7291TIP3   OH221813   1.382   3.444   5.042 -0.4199  0.2873  0.1229
 7291TIP3    H121814   1.391   3.471   4.951 -2.0529 -0.5230 -0.2989
 7291TIP3    H221815   1.374   3.349   5.038  1.0285  0.1091  1.2388
 7292TIP3   OH221816   8.488   4.579   4.896  0.2677  0.0594  0.1191
 7292TIP3    H121817   8.527   4.665   4.884  0.2050  0.3349  1.8053
 7292TIP3    H221818   8.522   4.549   4.980 -2.4477 -0.0684  1.2150
 7293TIP3   OH221819   1.519   6.487   2.591  0.2419  0.0332 -0.2462
 7293TIP3    H121820   1.445   6.488   2.651  0.0795 -0.2444 -0.4412
 7293TIP3    H221821   1.588   6.441   2.638  0.0308 -0.4085 -0.3710
 7294TIP3   OH221822   6.781   3.152   5.670  0.2295 -0.4701 -0.0693
 7294TIP3    H121823   6.843   3.120   5.735  0.7925  1.3787  0.3489
 7294TIP3    H221824   6.716   3.083   5.663  0.3896 -0.8862  2.1457
 7295TIP3   OH221825   0.462   2.085   4.041  0.6195 -0.1058  0.1672
 7295TIP3    H121826   0.382   2.121   4.079  0.6279 -1.2572  1.3162
 7295TIP3    H221827   0.527   2.090   4.111  0.8020 -1.6872  0.1387
 7296TIP3   OH221828   8.528   1.877   5.848  0.1293  0.3298 -0.6691
 7296TIP3    H121829   8.467   1.842   5.783 -1.0915  2.1210 -0.5157
 7296TIP3    H221830   8.474   1.929   5.907  1.2344 -1.1791  1.7529
 7297TIP3   OH221831   1.225   3.360   5.396  0.2960 -0.2447  0.6359
 7297TIP3    H121832   1.154   3.336   5.336  0.7837 -2.2967  0.8513
 7297TIP3    H221833   1.299   3.305   5.369  1.8789  1.9686  0.3243
 7298TIP3   OH221834   0.951   4.082   4.523  0.2358  0.5195  0.4230
 7298TIP3    H121835   0.889   4.088   4.450  0.1945  0.3371  0.4437
 7298TIP3    H221836   0.911   4.020   4.584  0.4264  0.4224  0.4496
 7299TIP3   OH221837   5.941   1.462   0.220 -0.2547  0.4645 -0.1863
 7299TIP3    H121838   6.033   1.434   0.212 -0.9928 -2.0259 -0.2706
 7299TIP3    H221839   5.890   1.384   0.198 -2.4109  1.9614 -0.5945
 7300TIP3   OH221840   7.947   4.691   5.659  0.1539 -0.0227 -0.4306
 7300TIP3    H121841   7.878   4.628   5.642 -1.6300  1.8362 -0.2729
 7300TIP3    H221842   7.969   4.679   5.751 -2.1989  1.5008  0.3604
 7301TIP3   OH221843   2.240   3.631   4.556  0.7114  0.3680  0.0251
 7301TIP3    H121844   2.215   3.670   4.473  1.7479  1.4981  0.2314
 7301TIP3    H221845   2.213   3.695   4.622  0.2374 -0.3482  0.5329
 7302TIP3   OH221846   8.194   3.189   6.231 -0.2959 -0.7567  0.4577
 7302TIP3    H121847   8.114   3.144   6.258 -0.0979 -0.2365  1.9560
 7302TIP3    H221848   8.199   3.175   6.136 -0.2013 -3.9331  0.8924
 7303TIP3   OH221849   1.952   5.097   4.123  0.0386  0.5020 -0.0355
 7303TIP3    H121850   2.015   5.076   4.055 -2.2840  1.2349 -2.5094
 7303TIP3    H221851   1.868   5.067   4.088 -1.1232  0.2252  2.8241
 7304TIP3   OH221852   2.443   3.692   2.955 -0.4121 -0.3743  0.2696
 7304TIP3    H121853   2.532   3.660   2.939 -0.1658  0.3176  0.2067
 7304TIP3    H221854   2.407   3.631   3.019 -0.6668 -1.9223 -1.3240
 7305TIP3   OH221855   1.189   5.185   3.904 -0.0129 -0.2502  0.3216
 7305TIP3    H121856   1.214   5.150   3.818  0.6098 -0.5896  0.6375
 7305TIP3    H221857   1.157   5.273   3.885  2.2426  0.5327 -0.0253
 7306TIP3   OH221858   1.084   3.593   3.217  0.1201  0.5603 -0.4661
 7306TIP3    H121859   1.077   3.553   3.130  0.1652 -1.8505  0.6021
 7306TIP3    H221860   1.036   3.675   3.208  0.3471  0.4920 -2.8407
 7307TIP3   OH221861   1.553   4.110   6.902 -0.0078 -0.3807 -0.0645
 7307TIP3    H121862   1.528   4.076   6.988  0.2807  0.9318  0.5374
 7307TIP3    H221863   1.497   4.187   6.889 -0.1706 -0.6611 -1.1319
 7308TIP3   OH221864   0.514   2.617   3.204  0.4578 -0.5778 -0.0278
 7308TIP3    H121865   0.530   2.702   3.245  1.5282 -1.0580  0.5532
 7308TIP3    H221866   0.455   2.637   3.131  0.0328  0.5392  0.6143
 7309TIP3   OH221867   8.061   5.021   3.159  0.4426 -1.2585  0.0265
 7309TIP3    H121868   8.046   4.960   3.087 -1.5795 -0.6804 -0.0782
 7309TIP3    H221869   8.085   5.103   3.117  0.7680 -1.3347  0.0657
 7310TIP3   OH221870   2.385   3.191   4.577 -0.5021  0.0754 -0.3944
 7310TIP3    H121871   2.395   3.280   4.611 -0.6568  0.0839 -0.3713
 7310TIP3    H221872   2.400   3.135   4.652 -2.1356  0.1245 -0.0132
 7311TIP3   OH221873   3.480   7.077   0.598  0.3317 -1.3115  1.0746
 7311TIP3    H121874   3.458   7.063   0.690  1.1182 -0.8266  1.3373
 7311TIP3    H221875   3.412   7.135   0.565  0.6186 -0.6822  1.6044
 7312TIP3   OH221876   6.733   4.546   5.060 -0.0392 -0.3746  0.2521
 7312TIP3    H121877   6.659   4.551   4.999 -1.3928 -0.5212  1.8373
 7312TIP3    H221878   6.810   4.560   5.005 -1.0961 -2.1580 -1.7694
 7313TIP3   OH221879   0.213   4.015   3.598  0.2000 -0.7089  0.1656
 7313TIP3    H121880   0.123   3.983   3.589 -0.5650  1.7857 -1.5659
 7313TIP3    H221881   0.217   4.052   3.686 -0.8075  0.1671 -0.1501
 7314TIP3   OH221882   0.628   3.091   4.669 -0.0791 -0.1737 -0.9613
 7314TIP3    H121883   0.696   3.090   4.736  0.0154  1.8715 -0.9904
 7314TIP3    H221884   0.567   3.022   4.696  2.0991 -2.2069 -1.0669
 7315TIP3   OH221885   2.427   6.040   1.759  0.9448 -0.2463  0.3376
 7315TIP3    H121886   2.474   6.123   1.769  1.6478 -0.8800  2.6448
 7315TIP3    H221887   2.429   6.001   1.846 -1.5989 -1.5247 -0.1366
 7316TIP3   OH221888   2.679   5.412   6.191 -0.3938 -0.2979  0.2303
 7316TIP3    H121889   2.755   5.442   6.241 -1.4431  0.9814  1.0985
 7316TIP3    H221890   2.657   5.487   6.134 -0.0832 -1.2213 -1.1344
 7317TIP3   OH221891   1.894   4.257   3.588  0.3193  0.5320  0.4493
 7317TIP3    H121892   1.832   4.313   3.542 -0.5834 -0.1878  0.7777
 7317TIP3    H221893   1.869   4.168   3.563  2.2901  0.2792 -0.7766
 7318TIP3   OH221894   0.318   4.964   5.369 -0.4473  0.0276 -0.2438
 7318TIP3    H121895   0.375   5.006   5.304 -1.0451  3.0367  1.1062
 7318TIP3    H221896   0.230   4.991   5.345 -0.8541 -0.4671  0.6704
 7319TIP3   OH221897   2.440   4.660   4.937 -0.1161 -0.0306  0.0796
 7319TIP3    H121898   2.355   4.662   4.980 -0.5380 -0.6615 -0.6970
 7319TIP3    H221899   2.422   4.624   4.850  0.7774  0.8398 -0.4798
 7320TIP3   OH221900   2.358   7.437   0.851  0.2735 -0.4768  0.1443
 7320TIP3    H121901   2.431   7.487   0.887 -1.0512  1.6811 -0.0549
 7320TIP3    H221902   2.286   7.500   0.847 -0.8402 -1.8332 -2.1895
 7321TIP3   OH221903   0.455   1.305   5.186 -0.2176 -0.6512 -0.0854
 7321TIP3    H121904   0.373   1.344   5.156 -0.4441 -1.0836 -0.0312
 7321TIP3    H221905   0.429   1.240   5.251  0.3374  1.0039  1.8237
 7322TIP3   OH221906   6.906   3.613   2.698 -0.1924  0.0771  0.3706
 7322TIP3    H121907   6.912   3.624   2.604  2.4061  0.6773  0.5817
 7322TIP3    H221908   6.889   3.700   2.732 -0.6713 -0.0641  0.4993
 7323TIP3   OH221909   8.480   5.640   2.561  0.4573 -0.0942 -0.3717
 7323TIP3    H121910   8.443   5.710   2.615  1.2069 -0.6057  0.8380
 7323TIP3    H221911   8.477   5.563   2.617  0.7151 -0.7685 -1.2763
 7324TIP3   OH221912   0.523   2.536   4.371  0.0375 -0.3548  0.1351
 7324TIP3    H121913   0.595   2.475   4.386 -0.8082 -1.4799 -0.3594
 7324TIP3    H221914   0.503   2.527   4.278  1.1612  2.0754 -0.3898
 7325TIP3   OH221915   1.662   5.182   1.943  0.5491  0.2175  0.4490
 7325TIP3    H121916   1.637   5.096   1.978  2.8338  0.3251  2.5065
 7325TIP3    H221917   1.639   5.178   1.850  0.0857 -2.3933  0.6324
 7326TIP3   OH221918   7.850   4.216   4.556  0.1065 -0.0552 -0.2576
 7326TIP3    H121919   7.832   4.310   4.554 -4.3747 -0.8160 -0.2668
 7326TIP3    H221920   7.866   4.196   4.648  0.2558  0.5757 -0.1444
 7327TIP3   OH221921   8.424   5.657   5.184  0.8821  0.1173 -0.7878
 7327TIP3    H121922   8.406   5.570   5.147  1.3764 -0.2794 -0.0952
 7327TIP3    H221923   8.386   5.718   5.120 -1.3004 -0.6507 -0.2547
 7328TIP3   OH221924   7.590   3.853   4.848 -0.0319 -0.1568  0.7464
 7328TIP3    H121925   7.563   3.778   4.794  0.4100 -0.3967  0.8518
 7328TIP3    H221926   7.536   3.846   4.926  0.8763 -1.0990  1.3118
 7329TIP3   OH221927   0.234   4.081   5.697 -0.4908 -0.1922  0.7745
 7329TIP3    H121928   0.172   4.087   5.769 -1.0158 -0.1834  0.3297
 7329TIP3    H221929   0.308   4.032   5.733 -1.3563 -1.4322  0.9183
 7330TIP3   OH221930   1.729   3.578   4.587 -0.3648 -0.3807 -0.1496
 7330TIP3    H121931   1.675   3.648   4.553 -0.7758 -0.1477  0.9770
 7330TIP3    H221932   1.760   3.610   4.672 -0.2854 -1.4164  0.2223
 7331TIP3   OH221933   2.385   4.466   6.562  0.6568 -0.5736 -0.3919
 7331TIP3    H121934   2.444   4.485   6.488  0.6155  0.4908 -0.1613
 7331TIP3    H221935   2.420   4.519   6.634  0.5943 -1.4836  0.3110
 7332TIP3   OH221936   0.597   3.917   4.358  0.3802 -0.4393 -0.3058
 7332TIP3    H121937   0.546   3.840   4.384 -0.5694  0.2961  0.0512
 7332TIP3    H221938   0.583   3.980   4.429  1.6069 -0.1391 -0.3227
 7333TIP3   OH221939   8.046   3.833   6.818 -0.1751 -0.4510 -0.3139
 7333TIP3    H121940   8.081   3.813   6.905 -1.0050 -1.1313 -0.1331
 7333TIP3    H221941   8.111   3.797   6.757  0.8989  0.9061  0.0132
 7334TIP3   OH221942   2.568   4.462   5.254  0.1354 -0.8800 -0.0576
 7334TIP3    H121943   2.627   4.524   5.212 -1.2620 -0.0628 -0.8493
 7334TIP3    H221944   2.491   4.458   5.196 -0.2978 -2.4617  0.5744
 7335TIP3   OH221945   0.509   3.409   6.093  0.1596 -0.8474 -0.0015
 7335TIP3    H121946   0.565   3.486   6.103  0.1276 -1.0683  2.3345
 7335TIP3    H221947   0.420   3.443   6.098  0.1442 -0.9774  0.7465
 7336TIP3   OH221948   2.583   3.060   5.661 -0.0181  0.7899  0.0090
 7336TIP3    H121949   2.502   3.036   5.614 -0.7001 -0.1189  1.6070
 7336TIP3    H221950   2.557   3.132   5.718  0.1271  0.0930  0.9787
 7337TIP3   OH221951   2.471   6.185   0.184 -0.2226 -0.3509  0.1103
 7337TIP3    H121952   2.449   6.112   0.243 -1.9817  0.4609  0.5037
 7337TIP3    H221953   2.552   6.220   0.219  0.7680 -2.2533 -0.2148
 7338TIP3   OH221954   2.375   3.067   6.264 -0.3014  0.0926  0.5043
 7338TIP3    H121955   2.338   3.113   6.188  0.2991  0.7258  0.5911
 7338TIP3    H221956   2.314   3.088   6.335  0.0273  0.8434  0.5679
 7339TIP3   OH221957   2.022   6.439   6.719 -0.6334 -0.2207  0.1542
 7339TIP3    H121958   1.949   6.411   6.774 -0.4794 -0.0561  0.4433
 7339TIP3    H221959   2.095   6.449   6.780 -0.2858 -0.7024 -0.1809
 7340TIP3   OH221960   8.522   3.412   6.057 -0.4351  0.0818  0.4803
 7340TIP3    H121961   8.515   3.477   5.987 -0.9895 -0.4053  0.0787
 7340TIP3    H221962   8.604   3.366   6.038 -0.5370  0.0126  0.2033
 7341TIP3   OH221963   1.055   1.498   6.952 -0.3852  0.0622  0.2704
 7341TIP3    H121964   1.073   1.514   6.860 -1.8688 -0.3181 -0.0983
 7341TIP3    H221965   1.042   1.585   6.990 -0.5365  0.1757 -0.0457
 7342TIP3   OH221966   4.251   7.395   2.187  0.0320  0.4360 -0.8375
 7342TIP3    H121967   4.188   7.340   2.141  0.5330 -0.6140 -0.3064
 7342TIP3    H221968   4.334   7.347   2.180  0.8400  1.9249 -1.7701
 7343TIP3   OH221969   2.040   5.104   5.551  0.0319  0.5121 -0.7259
 7343TIP3    H121970   2.084   5.062   5.626 -1.0601 -0.4743 -0.6351
 7343TIP3    H221971   1.995   5.180   5.589  1.2526  1.2629 -0.7430
 7344TIP3   OH221972   4.571   7.244   1.389 -0.2963 -0.4231  0.4036
 7344TIP3    H121973   4.666   7.237   1.380 -0.4300 -0.6908 -0.8495
 7344TIP3    H221974   4.553   7.214   1.478  0.7576 -0.6608  0.5396
 7345TIP3   OH221975   1.855   3.846   6.068  0.1693 -0.1931  0.3502
 7345TIP3    H121976   1.923   3.907   6.097 -0.0006  0.9366 -1.4857
 7345TIP3    H221977   1.774   3.896   6.077 -0.2742 -1.0986  1.3553
 7346TIP3   OH221978   3.691   7.161   0.787 -0.3202  0.3897  0.0030
 7346TIP3    H121979   3.632   7.159   0.862  0.6588 -0.3703  0.7661
 7346TIP3    H221980   3.640   7.203   0.718 -0.9874  1.7976  1.3015
 7347TIP3   OH221981   0.182   0.124   0.039 -0.4064 -0.7442 -0.0713
 7347TIP3    H121982   0.186   0.187  -0.033 -0.1509 -1.0360 -0.3188
 7347TIP3    H221983   0.264   0.138   0.087  0.1432 -1.5944 -0.7378
 7348TIP3   OH221984   0.071   5.020   2.935 -0.6058  0.9609  0.5356
 7348TIP3    H121985   0.074   4.950   2.870 -3.2947  1.3788 -0.1229
 7348TIP3    H221986   0.154   5.065   2.925  0.4821 -1.1143 -0.1855
 7349TIP3   OH221987   2.428   2.877   3.988 -0.0401  0.1555 -0.4879
 7349TIP3    H121988   2.454   2.809   3.926  3.0936  2.0072 -1.3352
 7349TIP3    H221989   2.487   2.867   4.062 -0.8154  0.7541  0.2224
 7350TIP3   OH221990   8.495   3.516   6.304 -0.1180  0.2945 -0.5440
 7350TIP3    H121991   8.492   3.611   6.304 -0.0023  0.3027 -1.5989
 7350TIP3    H221992   8.497   3.492   6.211  2.0285 -0.6668 -0.2850
 7351TIP3   OH221993   2.179   3.945   5.766  1.6086 -0.1121 -0.5405
 7351TIP3    H121994   2.261   3.993   5.776  1.6086 -0.0406 -0.8652
 7351TIP3    H221995   2.198   3.880   5.698  1.7050 -0.7836  0.1179
 7352TIP3   OH221996   2.118   3.876   3.601 -0.2832 -0.2634  0.3099
 7352TIP3    H121997   2.161   3.814   3.659 -0.6150 -1.5330 -0.7911
 7352TIP3    H221998   2.082   3.943   3.660  1.6740 -0.1021  1.3605
 7353TIP3   OH221999   3.545   5.539   3.413  0.2146 -0.3804  0.0486
 7353TIP3    H122000   3.553   5.444   3.406 -1.0809 -0.4562 -0.5434
 7353TIP3    H222001   3.635   5.569   3.430  0.3944 -1.8286  1.9147
 7354TIP3   OH222002   1.863   5.584   5.226 -0.5783  0.5705  0.0768
 7354TIP3    H122003   1.814   5.661   5.196 -1.2183  0.2423  0.2609
 7354TIP3    H222004   1.841   5.576   5.319 -1.0726 -0.2412 -0.1060
 7355TIP3   OH222005   8.443   2.462   6.050  0.0867 -0.3246  0.2851
 7355TIP3    H122006   8.364   2.472   6.102 -1.7893 -1.5066 -2.2087
 7355TIP3    H222007   8.417   2.405   5.978  3.0955 -0.3332 -0.8791
 7356TIP3   OH222008   2.000   3.215   3.770 -0.4404 -0.1430 -0.2063
 7356TIP3    H122009   1.929   3.158   3.740 -0.4716  0.2088 -0.8161
 7356TIP3    H222010   2.072   3.155   3.790 -0.1772 -0.3419 -1.6863
 7357TIP3   OH222011   2.691   3.300   4.751 -0.5725 -0.0771 -0.8874
 7357TIP3    H122012   2.659   3.220   4.792 -0.5540 -0.6238 -1.9346
 7357TIP3    H222013   2.646   3.370   4.799 -1.1294 -0.7294 -0.4356
 7358TIP3   OH222014   2.723   3.567   5.995 -0.0988 -0.1706  0.2167
 7358TIP3    H122015   2.777   3.531   6.066 -1.1589 -1.2496  0.5023
 7358TIP3    H222016   2.758   3.525   5.916  0.7892  0.6871  0.1435
 7359TIP3   OH222017   1.452   3.236   6.725 -0.1498  0.6095  0.3432
 7359TIP3    H122018   1.483   3.248   6.815  2.3358  0.0463 -0.4039
 7359TIP3    H222019   1.368   3.282   6.722 -1.0272 -0.6908  3.3714
 7360TIP3   OH222020   6.489   0.479   0.966  0.1322 -0.5642 -0.9163
 7360TIP3    H122021   6.470   0.466   0.873 -1.0459  1.2875 -0.9705
 7360TIP3    H222022   6.486   0.574   0.978  2.7476 -0.5989  0.5272
 7361TIP3   OH222023   2.316   3.256   5.305  0.0921 -0.1432  0.4700
 7361TIP3    H122024   2.408   3.234   5.317  0.3339 -0.0107 -0.9755
 7361TIP3    H222025   2.310   3.282   5.213 -1.8540 -2.3585 -0.0572
 7362TIP3   OH222026   2.236   5.611   3.927 -0.0632 -0.0459 -0.2532
 7362TIP3    H122027   2.241   5.576   3.838 -2.0092 -1.4335  0.1585
 7362TIP3    H222028   2.328   5.626   3.951  0.5849 -1.0836 -1.9228
 7363TIP3   OH222029   6.500   1.163   0.620 -0.2905 -0.1515 -0.9321
 7363TIP3    H122030   6.594   1.180   0.616 -0.2048  0.4020  2.0306
 7363TIP3    H222031   6.462   1.244   0.654 -1.5772 -1.0652 -0.1256
 7364TIP3   OH222032   1.584   3.170   3.810 -0.4246 -0.3131  0.0348
 7364TIP3    H122033   1.526   3.219   3.752  0.0495 -0.8943 -0.9262
 7364TIP3    H222034   1.646   3.127   3.752  0.8195  0.0941  1.0447
 7365TIP3   OH222035   7.194   1.699   1.033  0.5169 -0.2869 -0.2557
 7365TIP3    H122036   7.170   1.783   0.994  1.6425  0.1272 -0.0754
 7365TIP3    H222037   7.220   1.721   1.122  0.0816 -0.9341  0.0333
 7366TIP3   OH222038   4.702   6.115   1.272  0.0669 -0.4794 -0.8806
 7366TIP3    H122039   4.765   6.059   1.318 -0.6697 -0.8885 -0.3445
 7366TIP3    H222040   4.700   6.080   1.183 -1.2920 -2.1287 -0.2402
 7367TIP3   OH222041   2.169   3.830   4.165 -0.0497 -0.2667  0.4158
 7367TIP3    H122042   2.175   3.846   4.260 -1.6317  1.2041  0.2874
 7367TIP3    H222043   2.087   3.871   4.139  0.0773 -1.1896 -1.5101
 7368TIP3   OH222044   8.331   1.986   6.040 -0.0005 -0.0337  0.0892
 7368TIP3    H122045   8.271   1.982   6.114 -1.8072  1.5540 -1.2319
 7368TIP3    H222046   8.286   1.937   5.971  1.1930 -0.6275 -0.2725
 7369TIP3   OH222047   4.406   2.284   4.580 -0.1868  0.5394 -0.7252
 7369TIP3    H122048   4.435   2.283   4.488  0.4885  0.1344 -0.5164
 7369TIP3    H222049   4.396   2.191   4.602 -1.4218  0.6744 -0.7169
 7370TIP3   OH222050   1.038   2.434   4.228  0.7182 -0.4924  0.0295
 7370TIP3    H122051   1.091   2.413   4.151  1.5520 -0.7925  0.6809
 7370TIP3    H222052   1.045   2.356   4.284  2.7477  0.9797  1.8681
 7371TIP3   OH222053   1.037   2.796   5.384  0.6540 -0.3933  0.4552
 7371TIP3    H122054   0.950   2.791   5.424  0.2208  2.0400 -0.1176
 7371TIP3    H222055   1.097   2.807   5.458  0.2093  0.4933  0.6855
 7372TIP3   OH222056   1.333   3.064   3.371  0.0195  0.3148 -0.8570
 7372TIP3    H122057   1.282   2.984   3.360 -1.0167  1.0494 -1.5038
 7372TIP3    H222058   1.270   3.135   3.360  0.6797  1.2227  0.9760
 7373TIP3   OH222059   0.171   2.617   6.161  0.2081 -0.2051 -0.0852
 7373TIP3    H122060   0.150   2.544   6.220 -0.7813 -0.7403 -1.0823
 7373TIP3    H222061   0.210   2.577   6.084  1.9847  0.5436  0.4093
 7374TIP3   OH222062   8.192   3.032   4.485 -0.2666  0.3428  0.4332
 7374TIP3    H122063   8.251   3.066   4.553 -0.8135 -2.2057  2.2351
 7374TIP3    H222064   8.245   3.032   4.405  1.7533 -0.6121  1.7401
 7375TIP3   OH222065   0.405   5.192   6.748 -0.5121  0.6482  0.5530
 7375TIP3    H122066   0.380   5.186   6.841  0.6466 -2.4937  0.7306
 7375TIP3    H222067   0.387   5.104   6.713  2.4943  0.7067 -1.2976
 7376TIP3   OH222068   2.444   5.101   4.005 -0.1603 -0.3179  0.7816
 7376TIP3    H122069   2.435   5.086   4.099  0.5702  2.1049  1.2755
 7376TIP3    H222070   2.431   5.196   3.995 -0.2321 -0.5562 -1.5549
 7377TIP3   OH222071   4.526   7.913   0.754 -0.1550  0.4094  0.3785
 7377TIP3    H122072   4.576   7.938   0.833 -0.8440 -0.6060  1.1496
 7377TIP3    H222073   4.593   7.883   0.693  0.1559 -1.6081  1.6580
 7378TIP3   OH222074   0.326   5.596   4.398  0.6073  0.1421  0.2888
 7378TIP3    H122075   0.299   5.600   4.306 -3.4116 -0.3817  1.3379
 7378TIP3    H222076   0.306   5.506   4.425  0.6656  0.6251  1.9853
 7379TIP3   OH222077   2.393   5.455   5.069 -0.3060  0.4512 -0.0330
 7379TIP3    H122078   2.301   5.448   5.045 -0.3526  0.6019  0.1060
 7379TIP3    H222079   2.439   5.462   4.985 -0.5307  1.6590 -0.0588
 7380TIP3   OH222080   1.669   4.222   2.484  0.1624 -0.1543 -0.1047
 7380TIP3    H122081   1.576   4.204   2.477  0.2653 -0.5533 -0.4597
 7380TIP3    H222082   1.695   4.249   2.396  0.2102  0.7858  0.1905
 7381TIP3   OH222083   0.592   3.741   5.704 -0.7950 -0.0026  0.2879
 7381TIP3    H122084   0.605   3.794   5.625 -0.7269 -0.7756 -0.2314
 7381TIP3    H222085   0.500   3.717   5.702 -1.1811  1.3481  1.3324
 7382TIP3   OH222086   7.912   2.955   2.222 -0.0997 -0.6800 -0.1096
 7382TIP3    H122087   7.863   2.881   2.185  0.3309  0.0770 -2.2760
 7382TIP3    H222088   7.897   3.027   2.160  2.5253 -0.0138 -0.0182
 7383TIP3   OH222089   6.821   4.286   7.025 -0.1571 -0.1177  0.0895
 7383TIP3    H122090   6.752   4.340   7.064 -0.1743  1.9608 -2.6707
 7383TIP3    H222091   6.774   4.222   6.972 -0.0197  0.1038 -0.3020
 7384TIP3   OH222092   0.703   4.626   6.905  0.6061 -0.0800  0.7220
 7384TIP3    H122093   0.755   4.549   6.931  0.3499 -0.9188 -1.1282
 7384TIP3    H222094   0.755   4.666   6.835 -0.7727 -0.4002 -0.5074
 7385TIP3   OH222095   2.081   5.767   3.440  0.2487  0.2287 -0.1143
 7385TIP3    H122096   2.163   5.816   3.437  1.2554 -1.4323 -0.4491
 7385TIP3    H222097   2.017   5.829   3.475  1.1768  2.1925 -1.7757
 7386TIP3   OH222098   2.419   3.440   4.702  0.0068  0.3268 -0.3724
 7386TIP3    H122099   2.394   3.415   4.791  1.1874 -0.3229 -0.2114
 7386TIP3    H222100   2.358   3.510   4.679 -0.8504 -0.0747  0.6258
 7387TIP3   OH222101   3.401   5.486   0.756  0.3448 -0.2503  0.4860
 7387TIP3    H122102   3.424   5.540   0.680 -1.6414  0.5756  0.4565
 7387TIP3    H222103   3.485   5.468   0.799  1.2728  0.8904 -0.8237
 7388TIP3   OH222104   8.351   4.272   4.038 -0.1974 -0.2235 -0.0536
 7388TIP3    H122105   8.408   4.205   4.076 -0.6351 -1.5996 -1.7311
 7388TIP3    H222106   8.412   4.329   3.990  0.0228 -0.3137  0.1128
 7389TIP3   OH222107   4.318   6.451   1.246  0.2686 -0.3926 -0.3088
 7389TIP3    H122108   4.402   6.454   1.200 -0.4300 -0.1023 -1.6248
 7389TIP3    H222109   4.257   6.495   1.186 -0.4641  0.9970  1.4034
 7390TIP3   OH222110   1.011   4.740   6.535 -0.2117  0.1206 -0.5547
 7390TIP3    H122111   1.062   4.816   6.564 -3.6817  3.5534 -3.0148
 7390TIP3    H222112   1.057   4.709   6.456  1.1621 -0.3726  0.4079
 7391TIP3   OH222113   0.161   2.873   3.859 -0.4342  0.1092  0.1536
 7391TIP3    H122114   0.128   2.816   3.788 -1.6589 -0.7864  1.4188
 7391TIP3    H222115   0.241   2.912   3.823 -2.1911  1.3800 -2.5514
 7392TIP3   OH222116   3.008   5.759   0.297 -0.1742  0.3456  0.5581
 7392TIP3    H122117   2.931   5.704   0.288  1.2149 -1.5329 -0.2316
 7392TIP3    H222118   2.975   5.849   0.291 -2.0281 -0.4631 -2.0126
 7393TIP3   OH222119   8.300   3.668   5.348  0.1260  0.4257 -0.3643
 7393TIP3    H122120   8.388   3.631   5.353  0.4549  1.2778  0.3059
 7393TIP3    H222121   8.277   3.687   5.439 -0.7944  0.0962 -0.5246
 7394TIP3   OH222122   8.053   5.290   6.386 -0.3598  0.1252 -0.1071
 7394TIP3    H122123   8.026   5.198   6.377 -2.3845  0.7700 -0.7974
 7394TIP3    H222124   7.986   5.329   6.441  0.4572  1.2396  0.1138
 7395TIP3   OH222125   1.209   3.432   3.683 -0.0574 -0.9373  0.1107
 7395TIP3    H122126   1.228   3.423   3.776 -1.4157  0.3219  0.5454
 7395TIP3    H222127   1.272   3.497   3.652  1.5511 -2.6471 -0.2549
 7396TIP3   OH222128   5.381   0.946   0.683  0.3206  0.4314  0.2709
 7396TIP3    H122129   5.365   1.036   0.655  1.0248  0.3276 -0.4784
 7396TIP3    H222130   5.346   0.942   0.772  0.7890  1.6116  0.5165
 7397TIP3   OH222131   1.525   3.363   6.970  0.2511 -0.1618 -0.3363
 7397TIP3    H122132   1.583   3.378   7.045 -1.2182 -0.7386  0.9657
 7397TIP3    H222133   1.488   3.449   6.950 -1.9302 -0.5175  1.8374
 7398TIP3   OH222134   8.384   0.074   1.185 -0.0467  0.1585 -0.0117
 7398TIP3    H122135   8.444   0.142   1.218 -0.4495  1.3696 -1.6913
 7398TIP3    H222136   8.379   0.091   1.091 -1.8759 -0.8611 -0.1087
 7399TIP3   OH222137   7.790   4.148   2.380  0.2002  0.4000  0.4500
 7399TIP3    H122138   7.858   4.081   2.388  0.1271  0.5100  1.9754
 7399TIP3    H222139   7.712   4.107   2.418 -0.6265  0.2449 -1.3535
 7400TIP3   OH222140   0.639   5.071   5.905 -0.2328 -0.4429  0.1386
 7400TIP3    H122141   0.547   5.049   5.892 -0.3824 -2.0934  3.3880
 7400TIP3    H222142   0.639   5.164   5.925 -0.7363  0.4154 -3.4667
 7401TIP3   OH222143   8.120   5.547   3.840  0.5501  0.3101 -0.5903
 7401TIP3    H122144   8.057   5.592   3.896 -1.1002  0.4090 -2.4536
 7401TIP3    H222145   8.170   5.618   3.799  2.1950  0.2200  1.1964
 7402TIP3   OH222146   2.243   4.316   5.169 -0.5573  0.5571 -0.1606
 7402TIP3    H122147   2.162   4.333   5.219 -0.8368  0.7612 -0.6794
 7402TIP3    H222148   2.238   4.377   5.095  0.4315  1.1016  0.2093
 7403TIP3   OH222149   3.507   3.609   3.934  0.2149 -0.0781 -0.1660
 7403TIP3    H122150   3.568   3.580   3.866  2.1239  0.0512  1.4602
 7403TIP3    H222151   3.512   3.705   3.931  0.2017 -0.0702  0.0893
 7404TIP3   OH222152   2.024   5.661   4.901  0.1696 -0.1319  0.6389
 7404TIP3    H122153   2.047   5.690   4.989  0.2190  1.2593  0.1675
 7404TIP3    H222154   1.972   5.732   4.864 -1.5794 -1.5693  0.2614
 7405TIP3   OH222155   3.292   4.761   6.443 -0.2964 -0.5539 -0.2104
 7405TIP3    H122156   3.348   4.806   6.506 -3.5574  0.5047  2.0676
 7405TIP3    H222157   3.276   4.827   6.375  1.1029 -0.8286 -0.8215
 7406TIP3   OH222158   3.188   2.294   4.053  0.1497 -0.7386  0.1568
 7406TIP3    H122159   3.268   2.323   4.096 -0.3681 -1.3363  1.5752
 7406TIP3    H222160   3.129   2.369   4.059  0.5868 -0.2914 -0.9044
 7407TIP3   OH222161   8.471   3.919   4.438  0.1909  0.0247  0.9208
 7407TIP3    H122162   8.554   3.875   4.419  1.3493  2.0346  1.2245
 7407TIP3    H222163   8.492   3.979   4.509 -1.1944  1.5667  0.0535
 7408TIP3   OH222164   3.081   2.044   4.161  0.0988 -0.0195  0.0980
 7408TIP3    H122165   3.045   2.115   4.108 -0.3456 -0.0693  0.3280
 7408TIP3    H222166   3.097   1.973   4.100  0.9683  0.4306 -0.2131
 7409TIP3   OH222167   3.136   4.580   3.372 -0.0817 -0.0810  0.3406
 7409TIP3    H122168   3.123   4.667   3.409 -0.0541  0.0788 -0.0285
 7409TIP3    H222169   3.178   4.595   3.288 -1.7806 -0.3450 -0.5769
 7410TIP3   OH222170   5.434   5.077   6.502 -0.0589 -0.3326 -0.6265
 7410TIP3    H122171   5.355   5.131   6.512  0.5919  0.9958 -2.3499
 7410TIP3    H222172   5.500   5.137   6.467  1.2458 -1.8154 -0.7773
 7411TIP3   OH222173   8.248   6.229   6.914 -0.3391  0.2963  0.0450
 7411TIP3    H122174   8.248   6.198   6.823  0.9736  0.6800 -0.0955
 7411TIP3    H222175   8.214   6.318   6.909  0.0781  0.4485 -0.1244
 7412TIP3   OH222176   3.340   2.455   3.697 -0.8434  0.0114  0.0376
 7412TIP3    H122177   3.374   2.499   3.775  0.0427 -0.0562 -0.2977
 7412TIP3    H222178   3.419   2.435   3.645 -1.1511 -2.7001  0.5686
 7413TIP3   OH222179   2.724   4.209   6.201  0.0296  0.2015 -0.0176
 7413TIP3    H122180   2.701   4.155   6.126  1.8244 -1.7686  0.7843
 7413TIP3    H222181   2.797   4.263   6.170  1.6143 -1.5103  0.6124
 7414TIP3   OH222182   2.190   4.263   6.114 -0.0655 -0.4730 -0.3402
 7414TIP3    H122183   2.121   4.215   6.159 -0.1499 -1.0055 -1.0346
 7414TIP3    H222184   2.203   4.342   6.167 -0.5217 -0.8431  0.3263
 7415TIP3   OH222185   1.610   3.875   4.574  0.0660  0.2668 -0.6461
 7415TIP3    H122186   1.535   3.844   4.624  0.4568  1.5779  0.7864
 7415TIP3    H222187   1.645   3.947   4.626  1.6322  0.4060 -1.8693
 7416TIP3   OH222188   0.667   5.692   5.642  0.0495  0.1502 -0.0190
 7416TIP3    H122189   0.587   5.738   5.617  0.5598  1.5398  0.8745
 7416TIP3    H222190   0.644   5.648   5.724 -0.7682 -2.1340 -1.4062
 7417TIP3   OH222191   4.155   2.059   4.874 -0.5105 -0.3610 -0.2521
 7417TIP3    H122192   4.161   1.997   4.947 -2.3672 -0.1167  0.1406
 7417TIP3    H222193   4.075   2.034   4.828 -1.3993  1.8435  0.0296
 7418TIP3   OH222194   1.510   5.652   6.090 -0.0649 -0.6515  0.6026
 7418TIP3    H122195   1.443   5.720   6.083  0.6153  0.0215  0.6861
 7418TIP3    H222196   1.580   5.681   6.033  1.0404 -0.3382  2.1049
 7419TIP3   OH222197   2.384   4.095   6.343  0.0958  0.3841 -0.0883
 7419TIP3    H122198   2.466   4.054   6.371 -0.3586 -0.8806 -0.5989
 7419TIP3    H222199   2.399   4.120   6.252 -0.1189  0.0398 -0.2209
 7420TIP3   OH222200   0.156   1.990   5.691  0.3959  0.2461  0.3844
 7420TIP3    H122201   0.082   1.960   5.743  0.8569  0.3441  1.0955
 7420TIP3    H222202   0.159   2.085   5.705  1.1819  0.1278  1.0369
 7421TIP3   OH222203   4.448   1.501   4.734  0.0489  0.0070  0.5912
 7421TIP3    H122204   4.363   1.488   4.692 -0.0843  1.1147  0.4835
 7421TIP3    H222205   4.498   1.553   4.671  0.5995 -0.1528  0.8977
 7422TIP3   OH222206   4.081   3.698   4.677 -0.2018 -0.1024  0.1536
 7422TIP3    H122207   4.024   3.773   4.695  1.2070  1.2441 -0.8466
 7422TIP3    H222208   4.161   3.717   4.725  1.2762  0.5026 -2.4386
 7423TIP3   OH222209   2.938   3.708   5.030  0.2703 -0.0284  0.0099
 7423TIP3    H122210   2.958   3.788   4.981  1.6547  0.0769  0.7161
 7423TIP3    H222211   2.912   3.645   4.963  1.8443  0.2078 -0.8545
 7424TIP3   OH222212   3.789   3.277   3.434  0.1790 -0.6728 -0.0548
 7424TIP3    H122213   3.828   3.233   3.510 -2.2119  0.7805  2.0984
 7424TIP3    H222214   3.815   3.369   3.444  0.1232 -0.5247 -1.1945
 7425TIP3   OH222215   2.309   3.914   2.706 -0.0239 -0.9568 -0.4253
 7425TIP3    H122216   2.371   3.938   2.775  0.0762  0.8584 -1.1102
 7425TIP3    H222217   2.307   3.990   2.649 -2.8303 -1.0161 -0.4641
 7426TIP3   OH222218   3.690   6.027   4.528  0.3136 -0.3887 -0.4598
 7426TIP3    H122219   3.724   6.085   4.460  0.5444 -1.4472 -1.2587
 7426TIP3    H222220   3.610   5.991   4.489  0.1023 -0.5024  0.0864
 7427TIP3   OH222221   3.804   4.349   6.314  0.2665 -0.3184  0.5313
 7427TIP3    H122222   3.838   4.265   6.345 -0.5160 -0.3270  1.4054
 7427TIP3    H222223   3.751   4.326   6.238  1.3583 -0.4201 -0.2134
 7428TIP3   OH222224   2.160   4.731   5.000 -0.6635  0.1567 -0.4126
 7428TIP3    H122225   2.075   4.692   5.018 -1.6119  2.2768 -0.1269
 7428TIP3    H222226   2.151   4.822   5.028  1.8713  0.2830  0.1292
 7429TIP3   OH222227   3.409   3.765   3.694  0.1063  0.1426  0.1559
 7429TIP3    H122228   3.477   3.699   3.706  1.7267  1.5799 -1.0063
 7429TIP3    H222229   3.446   3.845   3.732 -0.8614  0.9776 -0.6250
 7430TIP3   OH222230   3.177   5.253   6.598  0.2038  0.3773  0.3757
 7430TIP3    H122231   3.145   5.290   6.516  0.3625  0.3525  0.3017
 7430TIP3    H222232   3.267   5.226   6.579 -0.2166 -0.9042  0.1668
 7431TIP3   OH222233   4.697   3.514   4.204 -0.1634  0.0725 -0.1854
 7431TIP3    H122234   4.724   3.465   4.281  0.2486  0.4784 -0.0692
 7431TIP3    H222235   4.611   3.478   4.181  0.5794 -1.3831 -0.7061
 7432TIP3   OH222236   0.375   4.677   4.440 -0.0228 -0.3361 -0.6622
 7432TIP3    H122237   0.426   4.606   4.477  0.1012 -0.5950 -1.3365
 7432TIP3    H222238   0.286   4.642   4.434 -0.2360  0.0295  0.2752
 7433TIP3   OH222239   2.243   4.292   2.774 -0.1336 -0.2426  0.1831
 7433TIP3    H122240   2.300   4.238   2.828  2.3150 -0.0192 -2.0618
 7433TIP3    H222241   2.198   4.350   2.836  0.4254 -1.9207  2.2003
 7434TIP3   OH222242   1.857   3.077   4.496 -0.5380 -0.0741 -0.7942
 7434TIP3    H122243   1.893   3.157   4.457 -1.2694  1.0495  0.7395
 7434TIP3    H222244   1.933   3.026   4.523 -0.0663  0.4093 -1.2213
 7435TIP3   OH222245   4.251   0.866   5.163 -0.6901 -0.4388  0.1810
 7435TIP3    H122246   4.291   0.796   5.215  0.3886 -1.0965 -1.4960
 7435TIP3    H222247   4.278   0.947   5.207 -0.7024 -1.0102  1.2662
 7436TIP3   OH222248   2.835   2.830   3.294 -0.1604 -0.3006  0.4164
 7436TIP3    H122249   2.748   2.803   3.326 -1.0002  2.5209  0.6953
 7436TIP3    H222250   2.820   2.852   3.202  0.4596 -0.6473  0.2355
 7437TIP3   OH222251   3.108   5.072   5.479  0.0118 -0.1794 -0.0091
 7437TIP3    H122252   3.078   4.982   5.494  0.5019 -0.4291 -0.5207
 7437TIP3    H222253   3.201   5.063   5.458 -0.3795  0.2484 -2.0716
 7438TIP3   OH222254   0.578   4.879   6.897  0.2773  0.2380  0.4624
 7438TIP3    H122255   0.494   4.869   6.942 -1.2519  0.5342 -2.2351
 7438TIP3    H222256   0.624   4.798   6.915 -0.9612 -0.3215  1.2148
 7439TIP3   OH222257   4.962   1.327   5.277 -0.4311  0.2830  0.7057
 7439TIP3    H122258   4.977   1.255   5.339  0.6111  1.6218  2.0484
 7439TIP3    H222259   4.939   1.401   5.333 -1.5188  0.9911 -0.6740
 7440TIP3   OH222260   3.119   3.247   6.504 -0.1370  0.1702 -0.1803
 7440TIP3    H122261   3.120   3.266   6.410  2.0259  0.2391 -0.1602
 7440TIP3    H222262   3.062   3.171   6.512 -0.9403  0.6178 -1.4526
 7441TIP3   OH222263   1.599   5.169   6.042  0.5539  0.3297  0.2378
 7441TIP3    H122264   1.555   5.243   6.084  1.6974  0.1535  1.7982
 7441TIP3    H222265   1.615   5.198   5.953  0.0830  1.5733  0.5440
 7442TIP3   OH222266   1.237   5.862   3.765 -0.4280 -0.3442 -0.0651
 7442TIP3    H122267   1.166   5.802   3.787 -0.1528 -0.7783 -0.3381
 7442TIP3    H222268   1.194   5.935   3.720 -0.7208 -0.5065 -0.0515
 7443TIP3   OH222269   4.036   6.350   2.798  0.1429  0.2362  0.1337
 7443TIP3    H122270   4.008   6.421   2.741  1.8243  1.3715  0.7038
 7443TIP3    H222271   4.046   6.275   2.739  3.0781  1.7067 -1.3322
 7444TIP3   OH222272   2.568   5.264   3.661 -0.6766  0.1187 -0.5103
 7444TIP3    H122273   2.648   5.252   3.711 -0.3773  2.0591 -0.4968
 7444TIP3    H222274   2.578   5.205   3.586  1.7991  1.9774 -1.7197
 7445TIP3   OH222275   2.121   6.088   5.361 -0.3182  0.0996  0.0617
 7445TIP3    H122276   2.105   6.107   5.269 -2.6990 -0.2376  0.3578
 7445TIP3    H222277   2.088   5.999   5.373  0.8030 -0.1973  1.0492
 7446TIP3   OH222278   2.525   5.096   6.642  0.1676 -0.2210 -0.0105
 7446TIP3    H122279   2.443   5.143   6.627  0.6979  0.7785  0.1386
 7446TIP3    H222280   2.515   5.013   6.596 -1.6227 -0.8691  1.5085
 7447TIP3   OH222281   2.130   2.916   5.847 -0.2145 -0.4838  0.1653
 7447TIP3    H122282   2.085   2.864   5.914 -0.3947 -1.1295 -0.4475
 7447TIP3    H222283   2.159   2.852   5.782  2.4738 -0.1750  1.0348
 7448TIP3   OH222284   1.923   4.709   6.876 -0.0403 -0.3595 -0.2016
 7448TIP3    H122285   1.894   4.798   6.859  0.4192 -0.1245  0.2533
 7448TIP3    H222286   1.884   4.657   6.806 -1.0483  0.0573  0.0467
 7449TIP3   OH222287   1.624   4.089   4.065  0.4897 -0.0616 -0.2389
 7449TIP3    H122288   1.571   4.050   3.995  1.4293 -1.0924 -0.3950
 7449TIP3    H222289   1.563   4.104   4.137 -0.3351  0.2945 -1.0078
 7450TIP3   OH222290   0.465   2.483   4.890  0.1014 -0.5978 -0.4120
 7450TIP3    H122291   0.538   2.469   4.830  1.2968  1.5299  0.5216
 7450TIP3    H222292   0.391   2.439   4.848  1.5300 -1.3707 -2.1597
 7451TIP3   OH222293   2.881   3.780   4.398 -0.2345  0.1485  0.2348
 7451TIP3    H122294   2.805   3.789   4.340  0.7775 -0.6750 -1.2397
 7451TIP3    H222295   2.853   3.714   4.462 -1.2976  0.9444  0.6117
 7452TIP3   OH222296   2.513   6.340   5.407  0.2116  0.0083  0.1081
 7452TIP3    H122297   2.492   6.434   5.405 -0.6488 -0.1582  0.8599
 7452TIP3    H222298   2.602   6.336   5.443  0.4698  0.5647 -0.4548
 7453TIP3   OH222299   8.319   4.769   4.405  0.3122  0.1354  0.2962
 7453TIP3    H122300   8.343   4.736   4.318 -0.5985 -0.2814  0.2072
 7453TIP3    H222301   8.296   4.861   4.390 -1.5101 -0.3809 -0.1997
 7454TIP3   OH222302   2.443   3.735   4.340  0.0800 -0.6650 -0.5423
 7454TIP3    H122303   2.483   3.666   4.394  1.4104 -0.5371 -1.3256
 7454TIP3    H222304   2.441   3.697   4.252  0.5900  0.1980 -0.9317
 7455TIP3   OH222305   3.166   4.414   6.314 -0.0734  0.2287 -0.0451
 7455TIP3    H122306   3.096   4.424   6.379 -0.4792 -0.1538 -0.4226
 7455TIP3    H222307   3.232   4.360   6.358 -1.1715 -1.5799 -0.5963
 7456TIP3   OH222308   5.210   3.902   5.953 -0.1236  0.0179  0.3259
 7456TIP3    H122309   5.134   3.858   5.991 -1.5206  0.9563 -1.3198
 7456TIP3    H222310   5.192   3.995   5.965  1.2961  0.2300  0.8956
 7457TIP3   OH222311   2.745   2.078   3.799  0.1168 -0.2962 -0.1799
 7457TIP3    H122312   2.798   2.076   3.879  0.7007 -0.4738 -0.5654
 7457TIP3    H222313   2.746   2.169   3.771  0.1319 -0.2798 -0.1243
 7458TIP3   OH222314   1.334   5.101   4.578  0.0944 -0.5550  0.1015
 7458TIP3    H122315   1.357   5.192   4.599 -2.0606 -0.4144  2.0049
 7458TIP3    H222316   1.328   5.058   4.663  2.7341 -2.9417 -0.8567
 7459TIP3   OH222317   1.077   4.208   4.753  0.2085  0.5026  0.4619
 7459TIP3    H122318   1.067   4.130   4.806 -1.6374  1.6411  1.8392
 7459TIP3    H222319   1.074   4.177   4.663 -3.5764 -0.7049  0.9268
 7460TIP3   OH222320   7.351   1.687   0.648 -0.0832 -0.1349  0.8618
 7460TIP3    H122321   7.444   1.688   0.670  0.3188 -3.3730 -0.4196
 7460TIP3    H222322   7.312   1.626   0.710 -0.6740 -1.6945 -1.0074
 7461TIP3   OH222323   1.189   3.767   6.419  0.2791  0.1247  0.2040
 7461TIP3    H122324   1.216   3.725   6.337 -1.1223 -0.8554  0.2373
 7461TIP3    H222325   1.175   3.695   6.480 -1.8917  0.6165  0.3428
 7462TIP3   OH222326   0.857   4.963   4.756 -0.6844 -0.3887  0.1060
 7462TIP3    H122327   0.921   5.029   4.730 -1.4169  0.2756 -0.0522
 7462TIP3    H222328   0.858   4.966   4.852  0.4057 -1.2570  0.1276
 7463TIP3   OH222329   4.973   3.114   4.484  0.0739 -0.0417 -0.1493
 7463TIP3    H122330   5.054   3.078   4.522 -0.4437 -1.2236 -0.1604
 7463TIP3    H222331   4.985   3.107   4.390 -0.0919 -0.3263 -0.1490
 7464TIP3   OH222332   2.070   3.235   6.694  0.2096 -0.1366 -0.0545
 7464TIP3    H122333   1.978   3.252   6.714 -0.5129 -3.0026 -0.7317
 7464TIP3    H222334   2.111   3.226   6.780 -0.6854 -1.4256  0.2580
 7465TIP3   OH222335   0.764   4.164   5.566  0.2584 -0.2783 -0.2612
 7465TIP3    H122336   0.822   4.098   5.528 -0.7154 -1.2839 -0.0079
 7465TIP3    H222337   0.709   4.193   5.493  0.5231  0.0881 -0.3185
 7466TIP3   OH222338   2.794   5.146   6.601  0.0736  0.0860  0.0736
 7466TIP3    H122339   2.812   5.220   6.659 -0.2705 -0.0298  0.3339
 7466TIP3    H222340   2.704   5.122   6.621  0.7475 -1.5294  1.2596
 7467TIP3   OH222341   2.212   4.443   4.906  0.3610  0.3297  0.6163
 7467TIP3    H122342   2.209   4.378   4.836  1.6630 -0.3904  1.2006
 7467TIP3    H222343   2.139   4.502   4.888 -1.4724 -1.8503  0.6180
 7468TIP3   OH222344   0.774   4.064   5.835 -0.6056  0.5964 -0.2343
 7468TIP3    H122345   0.787   4.100   5.747  0.3375  0.4230 -0.1672
 7468TIP3    H222346   0.818   4.125   5.893 -2.8960  1.7702  0.3304
 7469TIP3   OH222347   2.297   5.715   6.616 -0.4248 -0.3096 -0.2925
 7469TIP3    H122348   2.257   5.694   6.532  0.3525  0.0508 -0.7641
 7469TIP3    H222349   2.275   5.807   6.630 -0.5525 -0.3695 -0.1001
 7470TIP3   OH222350   3.004   3.124   4.919  0.8926  0.4163 -0.0391
 7470TIP3    H122351   2.968   3.066   4.852 -0.1555  0.5343  0.4172
 7470TIP3    H222352   3.045   3.064   4.982 -0.7289  0.1223  0.7506
 7471TIP3   OH222353   1.820   5.671   4.431  0.7608  0.6475  0.1425
 7471TIP3    H122354   1.856   5.616   4.501 -1.6923 -1.2424  0.0102
 7471TIP3    H222355   1.876   5.655   4.356  0.0386 -1.7923  0.0909
 7472TIP3   OH222356   2.306   4.537   5.620  0.0303  0.6329 -0.2324
 7472TIP3    H122357   2.379   4.575   5.572  1.6556 -0.1011  1.5765
 7472TIP3    H222358   2.343   4.460   5.663 -2.1611 -0.5766 -0.4179
 7473TIP3   OH222359   2.178   4.976   5.769  0.1986  0.2325  0.0527
 7473TIP3    H122360   2.179   4.992   5.863 -1.9157  3.2911 -0.3440
 7473TIP3    H222361   2.130   4.894   5.758  1.5124 -0.7644  1.6854
 7474TIP3   OH222362   3.355   4.377   3.419  0.3127  0.3163 -0.2089
 7474TIP3    H122363   3.293   4.305   3.429  0.5377  0.3900  1.9917
 7474TIP3    H222364   3.302   4.449   3.384 -0.0424 -0.6997 -1.8416
 7475TIP3   OH222365   2.510   4.273   4.516  0.2698 -0.0021  0.0467
 7475TIP3    H122366   2.454   4.240   4.445 -1.8293 -0.1028  1.7033
 7475TIP3    H222367   2.533   4.195   4.566 -0.0068  0.3436  0.7099
 7476TIP3   OH222368   2.262   5.388   5.291  0.0117 -0.3429 -0.0325
 7476TIP3    H122369   2.219   5.456   5.342  2.3398 -0.0306  1.5700
 7476TIP3    H222370   2.329   5.433   5.241  0.3983 -1.1981 -0.3005
 7477TIP3   OH222371   3.168   6.535   5.599  0.1813  0.2991  0.0376
 7477TIP3    H122372   3.123   6.573   5.674 -0.5404 -0.0600 -0.2154
 7477TIP3    H222373   3.141   6.443   5.598  1.4363 -0.0862  0.2807
 7478TIP3   OH222374   3.175   3.141   4.358  0.0756 -0.4756 -0.0073
 7478TIP3    H122375   3.107   3.139   4.426  1.4260  2.3198  1.5135
 7478TIP3    H222376   3.130   3.174   4.280 -0.5462  0.4073  0.7136
 7479TIP3   OH222377   1.713   4.799   6.422  0.3634  0.1866 -0.1206
 7479TIP3    H122378   1.681   4.825   6.508  2.8596 -0.6533  1.1277
 7479TIP3    H222379   1.722   4.881   6.373  0.7599  0.8780  1.1021
 7480TIP3   OH222380   1.826   3.659   4.839 -0.2796  0.6193  0.4172
 7480TIP3    H122381   1.741   3.702   4.851 -0.1859  0.3460  2.1816
 7480TIP3    H222382   1.889   3.723   4.873  0.0095 -0.1131  1.2810
 7481TIP3   OH222383   2.297   5.230   5.675 -0.3057  0.0389  0.0459
 7481TIP3    H122384   2.304   5.208   5.582 -0.6231  1.9057 -0.4445
 7481TIP3    H222385   2.253   5.155   5.714 -2.0911  0.1555 -1.6829
 7482TIP3   OH222386   1.593   0.764   3.326  0.0093 -0.8664  0.0262
 7482TIP3    H122387   1.687   0.781   3.325 -0.0683 -0.4640 -0.1851
 7482TIP3    H222388   1.553   0.846   3.354 -0.2506 -1.1657  0.5391
 7483TIP3   OH222389   1.746   4.649   4.423  0.4114  0.4519  0.1155
 7483TIP3    H122390   1.812   4.628   4.489  0.5692  1.1009  0.1652
 7483TIP3    H222391   1.764   4.740   4.399  1.1427 -0.1292 -1.7106
 7484TIP3   OH222392   2.298   6.028   4.289  0.3083 -0.0197  0.0920
 7484TIP3    H122393   2.268   5.960   4.228 -2.9733 -0.5857  2.1790
 7484TIP3    H222394   2.325   6.100   4.233 -1.1025 -1.1314 -2.0893
 7485TIP3   OH222395   2.908   3.479   3.240  0.2251 -0.4660 -0.2352
 7485TIP3    H122396   2.927   3.388   3.262 -3.2847 -1.2157  0.1157
 7485TIP3    H222397   2.947   3.530   3.310 -0.5272 -1.9664  1.3165
 7486TIP3   OH222398   2.416   6.078   5.385  0.3806  0.1807  0.1440
 7486TIP3    H122399   2.322   6.059   5.388  0.0585  1.7880  0.7164
 7486TIP3    H222400   2.421   6.171   5.362  1.8906 -0.4396 -2.2515
 7487TIP3   OH222401   3.927   4.051   1.969 -0.2888  0.1538  0.2779
 7487TIP3    H122402   3.894   3.974   1.923  1.7270  0.9114 -2.5480
 7487TIP3    H222403   3.885   4.125   1.925  0.9758  0.8456  0.2150
 7488TIP3   OH222404   1.135   4.589   6.331  0.1410  0.6015  0.2586
 7488TIP3    H122405   1.142   4.615   6.239 -0.2310 -0.2701 -0.0255
 7488TIP3    H222406   1.054   4.538   6.335  0.9543 -0.6735  0.7443
 7489TIP3   OH222407   2.952   3.424   4.785 -0.0019  0.4635  0.2215
 7489TIP3    H122408   3.035   3.402   4.741 -0.2528  1.5837 -0.8478
 7489TIP3    H222409   2.900   3.344   4.780 -0.2386  0.7292 -2.0589
 7490TIP3   OH222410   7.450   3.183   0.696 -0.0159 -0.1220  0.0697
 7490TIP3    H122411   7.412   3.191   0.609  2.8215  0.7276 -1.1208
 7490TIP3    H222412   7.471   3.090   0.704  0.7208 -0.0153 -0.5926
 7491TIP3   OH222413   2.597   2.541   4.746  0.2808  0.1873  0.4251
 7491TIP3    H122414   2.543   2.544   4.668  0.5621  0.4725  0.2418
 7491TIP3    H222415   2.552   2.478   4.804 -0.7645  1.1425  0.6697
 7492TIP3   OH222416   2.669   5.125   2.026 -0.2815  0.4892 -0.2209
 7492TIP3    H122417   2.663   5.111   2.120 -0.0936 -1.0559 -0.4278
 7492TIP3    H222418   2.618   5.205   2.010  0.8017  1.5390  1.3536
 7493TIP3   OH222419   1.652   5.671   3.555  0.1122  0.1092  0.0317
 7493TIP3    H122420   1.589   5.709   3.617  1.0340 -1.0833  1.7386
 7493TIP3    H222421   1.730   5.654   3.608  0.7378 -1.4421 -1.3495
 7494TIP3   OH222422   7.584   1.093   0.024 -0.2801 -0.1080  0.0997
 7494TIP3    H122423   7.564   1.104   0.117  0.1338 -1.7864  0.4130
 7494TIP3    H222424   7.663   1.145   0.010  0.2091 -0.6270  0.9122
 7495TIP3   OH222425   2.562   3.277   5.455  0.4777  0.0479  0.1213
 7495TIP3    H122426   2.638   3.228   5.486  0.9159  0.6594  0.0334
 7495TIP3    H222427   2.526   3.319   5.534  1.7263  1.7856 -0.2023
 7496TIP3   OH222428   3.128   3.714   4.317 -0.1512 -0.5357  0.1535
 7496TIP3    H122429   3.042   3.744   4.345 -0.0405 -0.9766  1.0000
 7496TIP3    H222430   3.127   3.620   4.334 -0.1712 -0.8673 -1.6146
 7497TIP3   OH222431   2.923   5.733   5.886  0.7108 -0.2931 -0.0645
 7497TIP3    H122432   2.978   5.780   5.823  2.2021 -0.3705  1.1323
 7497TIP3    H222433   2.960   5.644   5.888  0.2563 -0.4713  0.4222
 7498TIP3   OH222434   0.625   1.243   1.162 -0.7742 -0.1695  0.5973
 7498TIP3    H122435   0.702   1.186   1.158 -0.2507  0.4876  1.0244
 7498TIP3    H222436   0.577   1.214   1.240 -0.5556 -0.0954  0.7623
 7499TIP3   OH222437   8.234   4.504   4.861  0.6829 -0.2377 -0.5653
 7499TIP3    H122438   8.250   4.428   4.804  0.1816 -1.6327  1.1248
 7499TIP3    H222439   8.321   4.540   4.877  1.0291 -1.1124 -0.4790
 7500TIP3   OH222440   1.904   3.274   4.272 -0.3901 -0.4224 -0.0410
 7500TIP3    H122441   1.931   3.303   4.185 -0.8686  0.3153  0.0596
 7500TIP3    H222442   1.818   3.236   4.259 -0.1709 -0.9359 -0.0057
 7501TIP3   OH222443   2.996   5.586   5.018  0.3477  0.2441 -0.1732
 7501TIP3    H122444   3.033   5.653   4.961  1.2527  0.0985  0.2331
 7501TIP3    H222445   2.977   5.632   5.100  0.2189  0.1836 -0.1688
 7502TIP3   OH222446   5.233   3.903   4.598  0.2064  0.7151 -0.1219
 7502TIP3    H122447   5.296   3.923   4.667 -0.3096  1.3828  0.1618
 7502TIP3    H222448   5.155   3.954   4.622 -0.0739  0.7152 -1.0367
 7503TIP3   OH222449   2.535   5.916   4.462 -0.3135  0.0571  0.1921
 7503TIP3    H122450   2.467   5.938   4.399  0.6567  2.4992 -0.0428
 7503TIP3    H222451   2.524   5.979   4.533  1.6143  0.4122  0.2031
 7504TIP3   OH222452   2.581   4.883   4.797  0.3245  0.0253 -0.1406
 7504TIP3    H122453   2.593   4.864   4.704  1.6088  1.0622 -0.2057
 7504TIP3    H222454   2.555   4.799   4.835  1.8898 -0.9321 -1.0886
 7505TIP3   OH222455   3.274   7.577   2.207 -0.0399  0.1417 -0.3689
 7505TIP3    H122456   3.292   7.670   2.201 -0.0441  0.0787 -1.5345
 7505TIP3    H222457   3.220   7.558   2.130 -0.1708 -0.7845 -0.0573
 7506TIP3   OH222458   0.392   2.177   3.743 -0.3694  0.2667  0.2310
 7506TIP3    H122459   0.377   2.108   3.807  1.8742 -0.7795 -0.3025
 7506TIP3    H222460   0.450   2.239   3.787 -1.6315  1.3510  0.3901
 7507TIP3   OH222461   1.506   5.398   6.168 -0.3718  0.0667 -0.0663
 7507TIP3    H122462   1.546   5.419   6.252 -2.4628  0.7508  0.7922
 7507TIP3    H222463   1.505   5.482   6.121  0.9043 -0.3367 -0.8563
 7508TIP3   OH222464   1.343   3.100   5.687 -0.1558  0.5048  0.1806
 7508TIP3    H122465   1.258   3.107   5.729  0.1530  1.2011  0.6944
 7508TIP3    H222466   1.406   3.120   5.757  0.3430  2.0533 -0.6921
 7509TIP3   OH222467   1.476   5.470   4.696 -0.1511 -0.2065  0.2762
 7509TIP3    H122468   1.427   5.418   4.633  1.3365  0.2205 -1.2570
 7509TIP3    H222469   1.565   5.433   4.694  0.3365  0.9123  0.8652
 7510TIP3   OH222470   3.506   2.437   2.752  0.2813 -0.2607 -0.3552
 7510TIP3    H122471   3.488   2.485   2.671  0.2028  0.0590 -0.1508
 7510TIP3    H222472   3.600   2.419   2.749  0.8556  2.3407  0.8678
 7511TIP3   OH222473   3.307   5.233   6.073  0.3428 -0.5618 -0.9121
 7511TIP3    H122474   3.240   5.165   6.076 -1.8954  1.5571 -1.5636
 7511TIP3    H222475   3.282   5.289   5.999  1.4031  1.6687  0.3480
 7512TIP3   OH222476   4.840   4.958   3.112  0.7954 -0.1946 -0.1758
 7512TIP3    H122477   4.845   4.977   3.018  1.1842 -0.6499 -0.2489
 7512TIP3    H222478   4.750   4.981   3.136  0.8359  0.3731 -0.5552
 7513TIP3   OH222479   2.817   4.564   6.228 -0.2580 -0.7251 -0.8791
 7513TIP3    H122480   2.736   4.517   6.210 -0.7625 -0.4033  0.4643
 7513TIP3    H222481   2.796   4.656   6.213  0.4265 -0.8177 -2.4673
 7514TIP3   OH222482   2.537   2.073   4.047  0.1805 -0.2779  0.9707
 7514TIP3    H122483   2.567   1.983   4.060  0.4674 -0.2664  0.4158
 7514TIP3    H222484   2.576   2.099   3.964 -0.2055  0.2328  0.9473
 7515TIP3   OH222485   2.198   4.748   6.888 -0.0843 -0.0727 -0.0611
 7515TIP3    H122486   2.105   4.724   6.878 -0.4429  1.1433  0.2415
 7515TIP3    H222487   2.221   4.788   6.804 -0.0476  0.3088  0.1305
 7516TIP3   OH222488   2.423   7.855   3.406 -0.3954 -0.1747  0.5306
 7516TIP3    H122489   2.485   7.789   3.438  0.6370  1.1340  1.2918
 7516TIP3    H222490   2.437   7.930   3.464 -2.2459  0.3748  0.2905
 7517TIP3   OH222491   3.630   1.747   4.974 -0.0137 -0.1654 -0.6235
 7517TIP3    H122492   3.668   1.820   5.023 -0.9221  0.2337 -0.4971
 7517TIP3    H222493   3.548   1.782   4.939  0.7810 -0.3330 -2.7549
 7518TIP3   OH222494   2.894   6.170   5.680 -0.8786  0.8208 -0.6586
 7518TIP3    H122495   2.893   6.253   5.726  0.8194  0.8492 -0.6292
 7518TIP3    H222496   2.972   6.174   5.624 -2.1334  0.2407 -2.5069
 7519TIP3   OH222497   4.415   2.492   2.485  0.9636  0.1505 -0.4433
 7519TIP3    H122498   4.500   2.456   2.512  1.0571  0.4979 -0.2729
 7519TIP3    H222499   4.391   2.552   2.556 -0.2805 -1.3035  0.3976
 7520TIP3   OH222500   1.789   3.384   3.569 -0.5377 -0.0458  0.0202
 7520TIP3    H122501   1.743   3.406   3.650  0.2577 -0.7937  0.6796
 7520TIP3    H222502   1.722   3.340   3.515 -0.9431  0.0283  0.4602
 7521TIP3   OH222503   1.958   3.983   4.596 -0.5353 -0.0427 -0.0082
 7521TIP3    H122504   2.033   3.948   4.644 -1.2078 -1.1788  0.2318
 7521TIP3    H222505   1.888   3.991   4.661 -0.8259  0.3670 -0.3677
 7522TIP3   OH222506   3.610   5.493   6.625 -0.2788 -0.2895 -0.3551
 7522TIP3    H122507   3.532   5.544   6.649  0.2454 -0.3215  1.4737
 7522TIP3    H222508   3.683   5.550   6.647  0.2682 -1.0788 -0.1248
 7523TIP3   OH222509   4.304   3.987   2.653 -0.0582  0.1661  0.1195
 7523TIP3    H122510   4.292   4.060   2.594 -0.2203 -0.5340 -0.7195
 7523TIP3    H222511   4.215   3.959   2.676 -0.0318 -1.0903 -1.2229
 7524TIP3   OH222512   6.488   6.914  -0.013 -0.9640 -0.0216  0.6401
 7524TIP3    H122513   6.537   6.854   0.043 -2.0741 -2.3412 -0.8236
 7524TIP3    H222514   6.396   6.890   0.000 -1.4507  1.5132  0.1941
 7525TIP3   OH222515   0.522   3.017   6.483 -0.2408  0.1936  0.2243
 7525TIP3    H122516   0.589   2.954   6.455  1.0689  1.3281  0.7020
 7525TIP3    H222517   0.520   3.081   6.412 -1.1400 -0.0791  0.0096
 7526TIP3   OH222518   5.845   6.839   0.348 -0.1709  0.3777  0.3491
 7526TIP3    H122519   5.870   6.787   0.272  1.5261  0.7377  0.6263
 7526TIP3    H222520   5.752   6.857   0.336 -0.6913 -2.3170  0.0151
 7527TIP3   OH222521   4.784   5.659   6.369  0.8057 -0.0742 -0.2957
 7527TIP3    H122522   4.796   5.752   6.388  1.7976 -0.5264  1.3328
 7527TIP3    H222523   4.731   5.626   6.441  0.5876 -0.8011 -0.7842
 7528TIP3   OH222524   1.066   1.696   0.593  0.1517 -0.3547 -0.0662
 7528TIP3    H122525   1.038   1.680   0.683  2.0390  1.3546  0.8507
 7528TIP3    H222526   1.000   1.757   0.558 -0.6354 -1.0958  0.0987
 7529TIP3   OH222527   3.787   5.046   6.129  0.3115  0.1749 -0.6131
 7529TIP3    H122528   3.710   5.049   6.073  0.2265  0.9435 -0.4498
 7529TIP3    H222529   3.771   4.972   6.188 -0.7249  0.9144  0.0454
 7530TIP3   OH222530   1.273   4.844   6.761 -0.2843 -0.1675 -0.3089
 7530TIP3    H122531   1.240   4.896   6.688 -0.5177 -0.8753 -0.7036
 7530TIP3    H222532   1.251   4.896   6.839  0.0847  0.6529 -0.7422
 7531TIP3   OH222533   2.695   1.366   3.823  0.1110  0.0806 -0.2746
 7531TIP3    H122534   2.607   1.328   3.816  0.2639 -0.4109  0.4536
 7531TIP3    H222535   2.684   1.456   3.792 -0.3469 -0.4116 -1.5739
 7532TIP3   OH222536   1.096   5.417   6.607 -0.8579 -0.3111 -0.5290
 7532TIP3    H122537   1.043   5.374   6.675 -2.0565 -1.5146 -2.1788
 7532TIP3    H222538   1.140   5.346   6.562 -1.6323  0.2989 -2.2933
 7533TIP3   OH222539   4.323   5.232   6.362  0.2405 -0.1425 -0.2561
 7533TIP3    H122540   4.314   5.154   6.307 -1.0956 -0.2041  0.0381
 7533TIP3    H222541   4.252   5.289   6.335  0.7115  0.6246  0.1077
 7534TIP3   OH222542   0.736   5.655   6.019  0.1104  0.4757 -0.0927
 7534TIP3    H122543   0.802   5.649   5.949  0.0408 -0.2779 -0.0957
 7534TIP3    H222544   0.787   5.663   6.099  0.2129 -0.0903 -0.0963
 7535TIP3   OH222545   2.417   1.884   6.561  0.6147 -0.2615 -0.0915
 7535TIP3    H122546   2.480   1.866   6.491 -0.2267 -0.8348 -0.7148
 7535TIP3    H222547   2.465   1.869   6.642  0.8158 -2.3582 -0.5678
 7536TIP3   OH222548   7.859   0.797   0.686 -0.0310  0.4949  0.2042
 7536TIP3    H122549   7.842   0.891   0.699  0.4852  0.5983  0.1343
 7536TIP3    H222550   7.806   0.774   0.610 -0.4172  0.6552  0.4213
 7537TIP3   OH222551   1.583   7.729   4.489 -0.1791 -0.0498  0.0562
 7537TIP3    H122552   1.496   7.764   4.473  0.2788  0.7722 -0.7157
 7537TIP3    H222553   1.604   7.757   4.578 -0.2134  0.8266 -0.2019
 7538TIP3   OH222554   1.034   4.015   2.999 -0.3720 -0.0720 -0.7010
 7538TIP3    H122555   1.065   4.052   2.917 -0.8239  0.3843 -0.6689
 7538TIP3    H222556   0.996   4.089   3.046 -1.5667 -0.6400 -0.7692
 7539TIP3   OH222557   0.418   4.944   4.307 -0.2281 -0.1323 -0.0804
 7539TIP3    H122558   0.487   4.912   4.250 -0.1656 -0.2500  0.0626
 7539TIP3    H222559   0.395   4.869   4.363 -0.2134  0.0116  0.1215
 7540TIP3   OH222560   1.004   4.616   4.131  0.5161  0.1713  0.3372
 7540TIP3    H122561   0.925   4.619   4.185  0.6722  0.3103  0.5607
 7540TIP3    H222562   1.071   4.660   4.184  0.9499 -0.6472  0.4850
 7541TIP3   OH222563   4.064   4.332   4.653  0.2229  0.4684  0.4765
 7541TIP3    H122564   4.008   4.306   4.580  2.1771  1.1407 -1.3100
 7541TIP3    H222565   4.013   4.397   4.701 -1.2782 -0.3489 -0.0010
 7542TIP3   OH222566   2.869   5.364   5.109 -0.1175  0.1589  0.3759
 7542TIP3    H122567   2.935   5.417   5.065 -1.1095  1.2806  0.2033
 7542TIP3    H222568   2.905   5.349   5.197 -0.4991  2.4376  0.9464
 7543TIP3   OH222569   4.589   5.917   2.779  0.0336 -0.1429 -0.2278
 7543TIP3    H122570   4.594   5.888   2.687  0.7797 -2.5693  0.5411
 7543TIP3    H222571   4.679   5.937   2.803 -0.0280 -0.4033  0.2315
 7544TIP3   OH222572   3.387   3.436   4.100  0.1874 -0.9768 -0.4553
 7544TIP3    H122573   3.437   3.466   4.176 -0.4786 -0.1615 -0.3269
 7544TIP3    H222574   3.419   3.490   4.027  0.0310 -0.9749 -0.5232
 7545TIP3   OH222575   2.940   4.022   4.293 -0.1559  0.3374  0.5747
 7545TIP3    H122576   2.921   3.993   4.203  0.1909  0.8265  0.3409
 7545TIP3    H222577   2.931   3.942   4.346  0.8954 -0.2323 -0.0872
 7546TIP3   OH222578   3.416   6.351   4.872 -0.2178  0.5125  0.0928
 7546TIP3    H122579   3.357   6.279   4.850 -0.0199  0.0776  0.9565
 7546TIP3    H222580   3.430   6.343   4.967  0.5183  1.1464  0.0456
 7547TIP3   OH222581   4.119   6.514   3.665 -0.1850  0.1794  0.0918
 7547TIP3    H122582   4.106   6.419   3.665 -2.2732  0.4327  0.6395
 7547TIP3    H222583   4.185   6.529   3.598  0.1729 -1.6673  0.0043
 7548TIP3   OH222584   4.571   4.462   2.472 -0.3854  0.5184  0.5466
 7548TIP3    H122585   4.547   4.552   2.495 -1.0426  0.4313  0.2323
 7548TIP3    H222586   4.650   4.471   2.420 -0.0263  0.8595  1.1410
 7549TIP3   OH222587   1.999   0.684   4.668 -0.5567 -0.3277 -0.0932
 7549TIP3    H122588   2.073   0.624   4.675  0.1704  0.3053 -1.9871
 7549TIP3    H222589   1.962   0.667   4.581 -0.0225  2.2860 -0.8660
 7550TIP3   OH222590   8.222   4.314   3.079 -0.4388 -0.7330 -0.3759
 7550TIP3    H122591   8.168   4.267   3.015 -1.3738 -0.8656  0.5025
 7550TIP3    H222592   8.222   4.405   3.047 -0.9440 -0.7898 -0.5418
 7551TIP3   OH222593   4.616   4.397   5.989 -0.1928  0.4173  0.4306
 7551TIP3    H122594   4.542   4.364   5.938  0.1967  0.4670 -0.1814
 7551TIP3    H222595   4.693   4.358   5.947  0.0779 -0.3230  1.5899
 7552TIP3   OH222596   1.984   3.131   5.767 -0.7285  0.3375  0.4633
 7552TIP3    H122597   2.035   3.202   5.805 -1.4931 -0.3949  3.0096
 7552TIP3    H222598   2.030   3.051   5.794 -1.0229 -0.2099 -0.6095
 7553TIP3   OH222599   2.756   3.955   3.533  0.0094  0.1204 -0.2889
 7553TIP3    H122600   2.842   3.989   3.508  0.1051 -0.8943 -1.3647
 7553TIP3    H222601   2.709   4.032   3.564  1.3818  0.6440  0.5410
 7554TIP3   OH222602   2.436   2.934   5.294 -0.6154  0.3828 -0.2816
 7554TIP3    H122603   2.370   2.900   5.233 -2.5300  2.3724  0.5815
 7554TIP3    H222604   2.422   2.885   5.374 -0.2331 -0.0158 -0.4549
 7555TIP3   OH222605   1.471   4.946   5.229 -0.6116  0.1982  0.0874
 7555TIP3    H122606   1.414   4.874   5.203  0.4676  0.0631 -2.0188
 7555TIP3    H222607   1.555   4.904   5.250 -0.0328  0.7957 -0.9696
 7556TIP3   OH222608   2.942   2.021   6.356 -1.1737 -0.0868  0.6615
 7556TIP3    H122609   3.032   1.989   6.361 -0.4015  2.1528  1.3709
 7556TIP3    H222610   2.891   1.952   6.400  0.0835 -1.6386 -0.2461
 7557TIP3   OH222611   5.022   4.595   5.751 -0.5105  0.6694  0.0029
 7557TIP3    H122612   4.928   4.610   5.754 -0.9074 -1.7485  1.1812
 7557TIP3    H222613   5.046   4.575   5.841  0.6189 -1.4437 -0.7336
 7558TIP3   OH222614   4.741   5.911   5.543  0.7191 -0.1685  0.2520
 7558TIP3    H122615   4.769   5.954   5.462  1.4081  0.0391  0.5961
 7558TIP3    H222616   4.797   5.949   5.610 -1.4155  1.4070  1.2183
 7559TIP3   OH222617   0.250   4.169   3.834 -0.2224 -0.3590  0.0614
 7559TIP3    H122618   0.293   4.095   3.878 -0.5458 -1.2040 -1.0489
 7559TIP3    H222619   0.270   4.244   3.891  0.2100 -1.2629  1.1299
 7560TIP3   OH222620   0.739   4.722   6.528  0.1326 -0.4483 -0.0008
 7560TIP3    H122621   0.835   4.728   6.525  0.2945 -2.8432 -0.7548
 7560TIP3    H222622   0.709   4.812   6.519  2.3088  0.2804 -0.2640
 7561TIP3   OH222623   4.323   8.096   0.127  0.6449  0.2264  0.0149
 7561TIP3    H122624   4.325   8.077   0.221  1.1620 -0.2290 -0.0853
 7561TIP3    H222625   4.230   8.097   0.104  0.4949  0.8197  0.6276
 7562TIP3   OH222626   5.860   0.208   5.828  0.0169 -0.1895  0.0244
 7562TIP3    H122627   5.856   0.167   5.742  1.1460 -3.4034  1.4034
 7562TIP3    H222628   5.953   0.213   5.849 -0.1408  2.4250  0.2476
 7563TIP3   OH222629   0.037   4.769   4.209  0.2887  0.1455  0.0695
 7563TIP3    H122630  -0.008   4.781   4.125  1.6610 -1.3868 -0.9330
 7563TIP3    H222631   0.063   4.857   4.236 -1.1355  0.7734 -0.5471
 7564TIP3   OH222632   2.612   3.064   4.911 -0.3797 -0.7756  0.0524
 7564TIP3    H122633   2.518   3.046   4.908 -0.1182 -2.3580  0.9980
 7564TIP3    H222634   2.639   3.040   5.000  0.5192  1.7815  0.5178
 7565TIP3   OH222635   2.382   2.562   5.100 -0.7244 -0.2236 -0.3658
 7565TIP3    H122636   2.378   2.547   5.005 -0.3887 -0.8517 -0.2824
 7565TIP3    H222637   2.460   2.514   5.128 -1.6426 -1.2488  0.4525
 7566TIP3   OH222638   0.661   4.941   3.371  0.1758  0.2304 -0.2032
 7566TIP3    H122639   0.594   4.930   3.439 -0.9303  1.1119 -1.1363
 7566TIP3    H222640   0.742   4.954   3.420  0.1276 -3.3488  0.9459
 7567TIP3   OH222641   0.597   4.903   4.694  0.1783 -0.0088  0.4073
 7567TIP3    H122642   0.576   4.993   4.668 -2.1613 -0.5252  0.3524
 7567TIP3    H222643   0.687   4.907   4.725  0.4049  2.1784 -0.4210
 7568TIP3   OH222644   2.941   5.068   5.117 -0.2707  0.8596 -1.0167
 7568TIP3    H122645   2.946   5.163   5.114 -1.3149  0.9272 -0.8480
 7568TIP3    H222646   2.848   5.049   5.130  0.2592 -0.1108  1.7316
 7569TIP3   OH222647   6.694   7.085   0.263 -0.1464 -0.2260 -0.3669
 7569TIP3    H122648   6.685   7.104   0.169  0.1579  0.4213 -0.2662
 7569TIP3    H222649   6.604   7.085   0.296 -0.4120 -2.2910 -1.0015
 7570TIP3   OH222650   5.298   5.397   5.830 -0.1645 -0.3330 -1.0938
 7570TIP3    H122651   5.233   5.357   5.772 -0.0489 -0.0227 -1.4430
 7570TIP3    H222652   5.374   5.412   5.774  0.0344 -0.2490 -0.8022
 7571TIP3   OH222653   7.367   0.973   0.861  0.0195 -0.0571  0.4057
 7571TIP3    H122654   7.376   0.964   0.956  1.3507  0.7059  0.3689
 7571TIP3    H222655   7.387   0.886   0.826  1.1514  0.0693  0.7325
 7572TIP3   OH222656   0.738   5.242   4.239  0.0951  0.4596 -0.4254
 7572TIP3    H122657   0.756   5.193   4.319 -1.7588 -0.3706 -0.4828
 7572TIP3    H222658   0.749   5.334   4.263  0.3531  0.1776  0.5536
 7573TIP3   OH222659   3.734   4.971   5.009 -0.3031 -0.3081 -0.4491
 7573TIP3    H122660   3.659   4.913   5.003 -1.0822  0.5600  0.7390
 7573TIP3    H222661   3.761   4.986   4.918 -0.3573 -2.1698 -0.7778
 7574TIP3   OH222662   3.036   6.533   3.211 -0.0380 -0.1132 -0.5930
 7574TIP3    H122663   3.035   6.566   3.120  1.4808 -1.9558 -1.3001
 7574TIP3    H222664   2.947   6.500   3.225 -0.5551  1.0210 -1.0791
 7575TIP3   OH222665   3.046   6.296   5.130 -0.7170 -0.2023 -0.4520
 7575TIP3    H122666   3.051   6.216   5.079  0.1768 -0.6340  0.2919
 7575TIP3    H222667   3.110   6.284   5.200 -0.4704  1.2086 -0.4064
 7576TIP3   OH222668   0.877   4.495   6.274 -0.6444 -0.7002  0.6395
 7576TIP3    H122669   0.836   4.491   6.361 -0.1814  0.6838  0.9318
 7576TIP3    H222670   0.816   4.450   6.217 -1.3872 -0.8367  1.5256
 7577TIP3   OH222671   0.046   5.608   5.526  0.0241  0.1460 -0.7337
 7577TIP3    H122672   0.086   5.551   5.592  0.3006  0.2663 -0.7969
 7577TIP3    H222673  -0.006   5.549   5.472  1.1038 -0.2009 -1.4082
 7578TIP3   OH222674   3.354   6.282   4.359 -0.2473 -0.3834 -0.4042
 7578TIP3    H122675   3.446   6.257   4.357  0.4730  2.1660 -1.1585
 7578TIP3    H222676   3.328   6.283   4.267 -0.6657  0.1163 -0.2844
 7579TIP3   OH222677   3.358   4.177   5.066  0.0513 -0.0272 -0.2177
 7579TIP3    H122678   3.343   4.270   5.085 -1.0053  0.0469 -1.3028
 7579TIP3    H222679   3.328   4.131   5.144  0.0695  0.5229  0.1138
 7580TIP3   OH222680   2.194   3.316   6.473 -0.6022 -0.3305  0.0525
 7580TIP3    H122681   2.276   3.359   6.496 -0.2148 -1.3591  0.6668
 7580TIP3    H222682   2.148   3.306   6.556 -1.0112 -0.4204 -0.1864
 7581TIP3   OH222683   7.179   8.104   5.503  0.0952 -0.4961  0.1070
 7581TIP3    H122684   7.186   8.008   5.501 -1.5080 -0.6210 -0.5259
 7581TIP3    H222685   7.161   8.125   5.595 -0.4343 -0.8736  0.0890
 7582TIP3   OH222686   3.512   3.395   4.641  0.2499 -0.1340  0.5138
 7582TIP3    H122687   3.453   3.363   4.573  0.8945 -0.8125  0.2678
 7582TIP3    H222688   3.556   3.471   4.601  0.0861 -0.0790  0.4384
 7583TIP3   OH222689   2.226   2.446   2.399 -0.2140 -0.2464  0.3024
 7583TIP3    H122690   2.297   2.455   2.463  0.9083  0.7649 -1.0526
 7583TIP3    H222691   2.258   2.380   2.338 -0.1830  0.6261 -0.6372
 7584TIP3   OH222692   3.696   1.928   5.376  0.2675  0.9707  0.3968
 7584TIP3    H122693   3.789   1.946   5.396  0.4904 -0.1560  0.3652
 7584TIP3    H222694   3.659   1.901   5.460  0.3393 -0.1300  0.0756
 7585TIP3   OH222695   2.677   5.677   5.760 -0.2768 -0.6823 -0.5242
 7585TIP3    H122696   2.648   5.757   5.717  1.5324 -0.4286 -1.3013
 7585TIP3    H222697   2.755   5.702   5.809 -0.6538 -1.6163  0.5874
 7586TIP3   OH222698   2.292   2.080   5.267 -0.1486 -0.0142  0.5014
 7586TIP3    H122699   2.219   2.128   5.306 -1.5083 -0.5438 -1.3410
 7586TIP3    H222700   2.285   2.097   5.174  1.3219 -1.1344  0.1664
 7587TIP3   OH222701   0.510   4.425   4.262  0.0548  0.6650  0.1482
 7587TIP3    H122702   0.554   4.474   4.192  1.1861 -1.7347 -0.8770
 7587TIP3    H222703   0.567   4.435   4.338  0.1476  1.1339  0.0182
 7588TIP3   OH222704   1.875   2.520   3.984  0.5591  0.2118 -0.2747
 7588TIP3    H122705   1.946   2.479   4.033  1.7606  0.5798 -1.6861
 7588TIP3    H222706   1.918   2.570   3.915 -1.0719  0.4039 -1.1988
 7589TIP3   OH222707   7.007   2.958   3.193  0.0938 -0.1218 -0.8789
 7589TIP3    H122708   6.951   2.935   3.118 -1.8482 -0.1590  0.5478
 7589TIP3    H222709   6.980   3.047   3.216  1.7118  0.4544 -1.0960
 7590TIP3   OH222710   3.127   4.853   3.434  0.0666  0.2180 -0.6942
 7590TIP3    H122711   3.053   4.855   3.495  0.2410 -0.6230 -0.4578
 7590TIP3    H222712   3.184   4.923   3.464  0.0427 -0.0456 -0.0240
 7591TIP3   OH222713   2.690   3.482   3.583  0.6736  0.3233  0.8136
 7591TIP3    H122714   2.768   3.436   3.554  0.0140 -0.2985  0.0054
 7591TIP3    H222715   2.663   3.535   3.508  1.2016  1.7462  1.6027
 7592TIP3   OH222716   1.566   4.620   6.269 -0.2677  0.1567  0.2122
 7592TIP3    H122717   1.603   4.552   6.325 -0.2064  0.2945  0.3389
 7592TIP3    H222718   1.625   4.695   6.279  1.5599 -0.8720 -2.5237
 7593TIP3   OH222719   1.261   4.185   5.665 -0.4103  0.4373 -0.8570
 7593TIP3    H122720   1.317   4.107   5.674 -1.0667  0.1114  0.5312
 7593TIP3    H222721   1.182   4.154   5.621 -0.6887  0.3102 -0.2681
 7594TIP3   OH222722   2.690   4.677   5.974  0.4583  0.3758 -0.5213
 7594TIP3    H122723   2.690   4.770   5.995  0.6007 -0.0601  1.5001
 7594TIP3    H222724   2.599   4.655   5.957  0.1644  0.5061  0.8277
 7595TIP3   OH222725   2.538   3.152   5.961 -0.1128 -0.1128  0.1465
 7595TIP3    H122726   2.456   3.146   6.009 -0.4027 -0.1179 -0.3520
 7595TIP3    H222727   2.606   3.150   6.029 -0.5430  0.5339  0.6031
 7596TIP3   OH222728   7.850   1.444   0.970  0.6048 -0.3940  0.1097
 7596TIP3    H122729   7.878   1.362   1.013 -0.6263 -0.6084  0.5350
 7596TIP3    H222730   7.897   1.513   1.016 -0.8123 -0.6154  1.9382
 7597TIP3   OH222731   1.965   4.129   4.890  0.1631  0.6850  0.1824
 7597TIP3    H122732   2.054   4.127   4.854 -0.4921 -0.7109 -1.4417
 7597TIP3    H222733   1.977   4.123   4.984  1.7674 -0.6067 -0.0715
 7598TIP3   OH222734   4.595   5.425   3.414  0.2983 -0.5510 -0.4335
 7598TIP3    H122735   4.677   5.471   3.395  1.0007 -1.4358  0.4343
 7598TIP3    H222736   4.618   5.333   3.412 -0.8836 -0.8436 -1.1053
 7599TIP3   OH222737   6.533   4.345   5.320 -0.0413  0.0172 -0.0969
 7599TIP3    H122738   6.520   4.314   5.409 -0.1233  0.7005  0.1312
 7599TIP3    H222739   6.575   4.431   5.330  0.8249 -0.3155 -0.7313
 7600TIP3   OH222740   5.957   3.983   4.294 -0.3029 -0.7176 -0.4300
 7600TIP3    H122741   5.883   4.000   4.236 -0.9229 -1.1312  0.2345
 7600TIP3    H222742   5.925   4.005   4.382 -0.0761 -2.1791  0.0352
 7601TIP3   OH222743   3.569   2.630   4.553  0.4481  1.1396  0.6615
 7601TIP3    H122744   3.476   2.605   4.550  0.5385  1.0258 -1.9919
 7601TIP3    H222745   3.603   2.586   4.632 -1.7433  1.2392  1.6942
 7602TIP3   OH222746   3.821   5.806   3.778 -0.4570 -0.7790 -0.7394
 7602TIP3    H122747   3.766   5.864   3.831  0.3012 -1.6168  1.0031
 7602TIP3    H222748   3.879   5.866   3.730  1.3655 -0.1035  2.1940
 7603TIP3   OH222749   2.145   3.518   4.271  0.2102  0.0187  0.1538
 7603TIP3    H122750   2.109   3.448   4.217 -0.7056  0.0967  0.6595
 7603TIP3    H222751   2.223   3.546   4.223  0.4857 -1.2136 -0.1497
 7604TIP3   OH222752   5.818   4.629   4.872 -0.0503 -0.2279 -0.2425
 7604TIP3    H122753   5.865   4.608   4.791 -0.4423 -2.3587  0.0491
 7604TIP3    H222754   5.887   4.639   4.938  0.1218 -1.3902 -0.2354
 7605TIP3   OH222755   4.045   2.915   5.786  0.0445  0.3294 -0.4686
 7605TIP3    H122756   3.979   2.985   5.781 -1.3561 -0.8318  1.2606
 7605TIP3    H222757   3.998   2.837   5.756  0.7801 -0.4081  0.2885
 7606TIP3   OH222758   3.916   4.357   2.288 -0.0597  0.8311 -0.1082
 7606TIP3    H122759   3.876   4.414   2.354 -0.4069 -0.4592  0.8158
 7606TIP3    H222760   3.842   4.324   2.238 -0.1277 -0.9887  1.1400
 7607TIP3   OH222761   6.308   5.635   4.837  0.4166  0.2689 -0.4504
 7607TIP3    H122762   6.305   5.701   4.768 -0.9787 -0.2887 -0.9278
 7607TIP3    H222763   6.287   5.682   4.918 -0.7163  0.3776 -0.8122
 7608TIP3   OH222764   6.065   3.375   3.838 -0.2777  0.2737  0.1827
 7608TIP3    H122765   6.147   3.416   3.811 -0.8195  0.5789 -1.0312
 7608TIP3    H222766   6.035   3.428   3.912  0.6830  0.0615  0.7435
 7609TIP3   OH222767   4.100   0.716   4.377  0.5950  0.1369  0.2188
 7609TIP3    H122768   4.183   0.681   4.407  0.7520  0.9402  0.7480
 7609TIP3    H222769   4.096   0.804   4.415 -1.0457 -0.3445  1.2267
 7610TIP3   OH222770   4.985   4.718   4.285 -0.1711  0.4592 -0.0055
 7610TIP3    H122771   5.006   4.628   4.261 -1.7707  0.2254 -0.5675
 7610TIP3    H222772   4.969   4.715   4.379 -2.1168 -0.2406 -0.3317
 7611TIP3   OH222773   4.363   3.672   4.780 -0.4651  0.0273  0.0534
 7611TIP3    H122774   4.399   3.611   4.845  1.6845  0.9131 -0.2794
 7611TIP3    H222775   4.356   3.755   4.826 -0.3233  0.3149 -0.4475
 7612TIP3   OH222776   5.621   4.627   5.198  0.2513 -0.2454 -0.8873
 7612TIP3    H122777   5.699   4.658   5.244 -0.9966  0.3412  0.8500
 7612TIP3    H222778   5.597   4.546   5.243 -1.9755  1.2274  0.6691
 7613TIP3   OH222779   4.098   4.703   4.166 -0.8623  0.7883  0.4777
 7613TIP3    H122780   4.111   4.760   4.241  1.9946 -0.1253  0.7613
 7613TIP3    H222781   4.118   4.615   4.200 -1.2289  0.1582 -0.9168
 7614TIP3   OH222782   4.522   4.702   2.552 -0.4394  0.2465  0.0060
 7614TIP3    H122783   4.551   4.794   2.549  0.1369  0.0211 -1.4738
 7614TIP3    H222784   4.431   4.707   2.580 -0.5197  1.3026 -0.4084
 7615TIP3   OH222785   4.985   4.987   3.940 -0.6529 -0.2215 -0.1606
 7615TIP3    H122786   4.918   4.936   3.895 -3.3528  2.5113  0.5877
 7615TIP3    H222787   5.001   5.061   3.881 -2.0379  1.8034  1.9326
 7616TIP3   OH222788   5.632   2.508   4.691 -0.2670 -0.1678 -0.2564
 7616TIP3    H122789   5.616   2.559   4.770 -1.7232  2.3326 -2.0792
 7616TIP3    H222790   5.717   2.467   4.706 -0.0042  1.1518  2.1401
 7617TIP3   OH222791   1.153   3.769   2.940 -0.6479 -0.7329 -0.0694
 7617TIP3    H122792   1.080   3.723   2.899  0.3304 -0.5532 -2.0878
 7617TIP3    H222793   1.118   3.855   2.964 -1.1933 -0.7737 -0.7155
 7618TIP3   OH222794   5.628   3.762   3.329  0.1523  0.0322  0.5977
 7618TIP3    H122795   5.711   3.718   3.348  0.5607  1.0738  1.3027
 7618TIP3    H222796   5.624   3.765   3.233  1.9057  1.7135  0.5458
 7619TIP3   OH222797   4.190   5.340   4.684 -0.2408  0.3919  0.0583
 7619TIP3    H122798   4.099   5.370   4.678 -0.4829 -0.2943  0.2590
 7619TIP3    H222799   4.214   5.352   4.775  0.8086  3.2371 -0.5450
 7620TIP3   OH222800   4.968   3.661   5.789  0.2197  0.2318 -0.0516
 7620TIP3    H122801   4.979   3.748   5.751  0.4434  0.7418  1.1532
 7620TIP3    H222802   5.020   3.603   5.732  0.2255  0.9105 -0.7451
 7621TIP3   OH222803   3.398   4.470   2.956 -0.0600 -0.3278  0.0579
 7621TIP3    H122804   3.394   4.486   2.862 -0.4638  1.8734  0.4272
 7621TIP3    H222805   3.326   4.410   2.973 -0.1071 -0.5797 -1.0009
 7622TIP3   OH222806   6.160   4.929   3.396  0.0819 -0.0434 -0.2097
 7622TIP3    H122807   6.107   4.991   3.446  0.7017 -0.3946  0.9036
 7622TIP3    H222808   6.142   4.950   3.305  0.0898  1.6115  0.1561
 7623TIP3   OH222809   2.366   3.693   5.800  0.3953  0.4431 -0.5726
 7623TIP3    H122810   2.339   3.699   5.709 -0.6941 -1.3850 -0.3795
 7623TIP3    H222811   2.403   3.780   5.819 -1.5593  1.6496 -2.0370
 7624TIP3   OH222812   4.617   5.486   3.741  0.3640  0.1973 -0.6549
 7624TIP3    H122813   4.604   5.474   3.835  0.3276 -1.5448 -0.8826
 7624TIP3    H222814   4.555   5.555   3.717 -0.1866  0.0861  0.4475
 7625TIP3   OH222815   5.635   2.814   2.610 -0.2012  0.0006 -0.2253
 7625TIP3    H122816   5.593   2.729   2.600 -1.7427  0.6758  0.2069
 7625TIP3    H222817   5.727   2.795   2.625 -0.7432 -1.6476  1.1305
 7626TIP3   OH222818   4.236   4.174   2.437  0.0414 -0.1150  0.8742
 7626TIP3    H122819   4.208   4.237   2.370  1.4104  0.1500  0.5224
 7626TIP3    H222820   4.185   4.197   2.514  0.1762  1.1304  0.6042
 7627TIP3   OH222821   4.898   5.769   5.262  0.3617  0.0803  0.1064
 7627TIP3    H122822   4.939   5.685   5.245 -0.2141  0.0276 -1.0539
 7627TIP3    H222823   4.806   5.748   5.280  0.4096  0.3794  0.7393
 7628TIP3   OH222824   2.843   5.912   4.572 -0.3346  0.1159 -0.4283
 7628TIP3    H122825   2.815   5.879   4.657 -0.6314  0.0478 -0.5520
 7628TIP3    H222826   2.762   5.924   4.522 -0.6723  5.1350  1.0571
 7629TIP3   OH222827   1.957   2.823   3.555  0.1896 -0.3764 -0.5553
 7629TIP3    H122828   2.035   2.774   3.528 -0.3751 -1.5164 -0.1407
 7629TIP3    H222829   1.884   2.766   3.530 -0.4207 -0.4494  1.3452
 7630TIP3   OH222830   6.156   4.408   5.833 -0.1605 -0.7766  0.3294
 7630TIP3    H122831   6.099   4.338   5.800  1.3678 -1.3717 -1.1451
 7630TIP3    H222832   6.215   4.364   5.893 -1.7660 -0.0038  2.5317
 7631TIP3   OH222833   5.404   5.383   2.804 -0.0020  0.1506 -0.1692
 7631TIP3    H122834   5.380   5.474   2.816  1.1888  0.7277 -1.9229
 7631TIP3    H222835   5.322   5.337   2.787 -0.4763  1.0829 -0.3686
 7632TIP3   OH222836   2.599   4.535   2.960 -0.1569  0.1118  0.0282
 7632TIP3    H122837   2.521   4.531   3.015 -0.0751 -0.0793  0.1300
 7632TIP3    H222838   2.672   4.543   3.022  0.0450 -1.4340  0.0151
 7633TIP3   OH222839   0.817   5.675   4.939  0.0266 -0.3113  0.6804
 7633TIP3    H122840   0.774   5.744   4.887  0.7448 -0.1697  0.2613
 7633TIP3    H222841   0.745   5.620   4.970 -0.4516 -0.1349 -0.0938
 7634TIP3   OH222842   2.939   6.389   1.596  0.1678 -0.7922  0.1799
 7634TIP3    H122843   2.859   6.339   1.615 -0.9098 -0.3614 -2.9393
 7634TIP3    H222844   2.935   6.464   1.655 -1.2717 -1.2601  0.7124
 7635TIP3   OH222845   3.620   5.954   3.313  0.2606 -0.5334 -0.3300
 7635TIP3    H122846   3.539   5.905   3.299 -3.0044  4.3964  0.0568
 7635TIP3    H222847   3.641   5.992   3.228 -0.6288  2.1042  0.5824
 7636TIP3   OH222848   5.486   1.705   3.284  0.0115  0.0956 -0.5881
 7636TIP3    H122849   5.497   1.612   3.264  0.1396 -0.1150  0.4285
 7636TIP3    H222850   5.519   1.750   3.207  0.1180 -0.7047 -1.0146
 7637TIP3   OH222851   2.223   6.218   5.795 -0.1905 -0.2271 -0.2366
 7637TIP3    H122852   2.255   6.208   5.885 -1.3470  0.5735  0.2703
 7637TIP3    H222853   2.298   6.256   5.748  1.4120 -3.3004 -0.3099
 7638TIP3   OH222854   3.671   3.866   4.159 -0.4110 -0.5647  0.4585
 7638TIP3    H122855   3.717   3.902   4.234 -0.4766 -0.6662  0.5480
 7638TIP3    H222856   3.588   3.833   4.195 -1.1355  0.8111  0.0774
 7639TIP3   OH222857   5.558   2.913   5.533  0.3260  0.1841 -0.0427
 7639TIP3    H122858   5.646   2.945   5.509  0.0570  1.2910  0.3863
 7639TIP3    H222859   5.516   2.990   5.572 -1.2158 -0.0521 -1.2353
 7640TIP3   OH222860   4.835   4.356   5.763  0.5518  0.1885 -0.2328
 7640TIP3    H122861   4.807   4.446   5.746 -2.9323 -1.1122 -1.8555
 7640TIP3    H222862   4.837   4.315   5.677  1.0095 -1.6107  0.6121
 7641TIP3   OH222863   3.240   6.118   4.769  0.2498 -0.4145  0.9445
 7641TIP3    H122864   3.288   6.047   4.726 -0.2576 -1.0117  1.3501
 7641TIP3    H222865   3.157   6.124   4.721  0.6753  0.5404  0.3154
 7642TIP3   OH222866   3.640   4.593   3.335 -0.2765 -0.3215  0.3846
 7642TIP3    H122867   3.558   4.633   3.365 -0.3536 -0.0598 -0.1731
 7642TIP3    H222868   3.673   4.545   3.412 -1.2576 -0.9177  0.4486
 7643TIP3   OH222869   5.332   3.826   4.344  0.1748 -0.0370  0.2292
 7643TIP3    H122870   5.276   3.771   4.290  0.7455 -0.7559  0.3701
 7643TIP3    H222871   5.282   3.841   4.424  0.0927 -0.4918  0.2593
 7644TIP3   OH222872   4.913   6.075   5.216  0.1052 -0.0959  0.2046
 7644TIP3    H122873   4.929   6.105   5.305  0.3837  1.4061 -0.3205
 7644TIP3    H222874   4.878   6.153   5.171  0.9507 -0.5341 -1.2464
 7645TIP3   OH222875   5.191   3.452   6.506 -0.4609  0.0583 -0.2634
 7645TIP3    H122876   5.103   3.424   6.483 -0.8959  0.3850  0.9636
 7645TIP3    H222877   5.179   3.537   6.548  0.2706 -0.5535  1.2402
 7646TIP3   OH222878   3.735   3.377   5.060 -0.2870 -0.3608  0.2429
 7646TIP3    H122879   3.675   3.345   5.128 -0.5383 -0.3256  0.0363
 7646TIP3    H222880   3.817   3.395   5.108 -0.3990 -0.5269  0.5020
 7647TIP3   OH222881   4.649   4.082   5.178  0.6609 -0.0452  0.4374
 7647TIP3    H122882   4.741   4.071   5.202 -0.1618 -1.7299  3.0244
 7647TIP3    H222883   4.602   4.081   5.261 -1.7164  0.7140 -0.8533
 7648TIP3   OH222884   4.217   2.855   4.999  0.2661 -0.0118  0.3462
 7648TIP3    H122885   4.180   2.825   4.916  0.8148 -0.0905  0.1264
 7648TIP3    H222886   4.226   2.775   5.051 -0.2611  0.0641  0.5558
 7649TIP3   OH222887   4.697   1.472   5.763 -1.0382 -0.2293 -0.1687
 7649TIP3    H122888   4.634   1.543   5.751 -0.8273  0.0529  0.3651
 7649TIP3    H222889   4.666   1.427   5.842  0.5552  1.1416  1.3024
 7650TIP3   OH222890   0.497   3.998   5.863  0.0125  0.3290 -0.0653
 7650TIP3    H122891   0.518   4.030   5.951 -2.7355  1.0775  0.3658
 7650TIP3    H222892   0.582   3.987   5.820  1.3986 -0.2668  2.7426
 7651TIP3   OH222893   5.392   4.453   2.360 -0.1604  0.0901 -0.0553
 7651TIP3    H122894   5.316   4.489   2.406  0.1282  0.9156 -0.2208
 7651TIP3    H222895   5.382   4.358   2.368  0.5155  0.2051  2.7898
 7652TIP3   OH222896   1.917   4.597   5.046 -0.2930 -0.2856 -0.2465
 7652TIP3    H122897   1.880   4.526   4.993 -2.5327  1.1183 -0.6407
 7652TIP3    H222898   1.872   4.675   5.015  2.1991  1.3519  0.1294
 7653TIP3   OH222899   3.648   2.716   4.827  0.6205  0.7339  0.0282
 7653TIP3    H122900   3.620   2.765   4.903  1.2901  1.1315  0.0202
 7653TIP3    H222901   3.574   2.659   4.806  0.6094  0.2772  1.2570
 7654TIP3   OH222902   4.130   3.580   4.989 -0.1531  0.0441  0.2022
 7654TIP3    H122903   4.092   3.520   5.053 -0.6094 -0.3945 -0.4581
 7654TIP3    H222904   4.069   3.653   4.985 -0.7783 -0.5036 -0.6135
 7655TIP3   OH222905   5.929   3.569   3.069 -0.2306 -0.0937  0.3060
 7655TIP3    H122906   6.007   3.514   3.078 -0.2498 -0.3048 -0.7086
 7655TIP3    H222907   5.962   3.652   3.035 -0.5282 -0.4202 -0.7888
 7656TIP3   OH222908   4.494   6.363   3.380 -0.7992  0.0304  0.6051
 7656TIP3    H122909   4.462   6.300   3.444  0.7431 -0.1343  1.2588
 7656TIP3    H222910   4.473   6.325   3.295 -0.1407 -1.2335  0.9934
 7657TIP3   OH222911   2.965   4.477   4.332  0.4620 -0.4006 -0.3021
 7657TIP3    H122912   2.908   4.415   4.286 -0.2980  0.1490 -0.1249
 7657TIP3    H222913   3.050   4.434   4.336  0.0534 -1.2424 -0.5688
 7658TIP3   OH222914   2.921   3.524   6.203  0.1094  0.4425  0.6375
 7658TIP3    H122915   2.987   3.456   6.193  0.9459  1.4503 -0.9816
 7658TIP3    H222916   2.885   3.510   6.290  0.1549 -2.1441  0.2773
 7659TIP3   OH222917   7.171   2.671   4.113  0.4641 -0.0045  0.4410
 7659TIP3    H122918   7.086   2.682   4.069  1.1808 -1.4843 -1.3812
 7659TIP3    H222919   7.193   2.759   4.145 -1.4989  0.4951  0.4901
 7660TIP3   OH222920   3.599   3.460   4.305 -0.1216  0.8956 -0.0313
 7660TIP3    H122921   3.657   3.409   4.248  2.3856  2.9390  0.5989
 7660TIP3    H222922   3.633   3.444   4.393  0.1984  2.9521  0.2469
 7661TIP3   OH222923   4.902   4.514   3.488 -0.0466  0.2631  0.1247
 7661TIP3    H122924   4.935   4.437   3.443 -0.5300 -0.8465  1.6360
 7661TIP3    H222925   4.865   4.568   3.419 -0.6193 -1.3331 -0.8321
 7662TIP3   OH222926   4.763   6.631   4.747 -0.8865  0.5588  0.1681
 7662TIP3    H122927   4.846   6.678   4.754 -0.8029  0.4194  0.1181
 7662TIP3    H222928   4.736   6.616   4.838  0.1386 -1.1390  0.2142
 7663TIP3   OH222929   5.262   4.634   3.125 -0.0343 -0.1857 -0.2724
 7663TIP3    H122930   5.329   4.612   3.060 -1.2722  1.0348 -2.0199
 7663TIP3    H222931   5.265   4.730   3.131  1.9376 -0.3852  3.5721
 7664TIP3   OH222932   3.814   5.916   4.177 -0.8471  0.7568  0.1597
 7664TIP3    H122933   3.743   5.906   4.114  1.5684 -1.0808 -2.3861
 7664TIP3    H222934   3.830   6.010   4.181 -1.7891  0.9779 -1.0549
 7665TIP3   OH222935   3.869   4.096   5.247 -0.0562 -0.2193  0.0083
 7665TIP3    H122936   3.893   4.031   5.312  1.3467  0.3061  0.0229
 7665TIP3    H222937   3.952   4.129   5.213 -0.7059  2.0636  0.4902
 7666TIP3   OH222938   4.514   4.012   5.421  0.2552  0.4885 -0.2434
 7666TIP3    H122939   4.425   3.985   5.397  0.5496  0.6735 -1.5868
 7666TIP3    H222940   4.546   3.941   5.477 -0.2327 -0.2781 -0.9112
 7667TIP3   OH222941   6.614   5.086   6.643 -0.4203  0.1289  0.5245
 7667TIP3    H122942   6.545   5.080   6.576 -0.3943 -1.1739  0.5978
 7667TIP3    H222943   6.566   5.086   6.726 -0.2659 -3.2917  0.6727
 7668TIP3   OH222944   3.235   5.550   4.256 -0.0840  0.3141  0.0800
 7668TIP3    H122945   3.206   5.476   4.202  2.0981 -1.6235  1.4618
 7668TIP3    H222946   3.320   5.522   4.290 -0.3675  2.4684  2.6380
 7669TIP3   OH222947   4.493   5.776   6.337 -0.0387  0.1843  0.7682
 7669TIP3    H122948   4.477   5.730   6.419  0.7814 -0.5395  0.5265
 7669TIP3    H222949   4.411   5.766   6.288 -0.1844 -0.2170  1.0924
 7670TIP3   OH222950   3.188   4.956   3.839 -0.6436  0.3987 -0.3880
 7670TIP3    H122951   3.134   4.887   3.879  0.2663  0.9713  1.8942
 7670TIP3    H222952   3.269   4.912   3.816 -0.9603  0.1915 -1.1259
 7671TIP3   OH222953   2.321   3.181   2.229  0.1289  0.8221 -0.3836
 7671TIP3    H122954   2.273   3.146   2.154  2.9411  2.3315 -2.9769
 7671TIP3    H222955   2.396   3.123   2.239  0.3985  1.3169  0.5154
 7672TIP3   OH222956   3.050   5.464   4.048  0.0991  0.4401  0.2506
 7672TIP3    H122957   3.032   5.376   4.016 -3.5265  1.7858 -1.6669
 7672TIP3    H222958   3.027   5.461   4.141  1.2349 -0.8983  0.5223
 7673TIP3   OH222959   2.403   6.696   3.012  0.1449 -0.0220 -0.2550
 7673TIP3    H122960   2.361   6.643   3.080  0.2923  0.6800  0.3912
 7673TIP3    H222961   2.496   6.678   3.023  0.2966  1.4472  0.8776
 7674TIP3   OH222962   4.585   4.231   3.978  0.1890 -0.2520  0.1663
 7674TIP3    H122963   4.529   4.296   4.022 -0.0781  0.0437 -0.6057
 7674TIP3    H222964   4.527   4.158   3.960  0.6250 -0.9620  1.5617
 7675TIP3   OH222965   4.892   4.680   4.528 -0.5893  0.0729 -0.2877
 7675TIP3    H122966   4.899   4.702   4.621  1.0638 -1.2247 -0.0953
 7675TIP3    H222967   4.873   4.586   4.527  0.9151 -0.2398 -1.2742
 7676TIP3   OH222968   4.083   5.136   2.869 -0.2195  0.2642  0.5509
 7676TIP3    H122969   4.034   5.168   2.945 -0.7790 -0.7194  0.6170
 7676TIP3    H222970   4.101   5.214   2.817 -0.7260  0.8105  1.1885
 7677TIP3   OH222971   4.389   2.049   4.761 -0.2560 -0.2019 -0.2705
 7677TIP3    H122972   4.448   2.104   4.813 -0.0013 -2.7017  2.1656
 7677TIP3    H222973   4.302   2.065   4.799 -0.2045 -1.3557  0.3297
 7678TIP3   OH222974   4.626   3.705   1.444 -0.6982 -0.3694 -0.1251
 7678TIP3    H122975   4.588   3.792   1.430 -0.1772  0.0367  0.9097
 7678TIP3    H222976   4.669   3.711   1.529  0.9505 -1.0751 -0.8864
 7679TIP3   OH222977   4.259   4.486   3.204 -0.5157  0.5548 -0.2536
 7679TIP3    H122978   4.278   4.494   3.111 -1.0874 -2.3555 -0.6844
 7679TIP3    H222979   4.334   4.527   3.248  0.6981  0.2244 -1.9793
 7680TIP3   OH222980   3.851   3.859   1.768 -0.1477 -0.1838 -0.3035
 7680TIP3    H122981   3.945   3.845   1.752 -0.1405  0.5103 -0.9019
 7680TIP3    H222982   3.812   3.862   1.681 -1.0316 -2.3460 -0.0244
 7681TIP3   OH222983   2.893   3.756   3.098 -0.5763  0.3214 -0.0324
 7681TIP3    H122984   2.843   3.687   3.142 -0.7718 -0.6444 -1.7174
 7681TIP3    H222985   2.868   3.837   3.142  0.7770 -0.8368  2.9759
 7682TIP3   OH222986   2.791   3.451   5.733 -0.4208 -0.5718 -0.3744
 7682TIP3    H122987   2.869   3.480   5.781 -0.5765 -1.4790  0.4264
 7682TIP3    H222988   2.824   3.424   5.648 -0.1343  1.0063 -0.7815
 7683TIP3   OH222989   8.175   2.801   4.664  0.6442 -0.0237 -0.3836
 7683TIP3    H122990   8.137   2.873   4.614  1.9153  0.2625 -0.9447
 7683TIP3    H222991   8.217   2.746   4.598  1.0209 -0.4519  0.2159
 7684TIP3   OH222992   5.344   2.606   3.992 -0.2029  0.3575  0.2965
 7684TIP3    H122993   5.388   2.643   4.069  0.6744  1.1680 -0.5766
 7684TIP3    H222994   5.251   2.623   4.007 -0.1022 -0.2052  1.5548
 7685TIP3   OH222995   4.181   4.331   2.198 -0.0315 -0.5404 -0.2756
 7685TIP3    H122996   4.088   4.330   2.219 -0.4662  0.3156 -2.1452
 7685TIP3    H222997   4.196   4.418   2.160  1.1345 -1.3675 -1.7268
 7686TIP3   OH222998   5.724   3.029   1.843  0.2759 -0.7047 -0.5267
 7686TIP3    H122999   5.663   3.101   1.859  3.4766  1.9798  0.2271
 7686TIP3    H223000   5.716   3.011   1.750  0.8351  2.0198 -1.1343
 7687TIP3   OH223001   4.737   3.311   5.111 -0.0149  0.4786  0.0663
 7687TIP3    H123002   4.761   3.355   5.030  2.5589 -1.7170 -0.4460
 7687TIP3    H223003   4.732   3.218   5.088 -1.9212  0.0913  1.8458
 7688TIP3   OH223004   3.899   4.508   4.786  0.4808 -0.2282  1.2853
 7688TIP3    H123005   3.857   4.500   4.871  0.3447  2.8708  1.5764
 7688TIP3    H223006   3.875   4.595   4.755  1.7743 -0.7042 -1.2517
 7689TIP3   OH223007   2.216   6.518   4.008 -0.1395 -0.0635  0.1794
 7689TIP3    H123008   2.272   6.510   3.931 -0.4334  0.4441 -0.0901
 7689TIP3    H223009   2.249   6.596   4.053 -0.3682  0.0050  0.2301
 7690TIP3   OH223010   3.184   4.592   6.744  0.3249 -0.1332  0.4942
 7690TIP3    H123011   3.246   4.656   6.778  0.2397  0.1504  0.1213
 7690TIP3    H223012   3.098   4.635   6.751 -0.0044 -1.0710  2.3456
 7691TIP3   OH223013   6.290   2.976   5.493 -0.0119  0.1643 -0.3652
 7691TIP3    H123014   6.271   3.069   5.479 -0.8336 -0.1359 -1.3243
 7691TIP3    H223015   6.361   2.957   5.431 -1.6721 -0.4695 -2.1406
 7692TIP3   OH223016   3.094   3.461   4.396  0.0128  0.0749  0.1777
 7692TIP3    H123017   3.131   3.426   4.477  0.1555 -1.8031 -0.6734
 7692TIP3    H223018   3.068   3.384   4.346 -0.1549  1.2116 -1.5382
 7693TIP3   OH223019   4.515   2.231   3.424 -0.0210  0.2431 -0.2532
 7693TIP3    H123020   4.537   2.142   3.398  0.1583  0.2992 -0.2971
 7693TIP3    H223021   4.546   2.285   3.351  0.3737  0.3908  0.0247
 7694TIP3   OH223022   5.740   4.316   4.858 -0.2304  0.1754  0.1628
 7694TIP3    H123023   5.792   4.237   4.869  0.5042  0.7888  1.2087
 7694TIP3    H223024   5.733   4.353   4.946 -0.4171  1.3638 -0.3310
 7695TIP3   OH223025   4.087   3.396   5.197 -0.1634  0.0641 -0.0674
 7695TIP3    H123026   4.013   3.355   5.241  0.6017 -2.3137 -0.9301
 7695TIP3    H223027   4.164   3.354   5.233  0.5609 -0.6544 -2.3361
 7696TIP3   OH223028   1.386   5.142   5.391  0.1810  0.1157  0.1455
 7696TIP3    H123029   1.431   5.071   5.346 -1.2191 -0.1720 -0.8116
 7696TIP3    H223030   1.295   5.113   5.397 -0.1619  1.3048  0.8191
 7697TIP3   OH223031   3.053   3.858   5.257  0.3852  0.3669  0.2186
 7697TIP3    H123032   2.983   3.794   5.266  0.4732  0.5433  2.3430
 7697TIP3    H223033   3.052   3.881   5.164 -1.7211 -0.3557  0.0297
 7698TIP3   OH223034   4.236   4.730   3.920 -0.3987 -0.4854  0.5500
 7698TIP3    H123035   4.181   4.797   3.877  1.6670  0.0783 -1.3325
 7698TIP3    H223036   4.193   4.714   4.004 -1.7691  2.1515  0.4200
 7699TIP3   OH223037   3.801   4.793   2.588 -0.5239  0.0641 -0.4564
 7699TIP3    H123038   3.750   4.724   2.629 -0.0190 -0.0642 -0.0398
 7699TIP3    H223039   3.738   4.840   2.533 -0.8268 -0.8416 -0.8972
 7700TIP3   OH223040   4.424   4.858   5.554 -0.0638  0.5069 -0.5174
 7700TIP3    H123041   4.378   4.797   5.613  1.1181  0.5220  0.4424
 7700TIP3    H223042   4.413   4.943   5.597  1.0349  0.4753 -0.1698
 7701TIP3   OH223043   4.330   5.355   3.882  0.1106 -0.2789 -0.1554
 7701TIP3    H123044   4.412   5.389   3.917 -0.5243  0.0201  1.0474
 7701TIP3    H223045   4.272   5.431   3.880 -0.4165 -0.6833 -0.1538
 7702TIP3   OH223046   7.230   7.698   0.270 -0.0116 -0.4556  0.5248
 7702TIP3    H123047   7.320   7.675   0.294  0.0521 -1.1442 -0.3396
 7702TIP3    H223048   7.231   7.793   0.262  0.7753 -0.5064 -0.0286
 7703TIP3   OH223049   2.173   5.897   4.077 -0.0643 -0.0290 -0.1116
 7703TIP3    H123050   2.191   5.816   4.028 -2.0947 -0.8254  0.4079
 7703TIP3    H223051   2.128   5.953   4.014 -0.2009  0.0228  0.0338
 7704TIP3   OH223052   4.602   4.769   6.841 -0.5139  0.1856  0.2965
 7704TIP3    H123053   4.556   4.699   6.796 -1.1671  0.9673 -0.2650
 7704TIP3    H223054   4.625   4.732   6.926 -1.0278 -0.6453  0.0750
 7705TIP3   OH223055   4.290   4.910   2.497  0.1698  0.1675  0.6275
 7705TIP3    H123056   4.271   5.003   2.490  0.8627  0.2466 -0.1824
 7705TIP3    H223057   4.234   4.880   2.569  0.5043  1.3515  1.4010
 7706TIP3   OH223058   5.285   5.963   6.773  0.8497  0.9076 -1.3130
 7706TIP3    H123059   5.271   6.049   6.733  0.5728  0.3689 -2.3979
 7706TIP3    H223060   5.207   5.912   6.748  0.7984  0.4886 -0.2963
 7707TIP3   OH223061   2.937   3.249   5.936 -0.5063  0.2957  0.4359
 7707TIP3    H123062   2.952   3.156   5.952  0.4107  0.2985 -0.3714
 7707TIP3    H223063   2.893   3.251   5.851 -2.2338  0.4910  1.3154
 7708TIP3   OH223064   5.175   2.791   5.118 -0.3611 -0.6300  0.2936
 7708TIP3    H123065   5.265   2.776   5.090 -0.0754 -1.4005  1.6009
 7708TIP3    H223066   5.132   2.706   5.111 -1.0452 -0.2278 -0.5089
 7709TIP3   OH223067   4.984   5.347   4.821  0.1739 -0.2103  0.4749
 7709TIP3    H123068   5.050   5.406   4.785  0.0975 -0.3623  0.0896
 7709TIP3    H223069   4.940   5.311   4.745  0.6636 -1.2830  0.6904
 7710TIP3   OH223070   3.741   2.278   4.174 -0.3776 -0.3006  0.0448
 7710TIP3    H123071   3.814   2.339   4.180 -0.2701 -0.3769 -0.4979
 7710TIP3    H223072   3.678   2.321   4.116 -0.8760 -0.1242  0.7040
 7711TIP3   OH223073   6.092   5.252   4.603 -0.2332 -0.4427  0.5298
 7711TIP3    H123074   6.186   5.237   4.600 -0.0253  0.9530 -2.1743
 7711TIP3    H223075   6.083   5.340   4.639 -0.4265 -0.1047 -0.3368
 7712TIP3   OH223076   5.636   2.745   5.744 -0.3584  0.4823  0.5615
 7712TIP3    H123077   5.604   2.783   5.663 -0.1569 -0.9183 -0.2047
 7712TIP3    H223078   5.581   2.668   5.758  0.1531  0.2402  1.2973
 7713TIP3   OH223079   3.523   4.512   4.972  0.2351  0.6377  0.4905
 7713TIP3    H123080   3.540   4.594   4.926 -1.5051  0.8766  0.2187
 7713TIP3    H223081   3.609   4.479   4.997  1.1349  1.0877 -1.9206
 7714TIP3   OH223082   3.512   2.852   5.038 -0.7868  0.2412  0.2876
 7714TIP3    H123083   3.481   2.937   5.008 -0.6050  0.5238  0.9080
 7714TIP3    H223084   3.451   2.826   5.106  0.0716  0.5895  1.1934
 7715TIP3   OH223085   3.243   2.943   5.700  0.2174  0.4249 -0.1433
 7715TIP3    H123086   3.334   2.971   5.714 -0.2553  2.1223 -0.3884
 7715TIP3    H223087   3.226   2.882   5.773  1.3897  0.4525  0.1692
 7716TIP3   OH223088   7.072   4.305   5.844 -0.1005  0.3853 -0.2966
 7716TIP3    H123089   7.059   4.273   5.933  1.7460 -0.0540 -0.1657
 7716TIP3    H223090   6.983   4.316   5.809 -0.8137 -1.1754  0.9609
 7717TIP3   OH223091   6.171   4.143   5.153 -0.3459 -0.2855 -0.2961
 7717TIP3    H123092   6.236   4.212   5.166 -0.9078  0.1661  0.1800
 7717TIP3    H223093   6.088   4.190   5.141 -0.5061 -0.8401 -1.3974
 7718TIP3   OH223094   4.371   5.452   4.526 -0.4858  1.1932  0.2304
 7718TIP3    H123095   4.318   5.405   4.590 -0.4957  0.8979  0.0079
 7718TIP3    H223096   4.308   5.505   4.477 -0.6375  0.5693 -0.2744
 7719TIP3   OH223097   3.016   4.275   5.397 -0.4887 -0.3335  0.2334
 7719TIP3    H123098   2.975   4.341   5.342 -1.0803 -0.7488  0.1704
 7719TIP3    H223099   3.078   4.323   5.452  1.3458 -0.0901 -1.9411
 7720TIP3   OH223100   4.592   5.390   4.405 -0.0640  0.4241  0.1108
 7720TIP3    H123101   4.597   5.298   4.379  0.3689  0.4771  0.0017
 7720TIP3    H223102   4.511   5.397   4.455  0.1716 -0.1255  0.5583
 7721TIP3   OH223103   6.153   1.943   5.038  0.2917  0.0123 -0.5019
 7721TIP3    H123104   6.062   1.971   5.046  0.6038  1.1038 -0.6245
 7721TIP3    H223105   6.175   1.958   4.946  0.0689 -1.9306 -0.8834
 7722TIP3   OH223106   2.684   5.660   5.333  0.2413  0.9013  0.3631
 7722TIP3    H123107   2.766   5.652   5.285  0.0890  0.9416  0.0938
 7722TIP3    H223108   2.660   5.753   5.324  0.2858  0.9392  0.6390
 7723TIP3   OH223109   3.791   4.493   6.894 -0.2464 -0.6837 -0.2279
 7723TIP3    H123110   3.839   4.485   6.976  1.5579  0.1949 -1.1842
 7723TIP3    H223111   3.760   4.404   6.875  0.5674 -1.1531  0.6408
 7724TIP3   OH223112   4.886   4.328   5.195  0.2630  0.7196 -0.4157
 7724TIP3    H123113   4.858   4.344   5.105 -1.9579  1.3851  0.3463
 7724TIP3    H223114   4.886   4.415   5.235  2.3146  0.5631 -0.0601
 7725TIP3   OH223115   5.374   3.465   4.864 -0.3003  1.2343  0.1551
 7725TIP3    H123116   5.418   3.433   4.943 -1.4056 -0.1075  0.2405
 7725TIP3    H223117   5.286   3.429   4.869 -0.7838  2.2076 -1.0552
 7726TIP3   OH223118   3.847   4.648   3.584  0.1079  0.4621 -0.2205
 7726TIP3    H123119   3.847   4.741   3.561 -0.3985  0.3913 -0.5248
 7726TIP3    H223120   3.761   4.634   3.623  0.7133  0.4366  1.1388
 7727TIP3   OH223121   3.750   5.557   3.851  0.1124 -0.7094  0.1499
 7727TIP3    H123122   3.759   5.565   3.946  1.6329 -2.8424  0.2173
 7727TIP3    H223123   3.788   5.638   3.817  0.9695 -0.6133  1.3036
 7728TIP3   OH223124   0.686   5.232   6.304 -0.1797 -0.4590  0.3941
 7728TIP3    H123125   0.774   5.237   6.267 -0.4247  0.5824 -0.0805
 7728TIP3    H223126   0.636   5.297   6.255 -1.2611 -1.1636  0.5428
 7729TIP3   OH223127   2.677   6.658   5.230 -0.1752  0.0809 -0.2457
 7729TIP3    H123128   2.629   6.647   5.312  0.6408 -1.6697  0.0169
 7729TIP3    H223129   2.734   6.734   5.247 -1.2324  0.7917  0.1949
 7730TIP3   OH223130   5.174   4.170   2.609 -0.1753  0.5907  0.7184
 7730TIP3    H123131   5.081   4.150   2.595 -0.0725  0.6503 -0.0487
 7730TIP3    H223132   5.184   4.169   2.704 -0.5041 -1.5288  0.7539
 7731TIP3   OH223133   4.640   4.789   4.977  0.1397  0.3520 -0.1764
 7731TIP3    H123134   4.583   4.756   4.908  1.4320 -1.2115 -0.5243
 7731TIP3    H223135   4.710   4.835   4.929 -0.2162  1.3123  0.2046
 7732TIP3   OH223136   4.656   3.662   4.565 -0.4483  0.1365 -0.8649
 7732TIP3    H123137   4.746   3.642   4.541 -0.3140 -0.6614  0.2940
 7732TIP3    H223138   4.664   3.724   4.637 -0.8444  1.4269 -1.9098
 7733TIP3   OH223139   4.133   5.086   0.575 -0.1275  0.0367  0.4083
 7733TIP3    H123140   4.085   5.014   0.615  1.1339 -0.6379  0.7292
 7733TIP3    H223141   4.127   5.157   0.639 -2.3763  0.6553 -0.4124
 7734TIP3   OH223142   4.831   5.964   3.487 -0.0844  0.9680 -0.5983
 7734TIP3    H123143   4.741   5.983   3.514  0.4959  1.1853  1.2704
 7734TIP3    H223144   4.878   6.046   3.505  0.7918  0.3589 -0.1049
 7735TIP3   OH223145   4.122   5.751   4.910 -0.1996 -0.4571 -0.7271
 7735TIP3    H123146   4.099   5.829   4.959  1.0459  0.3357 -1.3738
 7735TIP3    H223147   4.080   5.679   4.957 -0.6430  0.5049  0.3555
 7736TIP3   OH223148   5.217   5.290   1.566  0.3633  0.3077 -0.6527
 7736TIP3    H123149   5.138   5.279   1.514 -0.1525  0.5176  0.0720
 7736TIP3    H223150   5.264   5.207   1.557 -0.6401 -0.3579  0.0593
 7737TIP3   OH223151   2.377   3.980   4.060  0.1928  0.5455  0.5807
 7737TIP3    H123152   2.456   3.937   4.093  0.3364  0.6726  0.4029
 7737TIP3    H223153   2.308   3.915   4.071  0.9744 -0.9258 -2.5294
 7738TIP3   OH223154   5.960   3.831   5.140 -0.1327  0.6505 -0.2858
 7738TIP3    H123155   5.907   3.910   5.127 -0.2463  0.5735 -0.2941
 7738TIP3    H223156   5.993   3.809   5.053 -0.4457  0.4469 -0.3529
 7739TIP3   OH223157   5.480   5.900   3.795 -1.0302 -0.4210 -0.5172
 7739TIP3    H123158   5.431   5.850   3.860  0.5738 -1.1616  0.1414
 7739TIP3    H223159   5.552   5.939   3.844 -0.8373  0.5011 -1.5173
 7740TIP3   OH223160   6.597   5.934   3.762 -0.2223  0.2542 -0.5379
 7740TIP3    H123161   6.505   5.909   3.763 -0.1265 -0.0536  0.5280
 7740TIP3    H223162   6.601   6.012   3.818  0.2383 -0.0166 -0.1848
 7741TIP3   OH223163   5.988   4.008   3.505 -0.0461  0.0654  0.2993
 7741TIP3    H123164   5.935   4.044   3.434 -1.3002  0.5319  1.4439
 7741TIP3    H223165   6.077   4.038   3.486 -0.3211  0.0025 -1.1783
 7742TIP3   OH223166   4.126   5.388   4.284 -0.5110  0.0661  0.1263
 7742TIP3    H123167   4.133   5.481   4.305 -2.4377  0.4005 -0.6288
 7742TIP3    H223168   4.076   5.385   4.203 -1.1806 -1.6758  0.5868
 7743TIP3   OH223169   3.606   4.288   6.099  0.7333 -0.2579 -0.1884
 7743TIP3    H123170   3.537   4.342   6.138  1.4716 -0.9418  2.1324
 7743TIP3    H223171   3.560   4.208   6.071  0.7890 -1.3936  2.7937
 7744TIP3   OH223172   3.075   6.926   6.597  0.4653  0.2547 -0.3049
 7744TIP3    H123173   3.148   6.883   6.552 -1.0730  1.0599 -3.7156
 7744TIP3    H223174   3.077   7.016   6.564 -1.2269  0.6343  0.6049
 7745TIP3   OH223175   4.636   2.889   6.508 -0.1047  0.1468  0.7156
 7745TIP3    H123176   4.543   2.885   6.528 -0.4373 -1.2993 -0.9694
 7745TIP3    H223177   4.662   2.979   6.529 -2.1022  0.8604  0.1884
 7746TIP3   OH223178   3.054   5.197   2.807 -0.5624 -0.5148 -0.0343
 7746TIP3    H123179   2.966   5.222   2.780 -0.5107 -0.1409  0.1325
 7746TIP3    H223180   3.089   5.148   2.734 -0.3413  0.6702 -0.7404
 7747TIP3   OH223181   3.462   1.347   4.330  0.0958  0.0153  0.0520
 7747TIP3    H123182   3.537   1.299   4.295 -0.8720 -1.5535  0.0962
 7747TIP3    H223183   3.447   1.308   4.416 -1.5449 -0.5318 -0.4810
 7748TIP3   OH223184   5.166   2.977   1.709  0.2341  0.5669 -0.1386
 7748TIP3    H123185   5.138   2.983   1.618  1.1009  1.9213 -0.3170
 7748TIP3    H223186   5.134   2.891   1.737 -2.5908  1.3124 -0.8459
 7749TIP3   OH223187   5.331   3.065   3.015 -0.1378 -0.2030  0.6547
 7749TIP3    H123188   5.290   3.064   2.928  0.2137 -0.2638  0.4877
 7749TIP3    H223189   5.421   3.095   2.999  0.2281 -1.1568  0.8577
 7750TIP3   OH223190   4.559   4.497   5.586  0.3423  0.4079 -0.0744
 7750TIP3    H123191   4.491   4.537   5.533 -1.4018 -0.6209  1.3605
 7750TIP3    H223192   4.553   4.404   5.568 -0.4323  0.0139  2.0730
 7751TIP3   OH223193   4.527   5.002   2.609  0.2641 -0.2009  0.4608
 7751TIP3    H123194   4.569   5.076   2.566  0.3120 -1.0800 -1.0587
 7751TIP3    H223195   4.452   4.982   2.554  0.6264 -1.6776  0.4758
 7752TIP3   OH223196   2.781   2.274   4.828  0.2315 -0.2901 -0.2671
 7752TIP3    H123197   2.812   2.190   4.793  1.3191  0.0743 -0.1977
 7752TIP3    H223198   2.827   2.340   4.777 -1.0922  0.2847 -0.7442
 7753TIP3   OH223199   2.443   6.889   5.547  0.4050 -0.3756  0.2009
 7753TIP3    H123200   2.352   6.897   5.519 -0.1548 -0.6362  1.8967
 7753TIP3    H223201   2.451   6.950   5.620  0.6951 -2.6499  2.1604
 7754TIP3   OH223202   4.171   6.743   2.872  0.1576  0.2750  0.4875
 7754TIP3    H123203   4.138   6.796   2.800 -2.6300 -1.6212  0.2702
 7754TIP3    H223204   4.214   6.669   2.830  0.0198  0.0431  0.7485
 7755TIP3   OH223205   3.624   6.195   3.818 -0.2354  0.0899  0.1503
 7755TIP3    H123206   3.672   6.198   3.736 -1.3673  1.3782 -0.4942
 7755TIP3    H223207   3.532   6.189   3.792 -0.5060 -1.2776  1.3440
 7756TIP3   OH223208   5.514   6.259   3.629 -0.2393  0.2004  0.0586
 7756TIP3    H123209   5.526   6.324   3.560  0.4978 -0.1224 -0.1202
 7756TIP3    H223210   5.424   6.271   3.658  0.3346  2.2612  1.0317
 7757TIP3   OH223211   5.198   4.237   2.931  0.4511 -0.1201 -0.3169
 7757TIP3    H123212   5.198   4.271   3.021 -1.5118 -0.7313 -0.0683
 7757TIP3    H223213   5.113   4.263   2.896  0.7036 -0.9847 -1.5785
 7758TIP3   OH223214   1.264   6.109   5.392 -0.6913 -0.1595 -0.3645
 7758TIP3    H123215   1.229   6.170   5.327 -1.7993 -1.6137 -1.1703
 7758TIP3    H223216   1.336   6.156   5.433 -0.1642  0.9080 -2.4324
 7759TIP3   OH223217   2.597   7.857   6.075 -0.9745 -0.5270  0.5495
 7759TIP3    H123218   2.521   7.835   6.021  0.2525 -2.1255 -0.5834
 7759TIP3    H223219   2.601   7.787   6.140 -1.0562  0.1030  1.2374
 7760TIP3   OH223220   3.149   5.111   4.809  0.3313  0.4528  0.2611
 7760TIP3    H123221   3.236   5.118   4.847  1.0116 -0.3232 -1.1077
 7760TIP3    H223222   3.110   5.034   4.851  1.3101 -0.7670 -1.0036
 7761TIP3   OH223223   2.496   7.959   3.803 -0.4421 -0.1268  0.2849
 7761TIP3    H123224   2.517   7.875   3.843  2.3889 -0.2290 -1.3056
 7761TIP3    H223225   2.535   8.024   3.862  1.4543 -0.1580 -0.9183
 7762TIP3   OH223226   4.047   5.937   5.076  0.5582 -0.0213  0.3395
 7762TIP3    H123227   3.996   5.964   5.152 -0.5784  0.6085 -0.6112
 7762TIP3    H223228   4.131   5.981   5.085  0.0956  0.7827  0.7696
 7763TIP3   OH223229   3.590   6.501   2.441  0.0691  0.7101 -0.7537
 7763TIP3    H123230   3.540   6.565   2.391  1.2247  2.3953  0.2007
 7763TIP3    H223231   3.669   6.486   2.387 -0.2357  0.0064 -1.0148
 7764TIP3   OH223232   2.981   4.909   4.897  0.0796 -0.2172  0.0062
 7764TIP3    H123233   2.908   4.913   4.834  0.2251 -2.0328 -0.3222
 7764TIP3    H223234   2.944   4.942   4.979 -1.6271 -2.6031  0.2653
 7765TIP3   OH223235   3.192   4.068   2.981 -0.8593  0.4562  0.4272
 7765TIP3    H123236   3.223   4.080   3.070 -0.5179  0.6141  0.2885
 7765TIP3    H223237   3.144   4.149   2.961 -1.2253  0.2776  0.5873
 7766TIP3   OH223238   4.353   3.577   4.535 -0.2943  0.2875  0.0072
 7766TIP3    H123239   4.378   3.632   4.609  0.0429  0.9707 -0.6090
 7766TIP3    H223240   4.435   3.541   4.503 -0.4588 -0.1400  0.0708
 7767TIP3   OH223241   6.511   2.841   4.208  0.1794 -0.6490 -0.3471
 7767TIP3    H123242   6.417   2.821   4.205  0.1372 -0.9494  1.9904
 7767TIP3    H223243   6.516   2.936   4.216  0.1423 -0.4396 -2.6999
 7768TIP3   OH223244   5.932   3.425   5.596  0.1061  0.2062  0.5643
 7768TIP3    H123245   5.913   3.496   5.536 -0.2866  1.3575  2.0045
 7768TIP3    H223246   5.875   3.442   5.671  0.9673 -0.8862  1.4858
 7769TIP3   OH223247   2.926   3.447   2.956  0.2473  0.1712 -0.0715
 7769TIP3    H123248   2.915   3.459   3.051  1.2788 -0.7126  0.1824
 7769TIP3    H223249   2.991   3.513   2.932 -0.3937  0.7369 -0.2653
 7770TIP3   OH223250   3.443   1.275   3.964 -0.6692 -0.5782  0.1709
 7770TIP3    H123251   3.385   1.270   3.888 -0.8775 -0.7003  0.3384
 7770TIP3    H223252   3.501   1.349   3.945  0.3397 -1.6008 -0.8656
 7771TIP3   OH223253   4.844   4.930   5.823 -0.0463 -0.4165 -0.5521
 7771TIP3    H123254   4.768   4.965   5.869  0.2093  0.1863 -0.5846
 7771TIP3    H223255   4.870   4.854   5.874  0.8135  0.7932  0.8368
 7772TIP3   OH223256   2.468   2.736   3.715 -0.4712 -0.5187  0.2107
 7772TIP3    H123257   2.475   2.651   3.758 -1.7034 -1.8808 -2.1961
 7772TIP3    H223258   2.558   2.768   3.712 -0.1328 -1.2329  2.0838
 7773TIP3   OH223259   4.381   5.854   2.923  0.7681 -0.4529  0.3354
 7773TIP3    H123260   4.388   5.761   2.946 -0.1981 -0.9117 -1.1236
 7773TIP3    H223261   4.448   5.868   2.857 -0.2002 -0.5344 -0.6763
 7774TIP3   OH223262   3.232   4.603   2.769  0.2713 -0.1544 -0.2781
 7774TIP3    H123263   3.183   4.684   2.758 -0.2111 -0.2887  0.8251
 7774TIP3    H223264   3.314   4.618   2.721  0.4202  1.1957  0.3736
 7775TIP3   OH223265   3.601   3.283   3.837  0.0543 -0.1418 -0.2605
 7775TIP3    H123266   3.583   3.234   3.756 -0.9873 -1.2417  0.6273
 7775TIP3    H223267   3.619   3.216   3.902  2.2166  0.7936  0.1379
 7776TIP3   OH223268   4.897   4.328   3.234  0.2327 -0.0112  0.3657
 7776TIP3    H123269   4.870   4.242   3.202  0.9468 -0.0720 -0.0689
 7776TIP3    H223270   4.852   4.391   3.177 -0.2183 -0.0924  0.6283
 7777TIP3   OH223271   1.493   3.157   1.258 -0.4371  0.0450 -0.0163
 7777TIP3    H123272   1.480   3.152   1.353 -2.0167 -1.0249 -0.2714
 7777TIP3    H223273   1.528   3.245   1.243  0.0859  0.1234  1.5809
 7778TIP3   OH223274   4.871   5.292   3.902 -0.5894 -0.1893  0.1217
 7778TIP3    H123275   4.840   5.321   3.816 -1.3191  4.1123  1.7050
 7778TIP3    H223276   4.958   5.332   3.912 -1.2842  0.9339  2.0772
 7779TIP3   OH223277   0.128   5.439   6.444 -0.1702  0.0017  0.2733
 7779TIP3    H123278   0.158   5.349   6.429 -0.0215  0.1463 -0.3047
 7779TIP3    H223279   0.049   5.447   6.390  1.0040  0.8829 -1.3548
 7780TIP3   OH223280   3.537   2.089   6.013  0.0252 -0.1408  0.0242
 7780TIP3    H123281   3.592   2.168   6.008 -0.4884  0.3093  1.2405
 7780TIP3    H223282   3.463   2.108   5.956  0.0445  0.1548  0.0926
 7781TIP3   OH223283   4.496   5.270   1.812  0.4099  0.2693  0.2588
 7781TIP3    H123284   4.507   5.363   1.793  1.5912  0.1268  0.2004
 7781TIP3    H223285   4.417   5.265   1.866 -1.2195  1.0182 -1.9596
 7782TIP3   OH223286   4.080   4.583   3.702 -0.1002 -0.8153  0.0723
 7782TIP3    H123287   3.999   4.600   3.655  0.5691  0.5109 -0.6111
 7782TIP3    H223288   4.125   4.667   3.705  0.3864 -1.1101  2.1276
 7783TIP3   OH223289   4.605   5.799   3.346  1.3758  0.1258  0.3097
 7783TIP3    H123290   4.684   5.751   3.371  0.9584  0.0482  1.4987
 7783TIP3    H223291   4.541   5.779   3.415 -0.1264 -0.8713 -1.3224
 7784TIP3   OH223292   5.559   5.196   1.262  0.2944  0.3175 -0.1066
 7784TIP3    H123293   5.466   5.182   1.245  0.0748  0.1424  1.2227
 7784TIP3    H223294   5.565   5.211   1.356  1.5574  0.7946 -0.2435
 7785TIP3   OH223295   5.778   5.886   2.636 -0.3485 -0.0261  0.4612
 7785TIP3    H123296   5.769   5.946   2.710  1.2617 -0.6594  1.1915
 7785TIP3    H223297   5.739   5.805   2.666 -0.8504  0.0977  0.1472
 7786TIP3   OH223298   5.837   3.640   4.609  0.1522  0.1297 -0.6985
 7786TIP3    H123299   5.910   3.670   4.662 -1.1954  0.3971  1.0702
 7786TIP3    H223300   5.850   3.545   4.601  0.8139  0.2125 -0.6093
 7787TIP3   OH223301   4.094   5.636   3.904  0.4425 -0.2188  0.1100
 7787TIP3    H123302   4.047   5.694   3.843 -1.2327 -0.9204  0.6983
 7787TIP3    H223303   4.185   5.664   3.898  0.1487  0.3885 -1.9673
 7788TIP3   OH223304   6.606   5.477   4.254  0.0124  0.1327 -0.7571
 7788TIP3    H123305   6.529   5.421   4.260  1.1085 -1.2984  0.3789
 7788TIP3    H223306   6.679   5.420   4.279  1.2155  1.9714  0.0160
 7789TIP3   OH223307   5.440   3.506   5.831  0.2679  0.3273  0.5263
 7789TIP3    H123308   5.511   3.522   5.893  3.1325  0.3396 -2.6520
 7789TIP3    H223309   5.420   3.593   5.795  1.4001 -0.2314 -1.4816
 7790TIP3   OH223310   6.167   2.457   3.987  1.0912 -0.0255 -0.4808
 7790TIP3    H123311   6.073   2.449   3.967  1.3060  2.2678 -2.5855
 7790TIP3    H223312   6.193   2.369   4.013 -2.2225 -0.1647  2.7956
 7791TIP3   OH223313   5.238   3.602   4.648  0.5919 -0.4276  0.0070
 7791TIP3    H123314   5.265   3.694   4.642  2.3490 -1.0040 -1.4547
 7791TIP3    H223315   5.308   3.560   4.698 -0.2242 -0.9706  0.6989
 7792TIP3   OH223316   4.906   2.748   6.766  0.3624  0.5552  0.3251
 7792TIP3    H123317   4.976   2.685   6.749 -0.3240 -0.4977  1.2506
 7792TIP3    H223318   4.844   2.734   6.695 -0.0351 -0.2019  0.8055
 7793TIP3   OH223319   6.646   3.692   4.824 -0.0836  0.1812 -0.1160
 7793TIP3    H123320   6.740   3.678   4.831  0.0885  0.5809 -1.5642
 7793TIP3    H223321   6.611   3.607   4.795 -0.1436  0.1117  0.1558
 7794TIP3   OH223322   5.649   2.187   2.540  0.1606  0.2905 -0.2405
 7794TIP3    H123323   5.564   2.168   2.502  0.2078  3.4047 -2.0496
 7794TIP3    H223324   5.644   2.152   2.629 -3.4257  1.4281  0.0663
 7795TIP3   OH223325   7.844   5.409   2.771  0.5765 -0.1898 -0.2194
 7795TIP3    H123326   7.769   5.371   2.726 -0.2971  1.3985 -0.1207
 7795TIP3    H223327   7.872   5.340   2.832 -1.9448 -0.1510  1.0564
 7796TIP3   OH223328   5.754   6.896   2.578 -0.0054 -0.4762  0.4166
 7796TIP3    H123329   5.758   6.832   2.508  0.7554 -0.1660  0.1773
 7796TIP3    H223330   5.703   6.852   2.647 -1.8733 -0.2901 -0.8156
 7797TIP3   OH223331   6.185   5.179   3.261  1.1543  0.3186 -0.0157
 7797TIP3    H123332   6.204   5.272   3.266 -0.4469  0.5859  2.1311
 7797TIP3    H223333   6.091   5.175   3.244  0.9585 -0.8682  1.2134
 7798TIP3   OH223334   7.023   4.201   3.716  0.1020  0.1214 -0.3494
 7798TIP3    H123335   7.098   4.149   3.747  1.1068  1.6051 -0.2013
 7798TIP3    H223336   7.001   4.163   3.631 -1.3728 -2.7044  1.2240
 7799TIP3   OH223337   7.063   5.040   4.178 -0.2185 -0.3687  0.1305
 7799TIP3    H123338   7.022   5.117   4.139 -2.4065 -0.4214  2.2201
 7799TIP3    H223339   7.030   4.966   4.127 -0.2184 -0.1576 -0.1778
 7800TIP3   OH223340   4.511   7.188   5.121 -0.0996  0.2157  0.1581
 7800TIP3    H123341   4.583   7.163   5.178  1.3689  1.0695 -1.2931
 7800TIP3    H223342   4.541   7.166   5.033 -1.5104  0.7845 -0.4834
 7801TIP3   OH223343   5.770   4.612   4.445  0.1562  0.3787  0.0330
 7801TIP3    H123344   5.862   4.616   4.472  0.3008  0.4440 -0.4623
 7801TIP3    H223345   5.769   4.551   4.371  0.1527  2.0037 -1.3515
 7802TIP3   OH223346   7.366   2.635   3.929  0.4475 -0.0120 -0.6597
 7802TIP3    H123347   7.303   2.638   4.001 -0.4413 -0.0389 -1.4292
 7802TIP3    H223348   7.349   2.715   3.879  1.8299  0.5848 -0.2098
 7803TIP3   OH223349   6.352   4.211   4.513 -0.2773 -0.3584  0.0063
 7803TIP3    H123350   6.411   4.212   4.437 -0.4546 -1.2292 -0.1540
 7803TIP3    H223351   6.339   4.118   4.531 -1.4077 -0.1645  0.1943
 7804TIP3   OH223352   5.771   3.459   3.473  0.4181 -0.4109 -0.5123
 7804TIP3    H123353   5.817   3.536   3.439 -1.3101  0.3728 -1.1371
 7804TIP3    H223354   5.686   3.493   3.503  0.8492 -1.5450  2.1283
 7805TIP3   OH223355   8.121   4.460   0.933 -0.3629 -0.1601 -0.3206
 7805TIP3    H123356   8.209   4.435   0.959  0.4609  0.7027 -2.2068
 7805TIP3    H223357   8.133   4.537   0.877 -2.2633 -0.3355 -1.0221
 7806TIP3   OH223358   6.249   5.486   5.259 -0.5281  0.5386 -0.1332
 7806TIP3    H123359   6.242   5.405   5.311  1.0326  0.3304 -0.2161
 7806TIP3    H223360   6.193   5.548   5.305 -0.6985 -0.2055  0.7018
 7807TIP3   OH223361   5.138   2.854   2.578 -0.8063 -0.1272 -0.2586
 7807TIP3    H123362   5.052   2.895   2.589 -1.1113 -0.9911  0.7101
 7807TIP3    H223363   5.132   2.809   2.494 -1.1111  0.2828 -0.4599
 7808TIP3   OH223364   7.742   4.233   1.679 -0.3272  0.6757  0.2099
 7808TIP3    H123365   7.724   4.281   1.598 -2.1232 -1.4041 -0.7000
 7808TIP3    H223366   7.683   4.272   1.743 -0.1476  1.1900  0.0631
 7809TIP3   OH223367   6.826   3.272   1.741  0.4926  0.3391  0.3369
 7809TIP3    H123368   6.754   3.222   1.703  0.6807  0.7070 -0.5251
 7809TIP3    H223369   6.874   3.208   1.794  0.6630 -0.3770 -0.6653
 7810TIP3   OH223370   6.306   3.505   3.723 -0.6502 -0.3378 -0.2874
 7810TIP3    H123371   6.351   3.588   3.737  0.8223 -0.8764 -1.6432
 7810TIP3    H223372   6.367   3.439   3.754 -1.6769 -0.9452  0.4780
 7811TIP3   OH223373   6.893   6.315   3.560  0.4163 -0.0064  0.5705
 7811TIP3    H123374   6.896   6.286   3.651 -2.1398 -1.1009  0.3451
 7811TIP3    H223375   6.884   6.234   3.509 -0.0627  0.7209 -0.5328
 7812TIP3   OH223376   7.442   5.894   4.463  0.1775 -0.0869  0.0050
 7812TIP3    H123377   7.372   5.948   4.425  0.2787  1.0490  1.4237
 7812TIP3    H223378   7.456   5.826   4.397  0.7278  2.1527 -2.2815
 7813TIP3   OH223379   6.707   6.468   1.519  0.3597  0.0928 -0.1368
 7813TIP3    H123380   6.788   6.514   1.542 -0.1748  0.9353  0.0521
 7813TIP3    H223381   6.695   6.485   1.425  0.6402 -0.4134 -0.2690
 7814TIP3   OH223382   5.061   5.609   4.068 -0.0453  0.8150 -0.2407
 7814TIP3    H123383   4.995   5.592   4.001 -0.1019  1.4632 -0.3521
 7814TIP3    H223384   5.063   5.529   4.121 -2.6326  1.6974  1.2571
 7815TIP3   OH223385   5.244   4.899   3.176 -0.2907  0.1336  0.3032
 7815TIP3    H123386   5.277   4.984   3.147 -0.6023  0.0155 -0.4072
 7815TIP3    H223387   5.162   4.919   3.221  0.0001  0.2768  0.7833
 7816TIP3   OH223388   5.679   4.156   3.554  0.0600  0.0010 -0.6132
 7816TIP3    H123389   5.621   4.085   3.526 -1.7101  0.6164  1.3894
 7816TIP3    H223390   5.621   4.222   3.591  2.0308  0.4058  1.9371
 7817TIP3   OH223391   8.285   4.587   4.059  0.1055  0.0130 -0.7859
 7817TIP3    H123392   8.296   4.682   4.060 -2.0261  0.2939 -1.6845
 7817TIP3    H223393   8.316   4.559   3.973 -1.9185  0.2828 -1.6433
 7818TIP3   OH223394   6.373   2.502   2.978  0.6040 -0.2898 -0.1061
 7818TIP3    H123395   6.353   2.496   3.071  1.5155 -1.2377  0.0396
 7818TIP3    H223396   6.322   2.577   2.947 -3.2732 -2.6300  0.2354
 7819TIP3   OH223397   6.402   5.306   3.564 -0.2807  0.6838 -0.6604
 7819TIP3    H123398   6.380   5.224   3.609 -2.0146 -0.4836 -3.4718
 7819TIP3    H223399   6.321   5.357   3.566  1.1047  2.9233  2.1095
 7820TIP3   OH223400   4.845   5.514   3.322 -0.1068  0.0187 -0.1479
 7820TIP3    H123401   4.919   5.485   3.269 -0.7534 -0.9690 -0.5212
 7820TIP3    H223402   4.881   5.584   3.377  1.6816 -2.0477  1.3573
 7821TIP3   OH223403   3.896   8.062   1.784  0.5154  0.2343  0.0431
 7821TIP3    H123404   3.817   8.033   1.830 -0.0542  2.0240  0.2250
 7821TIP3    H223405   3.968   8.023   1.834 -0.2393 -1.6467 -0.2825
 7822TIP3   OH223406   8.501   4.740   5.552  0.2519 -0.5007  0.7811
 7822TIP3    H123407   8.515   4.813   5.613  1.0957  0.3760 -0.4409
 7822TIP3    H223408   8.406   4.727   5.553  0.0791  0.6730  0.9756
 7823TIP3   OH223409   5.054   6.095   5.469 -0.3843  0.3650  0.2483
 7823TIP3    H123410   5.110   6.170   5.453 -0.7831  0.5996 -0.0588
 7823TIP3    H223411   5.108   6.035   5.521 -0.0235  0.8017  0.3778
 7824TIP3   OH223412   3.738   6.739   3.949  0.3909 -0.8488  0.3508
 7824TIP3    H123413   3.785   6.698   3.876  1.6539 -1.2986  1.3972
 7824TIP3    H223414   3.665   6.679   3.966  0.8691 -1.4469  0.3285
 7825TIP3   OH223415   5.770   6.345   4.263 -0.7309  0.3696  0.0066
 7825TIP3    H123416   5.697   6.286   4.278 -1.6298  1.2439 -0.9262
 7825TIP3    H223417   5.761   6.413   4.330 -0.0308 -0.2198  0.7081
 7826TIP3   OH223418   6.336   4.793   1.865  0.3012 -0.2338  0.0205
 7826TIP3    H123419   6.257   4.759   1.823 -0.9004  1.3597  0.9926
 7826TIP3    H223420   6.373   4.854   1.801 -0.4975  0.7526  0.4978
 7827TIP3   OH223421   8.529   5.106   3.767  0.0112  0.3980 -0.0023
 7827TIP3    H123422   8.482   5.174   3.719 -1.3562 -0.4996  0.0503
 7827TIP3    H223423   8.466   5.035   3.776  1.9070 -1.5110 -1.3634
 7828TIP3   OH223424   7.784   4.442   5.638  0.1292 -0.1771 -0.2910
 7828TIP3    H123425   7.711   4.496   5.610  0.1457  0.1299  0.2447
 7828TIP3    H223426   7.803   4.385   5.563 -1.0744 -0.7060 -0.1977
 7829TIP3   OH223427   5.154   4.182   4.774 -0.2340 -0.5408  0.1507
 7829TIP3    H123428   5.140   4.277   4.774  1.7145 -0.2269 -0.9811
 7829TIP3    H223429   5.079   4.146   4.727 -1.1703  0.3930  0.9012
 7830TIP3   OH223430   6.165   1.887   4.568 -0.1302  0.2371 -0.1098
 7830TIP3    H123431   6.107   1.881   4.492  0.5623 -0.0079 -0.6199
 7830TIP3    H223432   6.228   1.816   4.557  0.8633  1.0908 -0.0729
 7831TIP3   OH223433   7.576   3.578   4.263  0.5841  0.3359 -0.6624
 7831TIP3    H123434   7.505   3.549   4.320  1.5821  1.3565  1.1505
 7831TIP3    H223435   7.618   3.497   4.233 -0.3695 -0.2256 -0.4783
 7832TIP3   OH223436   6.644   2.752   5.146  0.6266  0.5944 -0.5251
 7832TIP3    H123437   6.722   2.732   5.094  1.3413  0.4938  0.5714
 7832TIP3    H223438   6.577   2.693   5.111  1.1624  0.3598 -1.1747
 7833TIP3   OH223439   6.958   4.175   3.155 -0.6098 -0.1601  0.1551
 7833TIP3    H123440   7.028   4.126   3.112 -0.6220 -0.0378 -0.0033
 7833TIP3    H223441   6.878   4.148   3.110 -0.9164 -1.7961  1.6287
 7834TIP3   OH223442   5.028   4.552   3.718  0.2557  0.1199 -0.2856
 7834TIP3    H123443   5.004   4.525   3.630  0.8725  0.9735 -0.7138
 7834TIP3    H223444   5.113   4.511   3.734 -1.0117 -2.1511  0.8937
 7835TIP3   OH223445   6.010   4.699   4.536 -0.5009  0.1526  0.6242
 7835TIP3    H123446   6.023   4.794   4.547 -2.1690  0.5822 -0.8743
 7835TIP3    H223447   6.096   4.666   4.512 -0.6056  1.8410 -2.3173
 7836TIP3   OH223448   5.347   4.802   4.692  0.0158  0.4177 -0.2705
 7836TIP3    H123449   5.411   4.794   4.762  0.7031 -3.4235 -1.2367
 7836TIP3    H223450   5.391   4.768   4.614 -2.2598  0.3344 -1.5702
 7837TIP3   OH223451   6.435   5.337   6.328  0.5746 -0.3030  0.6093
 7837TIP3    H123452   6.428   5.266   6.264 -0.6066  1.3621 -1.1682
 7837TIP3    H223453   6.363   5.322   6.388 -0.0736 -0.2483 -0.1468
 7838TIP3   OH223454   5.495   4.480   4.749 -0.4352  0.2448 -0.0153
 7838TIP3    H123455   5.421   4.482   4.808 -1.9726 -0.4389 -1.8718
 7838TIP3    H223456   5.569   4.511   4.802 -1.7638 -0.2744  2.1977
 7839TIP3   OH223457   5.921   2.438   2.765 -0.6025  0.1010  0.3449
 7839TIP3    H123458   5.933   2.423   2.859 -0.0912 -2.7077 -0.1361
 7839TIP3    H223459   5.884   2.356   2.732 -1.0117  1.1439 -1.8699
 7840TIP3   OH223460   5.794   4.793   1.971 -0.4755 -0.5724  0.2739
 7840TIP3    H123461   5.824   4.832   2.053 -0.1520  1.0471 -0.6073
 7840TIP3    H223462   5.821   4.854   1.903  0.0726 -2.3427 -1.1509
 7841TIP3   OH223463   6.943   2.681   3.086  0.0950  0.3381 -0.0135
 7841TIP3    H123464   6.885   2.757   3.090 -1.0508 -0.5862  1.6560
 7841TIP3    H223465   6.901   2.621   3.025 -1.4150 -0.8715  2.1651
 7842TIP3   OH223466   7.045   2.636   5.524 -0.2031 -0.4170 -0.5653
 7842TIP3    H123467   6.966   2.650   5.576  0.0812  0.9706 -0.4796
 7842TIP3    H223468   7.094   2.718   5.533  1.1613 -1.1873 -0.7589
 7843TIP3   OH223469   5.129   4.476   4.748  0.0116 -0.4683 -0.3478
 7843TIP3    H123470   5.150   4.480   4.655  0.3909  1.7239 -0.1960
 7843TIP3    H223471   5.048   4.526   4.756 -0.1711 -0.8893  0.4682
 7844TIP3   OH223472   5.138   4.099   2.212 -0.1869 -0.2284  0.0348
 7844TIP3    H123473   5.070   4.045   2.253 -1.5288  0.2105 -1.5242
 7844TIP3    H223474   5.148   4.061   2.124  0.1275  0.9528 -0.4495
 7845TIP3   OH223475   7.135   3.709   5.125  0.4416 -0.3505 -0.1979
 7845TIP3    H123476   7.121   3.641   5.191 -0.7045 -0.5690 -0.6536
 7845TIP3    H223477   7.075   3.779   5.150 -1.2996 -1.1632 -2.0040
 7846TIP3   OH223478   7.512   2.657   1.628 -0.3588  0.0680 -0.4637
 7846TIP3    H123479   7.550   2.706   1.555  0.8124  0.1138  0.1628
 7846TIP3    H223480   7.425   2.696   1.640 -0.9309 -0.5799 -2.4259
 7847TIP3   OH223481   5.457   7.391   3.075 -0.0470  0.3517  0.2951
 7847TIP3    H123482   5.451   7.326   3.145  0.6110  0.1173  0.1348
 7847TIP3    H223483   5.529   7.361   3.020 -0.1301  0.8945 -0.1152
 7848TIP3   OH223484   6.807   5.043   4.405 -0.0146 -0.0853 -0.1085
 7848TIP3    H123485   6.837   4.972   4.348 -0.3395 -0.0235 -0.3560
 7848TIP3    H223486   6.872   5.046   4.475  0.4492 -0.0876 -0.5319
 7849TIP3   OH223487   5.416   3.383   3.003 -0.0324  0.0543  0.1498
 7849TIP3    H123488   5.483   3.438   2.963 -0.5778 -0.1929 -1.1260
 7849TIP3    H223489   5.464   3.308   3.038  0.2449 -0.6606 -1.7261
 7850TIP3   OH223490   5.561   4.582   3.519 -0.0470 -0.5136 -0.1225
 7850TIP3    H123491   5.649   4.567   3.483 -0.3773 -0.2791 -1.0443
 7850TIP3    H223492   5.523   4.649   3.462 -1.1939 -1.3478 -0.3557
 7851TIP3   OH223493   5.437   4.239   2.795 -0.1884 -0.0038  0.6122
 7851TIP3    H123494   5.427   4.315   2.738  1.4261 -0.6362 -0.5551
 7851TIP3    H223495   5.354   4.233   2.843 -0.9254  1.5207 -0.4529
 7852TIP3   OH223496   8.140   5.403   4.839 -0.2244 -0.1457  0.3446
 7852TIP3    H123497   8.136   5.311   4.865 -0.0649 -0.4771 -0.7759
 7852TIP3    H223498   8.182   5.402   4.754 -0.6808  0.9246  0.0971
 7853TIP3   OH223499   5.055   1.891   5.100 -0.3359 -0.2479 -0.5782
 7853TIP3    H123500   5.018   1.976   5.125 -1.0584 -0.6412 -0.2895
 7853TIP3    H223501   4.979   1.840   5.073 -0.0592 -1.2090  0.4270
 7854TIP3   OH223502   6.553   5.224   2.611  0.1603 -0.0886  0.1455
 7854TIP3    H123503   6.523   5.312   2.588  0.2972  0.4827  2.0190
 7854TIP3    H223504   6.474   5.179   2.641  0.3376 -0.1165  0.5793
 7855TIP3   OH223505   6.459   3.731   3.485  0.0584 -0.2359  0.6421
 7855TIP3    H123506   6.540   3.692   3.517 -1.1240 -2.1145  1.4829
 7855TIP3    H223507   6.470   3.734   3.390  0.5872 -1.7417  0.6445
 7856TIP3   OH223508   5.172   4.349   3.454  0.0567  0.2322  0.4602
 7856TIP3    H123509   5.205   4.354   3.365  2.2478 -0.4731  1.2039
 7856TIP3    H223510   5.086   4.307   3.445  0.3930 -0.1295 -1.2801
 7857TIP3   OH223511   6.819   4.126   2.422 -0.1367  0.0753  0.1842
 7857TIP3    H123512   6.879   4.145   2.350 -0.7185 -0.3213 -0.4179
 7857TIP3    H223513   6.734   4.160   2.392 -0.5667 -0.8752  0.3049
 7858TIP3   OH223514   5.420   4.099   4.803 -0.3615 -0.7453 -0.2492
 7858TIP3    H123515   5.326   4.107   4.787  0.2049  0.7326 -3.2642
 7858TIP3    H223516   5.450   4.189   4.813  0.7266 -1.2194  0.8156
 7859TIP3   OH223517   6.112   2.206   4.793  0.5217  0.1947 -0.4348
 7859TIP3    H123518   6.163   2.284   4.816 -0.2120  0.9117 -1.1750
 7859TIP3    H223519   6.177   2.138   4.778  1.1988  0.7721 -0.1603
 7860TIP3   OH223520   6.273   4.413   5.270 -0.1494 -0.3866  0.8210
 7860TIP3    H123521   6.262   4.494   5.319  0.4885  1.1505 -1.4873
 7860TIP3    H223522   6.366   4.393   5.276  0.2761  0.8266 -1.2407
 7861TIP3   OH223523   7.790   5.999   2.728  0.6622  0.7801 -0.0493
 7861TIP3    H123524   7.882   6.003   2.703  1.0957 -0.3886  1.2343
 7861TIP3    H223525   7.781   5.914   2.771 -1.2961  0.3726 -1.1925
 7862TIP3   OH223526   4.476   5.411   2.489 -0.7579 -0.0504 -0.3603
 7862TIP3    H123527   4.544   5.449   2.433 -1.2310 -1.6298 -2.0578
 7862TIP3    H223528   4.520   5.396   2.573  0.6439  0.1167 -1.0492
 7863TIP3   OH223529   4.756   7.277   3.379 -0.3452 -0.2218  0.3837
 7863TIP3    H123530   4.771   7.355   3.326  1.1201  0.4269  1.7049
 7863TIP3    H223531   4.831   7.220   3.360 -0.7711 -0.7847  0.3590
 7864TIP3   OH223532   6.712   5.451   1.423  0.7916  0.3200 -0.5407
 7864TIP3    H123533   6.789   5.469   1.477 -0.4789  2.3434  0.6737
 7864TIP3    H223534   6.669   5.536   1.414 -1.3973 -0.8112 -1.0758
 7865TIP3   OH223535   6.671   6.142   4.508  0.1175  0.2581  0.3208
 7865TIP3    H123536   6.685   6.101   4.593 -1.6156  0.3019  0.6466
 7865TIP3    H223537   6.632   6.073   4.454  0.4087  0.4808 -0.1782
 7866TIP3   OH223538   5.000   3.942   1.979 -0.7450 -0.0643  0.2880
 7866TIP3    H123539   4.948   3.865   1.954 -1.1748  0.4781 -0.5421
 7866TIP3    H223540   4.939   3.997   2.029 -0.6337  0.0355  0.3143
 7867TIP3   OH223541   7.463   4.535   4.040  0.3684 -0.4208 -0.1298
 7867TIP3    H123542   7.419   4.462   4.084  3.4041 -2.9019 -1.0718
 7867TIP3    H223543   7.450   4.609   4.099  0.8374 -2.7103  2.9617
 7868TIP3   OH223544   7.388   7.569   1.222  0.1058  0.1005  0.1448
 7868TIP3    H123545   7.341   7.640   1.266  0.0208 -0.0615  0.3151
 7868TIP3    H223546   7.480   7.589   1.235  0.0819  0.2321  0.1103
 7869TIP3   OH223547   6.124   2.809   2.282 -0.2356 -0.2645  0.1989
 7869TIP3    H123548   6.033   2.838   2.276 -0.0343  0.5675  0.9687
 7869TIP3    H223549   6.172   2.887   2.312  0.4337 -1.2085  1.6316
 7870TIP3   OH223550   7.632   4.431   3.666 -0.1915 -0.2866 -0.3098
 7870TIP3    H123551   7.651   4.367   3.598  1.5461  0.3513 -0.4637
 7870TIP3    H223552   7.670   4.513   3.634 -2.3206  0.8335 -0.0906
 7871TIP3   OH223553   5.554   4.288   6.614 -0.2363 -0.2324 -0.4466
 7871TIP3    H123554   5.537   4.382   6.606  0.8928  0.1232  1.0020
 7871TIP3    H223555   5.498   4.259   6.686  0.5996 -0.3293  0.1735
 7872TIP3   OH223556   5.850   5.416   2.277 -0.0868  0.3141 -0.2042
 7872TIP3    H123557   5.767   5.461   2.293 -0.0808  0.4062 -0.4208
 7872TIP3    H223558   5.833   5.325   2.300 -0.3141  0.2897 -0.4613
 7873TIP3   OH223559   5.398   6.940   4.185  0.0388  0.5061  0.5545
 7873TIP3    H123560   5.333   6.938   4.115  0.3671  0.2676  0.2520
 7873TIP3    H223561   5.472   6.890   4.150  0.1627  0.3000  1.1140
 7874TIP3   OH223562   5.945   3.441   2.098  0.4034  0.4529 -0.0804
 7874TIP3    H123563   5.880   3.436   2.168  0.8747  0.3382  0.3510
 7874TIP3    H223564   5.962   3.535   2.088 -0.9730  0.5946 -1.2637
 7875TIP3   OH223565   5.182   2.966   4.830 -0.3699  0.1277  0.3378
 7875TIP3    H123566   5.125   2.971   4.907 -1.4735 -1.1120 -0.3615
 7875TIP3    H223567   5.270   2.957   4.865 -0.7557  0.5543  1.4483
 7876TIP3   OH223568   6.191   4.681   4.075 -0.6617  0.1056 -0.3277
 7876TIP3    H123569   6.101   4.656   4.055 -1.2736 -0.0268  2.3483
 7876TIP3    H223570   6.182   4.755   4.135  1.0419  0.7739 -0.8711
 7877TIP3   OH223571   6.445   4.590   3.009 -0.4226  0.7152 -0.4154
 7877TIP3    H123572   6.435   4.680   3.040  0.9060  0.3435  1.1847
 7877TIP3    H223573   6.516   4.554   3.062  0.2203 -0.7616 -2.2008
 7878TIP3   OH223574   6.316   1.948   4.107  1.0609 -0.3029  0.4112
 7878TIP3    H123575   6.235   1.899   4.091 -0.4307  1.6919  1.6457
 7878TIP3    H223576   6.375   1.920   4.037 -1.3964 -0.3271 -1.7188
 7879TIP3   OH223577   5.675   3.171   4.546  0.1428  0.4173  0.0901
 7879TIP3    H123578   5.736   3.143   4.614  0.8489  1.5434 -0.0684
 7879TIP3    H223579   5.655   3.262   4.567  0.3545  0.7707 -1.2010
 7880TIP3   OH223580   5.301   3.634   3.422 -0.3942  0.1113  0.4824
 7880TIP3    H123581   5.230   3.575   3.447  0.0219 -0.2067  0.9019
 7880TIP3    H223582   5.292   3.643   3.327 -0.5201 -0.5429  0.4326
 7881TIP3   OH223583   6.652   5.674   5.066 -0.5533 -0.9254  0.0128
 7881TIP3    H123584   6.628   5.631   5.148 -0.0503  0.1125  0.7170
 7881TIP3    H223585   6.573   5.720   5.039 -0.1192  0.5203  1.0804
 7882TIP3   OH223586   7.683   4.846   4.682  0.3044 -0.0458  0.1090
 7882TIP3    H123587   7.667   4.938   4.702  0.0379 -0.0354 -0.1495
 7882TIP3    H223588   7.706   4.845   4.590  0.2759 -0.2439  0.1029
 7883TIP3   OH223589   2.865   6.502   3.875 -0.4092  0.4571  0.6198
 7883TIP3    H123590   2.851   6.595   3.889 -0.4500  0.4179  0.8499
 7883TIP3    H223591   2.915   6.473   3.951 -1.1012  0.1338  0.9572
 7884TIP3   OH223592   6.439   1.926   1.171 -0.8826 -0.0819 -0.6095
 7884TIP3    H123593   6.477   1.981   1.239  0.7719 -1.4491 -0.3829
 7884TIP3    H223594   6.356   1.968   1.149  0.3988  2.5663 -0.5666
 7885TIP3   OH223595   6.798   3.591   3.252  0.2130 -0.4068  0.1318
 7885TIP3    H123596   6.800   3.527   3.323  1.3274 -1.0686 -0.4722
 7885TIP3    H223597   6.834   3.671   3.289 -1.1205 -0.1302  0.8711
 7886TIP3   OH223598   6.524   3.749   3.216 -0.3653  0.0171 -0.4097
 7886TIP3    H123599   6.609   3.706   3.204  0.1946  0.3415  2.2576
 7886TIP3    H223600   6.479   3.736   3.132  1.6649 -1.5656 -1.2908
 7887TIP3   OH223601   5.315   2.643   2.699 -0.5021  0.7245 -0.4572
 7887TIP3    H123602   5.324   2.712   2.633  0.5381  1.3263  0.2858
 7887TIP3    H223603   5.371   2.572   2.667 -1.0820  0.4680 -0.9091
 7888TIP3   OH223604   3.737   4.672   1.994  0.4658  0.5433 -0.1335
 7888TIP3    H123605   3.736   4.757   2.039 -0.6415  0.2689  0.3750
 7888TIP3    H223606   3.773   4.691   1.908  1.6348  1.2648  0.4926
 7889TIP3   OH223607   7.064   4.599   4.509 -0.5719  0.4738  0.7386
 7889TIP3    H123608   6.985   4.650   4.528 -0.8861  0.7506 -1.1556
 7889TIP3    H223609   7.105   4.586   4.594 -2.5217  0.5586  1.7387
 7890TIP3   OH223610   6.072   4.434   5.009 -0.0922  0.4461  0.1454
 7890TIP3    H123611   6.120   4.480   5.079 -0.9541  0.7356  0.5519
 7890TIP3    H223612   6.123   4.451   4.930 -0.4103  2.1475  0.2873
 7891TIP3   OH223613   4.430   5.235   3.214 -0.4463  0.2976 -0.9095
 7891TIP3    H123614   4.482   5.161   3.244  0.4484  0.6312 -1.6119
 7891TIP3    H223615   4.340   5.213   3.239 -0.0835 -0.6648 -0.4278
 7892TIP3   OH223616   6.340   4.715   4.681  0.2226  0.1998  0.5817
 7892TIP3    H123617   6.424   4.759   4.681 -0.4371  1.4976  1.1564
 7892TIP3    H223618   6.319   4.703   4.588  0.9868 -0.0467  0.4378
 7893TIP3   OH223619   5.614   4.241   5.961  0.0481 -0.3649  0.1181
 7893TIP3    H123620   5.538   4.281   6.001 -0.1072 -1.0961  0.5671
 7893TIP3    H223621   5.585   4.153   5.937  0.4279 -0.2707 -0.7041
 7894TIP3   OH223622   5.241   4.125   3.740  0.0532  0.1733  0.1875
 7894TIP3    H123623   5.157   4.129   3.786 -0.3966 -0.3102 -0.5781
 7894TIP3    H223624   5.254   4.214   3.707 -0.3783  0.1546 -0.0512
 7895TIP3   OH223625   5.450   5.118   3.697 -0.4759 -0.2534 -0.2628
 7895TIP3    H123626   5.506   5.055   3.743  0.1442  0.3309 -0.2041
 7895TIP3    H223627   5.363   5.078   3.698 -0.1434 -0.9863  0.0041
 7896TIP3   OH223628   7.744   2.573   3.241 -0.0442 -0.7318  0.1126
 7896TIP3    H123629   7.715   2.656   3.202  0.4673 -0.5961  0.0268
 7896TIP3    H223630   7.822   2.596   3.291  0.0080 -1.1360  0.2203
 7897TIP3   OH223631   4.241   3.415   4.820  0.5707  0.3048 -0.3758
 7897TIP3    H123632   4.256   3.451   4.732  2.1397  0.6977  0.0293
 7897TIP3    H223633   4.195   3.485   4.866  0.6271  0.4811 -0.5835
 7898TIP3   OH223634   5.360   3.113   4.079 -0.0696  0.7254  0.3135
 7898TIP3    H123635   5.375   3.162   3.999 -0.4907  1.0506  0.4304
 7898TIP3    H223636   5.314   3.034   4.051 -0.4998  0.9897  0.2706
 7899TIP3   OH223637   5.778   5.440   4.579 -0.1974  0.1289  0.3873
 7899TIP3    H123638   5.768   5.408   4.489 -0.7779 -0.7566  0.7562
 7899TIP3    H223639   5.848   5.504   4.574  0.4229 -0.6003 -0.5305
 7900TIP3   OH223640   6.179   5.155   4.335  0.5164  0.4064 -0.0100
 7900TIP3    H123641   6.152   5.197   4.253 -1.5711  0.1124  0.5051
 7900TIP3    H223642   6.131   5.202   4.403  0.0909 -1.1484  0.7825
 7901TIP3   OH223643   5.606   6.153   6.088  0.1455  0.6065 -0.0489
 7901TIP3    H123644   5.569   6.233   6.050 -0.3268 -0.1335 -1.1811
 7901TIP3    H223645   5.628   6.099   6.012 -1.4804 -1.2027  0.7236
 7902TIP3   OH223646   5.576   4.405   5.340 -0.1379  0.6110  0.1842
 7902TIP3    H123647   5.564   4.442   5.428  0.9129  1.2194  0.0878
 7902TIP3    H223648   5.542   4.316   5.347  0.4458  0.4570  1.3736
 7903TIP3   OH223649   4.751   1.772   3.341 -0.0564 -0.4326  0.2231
 7903TIP3    H123650   4.790   1.720   3.412 -1.5289 -0.1687  1.2561
 7903TIP3    H223651   4.715   1.706   3.281 -0.9911 -0.6299  0.9918
 7904TIP3   OH223652   6.201   6.447   3.664  0.0545 -0.1469  0.0072
 7904TIP3    H123653   6.287   6.476   3.634  1.3812 -2.1074  1.7716
 7904TIP3    H223654   6.198   6.475   3.756 -0.4374 -1.7087  0.4715
 7905TIP3   OH223655   4.411   3.471   1.567  0.2456 -0.1464 -0.0696
 7905TIP3    H123656   4.475   3.433   1.627  0.8202  0.2507 -0.4283
 7905TIP3    H223657   4.463   3.504   1.494 -0.2035  1.7161  0.4309
 7906TIP3   OH223658   5.842   2.492   5.946 -0.1778 -0.0856  0.3859
 7906TIP3    H123659   5.840   2.397   5.939 -1.1100  0.0863 -2.3724
 7906TIP3    H223660   5.750   2.518   5.952  0.0794  0.6447  1.3346
 7907TIP3   OH223661   7.125   4.420   2.113 -0.0760 -0.1253 -0.5824
 7907TIP3    H123662   7.030   4.410   2.111 -0.1056 -0.0190  0.1188
 7907TIP3    H223663   7.143   4.459   2.199  0.8825 -3.0717  0.6119
 7908TIP3   OH223664   6.506   4.990   5.462  0.0764  0.0705 -0.0514
 7908TIP3    H123665   6.502   4.904   5.503  1.2618 -0.0856 -0.2355
 7908TIP3    H223666   6.555   4.975   5.380 -1.3326  0.5678 -1.0042
 7909TIP3   OH223667   6.913   3.735   3.900 -0.0445 -0.1141  0.0577
 7909TIP3    H123668   6.876   3.704   3.983  0.2552 -0.3935  0.0916
 7909TIP3    H223669   6.997   3.690   3.894  0.1283  0.2409 -0.1883
 7910TIP3   OH223670   6.679   4.484   5.804 -0.4804  0.3909  0.2848
 7910TIP3    H123671   6.741   4.451   5.739 -0.4690  0.9597 -0.0056
 7910TIP3    H223672   6.718   4.462   5.888  0.4816  1.3743  0.1135
 7911TIP3   OH223673   6.391   5.592   1.810 -0.0045 -0.7922 -0.0755
 7911TIP3    H123674   6.328   5.654   1.773 -1.8101 -3.2159 -1.2349
 7911TIP3    H223675   6.475   5.638   1.806 -1.3298  1.6991 -0.5497
 7912TIP3   OH223676   6.073   5.568   3.874  0.5220 -0.0663  0.5295
 7912TIP3    H123677   6.034   5.504   3.933  0.4451  1.2136  1.8854
 7912TIP3    H223678   6.017   5.567   3.797 -1.2952  0.6200  1.8222
 7913TIP3   OH223679   6.171   3.413   3.477  0.1532 -0.1796  0.0772
 7913TIP3    H123680   6.203   3.424   3.566 -2.1467 -0.3872  0.9599
 7913TIP3    H223681   6.154   3.502   3.446 -0.4379 -0.1780  0.3919
 7914TIP3   OH223682   5.412   5.879   4.698  0.3924  0.0625  0.4189
 7914TIP3    H123683   5.462   5.851   4.774 -2.2629 -1.7288  1.5623
 7914TIP3    H223684   5.320   5.864   4.722 -0.6364  1.7910 -2.1943
 7915TIP3   OH223685   6.735   3.616   2.935 -0.0125 -1.2903  0.3113
 7915TIP3    H123686   6.802   3.594   3.000 -0.9785 -1.2472  1.3297
 7915TIP3    H223687   6.682   3.537   2.928 -0.2699 -1.0897  0.0111
 7916TIP3   OH223688   7.779   4.907   5.377  0.4137  0.1511 -0.2854
 7916TIP3    H123689   7.844   4.950   5.433  0.0125 -0.5046  0.7062
 7916TIP3    H223690   7.823   4.829   5.344 -0.3712 -1.1780  1.7071
 7917TIP3   OH223691   6.052   5.294   2.944 -0.3188  0.0274 -0.3665
 7917TIP3    H123692   6.064   5.279   3.038  0.3291 -0.3871 -0.5162
 7917TIP3    H223693   5.983   5.233   2.919  0.7239 -1.0973 -0.5103
 7918TIP3   OH223694   6.474   5.026   3.360  0.2466 -0.2966  0.3024
 7918TIP3    H123695   6.446   5.112   3.331 -0.6995 -0.6318  0.1978
 7918TIP3    H223696   6.550   5.043   3.416  0.5438  0.5339 -0.3432
 7919TIP3   OH223697   6.191   4.603   3.201 -0.3306 -0.5549  0.1288
 7919TIP3    H123698   6.164   4.636   3.286 -1.0240  0.2431 -0.3873
 7919TIP3    H223699   6.241   4.523   3.220 -0.9442 -0.6787  1.2354
 7920TIP3   OH223700   7.091   3.185   4.659  0.3119 -0.0407 -0.2360
 7920TIP3    H123701   7.002   3.188   4.623  0.7302 -0.1265 -1.3191
 7920TIP3    H223702   7.088   3.240   4.737 -0.9152 -0.7696  0.2501
 7921TIP3   OH223703   5.400   4.204   1.721 -0.4074  0.8721 -0.5982
 7921TIP3    H123704   5.313   4.233   1.747 -1.0099 -2.4583  1.3779
 7921TIP3    H223705   5.457   4.232   1.792 -0.1540  1.4630 -1.0286
 7922TIP3   OH223706   4.965   2.958   1.122 -0.5208  0.4878  0.3564
 7922TIP3    H123707   4.885   3.009   1.138 -0.8588  0.4524 -1.2231
 7922TIP3    H223708   5.028   2.993   1.185 -1.6256  0.8554  1.2812
 7923TIP3   OH223709   3.997   5.549   3.520 -0.0270  0.1244  0.4927
 7923TIP3    H123710   3.949   5.469   3.543 -1.7720  0.9971 -0.0391
 7923TIP3    H223711   3.934   5.619   3.534  2.1154  1.6724  3.0705
 7924TIP3   OH223712   5.560   5.577   4.240 -0.5972 -0.5307  0.3913
 7924TIP3    H123713   5.516   5.607   4.320  0.9337 -0.0670  1.0903
 7924TIP3    H223714   5.505   5.506   4.208 -1.4022 -0.5318  1.6999
 7925TIP3   OH223715   6.566   4.042   6.096 -0.2252  0.2449 -0.0614
 7925TIP3    H123716   6.657   4.031   6.124 -0.4295  1.2608  1.0200
 7925TIP3    H223717   6.520   3.969   6.138 -0.1483  0.5182  0.5048
 7926TIP3   OH223718   6.330   5.472   3.793 -0.0583  0.2743  0.2162
 7926TIP3    H123719   6.246   5.514   3.811 -0.6097 -0.0279 -1.5711
 7926TIP3    H223720   6.321   5.383   3.828 -0.9089 -0.1335 -1.0248
 7927TIP3   OH223721   6.658   5.348   3.663  0.2682  0.2706  0.0190
 7927TIP3    H123722   6.667   5.366   3.757 -0.3229  0.8861 -0.0388
 7927TIP3    H223723   6.564   5.354   3.646  0.6215  3.2909 -1.2011
 7928TIP3   OH223724   0.100   5.409   3.085  0.1756 -0.4724  0.0075
 7928TIP3    H123725   0.187   5.446   3.070 -0.0757  0.4590  0.8142
 7928TIP3    H223726   0.065   5.459   3.158 -1.2921 -0.4027 -0.7172
 7929TIP3   OH223727   7.035   6.027   4.015  0.8974 -0.4161  0.0193
 7929TIP3    H123728   6.969   5.969   4.053  1.9660  0.6920  3.7686
 7929TIP3    H223729   7.117   5.979   4.023  1.5985  1.0446  2.0083
 7930TIP3   OH223730   5.539   5.391   3.697 -0.0381 -0.0367 -0.8071
 7930TIP3    H123731   5.481   5.428   3.764 -0.0861 -0.8439 -0.4001
 7930TIP3    H223732   5.514   5.299   3.691  0.0310  0.0037 -1.8757
 7931TIP3   OH223733   5.893   5.513   3.035 -0.1888 -0.8405  0.0892
 7931TIP3    H123734   5.856   5.483   2.951  1.5362 -0.5725 -0.7902
 7931TIP3    H223735   5.876   5.607   3.035  1.6312 -0.4927 -0.9311
 7932TIP3   OH223736   6.044   4.654   1.593 -0.2787  0.3994  0.4200
 7932TIP3    H123737   6.083   4.738   1.569  0.6275 -0.5697 -1.5648
 7932TIP3    H223738   6.057   4.648   1.688  0.2950  2.1516  0.4709
 7933TIP3   OH223739   8.235   5.522   1.891 -0.0754  0.0307  0.4083
 7933TIP3    H123740   8.325   5.490   1.898 -0.4876 -1.2154  0.0509
 7933TIP3    H223741   8.186   5.450   1.853 -1.3438  0.4981  1.1172
 7934TIP3   OH223742   1.662   5.158   3.296  0.0354 -0.4292  0.9013
 7934TIP3    H123743   1.716   5.109   3.359  1.1051  0.5312  0.7444
 7934TIP3    H223744   1.671   5.249   3.323 -0.9468 -0.1913  0.4327
 7935TIP3   OH223745   7.276   4.724   2.835  0.1900 -0.1468 -0.1755
 7935TIP3    H123746   7.210   4.676   2.885 -0.2385  1.4933  0.8812
 7935TIP3    H223747   7.357   4.714   2.885  0.8615 -2.4226 -1.6351
 7936TIP3   OH223748   6.448   5.054   5.151 -0.0815  0.0301  0.3764
 7936TIP3    H123749   6.540   5.037   5.132 -0.0609  0.3408  0.1933
 7936TIP3    H223750   6.450   5.134   5.204 -0.2295 -0.1118  0.5965
 7937TIP3   OH223751   6.402   5.083   2.942  0.2068 -0.2061  0.2284
 7937TIP3    H123752   6.475   5.139   2.969 -0.8507  1.1903  0.2307
 7937TIP3    H223753   6.368   5.124   2.863 -1.2155 -0.3030  0.7891
 7938TIP3   OH223754   7.702   6.076   5.205 -0.0007 -0.1112  0.2723
 7938TIP3    H123755   7.608   6.081   5.218  0.2107  0.0639  1.8961
 7938TIP3    H223756   7.713   6.049   5.114 -1.5705  1.8938 -0.5341
 7939TIP3   OH223757   7.120   5.362   3.210  0.6640 -0.3825  0.2737
 7939TIP3    H123758   7.088   5.440   3.254 -0.3195  0.6189 -2.1340
 7939TIP3    H223759   7.207   5.385   3.178  0.7819 -0.5949  0.4456
 7940TIP3   OH223760   4.716   5.214   5.412  0.1040  0.6330  0.3083
 7940TIP3    H123761   4.808   5.199   5.389 -0.0306  1.8928 -1.1187
 7940TIP3    H223762   4.676   5.127   5.409  1.2280  0.0775  0.8968
 7941TIP3   OH223763   5.990   5.233   4.904  0.4210  0.2955 -0.3311
 7941TIP3    H123764   5.969   5.292   4.977 -1.4987  1.4967 -1.7770
 7941TIP3    H223765   6.024   5.291   4.836  0.9810 -0.6384 -0.8481
 7942TIP3   OH223766   6.192   2.211   4.347 -0.0647 -0.6041  0.5047
 7942TIP3    H123767   6.141   2.177   4.274 -3.0919 -1.3807  2.8465
 7942TIP3    H223768   6.251   2.140   4.372 -1.2834 -1.5268  0.8036
 7943TIP3   OH223769   5.417   4.018   5.206 -0.1449  0.1337 -0.1274
 7943TIP3    H123770   5.478   3.966   5.154 -0.7330  0.0930 -0.7992
 7943TIP3    H223771   5.370   4.070   5.141 -0.6901  0.2983  0.3968
 7944TIP3   OH223772   7.273   4.143   2.637 -0.0946  0.4805  0.6704
 7944TIP3    H123773   7.234   4.099   2.561  0.2304  0.7059  0.3707
 7944TIP3    H223774   7.258   4.083   2.710  0.1795 -0.0478  0.3013
 7945TIP3   OH223775   6.581   4.526   2.510  0.8496  0.2328  0.4712
 7945TIP3    H123776   6.629   4.460   2.560  1.3023  1.2667  1.4328
 7945TIP3    H223777   6.618   4.609   2.539  1.5126  0.8516 -1.9872
 7946TIP3   OH223778   7.071   3.668   6.263  0.5661  0.1777  0.1924
 7946TIP3    H123779   7.071   3.598   6.329  0.0314 -0.7537 -0.7699
 7946TIP3    H223780   7.159   3.705   6.266  0.6576 -0.1178  1.1612
 7947TIP3   OH223781   6.820   5.848   4.419 -0.1801 -0.2616  0.8177
 7947TIP3    H123782   6.871   5.807   4.489 -0.5392  0.8634  1.7386
 7947TIP3    H223783   6.731   5.815   4.431 -0.0033 -1.0015  0.1565
 7948TIP3   OH223784   6.310   4.680   5.433 -0.3514  0.4253  0.8281
 7948TIP3    H123785   6.366   4.722   5.498  1.9539 -0.2585 -0.6774
 7948TIP3    H223786   6.335   4.721   5.350 -3.0758  1.1020  0.2681
 7949TIP3   OH223787   4.362   5.683   3.910 -0.0864  0.3483  0.1195
 7949TIP3    H123788   4.449   5.685   3.950 -0.2889  0.6296  0.5459
 7949TIP3    H223789   4.378   5.702   3.818  0.3066  0.3664  0.1879
 7950TIP3   OH223790   5.361   5.158   4.840  0.3048  0.8349  0.2401
 7950TIP3    H123791   5.450   5.185   4.815  0.5748  0.7750  1.1464
 7950TIP3    H223792   5.374   5.093   4.908 -0.4156  0.0405 -0.3772
 7951TIP3   OH223793   3.407   4.740   3.300  0.1642  0.4494 -0.2279
 7951TIP3    H123794   3.354   4.720   3.223  0.2417  0.6252 -0.3269
 7951TIP3    H223795   3.352   4.798   3.352  0.4686  1.0572 -0.5841
 7952TIP3   OH223796   5.292   4.984   5.561 -0.2888 -0.1448  0.7603
 7952TIP3    H123797   5.333   4.985   5.648  0.0682  0.2050  0.5908
 7952TIP3    H223798   5.297   4.892   5.533  0.5275 -0.0833  0.6767
 7953TIP3   OH223799   7.818   3.751   4.252 -0.3585 -0.1797 -0.0135
 7953TIP3    H123800   7.754   3.680   4.243  0.6017 -1.0999  0.2116
 7953TIP3    H223801   7.823   3.767   4.347  0.8947 -1.2162  0.1134
 7954TIP3   OH223802   4.740   3.376   4.468  0.2736 -0.4553  0.3710
 7954TIP3    H123803   4.825   3.369   4.512  1.2827  1.0919 -1.2583
 7954TIP3    H223804   4.679   3.398   4.538  1.3884 -0.6355  1.4137
 7955TIP3   OH223805   4.721   6.537   5.030 -0.1917 -0.6096  0.1666
 7955TIP3    H123806   4.663   6.589   5.087  0.8445 -0.7973  1.4139
 7955TIP3    H223807   4.662   6.476   4.986 -1.0170 -0.5155  1.1144
 7956TIP3   OH223808   6.190   6.174   3.769  0.7329 -0.3074 -0.3165
 7956TIP3    H123809   6.101   6.186   3.802  0.6650  0.5688 -0.8022
 7956TIP3    H223810   6.218   6.262   3.743  1.4036 -0.7192 -1.0168
 7957TIP3   OH223811   4.396   6.681   4.657 -0.1971  0.4373 -0.0954
 7957TIP3    H123812   4.341   6.700   4.580 -0.4297  0.3905  0.0594
 7957TIP3    H223813   4.344   6.621   4.710  0.3802 -0.3410 -0.3926
 7958TIP3   OH223814   5.096   5.130   3.740 -0.3638 -0.0960  0.1481
 7958TIP3    H123815   5.152   5.193   3.784 -1.8321  2.1459 -1.1457
 7958TIP3    H223816   5.157   5.072   3.693  0.9288  1.2641  0.1199
 7959TIP3   OH223817   3.415   5.607   3.696 -0.5352 -0.3643 -0.2858
 7959TIP3    H123818   3.489   5.589   3.638  1.0312  0.2410  1.4867
 7959TIP3    H223819   3.393   5.522   3.734  0.8358 -0.1514  1.0194
 7960TIP3   OH223820   4.859   4.997   3.634  0.0471 -0.0877 -0.2532
 7960TIP3    H123821   4.941   5.044   3.645 -0.1603  0.1833  0.1357
 7960TIP3    H223822   4.883   4.905   3.640  0.5220 -0.0518 -1.4760
 7961TIP3   OH223823   6.838   6.408   2.547 -0.1054 -0.5126  0.2898
 7961TIP3    H123824   6.913   6.466   2.563 -0.2250 -0.0986 -0.5925
 7961TIP3    H223825   6.790   6.407   2.630 -0.1514  0.7278  0.2834
 7962TIP3   OH223826   5.863   2.201   6.734 -0.0299  0.4547  0.0697
 7962TIP3    H123827   5.843   2.217   6.826  3.0443  0.2198  0.8255
 7962TIP3    H223828   5.870   2.288   6.695 -1.4452  0.5518 -0.0097
 7963TIP3   OH223829   6.994   4.045   4.518 -0.4553  0.1014 -0.3830
 7963TIP3    H123830   7.074   4.078   4.559 -0.7411 -0.5543  0.7107
 7963TIP3    H223831   6.925   4.062   4.582 -1.1431  0.3936 -1.2002
 7964TIP3   OH223832   5.400   3.409   5.563 -0.2587  0.0083  0.0761
 7964TIP3    H123833   5.425   3.422   5.654 -0.4300 -0.6412  0.2192
 7964TIP3    H223834   5.325   3.348   5.567 -0.6847  0.4932 -0.4515
 7965TIP3   OH223835   5.250   2.486   4.795  0.2339  0.3422 -0.0465
 7965TIP3    H123836   5.281   2.572   4.823 -0.7481  1.0871 -1.1839
 7965TIP3    H223837   5.326   2.445   4.754  0.5238  0.9617 -0.1350
 7966TIP3   OH223838   6.625   2.890   4.564 -0.1554 -0.5910 -0.7845
 7966TIP3    H123839   6.636   2.915   4.656  1.3901 -1.0023 -0.8335
 7966TIP3    H223840   6.652   2.968   4.516  0.3283 -0.8269 -0.8966
 7967TIP3   OH223841   6.427   3.936   4.487  0.1496 -0.2283  0.1520
 7967TIP3    H123842   6.493   3.949   4.555 -1.5555 -1.3606  2.0558
 7967TIP3    H223843   6.478   3.912   4.409  2.0613  0.3085  1.2065
 7968TIP3   OH223844   6.205   3.715   5.390 -0.3481 -0.2560 -0.4463
 7968TIP3    H123845   6.136   3.662   5.350  0.1770  0.2453 -2.0318
 7968TIP3    H223846   6.161   3.797   5.413 -1.2064 -1.3993  2.1797
 7969TIP3   OH223847   6.222   2.824   4.252 -0.3574  0.0591  0.5381
 7969TIP3    H123848   6.182   2.737   4.255 -0.2196 -0.0877 -1.2028
 7969TIP3    H223849   6.151   2.884   4.275 -0.6537 -0.4478  0.9689
 7970TIP3   OH223850   3.871   5.770   3.079  0.3728  0.1623 -0.0403
 7970TIP3    H123851   3.864   5.678   3.103 -1.9759  0.2700 -0.1798
 7970TIP3    H223852   3.801   5.784   3.015  1.0531  1.9065 -0.4375
 7971TIP3   OH223853   5.944   4.406   4.646 -0.0141 -0.6356  0.2839
 7971TIP3    H123854   5.875   4.386   4.582 -1.1426 -0.5091  1.4367
 7971TIP3    H223855   5.914   4.364   4.727  1.6449 -1.2322  0.6126
 7972TIP3   OH223856   5.106   4.928   4.687 -0.4040 -0.2267  0.0419
 7972TIP3    H123857   5.085   4.918   4.594 -1.9536 -0.4441  0.3877
 7972TIP3    H223858   5.192   4.888   4.697 -0.9205 -1.6397 -0.9980
 7973TIP3   OH223859   4.575   5.368   3.993 -0.1143 -0.2331 -0.2885
 7973TIP3    H123860   4.582   5.275   3.974  1.8266  0.1560 -1.5847
 7973TIP3    H223861   4.602   5.376   4.085  0.7778 -0.8133 -0.4975
 7974TIP3   OH223862   0.551   4.623   4.064 -0.2886 -0.0624 -0.0969
 7974TIP3    H123863   0.457   4.632   4.053 -0.3127  1.0720  0.9205
 7974TIP3    H223864   0.586   4.710   4.042  0.2065  0.4673  2.5896
 7975TIP3   OH223865   4.574   3.933   4.298  0.3926 -0.2648  0.2399
 7975TIP3    H123866   4.623   3.871   4.244 -0.1271 -0.8431  0.4278
 7975TIP3    H223867   4.635   4.005   4.312  1.6236 -1.4986  1.4663
 7976TIP3   OH223868   6.110   3.350   5.853 -0.1247  0.1780 -0.2888
 7976TIP3    H123869   6.135   3.415   5.919 -0.5635 -0.1267  0.1818
 7976TIP3    H223870   6.051   3.397   5.794 -1.6470 -0.1808  0.9121
 7977TIP3   OH223871   4.866   5.970   3.157  0.7859 -0.7956  0.1832
 7977TIP3    H123872   4.897   6.013   3.236  0.4901 -1.8969  0.9070
 7977TIP3    H223873   4.785   5.927   3.183  0.5040 -0.8874 -0.8091
 7978TIP3   OH223874   3.664   0.384   0.090  0.0128  0.3852  0.0040
 7978TIP3    H123875   3.607   0.414   0.160 -1.1069  1.6692 -1.4145
 7978TIP3    H223876   3.606   0.342   0.027  1.0255 -0.9310 -0.0688
 7979TIP3   OH223877   7.221   6.643   4.618 -0.3435  0.1189 -0.3597
 7979TIP3    H123878   7.254   6.584   4.686 -0.2628  0.8665  0.2653
 7979TIP3    H223879   7.235   6.596   4.536  1.9423  0.2539 -0.0872
 7980TIP3   OH223880   5.992   5.858   3.740 -0.4408  0.3470  0.2667
 7980TIP3    H123881   6.081   5.823   3.744 -0.4056  0.5090  0.8780
 7980TIP3    H223882   5.935   5.782   3.756 -0.3283  0.8163  3.0703
 7981TIP3   OH223883   0.348   4.541   5.839  0.1862  0.4600  0.5350
 7981TIP3    H123884   0.293   4.618   5.825  1.0630  0.8723 -0.7277
 7981TIP3    H223885   0.292   4.467   5.817 -0.3083  0.7956  0.6655
 7982TIP3   OH223886   7.591   4.017   4.079  0.2758  0.1393 -0.1980
 7982TIP3    H123887   7.539   3.951   4.125  0.0826  0.7691  0.4963
 7982TIP3    H223888   7.605   3.980   3.992 -0.7588 -0.3394 -0.1699
 7983TIP3   OH223889   6.399   4.798   5.188  0.8627 -0.1683 -0.1427
 7983TIP3    H123890   6.386   4.892   5.173  1.5115  0.0432  0.6189
 7983TIP3    H223891   6.369   4.757   5.107 -0.3983  0.6215 -0.0756
 7984TIP3   OH223892   0.037   4.012   5.515  0.4307  0.8017 -0.0983
 7984TIP3    H123893   0.108   4.046   5.570 -1.5970 -0.1096  3.1988
 7984TIP3    H223894  -0.019   4.088   5.498  1.4541  1.2423 -1.5962
 7985TIP3   OH223895   5.580   5.118   1.987  0.2446 -0.0304 -0.2014
 7985TIP3    H123896   5.508   5.172   1.955  0.2977  0.3265  0.2880
 7985TIP3    H223897   5.648   5.126   1.920  1.0454  2.1429  0.8370
 7986TIP3   OH223898   5.874   3.818   2.913 -0.2771 -0.0166 -0.4571
 7986TIP3    H123899   5.855   3.891   2.854  1.5827  0.9638  0.1007
 7986TIP3    H223900   5.809   3.826   2.982 -1.1721  0.0692 -1.2958
 7987TIP3   OH223901   0.425   5.957   3.525  0.2035 -0.1814 -0.1237
 7987TIP3    H123902   0.440   5.915   3.610 -0.0879  1.3824  0.7194
 7987TIP3    H223903   0.364   5.899   3.480  0.4844 -1.1122  0.6777
 7988TIP3   OH223904   8.401   4.545   3.521 -0.1121 -0.1778 -0.2887
 7988TIP3    H123905   8.416   4.548   3.426  1.3586 -1.6271 -0.1440
 7988TIP3    H223906   8.446   4.622   3.555 -3.1133  1.9682 -1.0180
 7989TIP3   OH223907   7.291   4.523   1.867 -0.2056  0.4954  0.6224
 7989TIP3    H123908   7.332   4.607   1.886 -1.2873  1.0407  0.5630
 7989TIP3    H223909   7.268   4.488   1.953  0.4699  0.1430  0.6615
 7990TIP3   OH223910   0.915   3.778   3.139  0.0214  0.2350 -0.5195
 7990TIP3    H123911   0.820   3.785   3.141  0.2111  4.2871  0.8191
 7990TIP3    H223912   0.942   3.838   3.069  1.6839  2.4893  1.9388
 7991TIP3   OH223913   7.499   4.084   2.912 -0.3849  0.2115  0.4368
 7991TIP3    H123914   7.533   4.056   2.827  0.1408  0.3742  0.5902
 7991TIP3    H223915   7.555   4.158   2.937 -1.6114  1.2580  0.1364
 7992TIP3   OH223916   0.242   6.020   4.826 -0.2966  0.0144  0.5622
 7992TIP3    H123917   0.311   6.081   4.851  1.5555 -2.6671  2.3097
 7992TIP3    H223918   0.197   6.062   4.753  1.8442  2.7649  0.7647
 7993TIP3   OH223919   6.875   5.430   4.929 -0.3026 -0.1206  0.1596
 7993TIP3    H123920   6.844   5.520   4.934 -0.1793 -0.0161 -0.8802
 7993TIP3    H223921   6.970   5.436   4.934 -0.3532 -0.3329  1.8079
 7994TIP3   OH223922   0.019   5.640   1.939  0.1944 -0.3507  0.3624
 7994TIP3    H123923   0.072   5.575   1.892  0.2637  0.0171 -0.0667
 7994TIP3    H223924  -0.044   5.671   1.874 -0.0448 -0.2237  0.6579
 7995TIP3   OH223925   6.661   4.207   3.420 -0.3477 -0.3136 -0.0103
 7995TIP3    H123926   6.622   4.184   3.336 -1.5151 -0.5261  0.5694
 7995TIP3    H223927   6.748   4.241   3.398 -0.9831  0.5009 -1.3727
 7996TIP3   OH223928   7.002   2.978   3.820  0.2651 -0.1330 -0.3525
 7996TIP3    H123929   7.061   2.906   3.796  0.1617 -0.6253  0.8278
 7996TIP3    H223930   6.915   2.948   3.792 -0.0374 -1.2359  1.7113
 7997TIP3   OH223931   8.466   2.176   5.041  0.3619 -0.7767  0.3876
 7997TIP3    H123932   8.510   2.106   4.993 -1.3503 -2.2143  0.8855
 7997TIP3    H223933   8.420   2.226   4.973 -0.1989 -1.4296  0.2937
 7998TIP3   OH223934   7.107   5.557   3.391  0.4792  0.1029  0.1857
 7998TIP3    H123935   7.183   5.613   3.409  0.4254  0.6782 -1.3747
 7998TIP3    H223936   7.089   5.516   3.476  2.0859  0.4992  0.7567
 7999TIP3   OH223937   6.132   4.260   2.855 -0.5740 -0.3507 -0.6213
 7999TIP3    H123938   6.150   4.337   2.909 -0.9073  0.1575 -1.2358
 7999TIP3    H223939   6.218   4.232   2.824 -0.1740 -1.7138  1.6145
 8000TIP3   OH223940   0.348   4.826   2.560 -0.0619  0.1745  0.1180
 8000TIP3    H123941   0.390   4.899   2.606 -1.1305  0.9956 -0.2032
 8000TIP3    H223942   0.375   4.836   2.469 -0.6347  0.4686 -0.0181
 8001TIP3   OH223943   8.408   3.720   3.588 -0.1742 -0.8321 -0.2237
 8001TIP3    H123944   8.345   3.779   3.628 -1.0008 -1.7689 -0.1331
 8001TIP3    H223945   8.493   3.753   3.617 -0.6378  0.1014  0.0970
 8002TIP3   OH223946   1.411   4.404   5.735 -0.6929 -0.3960  0.5381
 8002TIP3    H123947   1.405   4.413   5.830 -0.5197 -0.2697  0.5355
 8002TIP3    H223948   1.337   4.347   5.712 -1.1831  0.1949  0.6573
 8003TIP3   OH223949   0.784   6.370   2.930  0.0758 -0.2821  0.0326
 8003TIP3    H123950   0.689   6.366   2.915  0.1012  0.5286 -0.3522
 8003TIP3    H223951   0.819   6.297   2.879 -0.6249 -2.5486  2.6088
 8004TIP3   OH223952   0.819   6.705   1.757 -0.4141  0.5449  0.2949
 8004TIP3    H123953   0.734   6.713   1.799 -0.4768  0.9602  0.0914
 8004TIP3    H223954   0.819   6.771   1.688 -0.3954 -0.2875 -0.5141
 8005TIP3   OH223955   7.965   3.826   1.922 -0.6917  0.3468 -0.2839
 8005TIP3    H123956   8.038   3.796   1.976  0.5571  1.4254 -1.3533
 8005TIP3    H223957   7.914   3.883   1.979 -1.6509 -1.6797  0.9749
 8006TIP3   OH223958   7.518   6.402   4.498 -0.0952 -0.4736  0.0072
 8006TIP3    H123959   7.507   6.314   4.532  0.2331 -0.6489 -0.3403
 8006TIP3    H223960   7.584   6.442   4.554 -1.1138 -0.0448  0.9185
 8007TIP3   OH223961   0.193   4.861   3.635 -0.2890 -0.0030 -0.2312
 8007TIP3    H123962   0.218   4.873   3.543 -1.2851 -0.2004 -0.5375
 8007TIP3    H223963   0.237   4.932   3.681  2.3075 -1.4082 -0.4595
 8008TIP3   OH223964   0.815   5.514   4.002  0.3909  0.0953 -0.4245
 8008TIP3    H123965   0.850   5.532   4.089 -0.2857  0.1812 -0.1667
 8008TIP3    H223966   0.728   5.476   4.018 -0.2417  1.2225 -1.0847
 8009TIP3   OH223967   0.250   6.733   3.928 -0.1509 -0.1098  0.4201
 8009TIP3    H123968   0.305   6.667   3.970  0.5230 -0.1339 -0.5034
 8009TIP3    H223969   0.232   6.796   3.998 -0.1934 -0.8831  1.1115
 8010TIP3   OH223970   6.895   4.358   5.257 -0.2204  0.1664  0.1242
 8010TIP3    H123971   6.942   4.404   5.326  0.4888 -1.0735  0.5039
 8010TIP3    H223972   6.837   4.423   5.218  0.7376  1.3436  0.6562
 8011TIP3   OH223973   7.862   5.273   4.046  0.4322 -0.4906  0.0346
 8011TIP3    H123974   7.901   5.218   3.978 -0.7214 -0.2709 -0.8345
 8011TIP3    H223975   7.767   5.259   4.036  0.2085  0.3189  0.9364
 8012TIP3   OH223976   7.691   5.107   4.739 -0.4084 -0.4271 -0.2728
 8012TIP3    H123977   7.705   5.143   4.826 -0.4357 -1.9115  0.3624
 8012TIP3    H223978   7.749   5.158   4.683  2.1804 -1.6878  1.1694
 8013TIP3   OH223979   2.652   3.708   3.429  0.4488 -0.6767 -0.5648
 8013TIP3    H123980   2.724   3.770   3.444 -0.4422  0.1378  0.4127
 8013TIP3    H223981   2.591   3.755   3.372  0.5236 -1.2478 -1.1237
 8014TIP3   OH223982   1.121   4.080   1.464 -0.2902  0.0734  0.0221
 8014TIP3    H123983   1.095   4.164   1.425  1.4811  0.5638 -0.1648
 8014TIP3    H223984   1.205   4.060   1.423 -0.9260 -2.0681 -0.3016
 8015TIP3   OH223985   7.150   5.177   2.223 -0.0277  0.1363  0.6783
 8015TIP3    H123986   7.138   5.207   2.313 -0.6315  0.4822  0.4916
 8015TIP3    H223987   7.213   5.106   2.229 -1.0212 -0.6986  1.5497
 8016TIP3   OH223988   8.250   6.306   2.855 -0.0931 -0.5904  0.2029
 8016TIP3    H123989   8.275   6.332   2.944  0.0903  0.0552 -0.0385
 8016TIP3    H223990   8.258   6.386   2.803 -1.0626 -0.7507 -0.2153
 8017TIP3   OH223991   7.491   5.578   3.260 -0.0476  0.2115  0.3440
 8017TIP3    H123992   7.561   5.618   3.314  0.0669  3.5923 -2.1253
 8017TIP3    H223993   7.410   5.612   3.298 -0.0759  0.6196 -0.0740
 8018TIP3   OH223994   5.315   7.787   3.182 -0.3073 -0.2022  0.3442
 8018TIP3    H123995   5.390   7.729   3.195  0.1673  0.6894  1.7199
 8018TIP3    H223996   5.321   7.814   3.091  0.9042 -0.3403  0.3716
 8019TIP3   OH223997   8.501   7.077   0.990  0.1161 -0.2843 -0.3025
 8019TIP3    H123998   8.501   7.154   1.047 -0.0611  0.0379 -0.7257
 8019TIP3    H223999   8.460   7.109   0.909  0.2141 -0.7778 -0.5430
 8020TIP3   OH224000   7.285   2.098   1.445  0.1548  0.2321  0.3168
 8020TIP3    H124001   7.232   2.124   1.521 -0.2848  0.2631  0.0047
 8020TIP3    H224002   7.353   2.164   1.440 -1.3010  1.6695 -0.8233
 8021TIP3   OH224003   2.173   4.349   3.305 -0.5625 -0.0749  0.1828
 8021TIP3    H124004   2.086   4.347   3.266 -1.9860 -0.5220  3.2775
 8021TIP3    H224005   2.219   4.274   3.266 -1.9639 -0.5772 -0.5081
 8022TIP3   OH224006   6.442   6.630   5.408  0.0144  0.0262 -0.2164
 8022TIP3    H124007   6.366   6.688   5.410  0.3040  0.4089 -0.3832
 8022TIP3    H224008   6.408   6.546   5.438 -1.0582 -0.4768 -2.6665
 8023TIP3   OH224009   6.978   4.946   5.103 -0.3633 -0.5187  0.3070
 8023TIP3    H124010   7.039   5.011   5.071 -1.0524  1.2237  2.4394
 8023TIP3    H224011   7.029   4.865   5.109  1.2973  0.5360  0.5250
 8024TIP3   OH224012   0.058   6.500   4.323 -0.1976  0.3613  0.1388
 8024TIP3    H124013   0.049   6.502   4.228 -0.5928 -1.7976  0.1006
 8024TIP3    H224014   0.151   6.519   4.339 -0.2591  1.3380 -0.6301
 8025TIP3   OH224015   7.613   6.206   3.162 -0.2449  0.5381  0.4705
 8025TIP3    H124016   7.656   6.172   3.083  1.2144 -0.9629  1.8654
 8025TIP3    H224017   7.601   6.300   3.144  0.8110  0.3824 -1.1944
 8026TIP3   OH224018   0.130   5.292   2.573  0.0495  0.2056 -0.1253
 8026TIP3    H124019   0.107   5.355   2.504 -0.9415  0.2181  0.2072
 8026TIP3    H224020   0.079   5.214   2.551 -1.6356  0.7992  1.5650
 8027TIP3   OH224021   7.986   5.590   3.120 -0.4418 -0.3373  0.6003
 8027TIP3    H124022   7.896   5.590   3.088 -0.1770 -0.6164 -0.1598
 8027TIP3    H224023   7.992   5.668   3.175 -1.8205 -1.6168  2.6291
 8028TIP3   OH224024   5.795   6.598   3.455 -0.0971 -0.0016 -0.1599
 8028TIP3    H124025   5.831   6.660   3.392  0.7119 -0.1565  0.1418
 8028TIP3    H224026   5.872   6.560   3.498 -0.6324  0.0743  0.8855
 8029TIP3   OH224027   7.915   3.908   3.967 -0.3829 -0.2035  0.3879
 8029TIP3    H124028   7.921   3.999   3.938  2.4388 -0.5436 -0.1634
 8029TIP3    H224029   7.829   3.879   3.936 -0.3541  1.5570 -1.4316
 8030TIP3   OH224030   8.150   6.225   4.428 -0.2244 -0.0156  0.6823
 8030TIP3    H124031   8.070   6.204   4.477 -1.5862  0.4622 -1.2901
 8030TIP3    H224032   8.124   6.220   4.336  2.2546 -0.7445 -0.0151
 8031TIP3   OH224033   2.610   6.382   3.868  0.0840  0.7538 -0.5865
 8031TIP3    H124034   2.573   6.410   3.785  0.4549  3.2832  0.0693
 8031TIP3    H224035   2.667   6.454   3.895  1.7514 -0.9954  0.7582
 8032TIP3   OH224036   0.850   4.494   2.552  0.4827 -0.2843 -0.5809
 8032TIP3    H124037   0.824   4.559   2.617 -1.0866 -0.2360 -1.2129
 8032TIP3    H224038   0.907   4.433   2.598  0.3250  0.4056  0.5257
 8033TIP3   OH224039   8.144   3.598   1.551  0.2047  0.0692 -0.0658
 8033TIP3    H124040   8.126   3.548   1.472 -1.5014 -1.4284  1.2321
 8033TIP3    H224041   8.193   3.537   1.607 -1.6414 -0.1058  1.4202
 8034TIP3   OH224042   5.956   2.916   3.844  0.0948 -0.3774  0.1115
 8034TIP3    H124043   5.951   2.839   3.900 -0.0712 -1.0801 -0.8668
 8034TIP3    H224044   5.873   2.963   3.860  0.0084 -0.6190  0.3756
 8035TIP3   OH224045   8.328   6.207   4.984 -0.3667 -0.0968  0.1310
 8035TIP3    H124046   8.302   6.168   4.901  1.6367 -1.7737  0.2559
 8035TIP3    H224047   8.324   6.136   5.047  0.3201  0.6164  1.0002
 8036TIP3   OH224048   7.637   6.995   3.349  0.0506  0.0361  0.1039
 8036TIP3    H124049   7.634   6.913   3.397  1.7716 -0.1033 -0.0115
 8036TIP3    H224050   7.685   6.974   3.269 -1.3800  0.6481 -0.9517
 8037TIP3   OH224051   5.761   4.885   5.968 -0.1934 -0.5855  0.1525
 8037TIP3    H124052   5.813   4.830   5.909 -1.5666  0.2302 -1.8692
 8037TIP3    H224053   5.703   4.824   6.012 -0.3696 -1.0007 -0.6463
 8038TIP3   OH224054   0.145   3.859   2.533  0.8722 -0.1774 -0.0744
 8038TIP3    H124055   0.056   3.836   2.505  0.5138  0.7808  0.2379
 8038TIP3    H224056   0.150   3.954   2.520  2.3444 -0.4167 -1.4580
 8039TIP3   OH224057   8.208   6.302   2.526  0.8011 -0.0674 -0.0433
 8039TIP3    H124058   8.168   6.375   2.574  0.7331 -0.1971  0.0996
 8039TIP3    H224059   8.301   6.309   2.545  0.7668 -0.1607  0.1696
 8040TIP3   OH224060   7.980   6.275   3.147 -0.6976  0.1115 -0.8918
 8040TIP3    H124061   7.987   6.338   3.219 -1.7038 -1.2020  0.4102
 8040TIP3    H224062   8.008   6.192   3.186  0.3088 -0.3185 -2.4848
 8041TIP3   OH224063   7.476   4.774   2.617  0.5953 -0.6470 -0.6200
 8041TIP3    H124064   7.467   4.861   2.657  1.3306 -1.7389  1.9841
 8041TIP3    H224065   7.402   4.724   2.650  0.1352 -1.0081 -2.1656
 8042TIP3   OH224066   8.365   5.660   4.324  0.1563  0.1562  0.2838
 8042TIP3    H124067   8.371   5.658   4.229 -0.1849  0.0479  0.2647
 8042TIP3    H224068   8.436   5.604   4.354 -1.5728 -2.2691  0.0381
 8043TIP3   OH224069   8.296   5.266   3.920 -0.4197  0.2744  0.0092
 8043TIP3    H124070   8.293   5.170   3.921 -2.1298  0.3132 -0.8871
 8043TIP3    H224071   8.247   5.291   3.841  0.9622  1.8546 -0.3801
 8044TIP3   OH224072   7.302   3.353   0.124 -0.1519 -0.4894 -0.0405
 8044TIP3    H124073   7.323   3.426   0.065  0.6804 -0.1768  0.6301
 8044TIP3    H224074   7.319   3.274   0.073  1.3120 -0.2279  0.0098
 8045TIP3   OH224075   7.305   3.529   4.952 -0.5778  0.2226  0.2758
 8045TIP3    H124076   7.237   3.596   4.951  1.2163  2.1263  1.1385
 8045TIP3    H224077   7.321   3.513   5.045  1.8039  1.5500  0.1132
 8046TIP3   OH224078   1.304   5.467   3.781  0.1485 -0.0944 -0.4541
 8046TIP3    H124079   1.219   5.494   3.748 -0.6875 -0.6765  1.1614
 8046TIP3    H224080   1.348   5.427   3.706 -0.7282  0.7976 -1.4574
 8047TIP3   OH224081   5.784   6.509   2.965 -0.2501 -0.3614  1.0192
 8047TIP3    H124082   5.701   6.533   3.006  0.1382 -0.0468  1.6350
 8047TIP3    H224083   5.833   6.464   3.034 -0.5618 -2.0077  0.1631
 8048TIP3   OH224084   0.823   4.739   2.787  0.3353 -0.1258  0.9249
 8048TIP3    H124085   0.728   4.749   2.794  0.2197 -1.1836  0.9161
 8048TIP3    H224086   0.845   4.782   2.705 -0.2872 -0.8527  0.3691
 8049TIP3   OH224087   8.259   6.047   4.721 -0.1169  0.0957  0.2341
 8049TIP3    H124088   8.324   5.982   4.694  0.0313  0.4336 -0.2190
 8049TIP3    H224089   8.257   6.111   4.650 -0.4341  0.4646  0.5712
 8050TIP3   OH224090   1.026   5.419   3.863 -0.3801  0.2787  0.2270
 8050TIP3    H124091   0.939   5.428   3.901 -1.0032  0.0185 -1.1213
 8050TIP3    H224092   1.018   5.459   3.776  0.9597  0.6628  0.2761
 8051TIP3   OH224093   6.695   4.821   2.551 -0.0241  0.3610 -0.2279
 8051TIP3    H124094   6.619   4.874   2.524 -0.5632 -0.4945 -0.4004
 8051TIP3    H224095   6.673   4.791   2.639  0.8307  1.4386  0.3653
 8052TIP3   OH224096   6.000   1.118  -0.019  0.0854 -0.2838  0.6867
 8052TIP3    H124097   6.038   1.135   0.067  1.7358  0.2756 -0.1389
 8052TIP3    H224098   5.962   1.202  -0.045  0.1484 -0.2867  0.5860
 8053TIP3   OH224099   7.992   3.921   2.344 -0.4342 -0.3275 -0.2517
 8053TIP3    H124100   7.922   3.859   2.362  0.2351 -0.9239  0.3517
 8053TIP3    H224101   8.069   3.866   2.328  0.0508  0.3352 -0.2206
 8054TIP3   OH224102   8.388   6.491   4.371  0.1426 -0.2083  0.1308
 8054TIP3    H124103   8.482   6.477   4.361 -0.2321 -1.4777 -1.8342
 8054TIP3    H224104   8.352   6.476   4.284 -2.2666 -2.9634  1.5120
 8055TIP3   OH224105   7.835   4.083   3.002  0.2976  0.2450  0.1990
 8055TIP3    H124106   7.853   4.122   2.917 -0.7007  1.1226  0.3797
 8055TIP3    H224107   7.811   3.993   2.983 -0.2375  0.5278 -0.4910
 8056TIP3   OH224108   7.713   5.650   2.328 -0.0247 -0.6231 -0.0315
 8056TIP3    H124109   7.738   5.701   2.405  0.8267  1.7158 -1.7861
 8056TIP3    H224110   7.636   5.695   2.293 -0.3888 -1.6367 -0.5763
 8057TIP3   OH224111   0.313   5.172   2.850 -0.6289  0.2181 -0.4759
 8057TIP3    H124112   0.399   5.132   2.866 -1.6392 -1.5473  0.7498
 8057TIP3    H224113   0.329   5.235   2.780  1.6318 -0.2256 -0.4166
 8058TIP3   OH224114   8.391   4.762   2.276  0.0429  0.1633 -0.5153
 8058TIP3    H124115   8.389   4.702   2.350  0.4261  0.5719 -0.1719
 8058TIP3    H224116   8.412   4.847   2.314 -3.1454  1.0593 -0.6385
 8059TIP3   OH224117   0.328   5.712   1.870 -0.4701 -0.2760  0.2172
 8059TIP3    H124118   0.292   5.800   1.862  0.2208 -0.1226 -1.3539
 8059TIP3    H224119   0.278   5.659   1.808 -0.2918 -0.7969  0.5101
 8060TIP3   OH224120   6.790   5.104   2.532  0.2544  0.3524 -0.2997
 8060TIP3    H124121   6.779   5.018   2.574  1.7337 -0.0499 -0.6929
 8060TIP3    H224122   6.708   5.150   2.550 -0.0364 -0.6503  1.0659
 8061TIP3   OH224123   6.795   4.226   3.993 -0.0067 -0.4018 -0.0100
 8061TIP3    H124124   6.793   4.277   3.913  0.7874 -1.1341 -0.5110
 8061TIP3    H224125   6.707   4.235   4.031 -0.1654  0.5067 -0.6004
 8062TIP3   OH224126   8.044   5.050   3.430  0.3532 -0.1095 -0.2513
 8062TIP3    H124127   8.064   5.060   3.337 -2.0879 -0.9901 -0.9085
 8062TIP3    H224128   8.039   5.140   3.463 -0.4337  0.2623 -1.3520
 8063TIP3   OH224129   8.348   5.217   3.568  0.2503  0.0174 -0.3116
 8063TIP3    H124130   8.284   5.160   3.527  0.1253  0.8069 -1.2567
 8063TIP3    H224131   8.422   5.218   3.507  0.2237  0.9028 -0.3468
 8064TIP3   OH224132   0.474   3.343   1.570 -0.0356  0.1401  0.6087
 8064TIP3    H124133   0.435   3.354   1.656 -0.2481 -0.6717  0.6188
 8064TIP3    H224134   0.501   3.251   1.567 -1.4681 -0.2571 -0.7854
 8065TIP3   OH224135   0.779   6.046   2.731  0.6037  0.3479 -0.0222
 8065TIP3    H124136   0.689   6.013   2.730  0.5545  0.3840  1.2478
 8065TIP3    H224137   0.774   6.129   2.685  0.3596 -0.5205 -1.5928
 8066TIP3   OH224138   7.033   6.902   0.992  0.3071 -0.2075  0.0578
 8066TIP3    H124139   6.945   6.932   0.973  0.3845 -1.6604 -2.8101
 8066TIP3    H224140   7.088   6.980   0.986 -0.6075  0.4885  0.7319
 8067TIP3   OH224141   7.543   5.240   0.495  0.0369 -0.0630  0.0123
 8067TIP3    H124142   7.489   5.252   0.572 -0.0052  0.5395 -0.1083
 8067TIP3    H224143   7.603   5.315   0.495 -0.0189 -0.0103 -0.5779
 8068TIP3   OH224144   7.242   7.627   1.757  0.2979 -0.0637 -0.6469
 8068TIP3    H124145   7.276   7.613   1.846  0.6005 -0.6778 -0.8628
 8068TIP3    H224146   7.202   7.714   1.761 -1.0457 -0.7216  0.5088
 8069TIP3   OH224147   0.852   7.548   3.476  0.0665 -0.1899 -0.1690
 8069TIP3    H124148   0.931   7.596   3.448 -0.3158  0.3552 -0.3308
 8069TIP3    H224149   0.837   7.578   3.565  0.6859 -1.1453  0.2648
 8070TIP3   OH224150   4.994   6.460   2.775 -0.3078  0.1674 -0.1917
 8070TIP3    H124151   4.934   6.423   2.711  1.0334 -1.6673 -0.4104
 8070TIP3    H224152   5.069   6.401   2.776 -0.0573  0.4428  2.6716
 8071TIP3   OH224153   7.937   6.151   4.602 -0.2740  0.5277  0.1211
 8071TIP3    H124154   7.942   6.225   4.662 -1.5773 -0.8094  1.8964
 8071TIP3    H224155   7.861   6.170   4.547 -1.9762 -0.5638  2.0549
 8072TIP3   OH224156   5.562   4.919   3.995 -0.0216 -0.3135  0.5198
 8072TIP3    H124157   5.468   4.939   3.995 -0.1868 -1.0889  1.0100
 8072TIP3    H224158   5.596   4.966   4.071  0.2709  1.2454 -0.5450
 8073TIP3   OH224159   2.857   0.772   3.732 -0.3379  0.0063 -0.2359
 8073TIP3    H124160   2.774   0.748   3.773 -0.7235  1.3408 -0.2339
 8073TIP3    H224161   2.832   0.807   3.646  0.0391  2.5668  0.6769
 8074TIP3   OH224162   0.453   6.127   2.034  0.7194  0.4285  0.0281
 8074TIP3    H124163   0.498   6.208   2.010  0.3251  0.6493  0.0148
 8074TIP3    H224164   0.516   6.079   2.087  0.7134  1.0668  0.6284
 8075TIP3   OH224165   1.193   2.296   4.027  0.3071 -0.0502 -0.0044
 8075TIP3    H124166   1.182   2.204   4.050  1.0002 -0.0822  0.2021
 8075TIP3    H224167   1.288   2.309   4.024  0.2147  1.0248  1.4159
 8076TIP3   OH224168   0.741   3.961   4.906 -0.5674 -0.1021 -0.0800
 8076TIP3    H124169   0.661   4.014   4.904 -0.4005  0.2312  1.5678
 8076TIP3    H224170   0.809   4.023   4.934  0.0399 -0.6630 -0.3228
 8077TIP3   OH224171   6.807   6.159   3.171 -0.0024 -0.2731 -0.6982
 8077TIP3    H124172   6.729   6.130   3.219  0.4710  0.9276  0.8234
 8077TIP3    H224173   6.879   6.144   3.233  0.7904  0.0155 -1.5524
 8078TIP3   OH224174   7.590   5.232   4.038 -0.0097  0.1408  0.3945
 8078TIP3    H124175   7.548   5.283   4.108  0.0653 -0.3646  0.8105
 8078TIP3    H224176   7.544   5.148   4.038  0.5397 -0.1619  0.3931
 8079TIP3   OH224177   6.384   4.845   3.094  0.0201 -0.1494  0.0293
 8079TIP3    H124178   6.380   4.867   3.187 -3.5616  0.0117 -0.0880
 8079TIP3    H224179   6.398   4.929   3.050  0.4881 -0.0621  0.3402
 8080TIP3   OH224180   6.291   4.857   2.404  0.0563  0.2458 -0.3313
 8080TIP3    H124181   6.326   4.829   2.489  0.7983 -2.6390 -1.5191
 8080TIP3    H224182   6.337   4.938   2.384  0.3105  0.6351  1.7410
 8081TIP3   OH224183   7.745   5.680   5.004 -0.1672  0.1712  0.5450
 8081TIP3    H124184   7.811   5.711   5.066 -0.4581  0.5786  0.6508
 8081TIP3    H224185   7.743   5.747   4.935 -0.4179  0.1193  0.5028
 8082TIP3   OH224186   7.062   7.517   1.515  0.1651  0.0265 -0.2690
 8082TIP3    H124187   7.006   7.542   1.588 -0.8810  1.0858 -1.4127
 8082TIP3    H224188   7.005   7.468   1.456  0.7265  0.1130 -0.8892
 8083TIP3   OH224189   7.164   5.380   1.747  0.2845  0.4202  0.3083
 8083TIP3    H124190   7.152   5.325   1.823 -1.0161  1.1137  0.6172
 8083TIP3    H224191   7.232   5.442   1.773  0.8384 -0.2266  0.4056
 8084TIP3   OH224192   0.630   4.343   1.831 -0.3228  0.3236 -0.1592
 8084TIP3    H124193   0.569   4.272   1.812  0.0905 -0.2608  0.6770
 8084TIP3    H224194   0.623   4.402   1.756 -1.0567 -0.3339 -0.6055
 8085TIP3   OH224195   8.124   3.897   4.194 -0.7182  0.4340 -0.0328
 8085TIP3    H124196   8.097   3.982   4.229  0.2896  0.6537  0.2268
 8085TIP3    H224197   8.169   3.854   4.266 -2.1739 -0.7865  0.1759
 8086TIP3   OH224198   0.310   4.078   3.237 -0.0960 -0.0618  0.7744
 8086TIP3    H124199   0.366   4.130   3.180  1.2273  0.8504  2.8492
 8086TIP3    H224200   0.257   4.142   3.285 -1.3659 -0.8172  0.3920
 8087TIP3   OH224201   6.878   6.284   1.748 -0.2391 -0.1802  0.8921
 8087TIP3    H124202   6.828   6.363   1.769  1.5093  1.0237  0.6182
 8087TIP3    H224203   6.884   6.236   1.831 -0.0026  0.7359  1.4116
 8088TIP3   OH224204   7.546   4.895   5.514 -0.6006  0.3846  0.2575
 8088TIP3    H124205   7.624   4.922   5.465 -0.1199 -1.1837  0.1075
 8088TIP3    H224206   7.510   4.976   5.550  1.6081  1.0532  1.0583
 8089TIP3   OH224207   0.449   5.302   3.212  0.7192  0.0290 -0.0707
 8089TIP3    H124208   0.411   5.214   3.217 -0.1655  0.5033  2.0934
 8089TIP3    H224209   0.542   5.288   3.229  0.2014 -0.2590  2.8634
 8090TIP3   OH224210   6.665   5.019   3.583 -0.3399  0.4865  0.1626
 8090TIP3    H124211   6.576   5.041   3.608 -0.8981 -0.7205 -0.7211
 8090TIP3    H224212   6.706   4.986   3.663 -0.0921  2.8034  1.0236
 8091TIP3   OH224213   0.632   4.375   3.214  0.4005  0.4434  0.0571
 8091TIP3    H124214   0.698   4.439   3.239 -0.4445  0.5866  1.9877
 8091TIP3    H224215   0.629   4.313   3.286 -2.3915  1.1039  0.5979
 8092TIP3   OH224216   0.107   5.606   5.115 -0.3813  0.2917 -0.0662
 8092TIP3    H124217   0.107   5.511   5.119  0.0039  0.3455  1.5055
 8092TIP3    H224218   0.026   5.632   5.159 -0.6971  0.6973 -0.8543
 8093TIP3   OH224219   4.828   3.330   5.594 -0.1944 -0.3423  0.3329
 8093TIP3    H124220   4.778   3.254   5.564  0.3952 -0.7733  0.4528
 8093TIP3    H224221   4.811   3.336   5.688 -0.7580  0.0590  0.2074
 8094TIP3   OH224222   0.045   6.108   4.304 -0.3683 -0.0475  0.1150
 8094TIP3    H124223  -0.026   6.075   4.359 -0.5135 -1.6529 -1.0178
 8094TIP3    H224224   0.111   6.139   4.366 -1.1103 -0.5977  1.1855
 8095TIP3   OH224225   7.893   6.160   3.583  0.3623 -0.0259  0.4986
 8095TIP3    H124226   7.828   6.169   3.513  1.5819 -1.8886 -0.9289
 8095TIP3    H224227   7.862   6.219   3.652 -2.7411 -0.7045 -0.2101
 8096TIP3   OH224228   0.437   3.688   4.410  0.0726 -0.1005  0.5701
 8096TIP3    H124229   0.459   3.641   4.329 -0.3651  1.7376 -0.6519
 8096TIP3    H224230   0.351   3.653   4.435  0.5261 -1.1835  0.6322
 8097TIP3   OH224231   8.447   3.251   3.171  0.0511 -0.0616 -0.2244
 8097TIP3    H124232   8.450   3.298   3.254  0.4132  1.5071 -1.0952
 8097TIP3    H224233   8.450   3.158   3.195 -0.7720  0.3477  1.5365
 8098TIP3   OH224234   6.628   6.117   6.025  0.5927 -0.0376 -0.0434
 8098TIP3    H124235   6.637   6.022   6.034  1.0739  0.0948  0.9885
 8098TIP3    H224236   6.599   6.146   6.112  1.1640  0.8459 -0.1481
 8099TIP3   OH224237   0.358   6.150   2.831 -0.2656 -0.0212  1.0148
 8099TIP3    H124238   0.337   6.175   2.741 -1.6324 -0.4525  1.2014
 8099TIP3    H224239   0.274   6.128   2.871  0.4538 -1.0467  2.0289
 8100TIP3   OH224240   6.736   6.380   4.376  0.4415  0.4661  0.0830
 8100TIP3    H124241   6.689   6.324   4.438  0.2419 -1.2105 -1.5374
 8100TIP3    H224242   6.828   6.373   4.402  0.1960  0.9588  1.1002
 8101TIP3   OH224243   6.810   7.597   1.236 -0.1411 -0.5540  0.0477
 8101TIP3    H124244   6.791   7.654   1.310  0.1132 -0.0950 -0.2374
 8101TIP3    H224245   6.740   7.614   1.174  0.2706 -0.1021 -0.2948
 8102TIP3   OH224246   7.322   6.092   4.150 -0.2402 -0.3870  0.0181
 8102TIP3    H124247   7.416   6.074   4.158 -0.4538 -0.8410  1.4844
 8102TIP3    H224248   7.282   6.006   4.134 -0.3302 -0.0912 -1.4346
 8103TIP3   OH224249   6.878   5.061   3.396  0.1470  0.1025 -0.0286
 8103TIP3    H124250   6.797   5.028   3.435 -0.8066 -0.5875 -2.4610
 8103TIP3    H224251   6.869   5.156   3.398 -1.1517  0.0236 -1.0689
 8104TIP3   OH224252   7.270   5.507   4.012 -0.6611  0.3488 -0.0598
 8104TIP3    H124253   7.227   5.565   4.076  1.4787  0.8665  0.9290
 8104TIP3    H224254   7.332   5.456   4.063 -0.8497 -1.1666 -1.3136
 8105TIP3   OH224255   7.992   3.625   4.046  0.6182  0.5331  0.5031
 8105TIP3    H124256   8.050   3.551   4.064 -0.9697 -0.8462  0.0313
 8105TIP3    H224257   7.971   3.617   3.953  1.1707  2.1289  0.2308
 8106TIP3   OH224258   8.532   3.776   1.429 -0.1145 -0.2273  0.1315
 8106TIP3    H124259   8.517   3.759   1.336  0.3302 -0.5148  0.1102
 8106TIP3    H224260   8.449   3.811   1.461 -1.0728 -2.3944  0.1629
 8107TIP3   OH224261   6.504   4.411   4.672 -0.6105  0.4444  0.0153
 8107TIP3    H124262   6.482   4.319   4.686  3.0240 -0.8431 -2.0006
 8107TIP3    H224263   6.509   4.421   4.577  0.6981  2.2552  0.2354
 8108TIP3   OH224264   0.313   4.241   4.355 -0.3500  0.5001  0.3383
 8108TIP3    H124265   0.371   4.317   4.352  0.9666 -0.5210 -0.5703
 8108TIP3    H224266   0.332   4.200   4.440 -3.4076  2.9596  2.2911
 8109TIP3   OH224267   8.442   5.506   3.784  0.4361 -0.5338  0.2175
 8109TIP3    H124268   8.535   5.483   3.776  0.4083 -0.6567  0.2533
 8109TIP3    H224269   8.401   5.428   3.819  0.1787 -0.7712 -0.5979
 8110TIP3   OH224270   1.117   3.610   1.536 -0.4348  0.2742  0.0199
 8110TIP3    H124271   1.094   3.697   1.503  1.7077  0.6426 -0.6199
 8110TIP3    H224272   1.047   3.553   1.506 -1.4715  1.6527 -0.2074
 8111TIP3   OH224273   0.192   6.292   4.143  0.1632 -0.0545 -0.0836
 8111TIP3    H124274   0.118   6.349   4.123 -0.2089 -0.4852  0.0548
 8111TIP3    H224275   0.156   6.224   4.200  1.0335  0.6989  1.3894
 8112TIP3   OH224276   5.626   3.903   5.087  0.0985 -0.5118  0.0586
 8112TIP3    H124277   5.667   3.839   5.029 -0.5335 -0.9065  0.0434
 8112TIP3    H224278   5.676   3.984   5.073  0.1835 -0.7062 -0.7495
 8113TIP3   OH224279   6.851   5.513   4.535  0.0005  0.0015  0.1979
 8113TIP3    H124280   6.831   5.483   4.446  2.5459  2.2614 -1.2175
 8113TIP3    H224281   6.899   5.441   4.574 -0.1710 -0.5817 -0.6547
 8114TIP3   OH224282   6.963   3.923   5.223  0.1360 -0.3396 -0.3316
 8114TIP3    H124283   6.957   4.012   5.188  0.0559  0.3436  1.3521
 8114TIP3    H224284   6.873   3.894   5.231  0.1293 -0.2436 -0.0599
 8115TIP3   OH224285   7.952   5.551   5.836  0.4939 -0.2408  0.4669
 8115TIP3    H124286   7.985   5.621   5.779  1.2468  0.0549  1.2530
 8115TIP3    H224287   7.863   5.579   5.859  0.4519 -0.0041  0.0120
 8116TIP3   OH224288   6.895   6.099   5.240  0.4914 -0.0668  0.1756
 8116TIP3    H124289   6.974   6.113   5.293 -1.4568  0.8401  2.9379
 8116TIP3    H224290   6.828   6.075   5.303 -0.5940 -4.7451 -2.5315
 8117TIP3   OH224291   6.956   4.933   3.050 -0.9918 -0.3478  0.1866
 8117TIP3    H124292   6.862   4.937   3.032 -1.1919 -1.7091  0.8397
 8117TIP3    H224293   6.964   4.956   3.143 -0.3175  3.1505 -0.6880
 8118TIP3   OH224294   7.114   3.867   2.214 -0.1109  0.1177  0.3240
 8118TIP3    H124295   7.042   3.929   2.205  0.5545  0.7020 -1.2099
 8118TIP3    H224296   7.076   3.782   2.192 -0.4332  0.3507 -0.0212
 8119TIP3   OH224297   8.409   5.998   6.116 -0.1654 -0.1887  0.4630
 8119TIP3    H124298   8.472   5.989   6.188  0.5251 -1.0299 -0.2355
 8119TIP3    H224299   8.324   5.993   6.159  0.2350 -0.9505  1.2072
 8120TIP3   OH224300   7.824   3.693   2.381 -0.1274 -0.0091  0.3573
 8120TIP3    H124301   7.826   3.646   2.298 -2.3334 -1.3553  1.0176
 8120TIP3    H224302   7.890   3.649   2.436 -0.1606 -0.4724  0.0240
 8121TIP3   OH224303   0.930   6.667   5.032 -0.4139 -0.3173  0.8489
 8121TIP3    H124304   1.008   6.708   5.070  1.0982 -1.2555 -1.0885
 8121TIP3    H224305   0.945   6.671   4.937 -1.4243 -2.9352  0.5208
 8122TIP3   OH224306   0.733   5.858   3.507  0.2323 -0.2810 -0.2652
 8122TIP3    H124307   0.752   5.906   3.587 -0.0057 -1.3175  0.4214
 8122TIP3    H224308   0.652   5.810   3.525 -0.4086  0.3026 -1.4951
 8123TIP3   OH224309   0.416   3.640   5.039 -0.1431 -0.3455  0.1812
 8123TIP3    H124310   0.467   3.690   5.103 -0.1424  0.1049 -0.1666
 8123TIP3    H224311   0.426   3.688   4.957 -1.0214 -0.3211  0.0814
 8124TIP3   OH224312   5.748   5.614   4.024 -0.0415  0.0467  0.1288
 8124TIP3    H124313   5.692   5.599   4.100  0.6226  1.5966  0.9559
 8124TIP3    H224314   5.824   5.659   4.059  0.0271  1.2882 -1.5425
 8125TIP3   OH224315   0.523   3.955   2.034 -0.3540  0.2146  0.1351
 8125TIP3    H124316   0.572   3.885   1.991  0.0619  0.8194 -0.3722
 8125TIP3    H224317   0.539   4.032   1.981 -0.6128  0.7540  0.8348
 8126TIP3   OH224318   7.623   6.674   3.227 -0.6597 -0.4613  0.3079
 8126TIP3    H124319   7.648   6.758   3.189 -0.0822 -0.5022  0.6024
 8126TIP3    H224320   7.616   6.614   3.153  1.7076 -0.8618  0.3956
 8127TIP3   OH224321   7.592   5.090   4.453  0.2442  0.0347 -0.1858
 8127TIP3    H124322   7.571   5.150   4.382 -4.0412 -0.5731  0.3711
 8127TIP3    H224323   7.564   5.136   4.532 -1.9190 -2.0539  0.3477
 8128TIP3   OH224324   1.909   5.203   2.129 -0.2320  0.3086  0.2376
 8128TIP3    H124325   1.907   5.119   2.174  0.5033  0.4964  0.6296
 8128TIP3    H224326   1.818   5.219   2.104 -0.6544  0.1810  1.6274
 8129TIP3   OH224327   7.635   7.064   2.453  0.0400  0.3567 -0.1393
 8129TIP3    H124328   7.581   7.106   2.385 -1.8233 -1.9305 -0.1503
 8129TIP3    H224329   7.605   7.104   2.534 -2.2316 -1.3640 -0.0774
 8130TIP3   OH224330   7.347   5.762   3.425  0.2570 -0.1418 -0.2940
 8130TIP3    H124331   7.318   5.798   3.341  0.5667  2.4423  0.6480
 8130TIP3    H224332   7.435   5.798   3.437 -0.3470  0.7058  1.8098
 8131TIP3   OH224333   1.154   5.954   4.953 -0.1148  0.1885  0.0176
 8131TIP3    H124334   1.211   5.881   4.928 -0.3813  0.2769 -0.8784
 8131TIP3    H224335   1.215   6.025   4.974  0.1331 -0.1302  0.3843
 8132TIP3   OH224336   0.659   6.331   5.500  0.3334  0.4321 -0.3977
 8132TIP3    H124337   0.732   6.274   5.521 -0.9292 -0.6155  1.2904
 8132TIP3    H224338   0.641   6.314   5.407  1.2845 -0.3721 -0.4387
 8133TIP3   OH224339   7.984   6.940   3.591 -0.0244  0.2661  0.3934
 8133TIP3    H124340   8.035   6.983   3.659 -0.0195 -0.8041  1.0896
 8133TIP3    H224341   7.898   6.980   3.596  0.1182  0.5330  0.6976
 8134TIP3   OH224342   8.212   6.595   3.447  0.1289  0.6198  0.2763
 8134TIP3    H124343   8.126   6.582   3.488  0.1272 -1.0366 -0.2640
 8134TIP3    H224344   8.200   6.672   3.391 -0.9090  0.6034  0.4622
 8135TIP3   OH224345   6.650   4.458   3.173  0.4241 -0.3408  0.8573
 8135TIP3    H124346   6.729   4.478   3.224  0.7330 -1.4641  0.8349
 8135TIP3    H224347   6.682   4.411   3.096 -0.0608  1.2750 -0.3352
 8136TIP3   OH224348   7.836   6.484   4.074 -0.4244 -0.0412 -0.3889
 8136TIP3    H124349   7.871   6.399   4.101  0.5879  1.1918  2.3809
 8136TIP3    H224350   7.768   6.504   4.139 -1.1320  0.9446 -1.4240
 8137TIP3   OH224351   0.964   3.598   3.695 -0.0194  0.0085 -0.3877
 8137TIP3    H124352   1.050   3.557   3.698  0.6281  1.3899  0.4772
 8137TIP3    H224353   0.982   3.691   3.685 -1.4224  0.2925 -0.4581
 8138TIP3   OH224354   0.328   4.454   1.136 -0.3622  0.2014  0.0313
 8138TIP3    H124355   0.386   4.383   1.109 -1.5667 -0.1891 -1.6159
 8138TIP3    H224356   0.284   4.481   1.055 -0.7554  2.0575  0.8407
 8139TIP3   OH224357   2.663   0.078   0.273  0.3419  0.2606  0.3733
 8139TIP3    H124358   2.665   0.168   0.305  2.7890 -0.0062  1.0586
 8139TIP3    H224359   2.653   0.087   0.178 -4.5104  1.0911  0.8572
 8140TIP3   OH224360   5.398   1.173   3.588  0.0100  0.4145 -0.0097
 8140TIP3    H124361   5.398   1.153   3.494  0.7358  1.0680 -0.1530
 8140TIP3    H224362   5.418   1.267   3.592 -0.6720  0.5245  0.7705
 8141TIP3   OH224363   7.590   6.455   3.468  0.2113 -0.1317 -0.5506
 8141TIP3    H124364   7.608   6.511   3.392  2.0347  1.0598  0.7017
 8141TIP3    H224365   7.640   6.375   3.452  0.2719 -0.0423 -0.8065
 8142TIP3   OH224366   5.551   4.102   2.594  0.5393 -0.1964  0.4528
 8142TIP3    H124367   5.480   4.045   2.563  1.7255 -1.0531 -0.7261
 8142TIP3    H224368   5.513   4.148   2.669 -0.5583 -2.2655  1.2049
 8143TIP3   OH224369   4.909   6.626   2.286  0.4354 -0.0156  0.3836
 8143TIP3    H124370   4.825   6.604   2.326  0.0800  0.9151  0.1534
 8143TIP3    H224371   4.954   6.678   2.352  1.9304 -2.6928  1.5652
 8144TIP3   OH224372   0.360   4.245   3.519 -0.3087  0.5399  0.6992
 8144TIP3    H124373   0.336   4.167   3.568 -0.6945  0.1863 -0.0405
 8144TIP3    H224374   0.451   4.261   3.542 -1.4568  2.4552  4.2928
 8145TIP3   OH224375   0.090   4.899   2.686 -0.1360 -0.3099 -0.4517
 8145TIP3    H124376   0.091   4.966   2.618  1.4574 -0.2461 -0.3870
 8145TIP3    H224377   0.173   4.853   2.676 -0.3202 -0.9511  0.8125
 8146TIP3   OH224378   5.645   4.895   3.197 -0.0125 -0.1441 -0.7598
 8146TIP3    H124379   5.616   4.971   3.246  0.0575 -0.6377  0.0546
 8146TIP3    H224380   5.590   4.895   3.118  0.5869  1.2301 -1.1901
 8147TIP3   OH224381   8.221   6.251   3.875  0.1990  0.0744  0.2858
 8147TIP3    H124382   8.188   6.225   3.961  0.0319 -0.1255  0.1629
 8147TIP3    H224383   8.245   6.168   3.833  1.2668  0.2537  0.5393
 8148TIP3   OH224384   1.341   0.068   0.572 -0.5646 -0.1302 -0.0386
 8148TIP3    H124385   1.378   0.156   0.581 -1.0281  0.2410 -1.5956
 8148TIP3    H224386   1.414   0.015   0.543 -0.1977 -0.3462  1.2499
 8149TIP3   OH224387   8.147   4.658   6.453 -0.0297 -0.1906  0.2499
 8149TIP3    H124388   8.077   4.708   6.493  0.8812  1.1702  0.1639
 8149TIP3    H224389   8.221   4.718   6.449 -0.0483 -0.2453 -3.3782
 8150TIP3   OH224390   6.588   4.976   1.922  0.6994  0.2885  0.0266
 8150TIP3    H124391   6.499   5.003   1.902  0.3013  0.8670  2.3666
 8150TIP3    H224392   6.616   4.925   1.846 -1.0305  1.4489 -1.4382
 8151TIP3   OH224393   6.713   5.685   6.263  1.1574 -0.6030  0.5367
 8151TIP3    H124394   6.686   5.749   6.198 -0.8618 -0.3454  1.5809
 8151TIP3    H224395   6.738   5.737   6.339  0.3023 -0.9990  1.1010
 8152TIP3   OH224396  -0.010   6.822   2.911  0.4205 -0.0334  0.8819
 8152TIP3    H124397   0.080   6.823   2.943  0.1871  1.2215  1.5559
 8152TIP3    H224398  -0.054   6.891   2.961 -1.0703 -1.0270  0.9910
 8153TIP3   OH224399   2.200   5.978   3.772 -0.0220  0.1492 -0.4136
 8153TIP3    H124400   2.271   5.927   3.732 -0.1642 -0.6562  0.3332
 8153TIP3    H224401   2.242   6.060   3.800 -0.0362  0.9614 -2.6559
 8154TIP3   OH224402   6.559   5.765   2.642 -0.0740 -0.5762 -0.1596
 8154TIP3    H124403   6.568   5.838   2.580 -0.8495  0.1741  0.5905
 8154TIP3    H224404   6.519   5.805   2.719 -0.3512 -1.7774  0.3207
 8155TIP3   OH224405   0.140   6.634   1.832 -0.2783 -0.4829 -0.0347
 8155TIP3    H124406   0.227   6.595   1.821 -0.6205 -1.2452 -0.0526
 8155TIP3    H224407   0.118   6.669   1.746  0.4989  0.7554  0.2449
 8156TIP3   OH224408   8.478   6.371   2.602 -0.1734  0.5357 -0.2204
 8156TIP3    H124409   8.524   6.414   2.530  0.1779  1.9556  0.8382
 8156TIP3    H224410   8.505   6.419   2.680 -1.5207 -0.2088  0.7169
 8157TIP3   OH224411   0.928   6.267   3.189 -0.1622 -0.4891 -0.1770
 8157TIP3    H124412   0.990   6.323   3.144  1.0748  0.2953  2.4038
 8157TIP3    H224413   0.878   6.225   3.119 -0.4482  3.0391 -2.2064
 8158TIP3   OH224414   0.082   5.348   4.005 -0.6709  0.1012 -0.2411
 8158TIP3    H124415   0.014   5.318   3.945  0.1884  0.3009 -1.3152
 8158TIP3    H224416   0.144   5.395   3.950 -0.2287  0.8824  0.9021
 8159TIP3   OH224417   7.960   2.192   2.610  0.2902  0.1872  0.4074
 8159TIP3    H124418   8.047   2.169   2.577 -0.1983 -2.2007  0.6953
 8159TIP3    H224419   7.947   2.135   2.685 -1.8288 -0.0210 -0.1009
 8160TIP3   OH224420   7.403   4.522   3.785  0.4291  0.1779 -0.5344
 8160TIP3    H124421   7.452   4.480   3.714  1.8551 -1.0627  1.1552
 8160TIP3    H224422   7.416   4.465   3.861  1.0519  2.8098  1.4110
 8161TIP3   OH224423   0.763   3.429   4.872 -0.0073  0.2671  0.0097
 8161TIP3    H124424   0.781   3.445   4.779 -1.1048 -1.3987 -0.4981
 8161TIP3    H224425   0.670   3.410   4.876 -0.0412  0.6700  1.5216
 8162TIP3   OH224426   0.756   4.122   0.753 -0.1499 -0.4181  0.3696
 8162TIP3    H124427   0.795   4.209   0.760  1.9408 -1.5500  3.7500
 8162TIP3    H224428   0.798   4.082   0.677  1.8136  0.1024  1.1665
 8163TIP3   OH224429   6.746   4.983   3.872  0.0912 -0.1422 -0.1343
 8163TIP3    H124430   6.834   4.994   3.835 -0.5966  1.3583 -1.3945
 8163TIP3    H224431   6.709   5.071   3.872 -0.7068 -0.4405  2.2469
 8164TIP3   OH224432   7.348   5.540   2.934  0.5882 -0.3497 -0.2510
 8164TIP3    H124433   7.422   5.600   2.922 -1.6247  1.8901 -3.8266
 8164TIP3    H224434   7.279   5.595   2.971 -0.2537 -1.6567  0.1487
 8165TIP3   OH224435   7.452   1.195   3.031  0.3620  0.6115  0.3052
 8165TIP3    H124436   7.481   1.147   2.953  0.7375  0.1301  0.7357
 8165TIP3    H224437   7.448   1.286   3.003  0.3142  0.4162 -0.3308
 8166TIP3   OH224438   8.389   4.724   0.893  0.1078 -0.5158  0.0607
 8166TIP3    H124439   8.353   4.778   0.824 -0.9708  0.1895  1.1498
 8166TIP3    H224440   8.421   4.645   0.849  1.0445  0.6955 -1.4405
 8167TIP3   OH224441   2.983   5.885   2.774  0.2118 -0.3100 -0.4931
 8167TIP3    H124442   2.992   5.978   2.751 -0.8330 -0.2913 -0.8785
 8167TIP3    H224443   2.956   5.843   2.692  0.7667 -0.9644 -0.3361
 8168TIP3   OH224444   8.243   4.336   3.629  0.2725 -0.5308 -0.0236
 8168TIP3    H124445   8.248   4.263   3.566 -0.5402 -0.6730  0.0690
 8168TIP3    H224446   8.290   4.408   3.586 -0.1106 -0.6875 -0.7108
 8169TIP3   OH224447   0.382   5.210   6.224 -0.0783 -0.0901  0.0764
 8169TIP3    H124448   0.431   5.292   6.214 -0.9385  0.5164  0.7991
 8169TIP3    H224449   0.298   5.227   6.181 -0.3403 -0.5246  0.4170
 8170TIP3   OH224450   7.026   4.683   2.955 -0.3959 -0.5167  0.0869
 8170TIP3    H124451   6.992   4.769   2.979 -0.9736 -0.3128 -1.4033
 8170TIP3    H224452   7.089   4.662   3.024 -0.2224  1.1145  0.4436
 8171TIP3   OH224453   6.732   3.850   4.375  0.0836  0.5981 -0.6497
 8171TIP3    H124454   6.704   3.886   4.459  1.2802  0.0321  0.0119
 8171TIP3    H224455   6.764   3.925   4.325 -1.4607  1.0638 -0.9482
 8172TIP3   OH224456   6.244   6.828   5.385 -0.0117 -0.0002 -0.3936
 8172TIP3    H124457   6.162   6.874   5.404 -0.5740 -1.8974  2.1223
 8172TIP3    H224458   6.219   6.763   5.319 -0.5188 -0.4953  0.2783
 8173TIP3   OH224459   2.529   6.954   2.779 -0.4354  0.1009  0.4057
 8173TIP3    H124460   2.540   7.008   2.700 -0.1171  1.8627  1.6263
 8173TIP3    H224461   2.612   6.963   2.825 -0.3467 -1.5477  0.5811
 8174TIP3   OH224462   3.680   2.859   0.874  0.5652 -0.0391 -0.5041
 8174TIP3    H124463   3.624   2.933   0.896  0.8212  0.3913 -1.2935
 8174TIP3    H224464   3.750   2.862   0.940  0.2077  0.0204 -0.1276
 8175TIP3   OH224465   8.330   6.355   6.187 -0.2325  0.4167 -0.4672
 8175TIP3    H124466   8.410   6.372   6.137 -0.9978 -3.0918 -3.0454
 8175TIP3    H224467   8.260   6.360   6.122 -1.7197 -0.1539  1.0570
 8176TIP3   OH224468   1.134   5.118   5.367  0.1671  0.1610 -0.0016
 8176TIP3    H124469   1.086   5.164   5.436 -0.6122 -1.2858  0.4669
 8176TIP3    H224470   1.096   5.030   5.368  0.7693 -0.1233 -1.6874
 8177TIP3   OH224471   0.477   7.161   4.134  0.2211  0.1685  0.1498
 8177TIP3    H124472   0.474   7.255   4.117  0.8243  0.3123  0.8273
 8177TIP3    H224473   0.567   7.144   4.161  0.1330 -0.6175 -0.0404
 8178TIP3   OH224474   0.696   5.463   3.486 -0.2920 -0.2233 -0.3578
 8178TIP3    H124475   0.654   5.508   3.413  0.8799  1.5627  0.0255
 8178TIP3    H224476   0.707   5.531   3.553  0.0886 -1.4583  0.8527
 8179TIP3   OH224477   8.383   4.486   5.559 -0.1747 -0.1747  0.1294
 8179TIP3    H124478   8.450   4.555   5.557 -1.0473  0.6843 -0.3693
 8179TIP3    H224479   8.300   4.534   5.566 -0.7873 -1.1872 -0.0965
 8180TIP3   OH224480   7.944   6.470   3.347  0.3762  0.5771 -0.3335
 8180TIP3    H124481   7.971   6.438   3.434  2.0688 -0.6208 -1.2803
 8180TIP3    H224482   7.939   6.565   3.358  3.0471  0.6586  0.4252
 8181TIP3   OH224483   0.115   6.031   5.830 -0.1894 -0.1833 -0.1130
 8181TIP3    H124484   0.030   6.009   5.792 -0.3574  1.1170 -0.5184
 8181TIP3    H224485   0.154   6.092   5.768  1.7212 -1.9739 -0.6994
 8182TIP3   OH224486   2.930   4.540   5.942  0.0616 -0.2066  0.0146
 8182TIP3    H124487   2.852   4.589   5.968 -0.3655 -0.5270 -0.6421
 8182TIP3    H224488   2.986   4.606   5.901  0.4674  0.1730  1.1762
 8183TIP3   OH224489   1.233   5.643   4.863  0.2660 -1.0100  0.2023
 8183TIP3    H124490   1.277   5.585   4.926  0.0503 -0.9953  0.3661
 8183TIP3    H224491   1.140   5.623   4.873  0.2445 -1.1136 -0.2170
 8184TIP3   OH224492   1.258   6.193   4.728 -0.1684  0.2412 -0.1605
 8184TIP3    H124493   1.233   6.132   4.659  0.1113  0.0711 -0.1148
 8184TIP3    H224494   1.326   6.147   4.777 -0.9177  0.0524  0.7080
 8185TIP3   OH224495   4.525   0.063   5.605  0.1076  0.3921 -1.1550
 8185TIP3    H124496   4.605   0.116   5.593  1.1987 -0.3804  2.2775
 8185TIP3    H224497   4.550  -0.024   5.573 -0.0484  0.6420 -1.9860
 8186TIP3   OH224498   8.481   5.137   4.878  0.3504 -0.0390  0.4902
 8186TIP3    H124499   8.404   5.100   4.836  0.6192  1.1502 -1.0739
 8186TIP3    H224500   8.555   5.107   4.825  0.8898 -0.3344  1.3883
 8187TIP3   OH224501   7.752   5.390   4.347  0.4844  0.2463  0.2700
 8187TIP3    H124502   7.664   5.386   4.308  0.7164 -1.4094 -0.1372
 8187TIP3    H224503   7.811   5.390   4.272  0.8606 -0.0138  0.5646
 8188TIP3   OH224504   1.203   5.715   6.163 -0.4493 -0.0294 -0.4346
 8188TIP3    H124505   1.261   5.723   6.238 -0.2291 -1.6896 -0.4088
 8188TIP3    H224506   1.172   5.805   6.146  2.0238  0.8673 -0.3995
 8189TIP3   OH224507   1.715   3.923   3.330  0.5305 -0.4598  0.8352
 8189TIP3    H124508   1.722   3.975   3.411 -1.1007  0.1441  0.6167
 8189TIP3    H224509   1.805   3.902   3.307  1.1571  1.2781  1.5936
 8190TIP3   OH224510   0.758   3.850   6.512  0.3459  0.1158 -0.0048
 8190TIP3    H124511   0.692   3.840   6.443  0.6990 -1.4029 -0.1554
 8190TIP3    H224512   0.735   3.931   6.557 -0.7521  0.3584 -0.9936
 8191TIP3   OH224513   0.263   5.204   6.477  0.2588 -0.2279 -0.0284
 8191TIP3    H124514   0.329   5.237   6.416  0.0295 -1.3966 -0.9481
 8191TIP3    H224515   0.296   5.226   6.564  1.3944  0.0200 -0.5196
 8192TIP3   OH224516   1.735   4.935   3.998 -0.3561 -0.2275  0.6687
 8192TIP3    H124517   1.773   4.857   3.958  0.6368  0.4146  0.3640
 8192TIP3    H224518   1.667   4.963   3.936  0.9878  0.6028 -0.4494
 8193TIP3   OH224519   0.415   6.289   5.163 -0.2257  0.2484  0.8199
 8193TIP3    H124520   0.423   6.260   5.072 -1.0944  1.5682  0.3057
 8193TIP3    H224521   0.505   6.288   5.196 -0.0373 -1.3847  0.3286
 8194TIP3   OH224522   7.468   6.352   5.670 -0.2179  0.1213  0.1563
 8194TIP3    H124523   7.420   6.427   5.635 -1.1645 -1.0839 -1.2358
 8194TIP3    H224524   7.407   6.279   5.661  2.2496 -1.7089 -2.7983
 8195TIP3   OH224525   0.182   5.429   5.725 -0.7752 -0.2755 -0.3419
 8195TIP3    H124526   0.139   5.462   5.804 -0.5234  0.1786 -0.3918
 8195TIP3    H224527   0.275   5.440   5.741 -0.7052 -0.5775 -0.5322
 8196TIP3   OH224528   6.144   2.875   0.178  0.0725 -0.7468 -0.4731
 8196TIP3    H124529   6.192   2.881   0.095 -0.8471 -1.1773 -1.0474
 8196TIP3    H224530   6.054   2.853   0.152  0.0063 -1.9132  0.6858
 8197TIP3   OH224531   3.217   5.247   5.717 -0.3662 -0.3392  0.2496
 8197TIP3    H124532   3.151   5.238   5.649  0.1499  0.5432 -0.3641
 8197TIP3    H224533   3.256   5.333   5.703  2.1222 -1.5342 -0.4890
 8198TIP3   OH224534   8.450   4.487   3.232  0.1105 -0.1071  0.1821
 8198TIP3    H124535   8.369   4.471   3.183 -0.6041  1.1481  0.9210
 8198TIP3    H224536   8.490   4.562   3.188  0.5670 -0.3424  0.1924
 8199TIP3   OH224537   1.675   5.186   5.534 -0.5305 -0.1809  0.0060
 8199TIP3    H124538   1.587   5.176   5.496 -1.0937 -1.8725  1.6351
 8199TIP3    H224539   1.735   5.173   5.460 -1.6286 -0.6367 -0.8232
 8200TIP3   OH224540   0.336   6.528   4.349  0.3694 -0.3966  0.5157
 8200TIP3    H124541   0.340   6.603   4.408 -0.4844 -0.1650  0.2913
 8200TIP3    H224542   0.392   6.462   4.390  0.5878  0.1200  1.0606
 8201TIP3   OH224543   7.081   6.809   1.794 -0.4470 -0.1736  0.3459
 8201TIP3    H124544   7.147   6.866   1.833 -0.3730 -0.1953  0.2544
 8201TIP3    H224545   6.997   6.846   1.821 -0.4207  0.5765 -0.5464
 8202TIP3   OH224546   0.896   6.225   4.575 -0.4820  0.1571 -0.5609
 8202TIP3    H124547   0.938   6.141   4.558  2.2758  1.4484 -0.4222
 8202TIP3    H224548   0.842   6.241   4.497 -0.0254 -1.1376 -1.1536
 8203TIP3   OH224549   8.105   5.320   5.864 -0.3262  0.0862 -0.2609
 8203TIP3    H124550   8.031   5.376   5.841  0.0619  0.6556 -0.1397
 8203TIP3    H224551   8.181   5.363   5.824 -0.0128 -0.3006 -0.0853
 8204TIP3   OH224552   8.398   5.446   4.757 -0.3749 -0.1577 -0.1681
 8204TIP3    H124553   8.481   5.492   4.745  1.4336 -3.5939 -1.3367
 8204TIP3    H224554   8.388   5.441   4.852  1.6877 -1.2654  0.0239
 8205TIP3   OH224555   5.894   2.061   0.875 -0.1074 -0.3737  0.1548
 8205TIP3    H124556   5.875   1.978   0.918 -0.3429 -0.7601 -0.6893
 8205TIP3    H224557   5.848   2.127   0.927 -0.6868 -0.8752  0.2719
 8206TIP3   OH224558   1.217   4.099   4.459 -0.0621  0.0693  0.0553
 8206TIP3    H124559   1.124   4.081   4.473  0.2348 -2.2886 -0.7782
 8206TIP3    H224560   1.222   4.132   4.369 -0.1090  0.1677  0.0897
 8207TIP3   OH224561   0.738   5.331   2.512 -0.5739 -0.3749  0.5479
 8207TIP3    H124562   0.803   5.326   2.441 -0.0946 -1.7867  1.0711
 8207TIP3    H224563   0.655   5.314   2.468 -0.8395  3.0461 -0.4148
 8208TIP3   OH224564   1.518   4.989   3.784  0.2456 -0.1850  0.0242
 8208TIP3    H124565   1.441   5.045   3.771  1.0442  1.5148  2.3341
 8208TIP3    H224566   1.561   4.987   3.698 -1.9958 -0.6150 -1.1293
 8209TIP3   OH224567   6.727   5.066   5.150  0.1187 -0.0157  0.1570
 8209TIP3    H124568   6.793   5.015   5.102 -0.5173 -1.7255  1.0587
 8209TIP3    H224569   6.768   5.151   5.163  2.5974 -1.3745  1.6248
 8210TIP3   OH224570   7.306   4.694   5.787  0.2341  0.2359  0.1889
 8210TIP3    H124571   7.397   4.712   5.808  1.4914 -2.0480 -2.8545
 8210TIP3    H224572   7.292   4.603   5.815 -1.7984  1.2342  2.5918
 8211TIP3   OH224573   7.735   6.017   5.905 -0.1189 -0.1285  0.5506
 8211TIP3    H124574   7.819   5.986   5.940 -0.4437 -0.8448  0.6983
 8211TIP3    H224575   7.681   5.938   5.898 -0.2549  0.0810 -1.0146
 8212TIP3   OH224576   1.454   3.013   4.246  0.4751  0.3177  0.1273
 8212TIP3    H124577   1.366   2.999   4.282  0.5471  2.4761  1.1990
 8212TIP3    H224578   1.507   3.038   4.321  1.6380  0.6204 -0.7890
 8213TIP3   OH224579   7.404   3.609   5.521 -0.2951  0.6022  0.7625
 8213TIP3    H124580   7.412   3.517   5.547 -0.9619  0.8048  1.7136
 8213TIP3    H224581   7.366   3.652   5.598 -1.7090  1.3255 -0.3355
 8214TIP3   OH224582   7.823   6.330   5.228  0.3972  0.2231 -0.1997
 8214TIP3    H124583   7.800   6.237   5.229 -0.5766  0.4319 -1.3437
 8214TIP3    H224584   7.739   6.376   5.221  0.9294  1.1471 -0.7075
 8215TIP3   OH224585   0.775   5.143   4.510 -0.4806  0.1998 -0.1081
 8215TIP3    H124586   0.795   5.049   4.507 -0.2424  0.2455  0.1098
 8215TIP3    H224587   0.811   5.173   4.593 -0.0569  0.6052 -0.4405
 8216TIP3   OH224588   1.215   6.454   2.745 -0.4517 -0.1530 -0.1755
 8216TIP3    H124589   1.133   6.500   2.764 -0.1879  0.3587 -0.2675
 8216TIP3    H224590   1.212   6.438   2.650  0.4169  1.5693 -0.5178
 8217TIP3   OH224591   1.369   8.009   6.899 -0.6168  0.6338 -0.3114
 8217TIP3    H124592   1.399   7.942   6.961 -1.9725  1.7146  1.5713
 8217TIP3    H224593   1.371   7.966   6.814  1.0499 -0.9706  0.5120
 8218TIP3   OH224594   0.274   5.458   4.725 -0.3696  0.1376 -0.2265
 8218TIP3    H124595   0.356   5.507   4.728  2.3259 -3.9316 -2.0183
 8218TIP3    H224596   0.292   5.378   4.773 -3.0480 -1.1751 -1.2957
 8219TIP3   OH224597   1.082   6.054   3.664  0.0579 -0.0838  0.2280
 8219TIP3    H124598   1.072   6.096   3.579  0.2918 -1.9684 -0.7596
 8219TIP3    H224599   0.993   6.040   3.695 -0.0393 -0.3117 -0.1619
 8220TIP3   OH224600   2.239   6.644   2.458 -0.8842 -0.0762  0.1638
 8220TIP3    H124601   2.149   6.674   2.440 -1.0206  0.4053  1.5742
 8220TIP3    H224602   2.258   6.678   2.545  0.7934  0.0922 -0.2573
 8221TIP3   OH224603   0.437   5.806   3.775  0.0839  0.0227 -0.1905
 8221TIP3    H124604   0.449   5.715   3.802  0.4107  0.9136  2.8664
 8221TIP3    H224605   0.346   5.811   3.746 -0.6878 -0.7408  2.0233
 8222TIP3   OH224606   1.768   6.079   4.244 -0.8670  0.4757 -0.6354
 8222TIP3    H124607   1.678   6.109   4.256 -1.0700 -0.4853  0.2588
 8222TIP3    H224608   1.760   6.003   4.185 -0.6949  0.0991 -0.1749
 8223TIP3   OH224609   5.721   0.579   0.258  0.0324  0.0593 -0.2615
 8223TIP3    H124610   5.810   0.612   0.242 -0.0415  1.5433  2.2365
 8223TIP3    H224611   5.724   0.488   0.226  1.8271  0.7276 -2.1207
 8224TIP3   OH224612   8.572   5.980   5.578 -0.1369 -0.1400  0.9633
 8224TIP3    H124613   8.589   6.066   5.541  0.9302 -0.3291  0.9975
 8224TIP3    H224614   8.637   5.923   5.537 -0.1045 -0.7005  1.7830
 8225TIP3   OH224615   1.442   7.200   6.424 -0.3357 -0.7579 -0.3525
 8225TIP3    H124616   1.472   7.109   6.434 -0.1252 -0.6542 -0.0329
 8225TIP3    H224617   1.347   7.194   6.433 -0.4574 -1.1366 -1.7119
 8226TIP3   OH224618   8.367   5.701   5.453 -0.3569 -0.1878 -0.7427
 8226TIP3    H124619   8.450   5.733   5.486  0.1898  0.9898 -3.1800
 8226TIP3    H224620   8.389   5.653   5.373 -1.9536 -0.2635 -1.1623
 8227TIP3   OH224621   0.073   5.100   6.759 -0.4123 -0.3987 -0.2638
 8227TIP3    H124622   0.019   5.063   6.829  0.1033 -2.1544 -0.7570
 8227TIP3    H224623   0.155   5.123   6.802 -0.6726  0.0021  0.0185
 8228TIP3   OH224624   0.827   6.016   3.774 -0.0364  0.0932 -0.8214
 8228TIP3    H124625   0.887   6.016   3.849  0.9302 -0.2974 -1.5809
 8228TIP3    H224626   0.740   6.013   3.813  0.3617  2.5117  0.3729
 8229TIP3   OH224627   6.489   4.552   6.298  0.3296 -0.1467  0.7289
 8229TIP3    H124628   6.501   4.505   6.216 -0.9670  0.9756 -0.1295
 8229TIP3    H224629   6.553   4.514   6.358 -1.4066 -3.7771  0.3970
 8230TIP3   OH224630   0.207   6.277   4.714  0.3690  0.1722  0.2992
 8230TIP3    H124631   0.136   6.249   4.657  0.6680 -0.6409  0.3242
 8230TIP3    H224632   0.170   6.277   4.802 -0.1152  1.5018  0.1084
 8231TIP3   OH224633   1.180   6.975   5.398  0.2986 -0.2287  0.0459
 8231TIP3    H124634   1.160   7.041   5.465  0.2042  0.5207 -0.7198
 8231TIP3    H224635   1.270   6.949   5.417 -0.2740 -1.2300  1.4799
 8232TIP3   OH224636   0.161   3.086   4.551 -0.0913 -0.2133 -0.5160
 8232TIP3    H124637   0.255   3.096   4.566 -0.0075 -1.0167 -0.4421
 8232TIP3    H224638   0.153   3.074   4.457 -0.2964  1.5894 -0.7372
 8233TIP3   OH224639   7.530   1.565   6.449 -0.6661  0.1218 -0.1826
 8233TIP3    H124640   7.521   1.507   6.373 -2.1858 -1.1697  0.9522
 8233TIP3    H224641   7.440   1.584   6.475 -0.1993  2.9276 -0.4509
 8234TIP3   OH224642   6.849   5.579   4.154 -0.2805  0.3672 -0.3976
 8234TIP3    H124643   6.765   5.574   4.200  0.0688 -0.2711  0.1794
 8234TIP3    H224644   6.825   5.585   4.061 -0.9676  0.4359 -0.2167
 8235TIP3   OH224645   8.432   4.191   5.548 -0.2919  0.0549  0.0459
 8235TIP3    H124646   8.442   4.283   5.570  0.5181  0.1631 -0.7141
 8235TIP3    H224647   8.337   4.178   5.538 -0.5001  0.4978  1.3828
 8236TIP3   OH224648   7.449   4.634   5.098 -0.3952  0.1384  0.2684
 8236TIP3    H124649   7.514   4.701   5.080 -0.7045  0.2402 -0.4883
 8236TIP3    H224650   7.438   4.636   5.193  0.1520  0.6340  0.3233
 8237TIP3   OH224651   6.855   4.363   4.730  0.8349 -0.0943 -0.2292
 8237TIP3    H124652   6.879   4.456   4.735 -0.0388  0.0598  1.5759
 8237TIP3    H224653   6.759   4.364   4.738  0.6966 -1.0673 -1.6358
 8238TIP3   OH224654   5.394   0.952   1.868  0.0020 -0.1738  0.0546
 8238TIP3    H124655   5.484   0.963   1.900  0.7676  0.4943 -2.2397
 8238TIP3    H224656   5.398   0.876   1.810 -1.1196 -0.6963  0.6527
 8239TIP3   OH224657   8.457   5.295   4.533  0.3665  0.1827 -0.0147
 8239TIP3    H124658   8.438   5.351   4.609 -2.2314  1.5311 -1.5869
 8239TIP3    H224659   8.506   5.352   4.473  0.5272 -0.2259 -0.2714
 8240TIP3   OH224660   1.837   4.876   2.013 -0.0594 -0.6566 -0.1686
 8240TIP3    H124661   1.901   4.848   2.078  0.4958 -0.3323 -0.5587
 8240TIP3    H224662   1.880   4.949   1.968 -0.9080 -0.1162 -0.1086
 8241TIP3   OH224663   0.213   5.358   4.460 -0.1459 -0.3271 -0.8627
 8241TIP3    H124664   0.212   5.264   4.444 -0.0715 -0.2901 -1.0898
 8241TIP3    H224665   0.225   5.367   4.555 -1.0353 -0.5581 -0.7294
 8242TIP3   OH224666   7.695   6.194   2.894  0.2667 -0.1641  1.1966
 8242TIP3    H124667   7.782   6.230   2.876  0.2793 -0.6901  0.1814
 8242TIP3    H224668   7.691   6.114   2.841 -0.9449  0.0070  1.0245
 8243TIP3   OH224669   3.919   4.470   0.620 -0.0437  0.0895 -0.3417
 8243TIP3    H124670   3.904   4.436   0.532  2.1078  0.4423 -0.8855
 8243TIP3    H224671   3.907   4.395   0.678  0.1731 -0.5324 -1.0971
 8244TIP3   OH224672   8.162   5.081   5.933  0.2108 -0.4299 -0.0178
 8244TIP3    H124673   8.137   5.169   5.906  2.6667  0.4531  0.4109
 8244TIP3    H224674   8.084   5.046   5.976 -1.1029  1.1693 -1.0311
 8245TIP3   OH224675   8.124   5.948   4.185  0.6415 -0.1153  0.0046
 8245TIP3    H124676   8.088   6.031   4.154 -1.8692 -1.0005  0.3777
 8245TIP3    H224677   8.185   5.921   4.117  0.5646  1.4363 -0.6950
 8246TIP3   OH224678   2.412   5.463   3.727  0.1460  0.1087  0.4852
 8246TIP3    H124679   2.476   5.392   3.718  0.9504  0.9666 -0.6146
 8246TIP3    H224680   2.327   5.419   3.727  0.6360 -0.8432 -0.3037
 8247TIP3   OH224681   1.945   3.229   4.743  0.2207  0.1443 -0.0545
 8247TIP3    H124682   2.008   3.287   4.700 -0.1557  0.5276 -0.0875
 8247TIP3    H224683   1.917   3.169   4.674 -0.1244  0.5412 -0.2637
 8248TIP3   OH224684   7.148   5.126   4.998 -0.1254 -0.9736 -0.4612
 8248TIP3    H124685   7.169   5.203   4.945 -1.2768 -0.4354 -0.1413
 8248TIP3    H224686   7.230   5.077   5.001  0.6219  0.2281 -0.6902
 8249TIP3   OH224687   6.771   0.694   0.461  0.1500  0.4686  0.4249
 8249TIP3    H124688   6.719   0.639   0.403 -1.3009  2.2703 -0.0225
 8249TIP3    H224689   6.857   0.699   0.419 -0.2764  0.0740 -0.5026
 8250TIP3   OH224690   2.387   6.035   4.751  0.4150  0.5326  0.3743
 8250TIP3    H124691   2.346   5.973   4.810  3.2283 -1.2160  0.5978
 8250TIP3    H224692   2.343   6.021   4.667  0.3567 -1.1076  0.6622
 8251TIP3   OH224693   7.706   6.000   4.009  0.3191  0.4945  0.0625
 8251TIP3    H124694   7.714   6.028   4.100 -0.2251  2.2824 -0.4216
 8251TIP3    H224695   7.718   5.905   4.012 -0.9927  0.3719  2.1547
 8252TIP3   OH224696   7.361   6.633   5.883  0.3138 -0.2878  0.1548
 8252TIP3    H124697   7.271   6.644   5.850  0.6362  1.6843 -0.1385
 8252TIP3    H224698   7.416   6.667   5.813  1.3554 -2.1787  0.0294
 8253TIP3   OH224699   7.896   2.840   5.047 -0.4172  0.0585  0.2825
 8253TIP3    H124700   7.839   2.802   5.113 -0.8413 -1.4655 -0.9378
 8253TIP3    H224701   7.885   2.784   4.970  0.9699  1.0972 -0.7031
 8254TIP3   OH224702   5.425   0.836   0.928  0.5333  0.2324  0.0444
 8254TIP3    H124703   5.330   0.828   0.925  0.5449 -0.1534  0.6411
 8254TIP3    H224704   5.448   0.823   1.020  1.1066  1.0301  0.0219
 8255TIP3   OH224705   0.371   4.840   5.615 -0.8114 -0.3709 -0.2855
 8255TIP3    H124706   0.305   4.780   5.649 -0.9821 -0.8597 -1.4521
 8255TIP3    H224707   0.333   4.875   5.534  0.0082 -0.0219 -0.5311
 8256TIP3   OH224708   8.036   6.078   4.876  0.1440  0.0192 -0.3617
 8256TIP3    H124709   8.097   6.043   4.811  0.7026  0.1898  0.0760
 8256TIP3    H224710   8.024   6.008   4.939 -0.8994 -0.3824 -0.9827
 8257TIP3   OH224711   1.171   6.208   2.870 -0.7316  0.2348  0.3602
 8257TIP3    H124712   1.200   6.290   2.831 -1.3085  1.2120  1.8967
 8257TIP3    H224713   1.163   6.147   2.797 -1.8815  2.0146 -1.0237
 8258TIP3   OH224714   7.136   5.189   5.636 -0.6938  0.8254  0.4546
 8258TIP3    H124715   7.095   5.133   5.702 -1.5284  1.9878  0.9333
 8258TIP3    H224716   7.112   5.149   5.553 -2.1516  1.0399  0.7597
 8259TIP3   OH224717   1.406   6.873   5.890 -0.0298 -0.1686 -0.4617
 8259TIP3    H124718   1.439   6.825   5.815 -0.2580 -1.6263  0.3536
 8259TIP3    H224719   1.392   6.962   5.858  4.3258  0.4726 -0.9790
 8260TIP3   OH224720   1.009   6.314   3.975 -0.1015 -0.6318  0.3454
 8260TIP3    H124721   0.995   6.313   3.881 -0.5289  1.1012  0.3745
 8260TIP3    H224722   0.935   6.363   4.010  0.8528  0.0460  1.4443
 8261TIP3   OH224723   3.128   6.034   3.621  0.2144 -0.4523  0.1166
 8261TIP3    H124724   3.101   6.046   3.712  0.1766 -1.0606  0.1855
 8261TIP3    H224725   3.149   5.941   3.614  1.3700 -0.1753 -0.1828
 8262TIP3   OH224726   1.532   3.759   4.961 -0.0759 -0.7559 -0.4130
 8262TIP3    H124727   1.547   3.759   5.055  1.6948  0.5575 -0.6631
 8262TIP3    H224728   1.457   3.817   4.948  1.3331  1.2219 -0.0022
 8263TIP3   OH224729   0.814   6.805   4.367  0.0338  0.4780 -0.3657
 8263TIP3    H124730   0.807   6.893   4.330 -3.0650 -0.1817 -1.4555
 8263TIP3    H224731   0.755   6.752   4.314 -0.0967 -1.7316  1.9179
 8264TIP3   OH224732   1.839   4.362   5.734  0.3709 -0.1497 -0.2950
 8264TIP3    H124733   1.895   4.361   5.812 -1.6629  0.6846  1.2167
 8264TIP3    H224734   1.890   4.315   5.668  2.3159 -0.5125  1.3967
 8265TIP3   OH224735   1.144   4.409   3.563  0.6392 -0.4292 -1.0321
 8265TIP3    H124736   1.069   4.461   3.534 -0.2615 -0.7954  0.5890
 8265TIP3    H224737   1.122   4.319   3.538  1.2417 -0.3203 -1.9516
 8266TIP3   OH224738   0.554   4.537   3.608 -0.7169 -0.0458 -0.0359
 8266TIP3    H124739   0.551   4.487   3.690 -0.4519 -0.6886 -0.4156
 8266TIP3    H224740   0.462   4.554   3.587 -0.7549  1.9153  1.4666
 8267TIP3   OH224741   3.392   4.810   5.736  0.1259  0.3636 -0.4757
 8267TIP3    H124742   3.451   4.758   5.792 -0.4098  0.1558 -0.1002
 8267TIP3    H224743   3.424   4.794   5.647  1.1328  0.8889 -0.2091
 8268TIP3   OH224744   0.748   5.494   5.248  1.1625  0.2646 -0.4222
 8268TIP3    H124745   0.780   5.571   5.293  2.9718 -0.0161 -1.1833
 8268TIP3    H224746   0.826   5.441   5.232  0.2712 -0.6394 -1.9540
 8269TIP3   OH224747   0.817   4.720   6.042  0.3341 -0.1904 -0.3011
 8269TIP3    H124748   0.793   4.766   5.962 -1.3135 -1.8072 -0.7521
 8269TIP3    H224749   0.910   4.741   6.055 -0.1826  2.5952 -0.9079
 8270TIP3   OH224750   3.008   5.301   5.368  0.1397  0.0044  0.5106
 8270TIP3    H124751   3.068   5.376   5.377  0.7482  0.0743 -3.1811
 8270TIP3    H224752   3.059   5.226   5.400  1.7991  0.2677 -1.3716
 8271TIP3   OH224753   1.269   5.082   3.652  0.1304  0.2048  0.0735
 8271TIP3    H124754   1.221   5.014   3.605  2.4732 -1.0382 -0.6206
 8271TIP3    H224755   1.300   5.141   3.583  0.8995  0.1252  0.3445
 8272TIP3   OH224756   3.179   7.019   6.156  0.4061 -0.5509 -0.0329
 8272TIP3    H124757   3.186   6.923   6.158 -2.0418 -0.7691 -0.6271
 8272TIP3    H224758   3.230   7.045   6.080  0.3619 -1.4485 -0.3816
 8273TIP3   OH224759   6.961   0.389   0.457 -0.3310 -0.1010 -0.0685
 8273TIP3    H124760   6.959   0.448   0.381 -2.3803 -0.9731 -0.7101
 8273TIP3    H224761   6.993   0.306   0.422 -0.1966 -0.1884  0.2586
 8274TIP3   OH224762   1.281   4.729   3.547  0.1901 -0.2485  0.2735
 8274TIP3    H124763   1.258   4.636   3.544 -0.2715 -0.1335  0.2277
 8274TIP3    H224764   1.301   4.746   3.639 -0.0266 -0.3225  0.3356
 8275TIP3   OH224765   4.807   1.764   0.445  0.2786  0.1562 -0.7065
 8275TIP3    H124766   4.883   1.736   0.497 -0.8865 -2.6136 -0.3922
 8275TIP3    H224767   4.759   1.823   0.503  0.4370 -0.7234  0.3357
 8276TIP3   OH224768   0.071   4.857   4.915 -0.2286 -0.1046  0.0125
 8276TIP3    H124769   0.116   4.854   4.831 -2.1021 -1.3374 -0.9783
 8276TIP3    H224770   0.010   4.931   4.907  1.0471  1.0846  1.0668
 8277TIP3   OH224771   8.463   6.294   3.556 -0.1597  0.3396 -0.1457
 8277TIP3    H124772   8.549   6.335   3.548  0.1534 -0.1866  0.4192
 8277TIP3    H224773   8.422   6.339   3.629 -0.2447  0.3928 -0.2275
 8278TIP3   OH224774   7.362   4.725   0.030  0.5763 -0.6557 -0.5150
 8278TIP3    H124775   7.301   4.793   0.004  1.2244 -0.5877 -1.8978
 8278TIP3    H224776   7.319   4.680   0.102  0.1402  1.1980  0.3925
 8279TIP3   OH224777   0.482   4.402   6.906 -0.8870  0.1654 -0.1293
 8279TIP3    H124778   0.445   4.423   6.992 -0.8039  2.4514 -0.6387
 8279TIP3    H224779   0.527   4.481   6.879 -0.5110 -0.6972 -2.0974
 8280TIP3   OH224780   1.405   7.338   6.771  0.2512 -0.0273  0.0277
 8280TIP3    H124781   1.458   7.350   6.692  0.4591 -1.6658 -0.1003
 8280TIP3    H224782   1.342   7.270   6.747 -0.6727  0.5465  0.8003
 8281TIP3   OH224783   7.453   7.812   4.113  0.0163  0.1224 -0.2787
 8281TIP3    H124784   7.472   7.811   4.206  0.2732  0.3384 -0.3289
 8281TIP3    H224785   7.361   7.787   4.107 -0.1328  0.5876  0.0657
 8282TIP3   OH224786   1.570   4.537   3.943  0.1163 -0.0997 -0.1211
 8282TIP3    H124787   1.549   4.506   4.031  0.5559  0.0464  0.0359
 8282TIP3    H224788   1.628   4.471   3.907  0.1211 -0.0436 -0.2154
 8283TIP3   OH224789   8.548   4.871   5.795  0.2211  0.3667  0.4678
 8283TIP3    H124790   8.600   4.924   5.855  0.7090  0.7676 -0.2911
 8283TIP3    H224791   8.457   4.894   5.815  0.3883  0.5823  0.9698
 8284TIP3   OH224792   2.133   4.709   4.723 -0.2607  0.0036 -0.2433
 8284TIP3    H124793   2.118   4.710   4.818 -1.2896  0.8654 -0.4167
 8284TIP3    H224794   2.125   4.800   4.696  1.6456 -0.0090 -0.9271
 8285TIP3   OH224795   0.008   6.400   6.661 -0.1063 -0.0405  0.3496
 8285TIP3    H124796  -0.059   6.452   6.617 -1.0663 -1.8317 -0.3585
 8285TIP3    H224797   0.086   6.410   6.607 -0.8966 -1.1212 -1.0205
 8286TIP3   OH224798   7.683   5.706   4.049  0.1594 -0.6396  0.2023
 8286TIP3    H124799   7.632   5.725   4.127 -1.8513  0.4569 -1.3161
 8286TIP3    H224800   7.643   5.627   4.013  0.8839 -0.9693  0.1116
 8287TIP3   OH224801   0.883   5.086   4.054 -0.1845  0.6220  0.2657
 8287TIP3    H124802   0.978   5.094   4.048 -0.1912  0.5692  0.0784
 8287TIP3    H224803   0.857   5.153   4.117 -0.3814  2.9784 -2.2321
 8288TIP3   OH224804   0.559   4.420   3.878  0.1127 -0.2885 -0.0604
 8288TIP3    H124805   0.486   4.383   3.927  0.4029 -0.2134  0.4313
 8288TIP3    H224806   0.588   4.495   3.930  1.7298 -1.4163  0.7167
 8289TIP3   OH224807   0.283   4.626   3.536 -0.2808  0.4311 -0.4024
 8289TIP3    H124808   0.224   4.554   3.557  1.0238 -0.3493  0.7127
 8289TIP3    H224809   0.247   4.701   3.583 -0.1566 -0.1348  0.6071
 8290TIP3   OH224810   2.636   4.945   6.024  0.7196  0.5348 -0.1034
 8290TIP3    H124811   2.700   5.015   6.020  0.1879  0.9410 -1.6886
 8290TIP3    H224812   2.574   4.964   5.953  0.1718 -1.1411 -0.1013
 8291TIP3   OH224813   3.985   0.054   3.709  0.0113 -0.4494 -0.3009
 8291TIP3    H124814   4.013   0.126   3.652 -0.7659  0.3023  0.2690
 8291TIP3    H224815   4.063   0.032   3.760 -0.3346  1.4397  1.0715
 8292TIP3   OH224816   0.237   6.039   5.147  0.4917 -0.3345  0.3097
 8292TIP3    H124817   0.291   6.100   5.096 -0.1478 -0.7439 -0.8661
 8292TIP3    H224818   0.300   5.979   5.186  1.0102  0.1260  0.1962
 8293TIP3   OH224819   3.007   6.162   4.612 -0.0005  0.4433  0.2533
 8293TIP3    H124820   2.928   6.216   4.620 -0.4296 -0.0141 -0.8161
 8293TIP3    H224821   2.974   6.073   4.599  0.6437  0.5135 -2.1881
 8294TIP3   OH224822   0.628   5.741   6.913  0.5315  0.2308 -0.0791
 8294TIP3    H124823   0.567   5.810   6.888  1.8447  1.9294  1.3035
 8294TIP3    H224824   0.572   5.663   6.924 -0.8842  0.8978 -2.1389
 8295TIP3   OH224825   5.430   0.159   6.448 -0.4427  0.5311  0.2150
 8295TIP3    H124826   5.514   0.123   6.476 -1.1149 -1.4279 -0.2251
 8295TIP3    H224827   5.439   0.171   6.353 -0.5054  0.7748  0.2384
 8296TIP3   OH224828   0.163   5.345   3.462 -0.5086 -0.1374 -0.1746
 8296TIP3    H124829   0.106   5.374   3.391 -1.7693 -1.1797  0.3887
 8296TIP3    H224830   0.145   5.406   3.533 -1.2331 -0.7092  0.1386
 8297TIP3   OH224831   1.843   4.661   5.839 -0.5390  0.4480 -0.1500
 8297TIP3    H124832   1.858   4.577   5.883 -1.4309  0.3066 -0.0877
 8297TIP3    H224833   1.822   4.638   5.749  0.7486  0.7030 -0.5110
 8298TIP3   OH224834   2.703   4.925   2.882  0.1889  0.3494 -0.6612
 8298TIP3    H124835   2.773   4.874   2.921 -0.0150  0.9621  0.5655
 8298TIP3    H224836   2.626   4.868   2.886  0.1687  0.4092 -0.1420
 8299TIP3   OH224837   1.859   5.940   3.496 -0.2081 -0.2481  0.1576
 8299TIP3    H124838   1.784   5.881   3.501 -0.8857  0.7103  1.5294
 8299TIP3    H224839   1.868   5.975   3.585  1.0432  0.6390 -0.3107
 8300TIP3   OH224840   2.035   5.237   3.405  0.4351  0.4556  0.4835
 8300TIP3    H124841   1.991   5.314   3.439 -0.1847  0.0825  0.5288
 8300TIP3    H224842   2.126   5.246   3.434  0.3076  1.0361  0.7015
 8301TIP3   OH224843   5.383   7.892   4.896 -0.3483  0.0100  0.0900
 8301TIP3    H124844   5.459   7.932   4.937  0.0793 -0.1601 -0.5128
 8301TIP3    H224845   5.324   7.964   4.877  0.7003  0.4519 -1.5861
 8302TIP3   OH224846   2.246   6.411   5.182  0.4173 -0.5886 -0.2470
 8302TIP3    H124847   2.247   6.347   5.111  1.8871 -1.4892  0.5842
 8302TIP3    H224848   2.285   6.490   5.144  0.6920 -0.8956 -0.6031
 8303TIP3   OH224849   4.788   1.943   0.195 -0.2208  0.0990 -0.0470
 8303TIP3    H124850   4.785   1.892   0.276  0.8454  0.2239  0.0728
 8303TIP3    H224851   4.755   1.883   0.128 -1.3648  0.0832  0.5192
 8304TIP3   OH224852   1.296   6.266   3.297  0.6153  0.6570 -0.5407
 8304TIP3    H124853   1.231   6.278   3.228 -0.4097 -0.8539  0.1613
 8304TIP3    H224854   1.263   6.317   3.370  0.2403 -0.0774 -0.1978
 8305TIP3   OH224855   0.335   5.286   5.272  0.2578  0.6484 -0.4203
 8305TIP3    H124856   0.381   5.209   5.238  1.3041  0.7506  0.7360
 8305TIP3    H224857   0.398   5.327   5.330 -0.5668  1.9796 -0.4613
 8306TIP3   OH224858   1.147   4.957   4.396 -0.2957  0.6569 -0.2381
 8306TIP3    H124859   1.079   4.993   4.339 -2.1620 -0.4313  1.2215
 8306TIP3    H224860   1.182   5.033   4.443 -2.1051  0.9684  0.6424
 8307TIP3   OH224861   2.053   5.713   4.269  0.0223  0.1747 -0.2383
 8307TIP3    H124862   2.094   5.721   4.355  2.0342  0.5326 -1.1810
 8307TIP3    H224863   2.065   5.799   4.229 -0.4123 -0.1436 -1.0648
 8308TIP3   OH224864   4.929   1.652   1.176  0.0207  0.3182  0.2268
 8308TIP3    H124865   5.019   1.655   1.207  0.3276  2.0732 -0.7900
 8308TIP3    H224866   4.936   1.638   1.082 -0.6419  2.9483 -0.2736
 8309TIP3   OH224867   2.051   6.704   4.844 -0.2506  0.3259  0.1793
 8309TIP3    H124868   1.980   6.746   4.892 -1.2637  0.0211 -1.0306
 8309TIP3    H224869   2.130   6.746   4.877 -0.9761  0.6569  1.5554
 8310TIP3   OH224870   1.664   6.080   5.119  0.0847 -0.7098 -0.2700
 8310TIP3    H124871   1.698   6.105   5.033 -0.8625 -0.2026 -0.5080
 8310TIP3    H224872   1.612   6.156   5.146  0.0604 -1.0292  0.5781
 8311TIP3   OH224873   2.047   4.889   3.715 -0.4180 -0.8549  0.1022
 8311TIP3    H124874   1.987   4.842   3.773 -1.0164 -1.3496 -0.9067
 8311TIP3    H224875   2.047   4.839   3.634 -2.0080  1.4617 -1.4306
 8312TIP3   OH224876   2.311   5.921   3.416 -0.6260 -0.5004  0.2243
 8312TIP3    H124877   2.355   5.836   3.427 -1.3734 -0.9084  0.1396
 8312TIP3    H224878   2.367   5.970   3.356  0.1611 -0.6828  0.8065
 8313TIP3   OH224879   3.072   6.910   3.366 -0.2457  0.1575  0.6480
 8313TIP3    H124880   2.983   6.916   3.331  0.6948  2.1914 -1.5320
 8313TIP3    H224881   3.076   6.975   3.436 -0.2843  0.5930  0.2511
 8314TIP3   OH224882   0.681   4.911   4.152 -0.8199 -0.2150  0.1469
 8314TIP3    H124883   0.737   4.982   4.119 -0.9939 -0.9049 -1.6826
 8314TIP3    H224884   0.724   4.884   4.233  0.3400  0.6765 -0.1395
 8315TIP3   OH224885   2.356   7.193   5.135 -0.5074 -0.2537  0.2234
 8315TIP3    H124886   2.352   7.135   5.211 -2.1148 -1.0046 -0.4026
 8315TIP3    H224887   2.400   7.141   5.067  2.2958  0.9368  1.0367
 8316TIP3   OH224888   1.482   6.137   4.308 -0.0298 -0.0070  0.4090
 8316TIP3    H124889   1.404   6.092   4.274 -1.5606  2.6741  0.2236
 8316TIP3    H224890   1.455   6.168   4.395  1.9275 -1.7882  1.6873
 8317TIP3   OH224891   2.654   5.754   6.776 -0.6105  0.2013 -0.3916
 8317TIP3    H124892   2.722   5.820   6.771 -0.6106  0.1836 -0.6807
 8317TIP3    H224893   2.613   5.755   6.689  0.5329 -1.3820 -0.9643
 8318TIP3   OH224894   2.701   7.693   1.234 -0.0611 -0.8442 -0.4524
 8318TIP3    H124895   2.614   7.717   1.200  0.2335 -0.1982 -0.7743
 8318TIP3    H224896   2.689   7.607   1.272 -0.3560 -1.6961 -2.4071
 8319TIP3   OH224897   2.429   5.674   3.539  0.0893 -0.2063 -0.2292
 8319TIP3    H124898   2.410   5.615   3.612 -0.0848  1.0057  0.7227
 8319TIP3    H224899   2.523   5.663   3.524 -0.5930 -3.5462 -2.5960
 8320TIP3   OH224900   0.132   5.796   6.655  0.5083 -0.2444  0.1711
 8320TIP3    H124901   0.158   5.842   6.575  1.6385 -2.0113 -0.5252
 8320TIP3    H224902   0.160   5.854   6.726 -0.6322  1.4079 -0.6950
 8321TIP3   OH224903   1.455   4.305   5.033  0.2168 -0.2742 -0.3490
 8321TIP3    H124904   1.448   4.236   5.098 -1.5903 -0.4218 -0.6699
 8321TIP3    H224905   1.491   4.380   5.081  2.3512 -1.4624 -0.0401
 8322TIP3   OH224906   3.541   3.948   2.074 -1.1786  0.2583  0.6173
 8322TIP3    H124907   3.500   3.945   2.160 -1.8008  0.1987  0.3187
 8322TIP3    H224908   3.535   3.858   2.042 -1.2762  0.3600  0.3525
 8323TIP3   OH224909   6.215   0.201   3.942  0.0720 -0.1930 -0.0240
 8323TIP3    H124910   6.177   0.118   3.970 -1.0732  0.3977  0.2397
 8323TIP3    H224911   6.150   0.237   3.881  1.4448 -0.3764 -1.6484
 8324TIP3   OH224912   3.821   5.543   2.832  0.4090 -0.2387 -0.4856
 8324TIP3    H124913   3.838   5.463   2.882 -2.2574 -0.6511 -0.1921
 8324TIP3    H224914   3.755   5.590   2.882 -0.9229  0.2556 -2.6529
 8325TIP3   OH224915   1.433   7.658   4.025  0.8144 -0.1953  0.0199
 8325TIP3    H124916   1.473   7.668   3.939 -0.2891 -0.6053 -0.5525
 8325TIP3    H224917   1.417   7.564   4.033  0.9423 -0.1646  0.6893
 8326TIP3   OH224918   1.451   5.025   4.310  0.0218 -0.3103  0.6140
 8326TIP3    H124919   1.405   5.071   4.240  0.9971  0.3970  0.4232
 8326TIP3    H224920   1.411   5.058   4.390 -2.4787 -2.5994  0.3827
 8327TIP3   OH224921   1.661   5.923   3.001  0.1807  0.3030  0.0125
 8327TIP3    H124922   1.586   5.954   3.052 -0.6886 -1.6579 -0.0381
 8327TIP3    H224923   1.650   5.964   2.915  0.1371  1.4226  0.5429
 8328TIP3   OH224924   3.831   7.295   5.636  0.3035  0.3996  0.2184
 8328TIP3    H124925   3.803   7.212   5.676  0.1819  0.4521  0.2442
 8328TIP3    H224926   3.902   7.271   5.577 -0.5821  0.0983 -0.7355
 8329TIP3   OH224927   3.495   6.735   2.335 -0.1102 -0.3191 -0.3091
 8329TIP3    H124928   3.437   6.776   2.399  0.1558 -0.0801 -0.2189
 8329TIP3    H224929   3.452   6.749   2.251  0.3505  0.8305 -0.3690
 8330TIP3   OH224930   8.542   6.012   3.877 -0.4542  0.2922 -0.6859
 8330TIP3    H124931   8.480   5.994   3.807  0.7505  0.9749 -1.9546
 8330TIP3    H224932   8.628   6.015   3.833  0.5989 -1.5905  1.1687
 8331TIP3   OH224933   1.040   5.259   2.986 -0.1090  0.5398 -0.1074
 8331TIP3    H124934   0.954   5.219   3.000  0.7257 -1.6837 -1.1454
 8331TIP3    H224935   1.046   5.273   2.892  1.4439 -1.2175 -0.3050
 8332TIP3   OH224936   2.166   7.984   0.383 -0.6274 -0.0545  0.0382
 8332TIP3    H124937   2.151   8.002   0.476 -3.6484 -0.4437 -0.3434
 8332TIP3    H224938   2.158   8.069   0.341 -1.1034 -0.1587 -0.0823
 8333TIP3   OH224939   1.402   7.224   1.872  0.1511 -0.1855 -0.2904
 8333TIP3    H124940   1.320   7.231   1.920  0.2704 -1.3764  0.1069
 8333TIP3    H224941   1.442   7.311   1.879 -0.6079  0.1169  0.3511
 8334TIP3   OH224942   2.769   6.278   2.414 -0.5273  0.0113 -0.1505
 8334TIP3    H124943   2.721   6.246   2.491  0.8513 -0.5775  0.4908
 8334TIP3    H224944   2.797   6.366   2.437 -0.5947  0.0425 -0.1906
 8335TIP3   OH224945   4.397   6.771   5.090  0.4512 -0.7016  0.2079
 8335TIP3    H124946   4.314   6.723   5.088 -0.3058  0.6041  0.1323
 8335TIP3    H224947   4.373   6.860   5.114  1.8194 -0.2729  0.0277
 8336TIP3   OH224948   0.949   5.684   5.534 -0.0023 -0.0936 -0.0548
 8336TIP3    H124949   0.954   5.772   5.498 -0.0952  0.4693  1.2884
 8336TIP3    H224950   0.862   5.678   5.573  0.2581 -0.5326  0.4671
 8337TIP3   OH224951   2.573   3.054   2.326  0.1610  0.0930  0.4419
 8337TIP3    H124952   2.655   3.101   2.337  0.8878 -0.9821 -0.3808
 8337TIP3    H224953   2.593   2.983   2.265 -0.5312 -2.2418  2.8385
 8338TIP3   OH224954   7.907   5.526   4.717  0.4815  0.3373  0.1050
 8338TIP3    H124955   7.948   5.547   4.634  0.0687 -1.2256 -0.4985
 8338TIP3    H224956   7.980   5.514   4.778  0.7955  0.8809 -0.1598
 8339TIP3   OH224957   1.415   6.596   4.668 -0.4235  0.5839  0.6630
 8339TIP3    H124958   1.350   6.571   4.734  0.7581  1.2573  2.1002
 8339TIP3    H224959   1.385   6.681   4.636 -2.7578 -1.1229 -2.0390
 8340TIP3   OH224960   1.419   6.117   3.001  0.3324  0.4073 -0.0607
 8340TIP3    H124961   1.332   6.133   2.964 -0.8861 -2.1797  1.5234
 8340TIP3    H224962   1.447   6.202   3.035 -1.2535  1.4310 -1.2149
 8341TIP3   OH224963  -0.033   5.436   4.338 -0.1748 -0.0642 -0.3670
 8341TIP3    H124964  -0.011   5.436   4.245 -1.8100  0.2342 -0.7689
 8341TIP3    H224965   0.051   5.432   4.383  0.5748 -1.5410 -1.8609
 8342TIP3   OH224966   2.727   6.038   2.262 -0.0420 -0.5013 -0.2605
 8342TIP3    H124967   2.733   6.125   2.302  1.4237  0.4419 -2.4551
 8342TIP3    H224968   2.654   5.996   2.308  0.5692  1.0938  2.2870
 8343TIP3   OH224969   1.501   5.716   5.049  0.5892 -0.2747 -0.1919
 8343TIP3    H124970   1.430   5.653   5.058  0.7498 -0.3669  0.4807
 8343TIP3    H224971   1.504   5.761   5.133  1.8759 -0.8614  0.0939
 8344TIP3   OH224972   3.275   4.513   1.523  0.1025 -0.6196 -0.0846
 8344TIP3    H124973   3.336   4.456   1.572 -1.6417 -2.6294 -0.1822
 8344TIP3    H224974   3.314   4.520   1.436  1.4834  0.1952  0.5765
 8345TIP3   OH224975   5.641   0.825   0.667  0.1762  0.0558 -0.6152
 8345TIP3    H124976   5.701   0.837   0.740 -1.2854 -0.5780  0.7286
 8345TIP3    H224977   5.559   0.866   0.697 -0.3625  0.0089 -1.9896
 8346TIP3   OH224978   2.435   4.962   6.208  0.0546  0.3204  0.0602
 8346TIP3    H124979   2.430   5.057   6.201  0.8689  0.5212  1.9925
 8346TIP3    H224980   2.510   4.938   6.154 -0.9217  0.6387 -1.4586
 8347TIP3   OH224981   2.080   6.267   5.567  0.1755  0.2221 -0.3590
 8347TIP3    H124982   2.142   6.241   5.634  0.9480  0.2531 -1.0464
 8347TIP3    H224983   2.097   6.207   5.494 -0.2780  0.5376 -0.7279
 8348TIP3   OH224984   0.800   3.382   5.147 -0.4010  0.2950 -0.0601
 8348TIP3    H124985   0.784   3.396   5.054 -1.5583 -0.1437  0.0568
 8348TIP3    H224986   0.717   3.348   5.181  1.1595 -3.3743  0.3660
 8349TIP3   OH224987   4.246   6.601   6.619  0.3927 -0.1864  0.7351
 8349TIP3    H124988   4.163   6.647   6.627  0.1601 -0.0469 -1.9253
 8349TIP3    H224989   4.221   6.509   6.611  0.3976 -0.0453 -1.1093
 8350TIP3   OH224990   2.598   4.238   2.669  0.2016  0.0523 -0.2318
 8350TIP3    H124991   2.642   4.155   2.655 -0.1804 -0.4618  1.5090
 8350TIP3    H224992   2.658   4.304   2.635  2.0567 -0.6705  1.6110
 8351TIP3   OH224993   2.176   5.744   1.744  0.0653 -0.2019 -0.2168
 8351TIP3    H124994   2.270   5.750   1.727 -0.2587  0.8503 -1.7193
 8351TIP3    H224995   2.168   5.751   1.839  1.6091 -1.9007  0.0584
 8352TIP3   OH224996   2.806   4.073   2.837 -0.4877  0.2502 -0.0338
 8352TIP3    H124997   2.740   4.012   2.805  1.0338 -0.4066 -2.0810
 8352TIP3    H224998   2.876   4.018   2.872 -0.9296  0.9306  1.9904
 8353TIP3   OH224999   0.655   6.199   4.063 -0.1163  0.1109 -0.2102
 8353TIP3    H125000   0.614   6.188   4.149  0.2990  0.3359  0.0170
 8353TIP3    H225001   0.625   6.124   4.012  0.4601 -0.5738  0.4504
 8354TIP3   OH225002   1.793   5.571   5.490  0.0839 -0.2167 -0.5106
 8354TIP3    H125003   1.698   5.587   5.494 -0.0448 -0.4039 -2.4265
 8354TIP3    H225004   1.823   5.582   5.580 -2.0401 -1.7833  0.4299
 8355TIP3   OH225005   0.890   5.242   5.058 -0.1645 -0.7517  0.1747
 8355TIP3    H125006   0.807   5.218   5.017 -0.3870  0.3182 -0.0068
 8355TIP3    H225007   0.932   5.158   5.079 -0.5393 -1.3016 -1.2334
 8356TIP3   OH225008   0.411   5.572   6.947  0.5277 -0.6071  0.9255
 8356TIP3    H125009   0.358   5.524   7.011 -0.0553 -0.0066  0.8980
 8356TIP3    H225010   0.442   5.504   6.887 -1.4243 -0.8109  0.0860
 8357TIP3   OH225011   2.203   6.072   4.561 -1.1479  0.2355 -0.3417
 8357TIP3    H125012   2.205   6.165   4.581 -0.8236  0.0798  0.3710
 8357TIP3    H225013   2.232   6.066   4.470  1.7705  0.5747  0.5223
 8358TIP3   OH225014   1.711   6.264   6.638  0.0442  0.3610 -0.3025
 8358TIP3    H125015   1.627   6.243   6.680  0.0844  1.0545  0.1313
 8358TIP3    H225016   1.770   6.282   6.711  0.8158 -1.0002 -0.5719
 8359TIP3   OH225017   8.388   4.789   3.264 -0.1213  0.1623 -0.0463
 8359TIP3    H125018   8.299   4.759   3.280 -0.5419  1.7402  0.6366
 8359TIP3    H225019   8.409   4.844   3.339  1.5659 -0.4755 -0.0225
 8360TIP3   OH225020   0.983   5.481   4.879  0.5193  0.2483 -0.6951
 8360TIP3    H125021   0.925   5.550   4.910  2.4091  2.4790 -1.9459
 8360TIP3    H225022   1.005   5.431   4.958 -0.4681  1.4012  0.3232
 8361TIP3   OH225023   2.426   6.358   6.228  0.2544  0.4198  0.6478
 8361TIP3    H125024   2.350   6.401   6.189  0.2876  1.4142  1.6776
 8361TIP3    H225025   2.475   6.324   6.153 -3.2929 -3.9375  0.0453
 8362TIP3   OH225026   2.278   6.244   2.907  0.6144  0.8981  0.3057
 8362TIP3    H125027   2.325   6.192   2.972  1.2577 -1.5867 -2.0581
 8362TIP3    H225028   2.312   6.214   2.822 -2.0648  2.1783 -1.3065
 8363TIP3   OH225029   2.427   4.906   6.476  0.1326  0.0876 -0.1971
 8363TIP3    H125030   2.430   4.811   6.464 -1.1242  0.0692 -0.4917
 8363TIP3    H225031   2.417   4.940   6.387  3.5173  0.6750 -0.4046
 8364TIP3   OH225032   1.949   7.205   2.672  0.1883  0.1937 -0.0881
 8364TIP3    H125033   1.960   7.272   2.605  3.0310  0.6593  0.7645
 8364TIP3    H225034   1.970   7.122   2.628  2.7231  0.5675  0.3103
 8365TIP3   OH225035   1.306   4.338   4.627  0.2967  0.7128 -1.0625
 8365TIP3    H125036   1.294   4.279   4.553  0.4164 -1.0044  0.2514
 8365TIP3    H225037   1.219   4.346   4.666  0.0905  2.1803 -1.7714
 8366TIP3   OH225038   4.366   7.280   4.834 -0.0781 -0.2463  0.0436
 8366TIP3    H125039   4.320   7.202   4.802  1.5714 -1.0272 -0.4489
 8366TIP3    H225040   4.451   7.248   4.863  2.0419  1.8410 -3.4830
 8367TIP3   OH225041   3.937   6.952   3.230 -0.0517  0.7150 -0.8024
 8367TIP3    H125042   3.951   7.045   3.215 -0.6921  0.7386 -1.3183
 8367TIP3    H225043   3.843   6.940   3.214  0.0900 -0.0721 -1.0509
 8368TIP3   OH225044   0.522   5.994   5.324  0.2120  0.3798 -0.4470
 8368TIP3    H125045   0.599   5.944   5.352  0.2950 -0.8874 -2.8415
 8368TIP3    H225046   0.530   6.000   5.229 -2.0247  1.3136 -0.6148
 8369TIP3   OH225047   5.204   1.910   0.404 -0.2278  0.2568  0.4322
 8369TIP3    H125048   5.287   1.957   0.394 -0.3208  0.6011  1.1935
 8369TIP3    H225049   5.162   1.917   0.319 -0.0848  1.2671  0.4342
 8370TIP3   OH225050   1.765   5.386   4.401 -0.0526 -0.1777 -0.4173
 8370TIP3    H125051   1.746   5.374   4.494 -0.5439 -0.3816 -0.5385
 8370TIP3    H225052   1.709   5.458   4.374 -0.5072 -0.6416 -0.7313
 8371TIP3   OH225053   2.359   5.386   4.321 -0.3337 -0.3342 -0.2734
 8371TIP3    H125054   2.427   5.439   4.280  1.1327 -2.9671 -1.3334
 8371TIP3    H225055   2.278   5.411   4.276  0.3242  0.9094 -0.8023
 8372TIP3   OH225056   3.398   4.034   4.265 -0.5927  0.0243 -0.0537
 8372TIP3    H125057   3.373   3.959   4.318 -1.3700  0.4861  0.2415
 8372TIP3    H225058   3.396   4.108   4.325 -0.0187  0.3145 -0.3859
 8373TIP3   OH225059   3.211   6.797   4.523 -0.0303 -0.6351 -0.3875
 8373TIP3    H125060   3.246   6.819   4.436 -0.2170  0.4456 -0.1931
 8373TIP3    H225061   3.265   6.723   4.552  0.3328 -0.7083 -1.2306
 8374TIP3   OH225062   5.172   5.318   3.917  0.1767 -0.1579  0.0779
 8374TIP3    H125063   5.197   5.270   3.996  1.4995 -1.9396 -1.3649
 8374TIP3    H225064   5.234   5.390   3.911  0.8002 -0.6895  0.0668
 8375TIP3   OH225065   1.932   6.094   4.684  0.1057 -0.1900  0.1524
 8375TIP3    H125066   1.913   6.063   4.596 -0.6182  0.6795 -0.0002
 8375TIP3    H225067   1.985   6.173   4.671 -0.1141  0.0142  0.4888
 8376TIP3   OH225068   2.420   4.407   3.882  0.0640 -0.0728  0.7011
 8376TIP3    H125069   2.489   4.473   3.882 -0.3065  0.3390  3.2299
 8376TIP3    H225070   2.437   4.354   3.960 -1.4743 -1.0287  0.4151
 8377TIP3   OH225071   0.799   5.792   4.615 -0.5772 -0.1407 -0.0017
 8377TIP3    H125072   0.869   5.726   4.618 -0.2089  0.2244 -0.4112
 8377TIP3    H225073   0.720   5.743   4.592 -0.4266 -0.5368  0.3360
 8378TIP3   OH225074   1.535   5.313   5.098 -0.0612  0.6945 -0.5308
 8378TIP3    H125075   1.619   5.355   5.080 -0.6356  2.0573 -0.0568
 8378TIP3    H225076   1.559   5.224   5.125  1.3658  1.6961  1.6497
 8379TIP3   OH225077   0.845   7.089   3.466 -0.4570 -0.0513 -0.3786
 8379TIP3    H125078   0.937   7.099   3.489 -0.5033 -0.6559  0.0862
 8379TIP3    H225079   0.798   7.133   3.536 -0.5241  0.3693 -0.6820
 8380TIP3   OH225080   6.471   5.085   6.889  0.0893 -0.7413  0.2213
 8380TIP3    H125081   6.419   5.129   6.957 -0.6290 -1.3595  0.0802
 8380TIP3    H225082   6.460   4.991   6.908  1.5449 -0.8730  0.4763
 8381TIP3   OH225083   0.907   4.963   5.054  0.0588 -0.0142  0.3987
 8381TIP3    H125084   0.824   4.916   5.058 -0.0507  0.1460  0.0411
 8381TIP3    H225085   0.958   4.928   5.127 -1.2369  1.6356  2.1707
 8382TIP3   OH225086   2.384   6.810   3.439 -0.1288  0.4580 -0.1993
 8382TIP3    H125087   2.467   6.765   3.424  0.6319  1.8143 -0.1592
 8382TIP3    H225088   2.319   6.740   3.447  0.9923 -0.6049 -0.3516
 8383TIP3   OH225089   2.237   4.758   4.299  0.0436  0.4579 -0.0671
 8383TIP3    H125090   2.166   4.694   4.299  2.7348 -2.7076 -0.1192
 8383TIP3    H225091   2.215   4.819   4.369 -3.2370  0.2372 -0.8235
 8384TIP3   OH225092   7.807   3.206   0.071 -0.3516  0.0310 -0.2708
 8384TIP3    H125093   7.773   3.225   0.158  0.2314  2.3778 -0.5332
 8384TIP3    H225094   7.892   3.250   0.068 -0.5810  0.4000 -2.1774
 8385TIP3   OH225095   4.490   7.436   0.407  0.1333 -0.4191  0.4197
 8385TIP3    H125096   4.429   7.367   0.433  0.3504 -0.0206  2.0450
 8385TIP3    H225097   4.556   7.437   0.477  2.3373 -1.2260 -1.5768
 8386TIP3   OH225098   2.691   5.722   1.824  0.1947  0.4750 -0.5152
 8386TIP3    H125099   2.674   5.746   1.915 -1.0332  2.0437 -1.1309
 8386TIP3    H225100   2.607   5.736   1.779  1.2052  1.3117 -2.2017
 8387TIP3   OH225101   2.829   6.082   4.221  0.1775  0.0748  0.5359
 8387TIP3    H125102   2.919   6.112   4.205 -0.4204  0.8463 -1.4333
 8387TIP3    H225103   2.775   6.158   4.203 -1.0984 -1.1996 -1.0917
 8388TIP3   OH225104   1.927   5.990   2.942  0.4620  0.0592 -0.2075
 8388TIP3    H125105   1.913   6.073   2.988 -1.1502 -0.5173  0.3690
 8388TIP3    H225106   1.844   5.944   2.950  1.7523 -2.2147  0.6689
 8389TIP3   OH225107   1.784   6.820   4.482  0.1191 -0.0599  0.1671
 8389TIP3    H125108   1.862   6.785   4.525 -0.6591 -2.3020 -0.1819
 8389TIP3    H225109   1.818   6.875   4.412  1.3916 -0.2595  0.6086
 8390TIP3   OH225110   1.251   6.002   4.294  0.1225  0.5794 -0.0829
 8390TIP3    H125111   1.205   5.958   4.223 -0.5866  0.6009  0.3515
 8390TIP3    H225112   1.198   6.080   4.312  0.4769  0.7476  0.2525
 8391TIP3   OH225113   4.290   0.026   3.783 -0.1468  0.1635  0.6964
 8391TIP3    H125114   4.299   0.110   3.827  2.7331 -1.0210  2.5396
 8391TIP3    H225115   4.371   0.017   3.732  0.0466 -1.8880  1.3133
 8392TIP3   OH225116   0.797   6.425   5.052 -0.8383 -0.1807 -0.2001
 8392TIP3    H125117   0.807   6.517   5.028 -1.8766  0.1576  0.6240
 8392TIP3    H225118   0.867   6.409   5.115 -2.2669  0.7919  1.6983
 8393TIP3   OH225119   0.948   6.972   2.467 -0.9413 -0.0010  0.0904
 8393TIP3    H125120   1.031   6.970   2.418 -0.7995  1.2767  0.2742
 8393TIP3    H225121   0.920   7.063   2.463 -2.6892 -0.5537 -0.5248
 8394TIP3   OH225122   3.690   6.004   2.556  0.2851  0.2035  0.0025
 8394TIP3    H125123   3.637   5.996   2.477 -1.1526  1.5987  0.7838
 8394TIP3    H225124   3.679   6.096   2.583  0.4396 -0.3355  1.9954
 8395TIP3   OH225125   0.149   5.942   3.147 -0.2754  0.2174  0.1242
 8395TIP3    H125126   0.140   5.984   3.061  3.7304 -1.4928 -1.2954
 8395TIP3    H225127   0.182   6.012   3.204 -0.3854  0.7178 -0.4163
 8396TIP3   OH225128   1.407   5.211   3.452 -0.0648 -0.5762 -0.9163
 8396TIP3    H125129   1.479   5.172   3.403  0.7248 -1.5691  0.9836
 8396TIP3    H225130   1.429   5.304   3.460  0.4286 -0.6591 -1.3398
 8397TIP3   OH225131   1.198   7.199   4.190  0.3996  0.6746 -0.4519
 8397TIP3    H125132   1.105   7.176   4.192  0.6783 -0.4743 -0.1797
 8397TIP3    H225133   1.199   7.292   4.170 -0.8955  1.3307  2.3311
 8398TIP3   OH225134   3.448   5.842   2.697  0.1139 -0.3804  0.3767
 8398TIP3    H125135   3.432   5.914   2.758  0.8789 -0.4165  0.6324
 8398TIP3    H225136   3.389   5.773   2.725 -0.3812  0.0278  0.3452
 8399TIP3   OH225137   1.732   6.071   2.169 -0.0709  0.4535 -0.0317
 8399TIP3    H125138   1.790   5.997   2.189 -0.5124 -0.1006 -0.7602
 8399TIP3    H225139   1.661   6.063   2.232  0.2843  0.7243  0.4075
 8400TIP3   OH225140   8.448   4.442   4.313  0.0978 -0.2400 -0.2781
 8400TIP3    H125141   8.392   4.395   4.376  1.3099  0.9901  1.7809
 8400TIP3    H225142   8.396   4.446   4.233 -2.9908  1.1787  1.6856
 8401TIP3   OH225143   1.849   4.819   4.851 -0.0061 -0.4848  0.1904
 8401TIP3    H125144   1.862   4.878   4.778 -0.0269  0.1126  0.6692
 8401TIP3    H225145   1.754   4.815   4.863  0.0809  1.4203  1.8046
 8402TIP3   OH225146   2.493   6.267   4.440 -0.3467 -0.3357 -0.3270
 8402TIP3    H125147   2.536   6.327   4.380  0.6856  0.1338  0.8817
 8402TIP3    H225148   2.442   6.209   4.383 -0.8617  1.2802 -1.5240
 8403TIP3   OH225149   2.503   3.926   3.367 -0.1911  0.1159 -0.2666
 8403TIP3    H125150   2.418   3.897   3.335 -0.2303  1.4105 -1.3670
 8403TIP3    H225151   2.486   4.011   3.408  0.5371  0.3122 -0.3661
 8404TIP3   OH225152   8.228   5.055   4.793 -0.2244 -0.1063  0.3561
 8404TIP3    H125153   8.216   5.097   4.708 -2.7893 -1.0557  0.1806
 8404TIP3    H225154   8.226   4.961   4.774  1.7504 -0.3355  1.1798
 8405TIP3   OH225155   0.746   5.492   6.849  0.4481  0.1604  0.0072
 8405TIP3    H125156   0.664   5.457   6.813  1.0518 -0.9271 -0.3339
 8405TIP3    H225157   0.735   5.587   6.846 -1.5042  0.0399  1.5680
 8406TIP3   OH225158   2.438   4.172   5.301 -0.2721 -0.1531  0.7683
 8406TIP3    H125159   2.360   4.198   5.252 -0.0492 -0.3160  0.3236
 8406TIP3    H225160   2.510   4.218   5.258 -0.4408  2.1920  2.8903
 8407TIP3   OH225161   5.641   0.203   3.263  0.4215  0.0724  0.4026
 8407TIP3    H125162   5.591   0.126   3.236 -1.0582  0.4093  2.1048
 8407TIP3    H225163   5.711   0.167   3.318 -0.6197 -0.0292  1.6824
 8408TIP3   OH225164   3.055   6.362   2.343 -0.3208  0.4427  0.0535
 8408TIP3    H125165   3.015   6.304   2.407  0.8273 -0.3338  0.0780
 8408TIP3    H225166   3.060   6.447   2.387  0.7436 -0.1626  1.1137
 8409TIP3   OH225167   1.608   5.863   6.656  0.1144  0.0821 -0.0623
 8409TIP3    H125168   1.584   5.776   6.688  0.2199 -0.4037 -1.2929
 8409TIP3    H225169   1.525   5.901   6.626  0.3706 -0.3941 -1.4164
 8410TIP3   OH225170   0.027   5.611   4.800  0.3001  0.6095  0.2460
 8410TIP3    H125171   0.030   5.687   4.858  0.5233  1.5016 -0.9133
 8410TIP3    H225172   0.114   5.572   4.807  1.0685  1.9876 -1.1282
 8411TIP3   OH225173   8.318   6.401   6.438  0.3562 -0.2487 -0.2714
 8411TIP3    H125174   8.397   6.453   6.455 -0.3332  0.5871  0.3901
 8411TIP3    H225175   8.303   6.410   6.344 -0.7730  2.2267  0.1191
 8412TIP3   OH225176   0.912   6.074   4.037 -0.2857  0.1468 -0.0322
 8412TIP3    H125177   0.829   6.111   4.068 -0.3719  1.2536 -1.5132
 8412TIP3    H225178   0.961   6.150   4.006  0.4235 -0.7547 -1.1328
 8413TIP3   OH225179   1.935   7.140   3.388 -0.2648 -0.4590  0.2417
 8413TIP3    H125180   2.005   7.200   3.361 -1.6696  0.5827 -1.1650
 8413TIP3    H225181   1.970   7.053   3.369  1.6862 -0.1057  2.0458
 8414TIP3   OH225182   1.765   4.455   4.841  0.5756 -0.5048 -0.3302
 8414TIP3    H125183   1.719   4.374   4.814  2.0547 -2.0878  1.7716
 8414TIP3    H225184   1.700   4.503   4.891 -0.5616  0.0104 -2.2295
 8415TIP3   OH225185   0.840   7.166   2.926  0.5296 -0.2011  0.3788
 8415TIP3    H125186   0.834   7.166   2.831  3.4187  0.0262  0.1695
 8415TIP3    H225187   0.888   7.086   2.948 -1.1021 -0.8466  1.7301
 8416TIP3   OH225188   7.726   5.663   6.232 -0.3944 -0.1158  0.3043
 8416TIP3    H125189   7.820   5.654   6.216 -0.8800 -1.0067 -2.2787
 8416TIP3    H225190   7.701   5.582   6.278 -0.3003 -0.9248 -1.0534
 8417TIP3   OH225191   1.103   7.047   6.292 -0.1313 -0.1325  0.3112
 8417TIP3    H125192   1.189   7.016   6.320  1.1493  0.9329 -2.2492
 8417TIP3    H225193   1.088   7.127   6.342  0.5340 -0.1319  0.5045
 8418TIP3   OH225194   2.595   6.973   5.338  0.2987 -0.4191  0.6882
 8418TIP3    H125195   2.572   7.064   5.358  0.3462 -0.4058  0.6826
 8418TIP3    H225196   2.579   6.926   5.420  0.2772 -0.4050  0.6920
 8419TIP3   OH225197   3.456   7.259   4.174 -0.0620  0.0916 -0.2306
 8419TIP3    H125198   3.461   7.353   4.157  0.2277  0.0544 -0.3489
 8419TIP3    H225199   3.398   7.226   4.105  1.1222 -0.0578 -1.1656
 8420TIP3   OH225200   4.624   3.037   4.608  0.1899 -0.6156 -0.2795
 8420TIP3    H125201   4.646   3.129   4.625 -0.0588 -0.7204  0.6485
 8420TIP3    H225202   4.600   3.002   4.694 -3.1919 -0.6303 -1.1681
 8421TIP3   OH225203   1.650   6.997   5.005 -0.0233 -0.1582  0.0274
 8421TIP3    H125204   1.562   7.031   4.987 -0.0549  0.5828  1.4670
 8421TIP3    H225205   1.691   7.065   5.059  2.1989  0.4959 -2.3735
 8422TIP3   OH225206   0.673   6.443   3.336 -0.2507  0.4426  0.0184
 8422TIP3    H125207   0.647   6.352   3.346 -4.9782  1.4286 -1.6311
 8422TIP3    H225208   0.655   6.483   3.421  0.0526  0.2018  0.1941
 8423TIP3   OH225209   1.128   5.959   6.118  0.2280 -0.6355 -0.1543
 8423TIP3    H125210   1.039   5.947   6.085  0.6463 -0.3335 -1.4293
 8423TIP3    H225211   1.119   6.026   6.186 -0.7373 -1.7049  0.7891
 8424TIP3   OH225212   2.472   4.429   1.742 -0.4855  0.3708  0.1993
 8424TIP3    H125213   2.471   4.353   1.684 -1.3627 -0.1642  0.9179
 8424TIP3    H225214   2.547   4.414   1.799  0.3853  0.9003 -0.7652
 8425TIP3   OH225215   1.297   6.134   5.949 -0.7501  0.7391 -0.4648
 8425TIP3    H125216   1.228   6.068   5.940 -1.3147  1.2548  0.0240
 8425TIP3    H225217   1.369   6.088   5.993 -0.4397 -0.0332 -1.7559
 8426TIP3   OH225218   1.624   6.525   5.869  0.5207 -0.0202  0.5947
 8426TIP3    H125219   1.687   6.453   5.865  1.1207  0.5144  0.4169
 8426TIP3    H225220   1.541   6.485   5.843  1.0425 -0.4302 -0.4755
 8427TIP3   OH225221   1.338   7.848   3.734  0.1081 -0.0184  0.0291
 8427TIP3    H125222   1.422   7.836   3.778  0.3551  0.1580 -0.3799
 8427TIP3    H225223   1.349   7.930   3.685  0.3927 -1.0211 -1.6038
 8428TIP3   OH225224   7.015   1.498   0.367 -0.3716  0.1068 -0.2340
 8428TIP3    H125225   6.964   1.543   0.299 -0.2374 -0.7528 -0.9084
 8428TIP3    H225226   6.965   1.419   0.386  0.0797 -0.1227 -0.0058
 8429TIP3   OH225227   1.189   6.367   3.557 -0.0300  0.6294  0.3697
 8429TIP3    H125228   1.247   6.382   3.632  0.8560 -0.6990 -0.0297
 8429TIP3    H225229   1.105   6.344   3.596  0.4473 -0.1304  0.9669
 8430TIP3   OH225230   5.548   0.424   5.151 -0.3732 -0.3427  0.2992
 8430TIP3    H125231   5.588   0.485   5.212  1.5600  2.3511 -3.4451
 8430TIP3    H225232   5.473   0.472   5.115 -1.3323 -1.7906  0.2841
 8431TIP3   OH225233   1.722   6.034   0.891  0.4507  0.1254 -0.9040
 8431TIP3    H125234   1.684   6.121   0.904  1.0925  0.1985  0.6088
 8431TIP3    H225235   1.681   5.980   0.958  1.7581 -0.1851 -0.3350
 8432TIP3   OH225236   5.398   1.004   0.326 -0.2331  0.1133 -0.0136
 8432TIP3    H125237   5.328   0.940   0.339 -0.5349  0.1491 -1.3627
 8432TIP3    H225238   5.474   0.952   0.302  0.5414 -0.0191  2.5646
 8433TIP3   OH225239   2.888   5.051   6.348 -0.3395 -1.0718 -0.6917
 8433TIP3    H125240   2.895   5.113   6.276  0.8010 -0.1951  0.1560
 8433TIP3    H225241   2.859   5.104   6.422  0.3691 -1.5938 -0.0309
 8434TIP3   OH225242   0.267   5.665   6.159  0.1962  0.2480 -0.8993
 8434TIP3    H125243   0.190   5.690   6.108 -0.2227 -2.0170 -1.3929
 8434TIP3    H225244   0.249   5.700   6.247 -0.5537  1.3153 -1.4637
 8435TIP3   OH225245   6.567   1.521   0.218 -0.0400 -0.0313  0.2890
 8435TIP3    H125246   6.564   1.570   0.136 -1.0128  1.0041  0.9317
 8435TIP3    H225247   6.497   1.559   0.271  1.1790 -0.0996  1.9522
 8436TIP3   OH225248   2.301   5.518   3.252 -0.2999 -0.3247  0.0132
 8436TIP3    H125249   2.262   5.526   3.339 -0.4692 -1.1366  0.0087
 8436TIP3    H225250   2.306   5.609   3.220 -1.7336 -0.1745  0.2083
 8437TIP3   OH225251   1.115   5.316   5.182  0.9197 -0.0484 -0.1129
 8437TIP3    H125252   1.101   5.248   5.248 -0.5692  0.4621  0.1159
 8437TIP3    H225253   1.036   5.315   5.129  1.8659 -0.0454 -1.5424
 8438TIP3   OH225254   8.105   0.353   0.847  0.1642  0.4584  0.2128
 8438TIP3    H125255   8.034   0.303   0.887 -0.9318  2.7168  1.1854
 8438TIP3    H225256   8.156   0.385   0.922  0.6995  1.0165 -0.3874
 8439TIP3   OH225257   2.403   6.201   3.815  0.0048  0.3766  0.4484
 8439TIP3    H125258   2.496   6.198   3.837  0.2101  0.0156 -0.4358
 8439TIP3    H225259   2.377   6.291   3.833  1.0057  1.0073 -1.1059
 8440TIP3   OH225260   3.459   5.939   6.390  0.0778  0.3391 -0.0675
 8440TIP3    H125261   3.389   5.927   6.455 -0.1420 -0.2435 -0.4040
 8440TIP3    H225262   3.446   5.867   6.328  2.2278 -0.9920  0.9978
 8441TIP3   OH225263   2.643   7.122   4.357  0.2626 -0.2425  0.0202
 8441TIP3    H125264   2.664   7.042   4.405 -0.1435  1.2625  2.8007
 8441TIP3    H225265   2.728   7.158   4.331  0.4721 -1.2027 -0.6442
 8442TIP3   OH225266   1.489   6.001   6.175 -0.1763  0.5813  0.0343
 8442TIP3    H125267   1.577   5.969   6.196 -0.7812 -1.2005 -0.1292
 8442TIP3    H225268   1.471   6.066   6.243  1.4119  1.2335 -0.1442
 8443TIP3   OH225269   0.516   5.163   4.607 -0.1984  0.1132  0.0064
 8443TIP3    H125270   0.555   5.229   4.665 -1.2408 -0.2605  1.1488
 8443TIP3    H225271   0.583   5.148   4.540  0.0956  2.2734 -0.2366
 8444TIP3   OH225272   2.358   7.194   4.349 -0.0529  0.2023 -0.6211
 8444TIP3    H125273   2.453   7.195   4.362 -0.3444 -0.8197  2.0494
 8444TIP3    H225274   2.326   7.134   4.417 -2.6721  1.1403 -0.9893
 8445TIP3   OH225275   3.271   6.110   2.653  0.6256  0.3145  0.7437
 8445TIP3    H125276   3.296   6.052   2.725  2.2380  0.2971  0.1893
 8445TIP3    H225277   3.354   6.147   2.622 -0.1675  1.2021 -0.3569
 8446TIP3   OH225278   0.778   6.839   3.357 -0.3087  0.3272  0.0021
 8446TIP3    H125279   0.720   6.786   3.412 -2.7849  1.5416 -1.3558
 8446TIP3    H225280   0.766   6.928   3.389  0.9654  0.5750 -0.1926
 8447TIP3   OH225281   0.076   5.265   5.155 -0.3073  0.1089 -0.0514
 8447TIP3    H125282   0.081   5.170   5.143  0.6863  0.1280  0.1290
 8447TIP3    H225283   0.157   5.287   5.202 -0.6958  0.9963  0.2122
 8448TIP3   OH225284   1.294   6.214   2.495  0.6441 -0.2599  0.3321
 8448TIP3    H125285   1.347   6.170   2.561  0.9400 -1.1494 -0.4738
 8448TIP3    H225286   1.203   6.200   2.523  0.8026  0.7942  1.4197
 8449TIP3   OH225287   5.917   0.498   3.119  0.5091 -0.2643  0.2303
 8449TIP3    H125288   5.829   0.534   3.129 -0.2389 -2.3131  1.3454
 8449TIP3    H225289   5.928   0.439   3.193  2.9074  0.0834  0.2046
 8450TIP3   OH225290   1.636   7.154   3.507 -0.4020 -0.0699  0.2172
 8450TIP3    H125291   1.730   7.134   3.507 -0.7366 -1.7590 -0.9738
 8450TIP3    H225292   1.616   7.171   3.416 -1.3683 -0.3131  0.3845
 8451TIP3   OH225293   2.608   6.752   5.752 -0.2533 -0.2308 -0.0575
 8451TIP3    H125294   2.645   6.664   5.761  1.1785  0.2601 -1.0657
 8451TIP3    H225295   2.550   6.746   5.677 -1.8608 -0.8586  1.1957
 8452TIP3   OH225296   2.583   5.301   4.557 -0.0842  0.1245 -0.2463
 8452TIP3    H125297   2.607   5.364   4.625 -0.8311 -0.4443  0.5398
 8452TIP3    H225298   2.658   5.303   4.496  0.6859  0.4644  0.7004
 8453TIP3   OH225299   1.444   6.867   4.693 -0.3513  0.4178  0.1548
 8453TIP3    H125300   1.535   6.866   4.722  0.1938  1.3690 -1.4224
 8453TIP3    H225301   1.393   6.844   4.771  1.1816  0.7184  1.2670
 8454TIP3   OH225302   3.308   6.446   3.119 -0.2841  0.0181 -0.4636
 8454TIP3    H125303   3.225   6.486   3.147  0.6670  0.2153  2.1771
 8454TIP3    H225304   3.282   6.380   3.054 -2.4647  0.3376  0.0448
 8455TIP3   OH225305   4.530   6.417   4.885 -0.0195  0.2955  0.3672
 8455TIP3    H125306   4.517   6.453   4.797  0.1088  0.2692  0.3379
 8455TIP3    H225307   4.501   6.326   4.879  2.7207 -0.5492 -0.3855
 8456TIP3   OH225308   3.943   7.586   2.116  0.2279 -0.0711 -0.1909
 8456TIP3    H125309   3.956   7.495   2.140 -0.3503 -0.3300 -0.8432
 8456TIP3    H225310   3.871   7.616   2.173 -0.0993 -0.2424 -0.5124
 8457TIP3   OH225311   2.056   4.682   1.996 -0.7901 -0.3543  0.1761
 8457TIP3    H125312   2.010   4.636   2.067 -0.1400 -1.8248 -0.3301
 8457TIP3    H225313   2.080   4.612   1.935 -1.7178  0.9597 -1.7027
 8458TIP3   OH225314   0.587   6.174   4.632  0.0241  0.8222  0.4731
 8458TIP3    H125315   0.646   6.169   4.708  1.3225 -0.1217 -0.5716
 8458TIP3    H225316   0.551   6.086   4.625  0.5662  0.6745 -0.5147
 8459TIP3   OH225317   0.922   6.343   6.171 -0.6000  0.5686 -0.3973
 8459TIP3    H125318   0.949   6.261   6.213 -1.2408  0.1173 -0.8610
 8459TIP3    H225319   0.887   6.316   6.086 -1.2576  1.2776 -0.3579
 8460TIP3   OH225320   2.229   7.236   5.715 -0.0053  0.0032 -0.0234
 8460TIP3    H125321   2.322   7.244   5.735 -0.0236  0.8739 -0.2619
 8460TIP3    H225322   2.224   7.240   5.619 -0.2055 -1.0150 -0.0710
 8461TIP3   OH225323   4.067   7.171   3.491  0.4180 -0.2351  0.6611
 8461TIP3    H125324   4.133   7.230   3.527  0.6821  0.5163 -1.0171
 8461TIP3    H225325   3.991   7.182   3.549  1.6179 -0.8540  2.3956
 8462TIP3   OH225326   3.196   3.568   3.757 -0.0659 -0.2311  0.2091
 8462TIP3    H125327   3.235   3.504   3.698 -0.5129 -1.2224  0.9912
 8462TIP3    H225328   3.241   3.650   3.736 -0.2046 -0.5788 -1.4867
 8463TIP3   OH225329   4.022   3.812   0.941 -0.7621 -0.3708 -0.1850
 8463TIP3    H125330   4.107   3.784   0.907 -1.0716 -1.0511 -0.4044
 8463TIP3    H225331   3.984   3.864   0.870 -1.4212 -1.8175 -0.9167
 8464TIP3   OH225332   3.395   5.657   4.002 -0.6442 -0.2913  0.0760
 8464TIP3    H125333   3.319   5.615   4.041 -0.8066 -0.1105 -0.0443
 8464TIP3    H225334   3.359   5.727   3.947 -0.4341 -0.7182 -0.6157
 8465TIP3   OH225335   3.422   5.174   2.619  0.0396 -0.0270  0.0212
 8465TIP3    H125336   3.413   5.118   2.696  0.8368 -1.1241 -0.6759
 8465TIP3    H225337   3.333   5.182   2.585 -0.3188  0.4694  1.0518
 8466TIP3   OH225338   8.510   5.071   6.532 -0.1087 -0.3300 -0.1493
 8466TIP3    H125339   8.583   5.077   6.594 -0.9902 -1.0713  0.9746
 8466TIP3    H225340   8.437   5.115   6.576 -0.3935  0.2447 -1.1868
 8467TIP3   OH225341   3.022   4.739   6.477 -0.7510  0.2518  0.2601
 8467TIP3    H125342   3.115   4.730   6.455 -0.5308 -1.6900  1.8776
 8467TIP3    H225343   3.021   4.795   6.555 -0.8313 -0.7066  0.9588
 8468TIP3   OH225344   3.406   5.773   3.227 -0.1341  0.2788 -0.4063
 8468TIP3    H125345   3.431   5.707   3.292  0.8526 -0.5957 -1.6626
 8468TIP3    H225346   3.360   5.724   3.159 -2.3595  1.3809  0.2425
 8469TIP3   OH225347   6.651   1.094   0.154 -0.0028 -0.2095  0.0836
 8469TIP3    H125348   6.707   1.018   0.166  0.7826  0.6109  1.7108
 8469TIP3    H225349   6.562   1.058   0.152  0.2164 -1.0165  2.7007
 8470TIP3   OH225350   0.391   6.133   5.507  0.0886 -0.2164 -0.5387
 8470TIP3    H125351   0.469   6.097   5.466  0.9500  2.1832 -1.1351
 8470TIP3    H225352   0.334   6.157   5.434 -1.7797 -3.0847 -0.0760
 8471TIP3   OH225353   3.376   5.890   4.652 -0.0268  0.0550 -0.5526
 8471TIP3    H125354   3.388   5.819   4.716  2.0182  1.1166  0.2961
 8471TIP3    H225355   3.413   5.856   4.571 -0.1996 -0.3079 -0.4807
 8472TIP3   OH225356   3.777   4.525   5.487  0.0322  0.2352 -0.2106
 8472TIP3    H125357   3.738   4.437   5.483 -1.1947  0.7971 -0.7763
 8472TIP3    H225358   3.709   4.583   5.453  1.2140  1.2950 -0.8000
 8473TIP3   OH225359   6.299   1.012   0.559  0.6941  0.4102 -0.4116
 8473TIP3    H125360   6.243   1.089   0.541  0.3528  0.4954  0.9497
 8473TIP3    H225361   6.383   1.049   0.584  0.4231  0.3669  0.6033
 8474TIP3   OH225362   2.065   7.263   4.479  0.6233 -0.2870 -0.6601
 8474TIP3    H125363   2.031   7.267   4.389  4.7265 -0.9548 -2.3427
 8474TIP3    H225364   2.055   7.171   4.504 -0.0539 -0.2058 -0.6261
 8475TIP3   OH225365   1.120   4.317   6.971 -0.2342 -0.4326 -0.4596
 8475TIP3    H125366   1.211   4.346   6.973 -0.3268 -0.1446 -0.3575
 8475TIP3    H225367   1.091   4.324   7.062 -1.2154  2.2434 -0.9387
 8476TIP3   OH225368   1.297   6.505   4.000 -0.0332 -0.3881  0.1115
 8476TIP3    H125369   1.380   6.538   4.033 -0.2620  0.8621 -0.5320
 8476TIP3    H225370   1.288   6.419   4.040  0.9784 -0.0233  1.1482
 8477TIP3   OH225371   3.226   7.873   5.122  0.2313 -0.0139 -0.4531
 8477TIP3    H125372   3.156   7.864   5.057  0.1234  0.7008 -0.4405
 8477TIP3    H225373   3.196   7.822   5.196  0.3805 -0.8834 -0.9877
 8478TIP3   OH225374   1.700   6.486   4.381 -0.5470 -0.0425 -0.8455
 8478TIP3    H125375   1.703   6.516   4.472  0.6226  0.3985 -1.0208
 8478TIP3    H225376   1.730   6.396   4.385 -3.4012 -1.0326 -0.4090
 8479TIP3   OH225377   3.620   0.275   2.901  0.0574  0.1588 -1.0209
 8479TIP3    H125378   3.671   0.338   2.850  0.6978  0.2817 -0.2298
 8479TIP3    H225379   3.533   0.276   2.860  0.7275 -0.1955 -2.5068
 8480TIP3   OH225380   4.597   5.018   5.906  0.1401  0.1472  0.0354
 8480TIP3    H125381   4.587   5.091   5.967  1.7137  0.3125  0.1017
 8480TIP3    H225382   4.533   5.037   5.836  0.9306  1.9003 -0.2477
 8481TIP3   OH225383   1.024   7.090   4.925 -0.1058 -0.4127  0.3387
 8481TIP3    H125384   0.946   7.094   4.870 -0.5471 -2.1706  0.8075
 8481TIP3    H225385   1.095   7.117   4.867 -0.6791 -1.4522 -0.8858
 8482TIP3   OH225386   2.353   5.411   6.086  0.4937  0.5067 -0.1653
 8482TIP3    H125387   2.347   5.392   6.180  0.3796  2.1014  0.1719
 8482TIP3    H225388   2.392   5.333   6.048 -1.9787 -1.2788  0.8254
 8483TIP3   OH225389   1.362   6.812   3.293  0.0596  0.2262  0.1394
 8483TIP3    H125390   1.437   6.857   3.254 -0.2752 -0.3599 -1.1994
 8483TIP3    H225391   1.295   6.881   3.301 -0.1357  0.1861 -1.0547
 8484TIP3   OH225392   3.435   8.023   4.608  0.1692 -0.1031 -0.3233
 8484TIP3    H125393   3.445   8.072   4.526  0.0679  2.9829  1.4438
 8484TIP3    H225394   3.342   8.030   4.629  0.0437 -1.5891 -0.3600
 8485TIP3   OH225395   4.263   0.695   4.847 -0.0705  0.6092  0.1901
 8485TIP3    H125396   4.264   0.662   4.937 -0.4544  0.6718  0.2161
 8485TIP3    H225397   4.306   0.627   4.796 -0.1908  0.4053  0.3608
 8486TIP3   OH225398   1.560   6.370   4.855  0.2071 -0.3700 -0.5643
 8486TIP3    H125399   1.467   6.358   4.839 -0.3997 -0.5312  2.7725
 8486TIP3    H225400   1.573   6.465   4.856 -0.0123 -0.3411 -0.5447
 8487TIP3   OH225401   8.291   4.981   5.720  0.2223 -0.0213  0.0573
 8487TIP3    H125402   8.277   5.053   5.658 -0.2148  0.7180  0.9843
 8487TIP3    H225403   8.225   4.996   5.788  2.3477  0.6735  2.0063
 8488TIP3   OH225404   1.104   7.642   4.673  0.5853  0.2709 -0.6126
 8488TIP3    H125405   1.078   7.731   4.651 -0.4065  0.1964  0.2343
 8488TIP3    H225406   1.169   7.652   4.743  1.1458  0.3586 -1.1391
 8489TIP3   OH225407   3.944   5.749   4.713  0.0952 -0.3179 -0.4409
 8489TIP3    H125408   3.959   5.659   4.684  0.7485 -0.1547 -0.6275
 8489TIP3    H225409   4.013   5.766   4.777 -0.0905  0.0107 -0.3241
 8490TIP3   OH225410   8.164   3.792   0.037  0.1358 -0.4014  0.0311
 8490TIP3    H125411   8.209   3.855  -0.020  2.0411 -1.1104  0.6901
 8490TIP3    H225412   8.098   3.844   0.082 -0.2303  0.5279 -1.5234
 8491TIP3   OH225413   2.915   4.909   4.249  0.7918 -0.5654 -0.1697
 8491TIP3    H125414   2.891   4.910   4.341 -2.7354  0.7251 -1.0044
 8491TIP3    H225415   2.873   4.830   4.214 -0.9079  0.7781 -1.3011
 8492TIP3   OH225416   2.728   2.347   4.370 -0.1580  0.4174  0.4740
 8492TIP3    H125417   2.756   2.256   4.379  1.3773  1.0163  1.9639
 8492TIP3    H225418   2.633   2.344   4.381 -0.4856 -1.3317 -2.2235
 8493TIP3   OH225419   3.067   2.191   6.626  0.1369 -0.1806  0.7074
 8493TIP3    H125420   3.090   2.115   6.572 -1.5164 -1.1742  1.3754
 8493TIP3    H225421   3.144   2.206   6.681  0.0558 -2.0488  1.3444
 8494TIP3   OH225422   4.302   3.822   5.400 -0.2495 -0.1385  0.4174
 8494TIP3    H125423   4.240   3.811   5.328 -1.7233  0.8919  1.5004
 8494TIP3    H225424   4.347   3.737   5.406 -3.0057 -1.6192  0.9270
 8495TIP3   OH225425   2.215   6.880   3.945  0.0359 -0.0759 -0.1124
 8495TIP3    H125426   2.271   6.926   3.882  0.5966 -0.0409  0.4150
 8495TIP3    H225427   2.207   6.940   4.019 -0.0168 -0.4250  0.1670
 8496TIP3   OH225428   3.160   5.019   4.201  0.2572  0.4462 -0.0606
 8496TIP3    H125429   3.088   4.959   4.222  2.0475 -2.1320 -0.9805
 8496TIP3    H225430   3.168   5.015   4.106 -0.1613  2.8768 -0.2138
 8497TIP3   OH225431   0.967   5.747   1.947 -0.7446 -0.1861 -0.0532
 8497TIP3    H125432   1.032   5.756   2.017  0.1407  0.2960 -0.9190
 8497TIP3    H225433   0.930   5.834   1.937 -1.2498 -0.3742  0.1737
 8498TIP3   OH225434   1.724   4.864   1.522 -0.1152  0.0546 -0.0929
 8498TIP3    H125435   1.808   4.910   1.530 -0.1428  0.3370 -1.2777
 8498TIP3    H225436   1.708   4.828   1.609  2.3946 -2.0256 -0.4322
 8499TIP3   OH225437   2.949   4.372   4.893  0.1213 -0.5313  0.5089
 8499TIP3    H125438   3.017   4.321   4.848  0.9078  0.4587  0.5400
 8499TIP3    H225439   2.920   4.316   4.964  0.9761 -0.9357  0.5469
 8500TIP3   OH225440   1.539   5.424   1.492 -0.1014  0.2872  0.0718
 8500TIP3    H125441   1.546   5.366   1.569  3.1896 -1.9684 -1.7754
 8500TIP3    H225442   1.464   5.390   1.444  0.2675 -0.8961  0.2963
 8501TIP3   OH225443   2.275   5.769   3.152  0.1138  0.3732  0.2142
 8501TIP3    H125444   2.251   5.850   3.195 -1.0872 -0.1562  0.5436
 8501TIP3    H225445   2.231   5.773   3.067  1.5089  0.8724 -0.5068
 8502TIP3   OH225446   1.499   3.741   5.918 -0.4251  0.4920 -0.5121
 8502TIP3    H125447   1.436   3.717   5.986 -2.3514  0.6535 -2.1936
 8502TIP3    H225448   1.539   3.822   5.949 -1.3125  0.5873  0.3961
 8503TIP3   OH225449   1.526   6.112   6.759 -0.5562 -0.2294  0.0764
 8503TIP3    H125450   1.450   6.097   6.702  0.9559  0.6554 -2.2544
 8503TIP3    H225451   1.574   6.030   6.757 -0.0056  0.1004 -0.7417
 8504TIP3   OH225452   1.615   6.352   2.274 -0.0146 -0.2606  0.3410
 8504TIP3    H125453   1.540   6.409   2.293 -0.3731 -1.2254  2.0427
 8504TIP3    H225454   1.687   6.388   2.325  0.1741 -0.4163  0.1871
 8505TIP3   OH225455   2.835   4.486   3.990 -0.0539 -0.4339 -0.4527
 8505TIP3    H125456   2.775   4.540   3.939  1.2072  0.6812 -0.7990
 8505TIP3    H225457   2.843   4.532   4.074 -0.8599 -1.3889  0.1534
 8506TIP3   OH225458   5.564   0.964   5.101  0.5629 -0.0113  0.2201
 8506TIP3    H125459   5.488   0.907   5.114  0.9437 -0.3502  0.9576
 8506TIP3    H225460   5.529   1.039   5.052 -0.1134 -0.4672 -0.0069
 8507TIP3   OH225461   2.978   6.607   4.434 -0.2939  0.3649  0.3850
 8507TIP3    H125462   3.039   6.673   4.467  0.3057  0.2724 -0.5103
 8507TIP3    H225463   3.033   6.544   4.388 -0.8616 -0.7950  1.2659
 8508TIP3   OH225464   1.943   6.258   6.221 -0.3491  0.2916  0.3844
 8508TIP3    H125465   1.969   6.336   6.173  0.2818  0.5054  1.0729
 8508TIP3    H225466   1.940   6.286   6.312  1.1664 -0.8220  0.7854
 8509TIP3   OH225467   3.509   4.752   4.818  0.2326  0.3231 -0.6396
 8509TIP3    H125468   3.427   4.754   4.867 -0.5675 -2.2467 -1.7739
 8509TIP3    H225469   3.522   4.842   4.788 -2.7412  0.5608 -1.3761
 8510TIP3   OH225470   3.826   6.429   3.254 -0.2545  0.2344 -0.2051
 8510TIP3    H125471   3.737   6.406   3.230 -0.9320  3.0659 -0.6001
 8510TIP3    H225472   3.826   6.525   3.256  2.4355  0.2506  1.0631
 8511TIP3   OH225473   4.720   4.774   2.039  0.3847 -0.8362 -0.1814
 8511TIP3    H125474   4.661   4.778   2.114 -1.9640 -2.8209 -1.8674
 8511TIP3    H225475   4.690   4.845   1.981 -0.4677 -1.9144 -1.0873
 8512TIP3   OH225476   3.803   6.264   3.597 -0.3979  0.2224  0.4900
 8512TIP3    H125477   3.798   6.262   3.502  0.3536 -0.1908  0.4589
 8512TIP3    H225478   3.896   6.273   3.616 -0.5551  0.4110  1.1856
 8513TIP3   OH225479   2.783   6.686   4.202  0.0728  0.1376  0.5347
 8513TIP3    H125480   2.832   6.765   4.227  0.5495  0.4016 -1.1521
 8513TIP3    H225481   2.832   6.650   4.128 -0.2172 -1.6934  1.2109
 8514TIP3   OH225482   4.154   7.205   5.832 -0.7837  0.5012 -0.1827
 8514TIP3    H125483   4.245   7.231   5.850 -0.1661 -0.7687 -1.3536
 8514TIP3    H225484   4.152   7.111   5.850 -2.0759  0.6534  0.5525
 8515TIP3   OH225485   2.607   6.189   4.828  0.1473 -0.4721 -0.1521
 8515TIP3    H125486   2.631   6.153   4.913  1.3711 -0.1654 -0.3483
 8515TIP3    H225487   2.524   6.146   4.806 -0.2271 -0.4744  1.2290
 8516TIP3   OH225488   4.478   3.768   2.372  0.1771  0.5581  1.0019
 8516TIP3    H125489   4.407   3.831   2.361  1.0276  1.7121  1.9798
 8516TIP3    H225490   4.464   3.703   2.304 -2.1333  0.4858  1.5095
 8517TIP3   OH225491   5.599   6.625   3.134  0.5714 -0.0599  0.3763
 8517TIP3    H125492   5.551   6.660   3.210 -0.6354 -1.4255  0.2630
 8517TIP3    H225493   5.655   6.697   3.106 -0.0615  0.9569  1.6602
 8518TIP3   OH225494   4.540   5.103   4.666 -0.2122 -0.3185  0.0837
 8518TIP3    H125495   4.587   5.161   4.726 -0.7425  1.1115 -0.8343
 8518TIP3    H225496   4.586   5.112   4.583 -0.4517 -1.0315 -0.1300
 8519TIP3   OH225497   0.053   0.624   3.933  0.4617 -0.1554 -0.3603
 8519TIP3    H125498   0.104   0.685   3.881 -1.4061  0.6310 -1.3156
 8519TIP3    H225499   0.044   0.547   3.877 -1.5083  0.6732 -1.2155
 8520TIP3   OH225500   1.149   8.000   2.350  0.5218  0.6190  0.6033
 8520TIP3    H125501   1.131   7.976   2.259 -0.3585  1.8681  0.4421
 8520TIP3    H225502   1.160   7.916   2.394  1.9791  0.0078 -0.8396
 8521TIP3   OH225503   3.016   7.849   4.239 -0.3061 -0.4045  0.2320
 8521TIP3    H125504   2.946   7.786   4.222  2.0348 -3.2456  0.7378
 8521TIP3    H225505   3.030   7.844   4.334  1.1722 -0.5553  0.0133
 8522TIP3   OH225506   4.838   6.844   4.078 -0.0299 -0.2504  0.1484
 8522TIP3    H125507   4.905   6.778   4.061 -0.3234 -1.0335  1.8894
 8522TIP3    H225508   4.878   6.902   4.143 -0.5649  0.0348  0.2256
 8523TIP3   OH225509   2.780   6.566   4.636  0.8846 -0.0380  0.2119
 8523TIP3    H125510   2.845   6.577   4.567  0.4299 -1.7352 -0.5005
 8523TIP3    H225511   2.777   6.472   4.652  0.1805  0.2265  1.7750
 8524TIP3   OH225512   3.986   7.212   3.251 -0.0311 -0.3890 -0.7708
 8524TIP3    H125513   4.025   7.296   3.226 -0.6097  0.1884  0.2120
 8524TIP3    H225514   4.007   7.203   3.344 -0.5133 -1.0316 -0.7250
 8525TIP3   OH225515   1.805   7.154   4.641  0.3869 -0.8881  0.1183
 8525TIP3    H125516   1.894   7.130   4.613 -0.7100 -2.5303 -2.1372
 8525TIP3    H225517   1.803   7.249   4.637  1.6148 -0.9056 -1.2592
 8526TIP3   OH225518   3.609   7.126   2.092 -0.0450 -0.6573 -0.4563
 8526TIP3    H125519   3.544   7.131   2.162 -0.6203 -0.3768 -1.0081
 8526TIP3    H225520   3.595   7.040   2.052  0.3640 -0.8675 -0.1595
 8527TIP3   OH225521   2.077   4.308   4.287  0.3315 -0.1994  0.1147
 8527TIP3    H125522   2.007   4.285   4.225  0.7607  1.3073 -0.9668
 8527TIP3    H225523   2.157   4.279   4.244  0.4586 -0.9461  0.8620
 8528TIP3   OH225524   3.043   7.868   4.508  0.3444 -0.5141  0.2561
 8528TIP3    H125525   3.090   7.931   4.562  2.6459 -1.4813 -0.5384
 8528TIP3    H225526   2.959   7.858   4.550  1.2100  0.5394  2.2987
 8529TIP3   OH225527   3.843   4.937   3.605  0.2835  0.4079 -0.0738
 8529TIP3    H125528   3.774   4.914   3.668 -1.3581  0.7108 -1.7349
 8529TIP3    H225529   3.799   4.940   3.521  2.0172  2.2065 -0.9548
 8530TIP3   OH225530   1.814   6.685   3.842 -0.1707 -0.3238  0.0819
 8530TIP3    H125531   1.757   6.753   3.805  0.7183  0.2274 -0.3072
 8530TIP3    H225532   1.891   6.733   3.872  0.0737 -1.0564  0.6251
 8531TIP3   OH225533   3.449   5.194   3.655  0.9017  0.4302 -0.7873
 8531TIP3    H125534   3.366   5.236   3.676  0.7523 -0.6347  0.8519
 8531TIP3    H225535   3.515   5.248   3.698  1.0111  0.8905 -1.5211
 8532TIP3   OH225536   2.754   5.563   4.544  0.5000  0.0605 -0.0327
 8532TIP3    H125537   2.668   5.604   4.544  0.1607 -0.6389 -1.3369
 8532TIP3    H225538   2.778   5.557   4.636  0.3610  2.7670  0.2213
 8533TIP3   OH225539   5.268   6.175   4.304  1.0827 -0.5962  0.3518
 8533TIP3    H125540   5.209   6.159   4.230  0.8323 -0.8586  0.6130
 8533TIP3    H225541   5.238   6.116   4.373 -0.2876  1.4617  1.5594
 8534TIP3   OH225542   2.481   4.607   6.785 -0.2732  0.0065  0.5856
 8534TIP3    H125543   2.414   4.675   6.796 -1.4347 -1.2505  1.6346
 8534TIP3    H225544   2.472   4.553   6.864  2.0887 -0.0991  0.7965
 8535TIP3   OH225545   3.991   6.629   3.030  0.5214 -0.8702  0.9376
 8535TIP3    H125546   4.031   6.605   3.114  0.1360 -1.2977  1.0058
 8535TIP3    H225547   4.059   6.676   2.983  0.5639 -0.1227  1.7286
 8536TIP3   OH225548   4.720   5.146   2.492 -0.1561 -0.2386  0.1107
 8536TIP3    H125549   4.736   5.222   2.437  0.8371  0.8063  1.7943
 8536TIP3    H225550   4.806   5.104   2.500  0.0170  0.4375  2.0294
 8537TIP3   OH225551   3.594   5.689   2.945 -0.7232 -0.1095 -0.2616
 8537TIP3    H125552   3.530   5.760   2.958  0.3555  1.0182 -0.9796
 8537TIP3    H225553   3.540   5.611   2.934 -1.9279  0.5172  0.9882
 8538TIP3   OH225554   3.761   7.130   4.113  0.0154 -0.2703  0.6849
 8538TIP3    H125555   3.706   7.139   4.035  0.1742 -0.6532  0.5275
 8538TIP3    H225556   3.847   7.163   4.087 -0.3495  1.0980  1.1742
 8539TIP3   OH225557   3.758   6.972   1.275 -0.4647  0.1611  0.0957
 8539TIP3    H125558   3.783   6.916   1.202  0.6238  0.3951  0.2727
 8539TIP3    H225559   3.695   6.921   1.325 -0.4103 -0.4137 -0.4284
 8540TIP3   OH225560   3.484   7.294   3.634 -0.2519 -0.3613  0.1522
 8540TIP3    H125561   3.498   7.389   3.633  1.3833 -0.5661  1.4440
 8540TIP3    H225562   3.529   7.263   3.556 -1.9314  0.0647 -0.9975
 8541TIP3   OH225563   1.599   5.851   4.734 -0.6292  0.3092 -0.5175
 8541TIP3    H125564   1.591   5.825   4.642 -1.2005  0.4087 -0.4951
 8541TIP3    H225565   1.562   5.778   4.783 -0.3378  0.2629 -0.3615
 8542TIP3   OH225566   3.144   4.390   2.918  0.8515  0.4899 -0.3182
 8542TIP3    H125567   3.169   4.455   2.853 -0.5174  0.1789 -1.1677
 8542TIP3    H225568   3.048   4.385   2.912  0.6663  0.7661  2.0065
 8543TIP3   OH225569   2.087   4.474   2.924  0.4675 -0.1478  0.0232
 8543TIP3    H125570   2.002   4.432   2.907  0.5895 -0.6078  0.5605
 8543TIP3    H225571   2.072   4.566   2.905 -0.1299 -0.2459  0.0146
 8544TIP3   OH225572   6.580   0.316   4.670 -0.1740 -0.0424  0.3043
 8544TIP3    H125573   6.535   0.356   4.597 -0.2034 -1.6598 -0.5829
 8544TIP3    H225574   6.668   0.353   4.668 -1.2247  2.6382  1.6616
 8545TIP3   OH225575   1.476   6.842   4.210 -0.7658  0.3293  0.1966
 8545TIP3    H125576   1.432   6.757   4.210 -1.3564  0.5968  2.1354
 8545TIP3    H225577   1.446   6.884   4.291  0.7066  1.7544  0.0310
 8546TIP3   OH225578   2.735   5.345   2.316  0.1868  0.1893 -1.1334
 8546TIP3    H125579   2.820   5.344   2.272 -0.0941  1.9556 -1.7820
 8546TIP3    H225580   2.708   5.254   2.319  3.0678 -0.6869  0.9822
 8547TIP3   OH225581   1.526   5.592   5.489 -0.6914 -0.0865 -0.0951
 8547TIP3    H125582   1.472   5.521   5.453 -1.3240 -0.1617  0.9830
 8547TIP3    H225583   1.511   5.665   5.429  0.6850 -1.1071 -1.7470
 8548TIP3   OH225584   6.184   6.918   4.914 -0.1215 -0.2617  0.1914
 8548TIP3    H125585   6.260   6.949   4.865  0.2302 -0.6370  0.4890
 8548TIP3    H225586   6.108   6.949   4.865  0.1823 -3.2313 -2.2839
 8549TIP3   OH225587   3.128   5.767   4.874  0.1536 -0.1377  0.0427
 8549TIP3    H125588   3.218   5.797   4.885 -1.2991  3.0221  4.1908
 8549TIP3    H225589   3.108   5.786   4.782  3.4985 -0.5055 -0.8374
 8550TIP3   OH225590   3.645   1.850   0.454  0.0247 -0.3380  0.5795
 8550TIP3    H125591   3.633   1.775   0.394 -0.5070 -0.3983  0.7630
 8550TIP3    H225592   3.728   1.889   0.425  1.1005 -1.8959  1.4505
 8551TIP3   OH225593   3.842   6.518   3.771  0.0902 -0.1091  0.4807
 8551TIP3    H125594   3.809   6.455   3.706 -1.3111 -1.0622  2.0655
 8551TIP3    H225595   3.926   6.547   3.736  0.4736 -2.4080 -0.5963
 8552TIP3   OH225596   5.957   6.364   3.550 -0.1484  0.4411 -0.0822
 8552TIP3    H125597   5.979   6.315   3.471 -1.8518 -0.4637 -0.0258
 8552TIP3    H225598   6.041   6.385   3.590  0.6564 -0.9473 -1.0205
 8553TIP3   OH225599   2.592   6.736   4.723 -0.1670 -0.5439 -0.0513
 8553TIP3    H125600   2.643   6.810   4.755  2.1024 -1.6107 -1.0942
 8553TIP3    H225601   2.655   6.665   4.715 -2.1353 -2.3560  0.0915
 8554TIP3   OH225602   3.140   6.894   4.793  0.1806  0.4987  0.3306
 8554TIP3    H125603   3.095   6.816   4.826  0.3587  0.1300 -0.2764
 8554TIP3    H225604   3.203   6.859   4.730  1.3671  1.0029  1.2330
 8555TIP3   OH225605   4.025   5.185   4.448  0.1203  0.2233  0.5913
 8555TIP3    H125606   4.097   5.140   4.493 -0.2234 -2.5104 -1.4568
 8555TIP3    H225607   4.066   5.260   4.406  1.2191  0.3895  1.9574
 8556TIP3   OH225608   1.639   6.557   4.017  0.4594 -0.9206  0.2491
 8556TIP3    H125609   1.648   6.463   4.031  0.4822 -1.1625 -1.2821
 8556TIP3    H225610   1.691   6.575   3.938  0.1367  0.3093  0.3008
 8557TIP3   OH225611   6.983   0.125   4.079 -0.0915 -0.2641 -0.2611
 8557TIP3    H125612   7.008   0.127   4.171  0.6148  1.3493 -0.4799
 8557TIP3    H225613   7.064   0.103   4.033 -0.8367 -2.9191 -0.3780
 8558TIP3   OH225614   4.858   3.433   1.300  0.2103 -0.0740 -0.0290
 8558TIP3    H125615   4.876   3.367   1.367  0.5061 -0.0374 -0.0749
 8558TIP3    H225616   4.859   3.385   1.218 -0.3563 -0.1571  0.0078
 8559TIP3   OH225617   3.379   6.562   1.573  0.1424 -0.4601  0.0851
 8559TIP3    H125618   3.385   6.526   1.661  2.9599 -1.9202 -0.6215
 8559TIP3    H225619   3.309   6.512   1.531 -0.8189 -0.1525  1.3279
 8560TIP3   OH225620   3.204   7.204   3.013  0.3437  0.2490 -0.3836
 8560TIP3    H125621   3.159   7.120   3.001  2.8777 -0.9980 -1.5915
 8560TIP3    H225622   3.177   7.256   2.937 -0.9998  0.4373  0.2120
 8561TIP3   OH225623   2.940   6.818   1.489 -0.2223 -0.5582  0.0832
 8561TIP3    H125624   2.984   6.812   1.404 -0.4775 -0.7177 -0.0366
 8561TIP3    H225625   2.984   6.891   1.533 -1.0781  0.5111 -0.7681
 8562TIP3   OH225626   3.637   2.906   3.134  0.2662 -0.3223  0.4361
 8562TIP3    H125627   3.650   2.967   3.207 -0.9965 -0.4071  0.7554
 8562TIP3    H225628   3.614   2.962   3.060 -1.0018 -0.3897  0.7562
 8563TIP3   OH225629   2.279   7.081   3.403 -0.3207 -0.0321  0.3305
 8563TIP3    H125630   2.311   6.995   3.430  1.0911  0.1666 -0.6455
 8563TIP3    H225631   2.305   7.089   3.311 -0.3106  1.4917  0.4448
 8564TIP3   OH225632   4.903   3.887   4.380  0.0368  0.6363 -0.1466
 8564TIP3    H125633   4.886   3.980   4.364 -2.7904  0.4474  1.4923
 8564TIP3    H225634   4.856   3.841   4.310  0.2415  0.3816 -0.1188
 8565TIP3   OH225635   3.368   6.717   5.892  0.4024  0.0140  0.0459
 8565TIP3    H125636   3.433   6.774   5.933 -0.4174 -0.1510  1.6329
 8565TIP3    H225637   3.292   6.724   5.949 -0.3651 -1.1730 -0.8173
 8566TIP3   OH225638   1.626   6.833   2.808  0.0099  0.3298  0.0326
 8566TIP3    H125639   1.588   6.770   2.869  0.6095  0.0608  0.1318
 8566TIP3    H225640   1.599   6.803   2.721  0.1906  0.0103  0.0889
 8567TIP3   OH225641   2.267   5.317   3.984 -0.1368  0.1872 -0.3227
 8567TIP3    H125642   2.196   5.346   4.042 -0.1739 -0.5208  0.0064
 8567TIP3    H225643   2.235   5.333   3.896 -0.9679 -0.6742 -0.1920
 8568TIP3   OH225644   2.282   7.836   3.091 -0.2559 -0.1827 -0.1681
 8568TIP3    H125645   2.326   7.842   3.176 -0.4473 -2.5262  0.1171
 8568TIP3    H225646   2.204   7.782   3.108 -1.2075  0.7498 -1.4773
 8569TIP3   OH225647   4.173   7.374   4.233  0.0970 -0.1831  0.0998
 8569TIP3    H125648   4.256   7.411   4.263  0.2864 -0.0480 -0.5733
 8569TIP3    H225649   4.135   7.442   4.176 -1.3351  0.4891  1.8241
 8570TIP3   OH225650   2.972   6.131   2.631  0.1082 -0.4378  0.0993
 8570TIP3    H125651   2.952   6.093   2.545  1.1606 -1.8237  0.4418
 8570TIP3    H225652   3.067   6.127   2.637  0.0019 -1.0972  1.6458
 8571TIP3   OH225653   5.292   5.422   3.182  0.4337  0.1874 -0.1068
 8571TIP3    H125654   5.312   5.492   3.119  1.5359  0.7639  0.8479
 8571TIP3    H225655   5.289   5.467   3.266 -0.3664 -0.6853  0.3342
 8572TIP3   OH225656   4.656   5.752   4.294 -0.1413 -0.3576 -0.3839
 8572TIP3    H125657   4.710   5.708   4.229  1.3831  0.4237  0.3131
 8572TIP3    H225658   4.693   5.725   4.378 -0.3033  0.8178  0.0874
 8573TIP3   OH225659   3.794   5.517   3.188 -0.4484  0.1175 -0.1610
 8573TIP3    H125660   3.828   5.436   3.225  0.2490  0.2335 -0.5445
 8573TIP3    H225661   3.735   5.488   3.118  1.0732 -0.0380 -1.4003
 8574TIP3   OH225662   2.343   4.149   2.544  0.1519  0.5332 -0.0340
 8574TIP3    H125663   2.370   4.181   2.630 -0.0137  0.8734 -0.1069
 8574TIP3    H225664   2.249   4.163   2.541  0.5340  3.1254 -1.3350
 8575TIP3   OH225665   2.910   4.801   3.604 -0.5007  0.1680 -0.4049
 8575TIP3    H125666   2.821   4.817   3.636  0.4025 -0.0511  2.4029
 8575TIP3    H225667   2.928   4.710   3.628  1.9503  1.4521  2.9525
 8576TIP3   OH225668   3.468   5.443   1.500  0.1465 -0.1384 -0.1823
 8576TIP3    H125669   3.397   5.428   1.437 -0.4587 -1.1098  0.7034
 8576TIP3    H225670   3.528   5.370   1.486  1.5905  1.2870 -1.7084
 8577TIP3   OH225671   3.524   6.667   3.398  0.7481  0.3097 -0.3398
 8577TIP3    H125672   3.597   6.689   3.340  0.7142  3.2268  0.6243
 8577TIP3    H225673   3.447   6.702   3.353 -0.0156 -2.1155 -1.0032
 8578TIP3   OH225674   4.276   4.956   3.221  0.5494  0.4752 -0.1273
 8578TIP3    H125675   4.245   5.022   3.283  0.3294  0.1152  0.1392
 8578TIP3    H225676   4.222   4.879   3.237  1.9218 -0.3330  0.7044
 8579TIP3   OH225677   3.078   5.922   4.100  0.0577 -0.6981 -0.1475
 8579TIP3    H125678   3.059   5.983   4.029  0.6448  0.5008  0.6919
 8579TIP3    H225679   3.009   5.856   4.095 -1.0472  0.4750 -0.6140
 8580TIP3   OH225680   4.317   5.667   2.552 -0.3546  0.4373 -0.0983
 8580TIP3    H125681   4.332   5.573   2.551  0.1955  0.5108  0.4918
 8580TIP3    H225682   4.239   5.679   2.606  0.5709  0.4385  1.2670
 8581TIP3   OH225683   5.385   5.399   4.142  0.1277  0.2103  0.1105
 8581TIP3    H125684   5.455   5.355   4.094 -0.0951 -0.1012  0.0713
 8581TIP3    H225685   5.332   5.328   4.177  0.0311  0.4416  0.4372
 8582TIP3   OH225686   4.242   4.810   1.578  0.2851 -0.2044  0.4442
 8582TIP3    H125687   4.275   4.791   1.491 -1.7703 -1.6111 -0.0643
 8582TIP3    H225688   4.199   4.895   1.569  0.3029 -0.2274  0.1512
 8583TIP3   OH225689   6.600   0.207   5.179 -0.1542  0.0232  0.0061
 8583TIP3    H125690   6.686   0.180   5.211 -0.0608  0.1797 -0.1088
 8583TIP3    H225691   6.594   0.166   5.092  0.0701  0.5226 -0.2526
 8584TIP3   OH225692   2.795   5.585   4.814 -0.2925 -0.2087 -0.7528
 8584TIP3    H125693   2.839   5.561   4.896 -0.3769  0.3365 -0.5413
 8584TIP3    H225694   2.769   5.676   4.828 -1.5902 -0.5634 -0.8424
 8585TIP3   OH225695   2.130   5.803   5.446 -0.7463  0.4495  0.5445
 8585TIP3    H125696   2.126   5.850   5.529 -0.1753  0.2226  0.7069
 8585TIP3    H225697   2.136   5.711   5.471  2.1187  0.5152  0.3528
 8586TIP3   OH225698   1.725   5.756   5.947  0.5041 -0.3128  0.3415
 8586TIP3    H125699   1.787   5.760   6.019 -2.5959 -0.5427  3.1365
 8586TIP3    H225700   1.714   5.847   5.920 -0.4771  0.1490  2.1712
 8587TIP3   OH225701   3.106   3.964   5.001 -0.0359 -0.2004  0.5209
 8587TIP3    H125702   3.190   3.997   5.030  0.4376 -0.4788 -0.4957
 8587TIP3    H225703   3.095   3.998   4.912  1.2806 -4.0722 -1.2640
 8588TIP3   OH225704   2.034   4.734   6.572  0.3158  0.4039  0.8123
 8588TIP3    H125705   2.023   4.811   6.628 -2.2296  1.0011 -0.4501
 8588TIP3    H225706   2.059   4.769   6.487 -0.7729 -0.1529  0.2522
 8589TIP3   OH225707   5.475   5.947   7.001  0.3523  0.1019  0.2277
 8589TIP3    H125708   5.391   5.955   6.957  0.3472 -0.3807  0.1483
 8589TIP3    H225709   5.485   5.854   7.018  0.9142  0.1451  0.1563
 8590TIP3   OH225710   2.564   6.851   4.222  0.0576 -0.0999  0.1137
 8590TIP3    H125711   2.631   6.797   4.179  1.0089  0.8745  0.3575
 8590TIP3    H225712   2.609   6.888   4.298 -1.2052 -0.6627  1.1384
 8591TIP3   OH225713   5.560   6.747   3.940  0.3172  0.1746 -0.2255
 8591TIP3    H125714   5.615   6.743   3.861 -0.8725  4.3043 -1.3683
 8591TIP3    H225715   5.592   6.674   3.994  1.6494 -2.3565 -4.1423
 8592TIP3   OH225716   5.773   6.225   2.584  0.0849  0.0290 -0.4892
 8592TIP3    H125717   5.860   6.262   2.570 -0.2060  1.7578  1.9534
 8592TIP3    H225718   5.773   6.143   2.534  2.7714  0.4767 -1.2886
 8593TIP3   OH225719   1.752   6.787   5.731 -0.6553 -0.1090  0.0652
 8593TIP3    H125720   1.783   6.703   5.765 -0.3130  0.1409  0.3683
 8593TIP3    H225721   1.669   6.802   5.777 -0.9164 -0.4655 -0.2772
 8594TIP3   OH225722   5.739   6.751   3.724  0.1497  0.2659  0.0077
 8594TIP3    H125723   5.811   6.693   3.749  0.5453  0.7296 -0.0734
 8594TIP3    H225724   5.746   6.758   3.629 -0.0109  0.3040 -0.0013
 8595TIP3   OH225725   2.256   6.326   4.615  0.0870 -0.2226  0.4585
 8595TIP3    H125726   2.337   6.367   4.586  0.1389 -0.2404  0.5777
 8595TIP3    H225727   2.187   6.387   4.589  0.0980 -0.4455 -0.0944
 8596TIP3   OH225728   4.636   5.110   4.356  0.1376  0.6329 -0.0816
 8596TIP3    H125729   4.696   5.051   4.401 -1.4290 -0.4199  0.6793
 8596TIP3    H225730   4.676   5.126   4.271  0.3807 -1.8806 -0.4743
 8597TIP3   OH225731   1.831   6.827   3.218  0.4542  0.6034 -0.0335
 8597TIP3    H125732   1.865   6.754   3.166 -0.5424  1.3649 -1.8015
 8597TIP3    H225733   1.899   6.844   3.283  1.4115 -0.8391 -0.6262
 8598TIP3   OH225734   2.614   6.550   4.375 -0.1543 -0.2352 -0.0815
 8598TIP3    H125735   2.654   6.596   4.302  0.8441 -0.4766  0.2996
 8598TIP3    H225736   2.675   6.562   4.448 -0.2630 -1.4802  0.2369
 8599TIP3   OH225737   4.832   7.874   2.293  0.3266  0.2733  0.0056
 8599TIP3    H125738   4.866   7.870   2.382  0.9602 -1.4447 -0.2895
 8599TIP3    H225739   4.799   7.785   2.276  1.0370  0.3240 -1.7864
 8600TIP3   OH225740   4.562   6.723   4.116 -0.1841 -0.3345  0.2654
 8600TIP3    H125741   4.535   6.664   4.186  0.4151 -0.5943  0.2851
 8600TIP3    H225742   4.648   6.755   4.143 -0.0986 -0.1744 -0.1886
 8601TIP3   OH225743   4.128   7.660   2.846 -0.2328  0.3137  0.1138
 8601TIP3    H125744   4.168   7.722   2.785  0.6722  0.1408  0.5203
 8601TIP3    H225745   4.202   7.613   2.885 -0.9327 -1.4077 -0.5815
 8602TIP3   OH225746   2.062   7.836   3.739 -0.0328  0.1457 -0.4625
 8602TIP3    H125747   2.053   7.751   3.783 -0.6426 -0.3993 -1.6237
 8602TIP3    H225748   2.060   7.815   3.646  0.6684  1.3538 -0.7564
 8603TIP3   OH225749   2.666   4.948   3.773 -0.5216  0.1238  0.4944
 8603TIP3    H125750   2.733   4.981   3.833 -1.7039 -0.5364  2.2048
 8603TIP3    H225751   2.597   4.914   3.830 -0.9241 -2.0652 -1.2395
 8604TIP3   OH225752   2.781   5.974   3.616  0.0157 -0.3340 -0.2604
 8604TIP3    H125753   2.776   6.068   3.634 -2.0126 -0.1808 -1.4739
 8604TIP3    H225754   2.827   5.967   3.533  0.1732 -0.4283 -0.1666
 8605TIP3   OH225755   6.833   0.091   5.288  0.2845 -0.3059 -0.4339
 8605TIP3    H125756   6.862   0.028   5.222  0.9467 -0.0178 -0.4244
 8605TIP3    H225757   6.881   0.066   5.367 -0.0637 -0.2862 -0.2129
 8606TIP3   OH225758   1.545   7.089   2.869 -0.1892 -0.0047  0.6389
 8606TIP3    H125759   1.616   7.072   2.931  0.5154 -0.4743 -0.2827
 8606TIP3    H225760   1.530   7.005   2.827 -2.1906 -0.2320  1.7280
 8607TIP3   OH225761   4.546   3.949   4.578 -0.1017  0.1798  0.4249
 8607TIP3    H125762   4.623   3.943   4.635  1.2418  0.0465 -1.3800
 8607TIP3    H225763   4.567   3.894   4.503 -1.4599  1.1042 -0.6556
 8608TIP3   OH225764   5.058   7.496   4.112 -0.5370 -0.0834  0.2038
 8608TIP3    H125765   5.114   7.527   4.183  0.6878 -0.6979 -0.4704
 8608TIP3    H225766   5.055   7.570   4.051  1.0766 -0.6700 -0.6367
 8609TIP3   OH225767   8.328   0.098   2.974  0.7616 -0.4863 -0.1927
 8609TIP3    H125768   8.342   0.129   2.885  0.7752  1.5410  0.4789
 8609TIP3    H225769   8.400   0.037   2.990  3.3078  2.4210 -0.1158
 8610TIP3   OH225770   3.053   5.574   2.654  0.0908  0.2139  0.2149
 8610TIP3    H125771   3.107   5.581   2.575  0.2431  0.9887  0.3853
 8610TIP3    H225772   2.966   5.550   2.621 -0.0527  1.3507 -0.2614
 8611TIP3   OH225773   3.087   6.078   4.988  0.4544  0.1507 -0.6294
 8611TIP3    H125774   3.153   6.121   4.933 -0.1827  0.8712 -0.8258
 8611TIP3    H225775   3.100   5.985   4.970 -1.6936  0.4529 -4.2935
 8612TIP3   OH225776   4.491   6.146   1.618 -0.6158  0.5304 -0.2719
 8612TIP3    H125777   4.533   6.162   1.702  1.0915 -2.0873 -0.5561
 8612TIP3    H225778   4.503   6.052   1.603 -0.4386  1.0427 -3.6873
 8613TIP3   OH225779   4.861   7.545   3.562 -0.4715 -0.8077 -0.0971
 8613TIP3    H125780   4.868   7.513   3.472 -0.3474  1.3438 -0.8784
 8613TIP3    H225781   4.828   7.634   3.553 -0.8414 -0.7162  2.0228
 8614TIP3   OH225782   6.105   0.015   1.498 -0.0741  0.6233  0.5521
 8614TIP3    H125783   6.156  -0.036   1.561 -0.9139 -0.1186  0.6322
 8614TIP3    H225784   6.124   0.106   1.521  0.8786  0.3620  0.8567
 8615TIP3   OH225785   3.128   4.882   3.163 -0.0466 -0.0261 -0.1788
 8615TIP3    H125786   3.123   4.866   3.257 -0.4941 -1.3624 -0.4204
 8615TIP3    H225787   3.118   4.977   3.155 -0.3975  0.0598  1.0915
 8616TIP3   OH225788   3.016   4.145   3.683 -0.4288 -0.8478 -0.8342
 8616TIP3    H125789   2.994   4.198   3.759 -0.1425  1.8390 -2.5706
 8616TIP3    H225790   3.020   4.055   3.717 -1.6404  0.1160  2.0108
 8617TIP3   OH225791   4.536   6.787   5.421 -0.1936 -0.0279 -0.2596
 8617TIP3    H125792   4.537   6.873   5.462 -0.5600 -0.5934  0.9576
 8617TIP3    H225793   4.446   6.756   5.431  0.5279 -1.6247  1.6018
 8618TIP3   OH225794   4.184   6.002   3.051 -0.0667 -0.3420  0.0086
 8618TIP3    H125795   4.131   5.969   2.979 -0.9868  0.3608  0.3715
 8618TIP3    H225796   4.271   5.964   3.035 -0.4716 -0.8673 -0.9978
 8619TIP3   OH225797   4.553   5.956   3.130 -0.4796  0.0617 -0.3136
 8619TIP3    H125798   4.562   5.905   3.211  0.4670 -0.5608 -0.8128
 8619TIP3    H225799   4.499   5.902   3.073  0.2552 -0.2398 -0.7235
 8620TIP3   OH225800   2.606   4.647   2.663 -0.2320  0.3879  0.0519
 8620TIP3    H125801   2.571   4.597   2.589 -0.4173 -0.1448  0.5025
 8620TIP3    H225802   2.580   4.598   2.740  0.7801  0.4378  0.4316
 8621TIP3   OH225803   4.169   5.644   4.379 -0.2860  0.2849 -0.6015
 8621TIP3    H125804   4.079   5.677   4.370 -0.4163 -0.3885 -1.8245
 8621TIP3    H225805   4.225   5.715   4.349 -0.2845  1.4992  2.1100
 8622TIP3   OH225806   1.916   4.000   2.319 -0.4716  0.1371  0.3980
 8622TIP3    H125807   1.901   3.918   2.273  0.6338 -0.4886  1.1149
 8622TIP3    H225808   1.928   3.975   2.410  1.4716  0.8947  0.3888
 8623TIP3   OH225809   3.672   6.381   4.025  0.2734 -0.4611  0.5084
 8623TIP3    H125810   3.605   6.351   3.964  0.4639  1.0771 -0.4732
 8623TIP3    H225811   3.733   6.431   3.972 -0.8869  3.0293  2.2899
 8624TIP3   OH225812   4.300   3.546   2.208  0.0290  0.4756  0.1585
 8624TIP3    H125813   4.347   3.610   2.154  0.0664 -0.9122 -1.5026
 8624TIP3    H225814   4.323   3.462   2.170 -0.1816 -0.5259  2.2031
 8625TIP3   OH225815   3.907   4.834   1.776 -0.4711  0.1199 -0.2114
 8625TIP3    H125816   3.940   4.921   1.801  1.2396 -0.6191  0.1502
 8625TIP3    H225817   3.838   4.853   1.712  0.0779  1.7301 -0.3605
 8626TIP3   OH225818   5.435   5.032   4.306 -0.4559 -0.1147 -0.0276
 8626TIP3    H125819   5.509   4.977   4.330 -2.4473 -2.6162  0.5509
 8626TIP3    H225820   5.412   5.078   4.387 -1.7818 -2.1019  0.7693
 8627TIP3   OH225821   4.739   6.133   2.185 -0.3188  0.1857 -0.1975
 8627TIP3    H125822   4.752   6.121   2.280  1.1878 -1.0185 -0.5403
 8627TIP3    H225823   4.674   6.203   2.179 -0.9029 -0.1486  1.7422
 8628TIP3   OH225824   2.835   5.699   3.639  0.2732  0.2845  0.1283
 8628TIP3    H125825   2.796   5.785   3.626 -2.3541 -0.9636 -0.4759
 8628TIP3    H225826   2.868   5.674   3.553 -0.8164 -0.1980 -0.1482
 8629TIP3   OH225827   3.349   6.418   2.258  0.7753 -0.3614  0.2631
 8629TIP3    H125828   3.409   6.424   2.332 -2.0331 -1.8846  2.7823
 8629TIP3    H225829   3.264   6.396   2.298 -1.3002  0.9750 -3.2086
 8630TIP3   OH225830   0.381   5.349   4.961  0.1634  0.1769 -0.1211
 8630TIP3    H125831   0.356   5.348   5.054  0.9330  0.7163  0.0950
 8630TIP3    H225832   0.462   5.399   4.959 -0.5368  1.2985 -1.2648
 8631TIP3   OH225833   4.777   5.681   3.535  0.8888 -0.2855 -0.4311
 8631TIP3    H125834   4.800   5.769   3.567  0.7141 -0.2051 -0.5232
 8631TIP3    H225835   4.695   5.660   3.579  0.9469 -0.4169 -0.3857
 8632TIP3   OH225836   2.319   6.825   4.896  0.3021 -0.1418  0.4369
 8632TIP3    H125837   2.345   6.754   4.837 -0.8091 -1.3492  1.3706
 8632TIP3    H225838   2.391   6.833   4.958 -0.0533 -1.2139  0.9957
 8633TIP3   OH225839   2.851   7.250   5.992  0.2034  0.1158  0.2223
 8633TIP3    H125840   2.806   7.193   5.929  1.5161  0.7978 -1.3541
 8633TIP3    H225841   2.878   7.191   6.062 -0.1908 -0.8757 -0.4436
 8634TIP3   OH225842   2.828   6.214   3.757 -0.0874 -0.3363 -0.2289
 8634TIP3    H125843   2.744   6.255   3.779 -0.2402  0.0372 -1.4744
 8634TIP3    H225844   2.872   6.279   3.702 -0.1224 -1.6525 -1.8172
 8635TIP3   OH225845   3.481   6.644   3.943 -0.2444 -0.0083 -0.1689
 8635TIP3    H125846   3.408   6.688   3.988  0.2135  0.2120  0.3667
 8635TIP3    H225847   3.474   6.674   3.853 -0.8414 -0.0172 -0.1306
 8636TIP3   OH225848   0.641   2.050   6.704 -0.3034 -0.5943  0.1863
 8636TIP3    H125849   0.642   2.072   6.798  1.0425 -0.1819  0.0844
 8636TIP3    H225850   0.660   1.957   6.701 -0.0854 -0.5534  0.3091
 8637TIP3   OH225851   1.930   6.469   5.219  0.0560  0.9341  0.3801
 8637TIP3    H125852   2.011   6.423   5.241 -0.9835 -0.2188  1.8655
 8637TIP3    H225853   1.937   6.485   5.125  0.9412 -1.3031  0.0222
 8638TIP3   OH225854   2.860   5.697   1.600 -0.1444  0.0789 -0.6443
 8638TIP3    H125855   2.913   5.617   1.605  0.1738  0.2606 -1.0191
 8638TIP3    H225856   2.806   5.696   1.679  0.7425  0.1159 -0.0286
 8639TIP3   OH225857   4.525   7.910   2.547  0.0912 -0.9978 -0.2926
 8639TIP3    H125858   4.598   7.927   2.607 -0.9259 -0.7666  0.9250
 8639TIP3    H225859   4.534   7.976   2.479  0.7070 -0.6185  0.1490
 8640TIP3   OH225860   1.061   5.294   3.535  0.1582  0.6797 -0.3172
 8640TIP3    H125861   1.117   5.281   3.459 -0.0595 -0.4763 -0.2821
 8640TIP3    H225862   1.038   5.387   3.532  2.4637  1.2948 -0.0774
 8641TIP3   OH225863   3.497   5.472   4.317  0.0345 -0.0961  0.3233
 8641TIP3    H125864   3.556   5.398   4.310 -0.7402 -0.5943 -1.1730
 8641TIP3    H225865   3.535   5.539   4.259 -1.6430 -0.9795 -1.8790
 8642TIP3   OH225866   6.618   1.850   0.351  0.2168  0.0152 -0.2837
 8642TIP3    H125867   6.576   1.901   0.282 -0.6555  0.7078  0.7366
 8642TIP3    H225868   6.562   1.774   0.363  0.2361  0.0156 -0.1843
 8643TIP3   OH225869   4.256   5.120   5.375  0.7800  0.5968 -0.1943
 8643TIP3    H125870   4.306   5.070   5.311 -1.1802 -1.4643 -0.1991
 8643TIP3    H225871   4.250   5.062   5.452  1.6517  2.3525  1.2310
 8644TIP3   OH225872   3.029   7.336   5.361 -0.1699 -0.1657 -0.1211
 8644TIP3    H125873   3.114   7.341   5.405 -0.8154  1.0738  1.0164
 8644TIP3    H225874   2.979   7.273   5.414 -0.5690  0.4746  0.2648
 8645TIP3   OH225875   4.317   7.012   2.915 -0.1553  0.2667  0.3566
 8645TIP3    H125876   4.262   7.091   2.922 -1.2513 -0.3222 -1.2751
 8645TIP3    H225877   4.274   6.948   2.972 -0.7730  0.0377 -0.3515
 8646TIP3   OH225878   4.275   7.334   3.545  0.1863  0.2552  0.3618
 8646TIP3    H125879   4.338   7.334   3.616  0.3980  1.8745  0.1845
 8646TIP3    H225880   4.326   7.355   3.467 -0.1131 -1.1072 -0.2295
 8647TIP3   OH225881   1.700   6.287   1.736  0.5844  0.0353  0.3952
 8647TIP3    H125882   1.662   6.374   1.749  1.9415  0.5834  0.7180
 8647TIP3    H225883   1.733   6.261   1.822  2.5807  0.3580 -0.2428
 8648TIP3   OH225884   2.488   6.244   5.654 -0.0647  0.8994 -0.9703
 8648TIP3    H125885   2.478   6.149   5.661  0.5284  1.0592  2.9879
 8648TIP3    H225886   2.465   6.263   5.563 -2.9772 -2.6804 -1.1162
 8649TIP3   OH225887   3.312   5.246   4.107 -0.3245  0.1017  0.1930
 8649TIP3    H125888   3.240   5.259   4.045  0.0732  1.2572 -0.0335
 8649TIP3    H225889   3.272   5.202   4.182 -1.2147  0.5494 -0.0202
 8650TIP3   OH225890   3.284   7.139   3.978 -0.0193  0.1644  0.0439
 8650TIP3    H125891   3.309   7.058   3.934 -0.3678  0.5017 -0.7737
 8650TIP3    H225892   3.278   7.204   3.908  0.8222  1.0353  0.7653
 8651TIP3   OH225893   3.283   5.875   6.129  0.1546  0.4811  0.1193
 8651TIP3    H125894   3.370   5.835   6.135 -0.1128 -0.0536  0.5050
 8651TIP3    H225895   3.295   5.962   6.167  0.7924  0.8559 -0.9348
 8652TIP3   OH225896   3.985   8.049   4.802 -0.0463  0.0564  0.0802
 8652TIP3    H125897   4.044   8.065   4.727 -2.2501 -1.5559 -2.0687
 8652TIP3    H225898   4.009   7.961   4.832  0.5143  0.5190  0.9985
 8653TIP3   OH225899   3.304   6.559   2.805  0.0583  0.0031 -0.5293
 8653TIP3    H125900   3.325   6.646   2.839 -0.1784 -0.3843  0.6062
 8653TIP3    H225901   3.388   6.526   2.771  0.0374  0.8847 -1.4505
 8654TIP3   OH225902   2.742   5.245   4.092 -0.4100 -0.4474 -0.7065
 8654TIP3    H125903   2.658   5.292   4.087  1.1502  2.3426 -1.6394
 8654TIP3    H225904   2.779   5.273   4.175  0.5400  0.0177 -1.2812
 8655TIP3   OH225905   3.813   4.703   4.520  0.9809  0.2251  0.1246
 8655TIP3    H125906   3.906   4.712   4.540  0.9353 -0.3835  0.6175
 8655TIP3    H225907   3.789   4.787   4.480  1.9324  0.0579 -0.8094
 8656TIP3   OH225908   3.255   6.134   6.198  0.1046 -0.2492  0.5795
 8656TIP3    H125909   3.261   6.226   6.174 -0.3232  0.0948  1.7434
 8656TIP3    H225910   3.189   6.131   6.267 -2.0693 -1.8532 -1.4951
 8657TIP3   OH225911   2.937   4.168   5.076 -0.1834 -0.0455  0.4192
 8657TIP3    H125912   2.990   4.088   5.086  0.4631  0.2411 -0.6309
 8657TIP3    H225913   2.876   4.166   5.150  1.4840 -0.2509  1.8406
 8658TIP3   OH225914   2.170   6.638   6.408  0.1862 -0.1167  0.1504
 8658TIP3    H125915   2.232   6.598   6.470  1.7766 -0.1723 -1.4174
 8658TIP3    H225916   2.151   6.724   6.445  1.9190  0.2532  0.2240
 8659TIP3   OH225917   0.446   5.946   6.785  0.0767 -0.0429  0.0780
 8659TIP3    H125918   0.361   5.940   6.827 -0.5973  1.8448 -0.9485
 8659TIP3    H225919   0.427   5.973   6.695  1.7286  0.0633 -0.2610
 8660TIP3   OH225920   3.485   5.705   4.834  0.4392  0.4894  0.2252
 8660TIP3    H125921   3.529   5.622   4.815  0.5131  0.3139  1.1432
 8660TIP3    H225922   3.554   5.771   4.828  0.6110  0.3451  0.6073
 8661TIP3   OH225923   4.194   6.387   2.383  0.3929  0.2172  0.2891
 8661TIP3    H125924   4.157   6.475   2.384  2.4392  1.1476 -1.4925
 8661TIP3    H225925   4.123   6.330   2.415 -1.1376  2.4114  0.8855
 8662TIP3   OH225926   1.781   7.732   4.094 -0.0582 -0.9588  0.0910
 8662TIP3    H125927   1.736   7.693   4.019 -1.9790 -0.8404  1.1596
 8662TIP3    H225928   1.868   7.692   4.093 -0.7664 -2.5100 -0.9796
 8663TIP3   OH225929   3.815   7.318   5.207 -0.4274  0.0265 -0.0249
 8663TIP3    H125930   3.773   7.404   5.204 -0.6668 -0.0928 -0.0747
 8663TIP3    H225931   3.867   7.314   5.126 -0.4256  0.1209 -0.0282
 8664TIP3   OH225932   2.161   6.175   3.461  0.5071 -0.3898  0.1936
 8664TIP3    H125933   2.109   6.173   3.381 -1.0361 -1.3779  1.2117
 8664TIP3    H225934   2.220   6.100   3.454  0.9329 -0.0060 -0.3780
 8665TIP3   OH225935   6.325   7.099   3.061 -0.7561  0.1680  0.2705
 8665TIP3    H125936   6.340   7.016   3.017 -1.5869  0.5860 -0.8575
 8665TIP3    H225937   6.400   7.111   3.119 -1.0751 -1.7723  1.0940
 8666TIP3   OH225938   6.412   5.610   3.505  0.0528  0.9968 -0.2674
 8666TIP3    H125939   6.363   5.556   3.443  0.4267 -0.5227  0.7218
 8666TIP3    H225940   6.415   5.557   3.585 -0.0623  2.7497  0.9103
 8667TIP3   OH225941   4.017   5.203   3.784 -0.4794 -0.1958 -0.2167
 8667TIP3    H125942   3.927   5.171   3.788  0.0594 -2.1176 -2.4805
 8667TIP3    H225943   4.026   5.238   3.695  0.5834  1.3902  0.4849
 8668TIP3   OH225944   4.129   6.422   3.233 -0.0252 -0.0524 -0.2046
 8668TIP3    H125945   4.154   6.330   3.246 -0.3262  0.1802  2.2585
 8668TIP3    H225946   4.034   6.419   3.219  0.1147 -0.1970 -1.1488
 8669TIP3   OH225947   2.921   6.861   2.002  0.5642 -0.2029 -0.1744
 8669TIP3    H125948   2.971   6.939   1.978 -0.5956  0.7707  0.5282
 8669TIP3    H225949   2.869   6.840   1.925 -0.4804  0.8085  0.2364
 8670TIP3   OH225950   3.211   7.474   3.133 -0.2485  0.0539  0.2622
 8670TIP3    H125951   3.256   7.395   3.104 -0.2794 -0.1204  0.7018
 8670TIP3    H225952   3.253   7.545   3.084 -0.1331 -0.2171 -0.0303
 8671TIP3   OH225953   5.325   4.748   2.513 -0.1683 -0.3175  0.3964
 8671TIP3    H125954   5.331   4.724   2.605 -1.6203 -0.5627  0.4384
 8671TIP3    H225955   5.251   4.698   2.479 -0.6493  0.9616 -0.5145
 8672TIP3   OH225956   3.840   7.929   2.777 -0.1251 -0.1550  0.0235
 8672TIP3    H125957   3.835   7.881   2.694  1.3145  0.1961 -0.2784
 8672TIP3    H225958   3.749   7.932   2.808 -0.4264 -1.8457 -0.6410
 8673TIP3   OH225959   3.841   5.407   1.192 -0.1212  0.0749  0.3018
 8673TIP3    H125960   3.765   5.349   1.203  0.2828 -1.1011 -2.7218
 8673TIP3    H225961   3.915   5.354   1.222  0.2052 -0.8980 -2.1484
 8674TIP3   OH225962   3.772   5.305   2.952  0.4091 -0.3105 -0.2098
 8674TIP3    H125963   3.838   5.292   3.020  0.1007 -1.1076 -0.0548
 8674TIP3    H225964   3.738   5.217   2.935 -0.5691  0.0886 -0.3287
 8675TIP3   OH225965   2.158   5.931   2.271 -0.6067  0.3475 -0.1340
 8675TIP3    H125966   2.120   5.847   2.296  2.1809 -0.8439  0.3965
 8675TIP3    H225967   2.137   5.990   2.342 -2.3056  0.0128 -0.3482
 8676TIP3   OH225968   4.399   6.193   2.864 -0.1185 -0.0574 -0.4898
 8676TIP3    H125969   4.327   6.135   2.837 -1.3539  0.1585  2.2096
 8676TIP3    H225970   4.414   6.172   2.956  4.0533 -0.8570 -1.2455
 8677TIP3   OH225971   4.446   5.612   3.110  0.1707 -0.0972 -0.3227
 8677TIP3    H125972   4.403   5.587   3.192  0.5433  3.0502  0.9206
 8677TIP3    H225973   4.530   5.650   3.138  0.1349  1.3749 -2.1041
 8678TIP3   OH225974   3.270   5.589   3.069 -0.1582 -0.2599 -0.1047
 8678TIP3    H125975   3.244   5.627   2.985 -1.1855 -2.2175 -0.7048
 8678TIP3    H225976   3.328   5.517   3.046  0.9338  0.2771  0.9581
 8679TIP3   OH225977   2.696   7.648   2.615 -0.5170  0.0925 -0.1843
 8679TIP3    H125978   2.692   7.578   2.550 -1.6675 -1.1276  1.1679
 8679TIP3    H225979   2.746   7.611   2.687 -0.2671  1.0242  0.1332
 8680TIP3   OH225980   4.872   4.564   2.364  0.8240 -0.2335 -0.4058
 8680TIP3    H125981   4.925   4.629   2.318 -1.4250  0.7133 -1.7764
 8680TIP3    H225982   4.822   4.615   2.428 -0.2496 -0.7136 -0.8456
 8681TIP3   OH225983   3.163   6.376   3.811 -0.1185 -0.0264  0.0595
 8681TIP3    H125984   3.137   6.429   3.886  0.3018  0.5738 -0.2167
 8681TIP3    H225985   3.211   6.436   3.754  0.3964 -0.7127 -0.2392
 8682TIP3   OH225986   4.432   7.042   5.483 -0.0649  0.0737 -0.0089
 8682TIP3    H125987   4.409   7.135   5.483 -0.4632  0.0161  2.5039
 8682TIP3    H225988   4.470   7.027   5.570  0.1500 -2.0662 -0.4517
 8683TIP3   OH225989   3.998   5.063   5.920  0.1274 -0.2614 -0.2090
 8683TIP3    H125990   3.958   5.032   6.002 -1.2122 -1.0435 -1.1324
 8683TIP3    H225991   3.982   5.157   5.920  2.3756  0.1465  1.6285
 8684TIP3   OH225992   3.714   3.012   2.153  0.2791  0.4638 -0.1206
 8684TIP3    H125993   3.797   3.004   2.105 -0.5819 -0.5247 -1.4725
 8684TIP3    H225994   3.679   2.923   2.154 -0.6600  0.8400  0.6600
 8685TIP3   OH225995   3.277   5.301   3.347  0.8599 -0.7305  0.2534
 8685TIP3    H125996   3.346   5.368   3.343 -0.1906  0.5009  2.0122
 8685TIP3    H225997   3.199   5.349   3.377 -0.8865 -2.0124 -2.1421
 8686TIP3   OH225998   2.064   4.824   3.439 -0.4273  0.1502 -0.2404
 8686TIP3    H125999   2.061   4.746   3.384  0.9764  0.8133 -1.2729
 8686TIP3    H226000   2.155   4.852   3.437 -0.7691  1.4042  0.7189
 8687TIP3   OH226001   5.930   4.321   3.133 -0.1533 -0.1521  0.1429
 8687TIP3    H126002   5.932   4.393   3.071 -1.3306 -1.6732 -1.7227
 8687TIP3    H226003   5.852   4.337   3.186  0.1096  0.4398  0.3551
 8688TIP3   OH226004   2.852   4.798   2.659 -0.1476  0.2186  0.2189
 8688TIP3    H126005   2.876   4.793   2.752 -1.3061  1.7129  0.6151
 8688TIP3    H226006   2.772   4.746   2.652  1.0242 -1.5635 -0.3589
 8689TIP3   OH226007   3.697   6.279   2.615  0.2427  0.1927  0.3611
 8689TIP3    H126008   3.779   6.279   2.565  0.1488 -0.3808  0.2091
 8689TIP3    H226009   3.641   6.340   2.569  1.4054  2.4381  1.8067
 8690TIP3   OH226010   4.787   6.658   3.051 -0.5508 -0.3111  0.4277
 8690TIP3    H126011   4.843   6.581   3.060 -1.0981 -0.8141 -0.4241
 8690TIP3    H226012   4.698   6.623   3.057 -0.7937  0.2793  0.2559
 8691TIP3   OH226013   4.890   7.491   6.691  0.2128  0.5548 -0.1098
 8691TIP3    H126014   4.856   7.581   6.687  0.5348  0.6298 -1.4231
 8691TIP3    H226015   4.973   7.495   6.643 -0.0992 -0.5815 -0.7583
 8692TIP3   OH226016   1.964   7.114   4.266  0.1711  0.5050  0.4128
 8692TIP3    H126017   2.037   7.063   4.232 -0.4463  1.1237 -1.9103
 8692TIP3    H226018   1.888   7.057   4.254 -0.5363  1.9279 -2.2744
 8693TIP3   OH226019   3.519   4.185   1.920 -0.1812  0.2500 -0.1235
 8693TIP3    H126020   3.545   4.101   1.959 -0.8554  0.9677  1.9283
 8693TIP3    H226021   3.601   4.234   1.913  0.2845 -0.6969 -1.7242
 8694TIP3   OH226022   6.365   0.235   3.473  0.4485  0.0570 -0.4618
 8694TIP3    H126023   6.318   0.286   3.407  0.5788  1.6126  0.6162
 8694TIP3    H226024   6.453   0.273   3.474  1.1196 -1.4650 -1.0021
 8695TIP3   OH226025   2.180   7.196   6.425 -0.3448  0.0162 -0.1221
 8695TIP3    H126026   2.192   7.132   6.355 -3.1842  0.3468 -0.9569
 8695TIP3    H226027   2.195   7.281   6.383  0.9849  0.0424  0.4010
 8696TIP3   OH226028   5.338   5.390   5.002  0.8163 -0.3761 -0.3729
 8696TIP3    H126029   5.318   5.315   4.946 -0.8175  0.3513 -0.7902
 8696TIP3    H226030   5.321   5.466   4.946  1.8262  0.3147  0.2522
 8697TIP3   OH226031   1.120   4.172   4.203 -0.1612  0.4729  0.0448
 8697TIP3    H126032   1.047   4.231   4.224 -2.5198 -1.7759 -1.4761
 8697TIP3    H226033   1.104   4.148   4.112  2.5983  0.0176 -0.3369
 8698TIP3   OH226034   6.178   1.267   0.574 -0.0741  0.1676 -0.1451
 8698TIP3    H126035   6.264   1.303   0.594 -0.1939 -0.0981  0.8965
 8698TIP3    H226036   6.129   1.341   0.538  0.4473  0.4329 -0.3146
 8699TIP3   OH226037   2.659   8.075   3.266 -0.0068 -0.2393 -0.3919
 8699TIP3    H126038   2.568   8.085   3.236 -0.6436 -0.3349  1.4339
 8699TIP3    H226039   2.652   8.071   3.361  1.8989 -0.5638 -0.2528
 8700TIP3   OH226040   1.814   5.332   4.114 -0.5046  0.1111  0.1302
 8700TIP3    H126041   1.822   5.352   4.207  0.5459  0.9873 -0.1413
 8700TIP3    H226042   1.886   5.271   4.097 -1.9779 -1.7406  0.3360
 8701TIP3   OH226043   7.860   0.748   4.049  0.1937  0.1423 -0.5994
 8701TIP3    H126044   7.811   0.680   4.004  0.8225  0.0822 -1.2136
 8701TIP3    H226045   7.952   0.729   4.028  0.3664  1.2299 -0.8580
 8702TIP3   OH226046   5.377   0.296   3.854  0.0854  0.1508  0.2847
 8702TIP3    H126047   5.335   0.375   3.888  0.3804  0.1712  0.5974
 8702TIP3    H226048   5.374   0.234   3.926  0.4635  0.1018  0.2583
 8703TIP3   OH226049   1.626   7.519   4.745 -0.0496  0.0549 -0.4705
 8703TIP3    H126050   1.535   7.492   4.753  0.2407 -0.4333  1.4287
 8703TIP3    H226051   1.652   7.492   4.657 -2.1466  1.5145 -1.5699
 8704TIP3   OH226052   3.635   7.883   3.760 -0.3968  0.3611  0.4433
 8704TIP3    H126053   3.602   7.906   3.673 -0.3161  1.4124  0.6844
 8704TIP3    H226054   3.559   7.893   3.818 -1.1211 -2.8332  0.1175
 8705TIP3   OH226055   4.561   3.180   2.535  0.0870  0.6671 -0.6155
 8705TIP3    H126056   4.573   3.185   2.440 -1.3848  0.4682 -0.8283
 8705TIP3    H226057   4.501   3.252   2.555  0.6570  0.9168  0.2147
 8706TIP3   OH226058   4.731   3.367   0.279  0.0433 -0.7512  0.0348
 8706TIP3    H126059   4.820   3.336   0.300 -0.1019 -1.5913 -0.5701
 8706TIP3    H226060   4.734   3.461   0.298  1.1212 -0.7323 -0.1476
 8707TIP3   OH226061   2.352   7.353   3.857 -0.0168 -0.2950 -0.7264
 8707TIP3    H126062   2.411   7.349   3.781  1.3549 -0.1107  0.3251
 8707TIP3    H226063   2.408   7.378   3.930 -0.6044 -4.0086  1.1153
 8708TIP3   OH226064   1.737   3.957   2.876 -0.1767  0.5094 -0.0421
 8708TIP3    H126065   1.731   3.865   2.899 -1.0153  0.1264 -1.6866
 8708TIP3    H226066   1.661   3.998   2.917  1.5738  1.0014  2.8715
 8709TIP3   OH226067   3.931   4.888   2.823  0.2962  0.2405  0.3779
 8709TIP3    H126068   4.002   4.946   2.795  0.2732 -0.1710 -0.5420
 8709TIP3    H226069   3.915   4.831   2.748 -1.5162  0.8078  0.3277
 8710TIP3   OH226070   2.458   7.275   3.463  0.0703  0.1464 -0.7866
 8710TIP3    H126071   2.410   7.194   3.446 -0.0750  0.5435 -2.4007
 8710TIP3    H226072   2.393   7.333   3.504  0.3053 -0.7005  0.8105
 8711TIP3   OH226073   1.851   5.878   4.840 -0.8054  0.6689 -0.0905
 8711TIP3    H126074   1.766   5.849   4.808  0.3612 -0.8723 -1.8290
 8711TIP3    H226075   1.880   5.942   4.776 -0.9482  1.7509  0.8969
 8712TIP3   OH226076   5.262   5.001   2.775 -0.0931  0.2801  0.1655
 8712TIP3    H126077   5.340   4.968   2.821 -0.4078 -0.3988  0.2102
 8712TIP3    H226078   5.201   4.927   2.775 -1.0190  1.0328  0.7510
 8713TIP3   OH226079   5.592   0.484   4.112 -0.0168 -0.3187 -0.3922
 8713TIP3    H126080   5.618   0.542   4.184 -1.5147  1.0630 -0.9450
 8713TIP3    H226081   5.507   0.449   4.139 -0.3873 -0.1280 -1.3035
 8714TIP3   OH226082   2.830   3.928   1.390  0.2513 -0.0260  0.1433
 8714TIP3    H126083   2.889   3.907   1.462  1.1881 -0.3832 -0.7150
 8714TIP3    H226084   2.835   4.024   1.382  0.3330 -0.0094  0.3894
 8715TIP3   OH226085   2.978   5.046   3.670 -0.9010 -0.1810 -0.0501
 8715TIP3    H126086   3.070   5.024   3.685 -0.9056  0.4874  0.9493
 8715TIP3    H226087   2.930   4.967   3.696 -0.8214  0.5364  2.3270
 8716TIP3   OH226088   2.618   6.733   3.322  0.1930  0.2913  0.1357
 8716TIP3    H126089   2.626   6.712   3.229 -0.0413 -1.1243  0.4194
 8716TIP3    H226090   2.661   6.660   3.367 -1.1392  0.1169  1.1707
 8717TIP3   OH226091   4.680   7.642   2.249 -0.1716  0.2212  0.0119
 8717TIP3    H126092   4.592   7.660   2.215 -1.2082  1.7353  3.3427
 8717TIP3    H226093   4.673   7.557   2.292 -0.5659  1.2289  1.9996
 8718TIP3   OH226094   5.067   7.153   6.710 -0.2683 -0.2446 -0.1929
 8718TIP3    H126095   5.015   7.132   6.787  0.7588 -0.5330  0.4354
 8718TIP3    H226096   5.091   7.068   6.672  0.6673 -0.1481  0.1593
 8719TIP3   OH226097   3.853   4.654   5.992 -0.3207 -0.2643  0.4717
 8719TIP3    H126098   3.876   4.652   5.899 -0.8293  0.5898  0.3254
 8719TIP3    H226099   3.892   4.734   6.025 -1.3202  0.1407  0.6838
 8720TIP3   OH226100   2.096   4.594   2.487 -0.4113 -0.2749 -0.3637
 8720TIP3    H126101   2.043   4.661   2.528 -2.5997 -1.3160 -1.4196
 8720TIP3    H226102   2.064   4.512   2.524  0.2227 -0.9370 -1.2576
 8721TIP3   OH226103   6.613   4.860   4.502 -0.1865  1.0313  0.2505
 8721TIP3    H126104   6.529   4.896   4.473 -0.0049  1.8532  0.7165
 8721TIP3    H226105   6.677   4.927   4.480  0.5063 -0.0552 -1.0717
 8722TIP3   OH226106   0.074   1.041   4.861  0.2759 -0.1899  0.2331
 8722TIP3    H126107   0.078   0.946   4.867  1.0183 -0.1960 -0.3326
 8722TIP3    H226108   0.014   1.067   4.931 -1.0563 -1.1650 -0.5519
 8723TIP3   OH226109   3.103   7.921   2.361  0.4397  0.3069 -0.1978
 8723TIP3    H126110   3.021   7.874   2.379  0.4318  0.3400 -0.1503
 8723TIP3    H226111   3.076   8.010   2.342  0.3496  0.0162 -1.4735
 8724TIP3   OH226112   5.626   3.849   2.432  0.5211  0.2459 -0.2172
 8724TIP3    H126113   5.642   3.938   2.403 -1.4042  0.5712 -0.3603
 8724TIP3    H226114   5.689   3.796   2.383  0.8047  1.3723 -1.0919
 8725TIP3   OH226115   2.906   6.092   0.847  0.6812  0.1043  0.7340
 8725TIP3    H126116   2.959   6.039   0.906  0.1759  0.6144  1.6616
 8725TIP3    H226117   2.903   6.179   0.889 -0.3449  0.2473  0.3722
 8726TIP3   OH226118   6.306   5.723   1.340  0.3202  0.0788 -0.2536
 8726TIP3    H126119   6.240   5.674   1.291  2.1265 -2.4289 -0.3172
 8726TIP3    H226120   6.360   5.764   1.273 -1.4859  2.6498 -0.1936
 8727TIP3   OH226121   6.375   0.489   1.258  0.5368 -0.1652  0.0116
 8727TIP3    H126122   6.396   0.572   1.215  0.9291 -0.5772 -0.6032
 8727TIP3    H226123   6.388   0.506   1.351  1.9751  0.0779 -0.2152
 8728TIP3   OH226124   4.530   6.834   3.875 -0.6571  0.5631  0.0034
 8728TIP3    H126125   4.441   6.867   3.862 -1.4951 -0.9524  1.5195
 8728TIP3    H226126   4.527   6.792   3.961  1.5314  0.4597  0.0649
 8729TIP3   OH226127   5.920   0.562   0.814 -0.0156 -0.1933 -0.3986
 8729TIP3    H126128   5.916   0.574   0.719  0.3429 -0.4147 -0.4446
 8729TIP3    H226129   6.001   0.513   0.828 -0.5741 -1.0253 -0.0579
 8730TIP3   OH226130   0.077   0.672   3.003 -0.1779 -0.1867 -0.5056
 8730TIP3    H126131   0.026   0.726   3.063 -0.1354 -0.8762  0.1527
 8730TIP3    H226132   0.011   0.626   2.950 -0.2135  1.5329 -2.0094
 8731TIP3   OH226133   5.597   5.581   3.478  0.5436  0.0741 -0.2932
 8731TIP3    H126134   5.621   5.658   3.528 -1.8483  1.4736 -1.2173
 8731TIP3    H226135   5.574   5.515   3.544  0.2272  0.9327  0.4561
 8732TIP3   OH226136   6.229   6.284   2.140  0.3692  0.5290  0.1325
 8732TIP3    H126137   6.235   6.378   2.158 -1.2755  0.5169  0.8256
 8732TIP3    H226138   6.178   6.278   2.059  2.1806  0.2957 -1.0232
 8733TIP3   OH226139   5.179   6.282   2.764  0.2828  0.4562  0.1631
 8733TIP3    H126140   5.207   6.245   2.848  3.4435 -0.1044 -1.0611
 8733TIP3    H226141   5.173   6.207   2.705 -3.9021  0.5731  0.3102
 8734TIP3   OH226142   5.634   7.432   4.442 -0.0833 -0.3308 -0.5289
 8734TIP3    H126143   5.699   7.373   4.481  0.7051  0.4192 -0.6693
 8734TIP3    H226144   5.559   7.377   4.422 -0.3796 -0.7870  1.7594
 8735TIP3   OH226145   2.096   0.565   3.204 -0.0256  0.1213 -0.4977
 8735TIP3    H126146   2.028   0.498   3.206  1.3935 -1.3927 -1.3283
 8735TIP3    H226147   2.106   0.586   3.111 -0.7309  1.7791 -0.2087
 8736TIP3   OH226148   5.426   6.883   1.538  0.4332 -0.3729  0.0285
 8736TIP3    H126149   5.358   6.931   1.585  0.9293  0.2099  0.1558
 8736TIP3    H226150   5.492   6.863   1.605  1.2639  0.6878 -0.4662
 8737TIP3   OH226151   7.775   0.851   3.786  0.1579 -0.3144 -0.0674
 8737TIP3    H126152   7.687   0.838   3.821 -0.0160  0.3444 -0.2490
 8737TIP3    H226153   7.834   0.824   3.856 -0.1846  0.6438  0.5973
 8738TIP3   OH226154   7.134   7.563   3.067 -0.2074  0.3640 -0.3978
 8738TIP3    H126155   7.145   7.592   3.157 -1.1205  0.4150 -0.3050
 8738TIP3    H226156   7.191   7.487   3.059  2.0044  1.9830 -0.5641
 8739TIP3   OH226157   4.194   3.378   2.788  0.0552  0.3597  0.4524
 8739TIP3    H126158   4.109   3.408   2.757 -0.4300  0.3302  1.7024
 8739TIP3    H226159   4.245   3.458   2.800 -0.6557  0.5974  2.1149
 8740TIP3   OH226160   5.140   5.781   3.297  0.3057 -0.0002  0.2021
 8740TIP3    H126161   5.194   5.745   3.367  0.0740  0.1496  0.4565
 8740TIP3    H226162   5.117   5.869   3.327 -0.3956 -0.2021  0.2575
 8741TIP3   OH226163   7.145   7.889   4.754  0.5487  0.1853  0.3981
 8741TIP3    H126164   7.155   7.982   4.773 -0.8465  0.3406  0.4308
 8741TIP3    H226165   7.056   7.868   4.784  0.8351 -1.1415  0.3476
 8742TIP3   OH226166   5.722   7.496   1.684 -0.2792 -0.2663 -0.0578
 8742TIP3    H126167   5.763   7.563   1.739 -1.8268 -1.0015  2.0344
 8742TIP3    H226168   5.631   7.522   1.677 -1.0979 -2.5077  1.4487
 8743TIP3   OH226169   5.811   4.897   4.401  0.2172  0.1549  0.0400
 8743TIP3    H126170   5.879   4.934   4.456 -0.0323  0.0424  0.4262
 8743TIP3    H226171   5.798   4.808   4.434  1.8745 -0.8284 -1.8369
 8744TIP3   OH226172   8.486   0.373   5.963 -0.4300 -0.2604  0.5766
 8744TIP3    H126173   8.573   0.338   5.943 -0.0491 -0.1833  2.0410
 8744TIP3    H226174   8.501   0.432   6.036 -1.5721  0.5156  0.1842
 8745TIP3   OH226175   3.411   7.844   2.678 -0.6050  0.3364  0.1294
 8745TIP3    H126176   3.441   7.910   2.615  1.5779 -2.0713 -1.4296
 8745TIP3    H226177   3.453   7.869   2.760  1.9502 -0.2619 -0.9461
 8746TIP3   OH226178   6.517   6.807   2.292  0.5561 -0.2024 -0.3086
 8746TIP3    H126179   6.504   6.774   2.203  3.5607 -0.3906 -0.7041
 8746TIP3    H226180   6.560   6.736   2.339  1.0255  0.7057  0.6715
 8747TIP3   OH226181   5.894   6.909   1.309  0.0141 -0.3819 -0.1481
 8747TIP3    H126182   5.959   6.842   1.290 -0.2633 -0.2303 -1.6751
 8747TIP3    H226183   5.876   6.950   1.225 -4.3622 -2.5047 -0.3997
 8748TIP3   OH226184   5.037   4.784   3.497  0.3501 -0.2930  0.2826
 8748TIP3    H126185   5.018   4.691   3.510 -0.9410 -0.0025  0.5324
 8748TIP3    H226186   5.003   4.804   3.410  2.0109 -0.4103 -0.4026
 8749TIP3   OH226187   4.991   5.843   4.188 -0.1917 -0.1013  0.4595
 8749TIP3    H126188   4.959   5.795   4.264 -0.9367 -0.2043  0.0851
 8749TIP3    H226189   4.993   5.778   4.118 -1.9805  0.5900 -0.2565
 8750TIP3   OH226190   6.049   5.653   1.838  0.4497 -0.2311 -0.9799
 8750TIP3    H126191   6.072   5.666   1.746  1.1179  1.6582 -0.5785
 8750TIP3    H226192   6.089   5.569   1.862 -1.0100 -1.4618 -2.8061
 8751TIP3   OH226193   7.702   6.034   1.874  0.2868 -0.0928 -0.1836
 8751TIP3    H126194   7.621   6.082   1.854 -0.0474 -0.8697 -0.7002
 8751TIP3    H226195   7.717   5.979   1.798 -0.3828 -2.2334  1.1895
 8752TIP3   OH226196   4.875   7.998   3.642 -0.0804 -0.0267 -0.2909
 8752TIP3    H126197   4.923   8.007   3.724 -0.3450 -0.3403 -0.0990
 8752TIP3    H226198   4.795   7.951   3.667 -0.1284 -0.1806 -0.7393
 8753TIP3   OH226199   5.645   5.351   3.147  0.2021  0.1075  0.2046
 8753TIP3    H126200   5.611   5.440   3.148 -1.1244 -0.2954 -3.2675
 8753TIP3    H226201   5.708   5.350   3.074 -2.3689 -2.6457 -2.0858
 8754TIP3   OH226202   7.257   5.091   2.559  0.3814  0.2115 -0.1981
 8754TIP3    H126203   7.282   5.040   2.482  0.4427  1.1197 -0.7905
 8754TIP3    H226204   7.170   5.124   2.539  0.8426  1.3486 -0.3345
 8755TIP3   OH226205   5.157   3.349   1.143 -0.1559 -0.0035  0.5222
 8755TIP3    H126206   5.092   3.314   1.081 -0.7514 -1.7218  2.0812
 8755TIP3    H226207   5.182   3.434   1.106 -1.0165 -0.6895 -1.7051
 8756TIP3   OH226208   6.243   7.897   1.474  0.1797 -0.2422 -0.5188
 8756TIP3    H126209   6.252   7.914   1.568 -2.0880 -0.6258 -0.2096
 8756TIP3    H226210   6.171   7.954   1.447  0.5798 -0.4217 -1.9545
 8757TIP3   OH226211   4.262   4.570   2.100  0.4116  0.8138  0.2866
 8757TIP3    H126212   4.249   4.633   2.029  2.4049  0.8359 -0.0773
 8757TIP3    H226213   4.303   4.620   2.170  1.4586  0.0741  0.2216
 8758TIP3   OH226214   3.742   7.641   2.288  0.0070  0.2714 -0.0757
 8758TIP3    H126215   3.692   7.723   2.287 -0.3020  0.0995  0.8235
 8758TIP3    H226216   3.676   7.573   2.300  0.3950 -0.0029  0.5609
 8759TIP3   OH226217   4.614   6.403   2.315 -0.4268 -0.3815 -0.2467
 8759TIP3    H126218   4.579   6.373   2.399 -2.8190 -2.6446 -1.9711
 8759TIP3    H226219   4.618   6.499   2.324  0.3808 -0.6464  2.7793
 8760TIP3   OH226220   4.616   6.276   2.710  0.0193 -0.1111 -0.0165
 8760TIP3    H126221   4.562   6.327   2.650 -0.3774 -1.5664 -0.9106
 8760TIP3    H226222   4.553   6.228   2.764  0.3587  1.7328  2.0700
 8761TIP3   OH226223   3.300   6.750   3.324  0.1864 -0.3791 -0.7108
 8761TIP3    H126224   3.234   6.818   3.327  0.8920  0.2883 -0.2787
 8761TIP3    H226225   3.256   6.672   3.358  0.2553  0.5870  1.6386
 8762TIP3   OH226226   5.000   7.856   2.939 -0.1715 -0.1693  0.8987
 8762TIP3    H126227   5.017   7.812   3.022  1.8903  1.1249  1.2150
 8762TIP3    H226228   4.947   7.932   2.963 -0.8913 -0.6421  0.8131
 8763TIP3   OH226229   4.773   5.669   2.597 -0.6186 -0.3612 -0.4206
 8763TIP3    H126230   4.846   5.656   2.657  0.2934  0.0635 -1.4205
 8763TIP3    H226231   4.695   5.665   2.653  0.2362  0.4812  0.8594
 8764TIP3   OH226232   2.830   7.798   3.558 -0.5093  0.0614 -0.3050
 8764TIP3    H126233   2.742   7.760   3.548 -0.6232  0.0787  0.5736
 8764TIP3    H226234   2.825   7.850   3.638  0.3225  0.0029 -0.2065
 8765TIP3   OH226235   3.510   6.933   3.780 -0.6043 -0.1111 -0.1843
 8765TIP3    H126236   3.560   7.012   3.800 -1.2012  0.4108 -0.7308
 8765TIP3    H226237   3.576   6.864   3.776  0.2341  0.7563 -1.9281
 8766TIP3   OH226238   5.849   5.106   2.957 -0.1892  0.7184 -0.4919
 8766TIP3    H126239   5.850   5.011   2.959  1.5394  0.7358  1.2098
 8766TIP3    H226240   5.775   5.128   2.900 -0.7157 -1.6173 -0.7716
 8767TIP3   OH226241   3.971   6.879   2.719 -0.0419 -0.1760 -0.7190
 8767TIP3    H126242   3.950   6.951   2.779 -0.5420 -0.3470 -0.6864
 8767TIP3    H226243   3.886   6.839   2.699 -0.3952  2.0741 -4.3273
 8768TIP3   OH226244   5.632   7.342   1.911 -0.1036  0.3682 -0.4523
 8768TIP3    H126245   5.686   7.416   1.935  2.0520 -1.1402 -0.5005
 8768TIP3    H226246   5.637   7.338   1.815 -0.2260  0.1718 -0.4524
 8769TIP3   OH226247   5.540   6.462   3.428  0.0769 -0.0688 -0.0863
 8769TIP3    H126248   5.485   6.537   3.406  0.4867  0.4644  0.6533
 8769TIP3    H226249   5.629   6.498   3.427  0.4083 -0.9041 -1.2140
 8770TIP3   OH226250   6.473   7.415   4.400 -0.0875 -0.4283 -0.1955
 8770TIP3    H126251   6.526   7.437   4.476 -0.3457 -1.4984  0.3025
 8770TIP3    H226252   6.531   7.362   4.345  0.1238  0.4083 -0.7758
 8771TIP3   OH226253   6.345   5.676   2.386 -0.1629  0.4074  0.6147
 8771TIP3    H126254   6.376   5.682   2.295  0.3776 -3.1851  0.4588
 8771TIP3    H226255   6.249   5.674   2.378 -0.1762  1.9740  0.2914
 8772TIP3   OH226256   8.367   0.791   5.095 -0.3785 -0.0094  0.4231
 8772TIP3    H126257   8.347   0.878   5.130 -0.4755  0.6733 -1.3001
 8772TIP3    H226258   8.463   0.789   5.092 -0.3501 -0.3006  1.2544
 8773TIP3   OH226259   0.016   0.142   2.676  0.4993  0.5354  0.4240
 8773TIP3    H126260   0.076   0.129   2.603  0.4649  0.4760  0.4060
 8773TIP3    H226261  -0.044   0.210   2.647 -1.2052 -1.3837 -0.6811
 8774TIP3   OH226262   3.961   5.229   3.138  0.2691 -0.7790 -0.0228
 8774TIP3    H126263   3.978   5.140   3.167 -0.3816 -0.8074  0.2785
 8774TIP3    H226264   4.029   5.281   3.181  1.0262 -1.2061 -0.6891
 8775TIP3   OH226265   4.571   6.137   3.910  0.4993 -0.3401  0.3416
 8775TIP3    H126266   4.637   6.090   3.961 -0.2624 -2.7464 -0.8250
 8775TIP3    H226267   4.489   6.122   3.958  0.0457 -1.2968 -0.7000
 8776TIP3   OH226268   4.445   7.804   1.616 -0.2148 -0.6121  0.6096
 8776TIP3    H126269   4.540   7.807   1.610 -0.3390  0.1611 -0.9947
 8776TIP3    H226270   4.416   7.891   1.589 -1.4719 -1.5057 -0.9497
 8777TIP3   OH226271   5.118   6.061   4.103 -0.0169 -0.0709  0.3682
 8777TIP3    H126272   5.073   5.989   4.148  0.2716 -0.1863  0.4746
 8777TIP3    H226273   5.089   6.055   4.012  0.4519 -0.6850  0.2509
 8778TIP3   OH226274   2.477   5.433   4.815 -0.1634  0.1923  0.0612
 8778TIP3    H126275   2.557   5.381   4.829 -0.6241 -0.2515  1.1197
 8778TIP3    H226276   2.437   5.396   4.737  1.6319  1.6403 -1.5828
 8779TIP3   OH226277   5.806   3.110   2.688  0.2373 -0.6563 -0.0637
 8779TIP3    H126278   5.840   3.194   2.718  0.2298 -0.4273 -0.6910
 8779TIP3    H226279   5.752   3.131   2.612 -0.0388 -1.1915 -0.0176
 8780TIP3   OH226280   5.811   7.342   1.470  0.1435  0.3240 -0.0757
 8780TIP3    H126281   5.896   7.300   1.483  1.7093  3.2153 -0.5659
 8780TIP3    H226282   5.784   7.369   1.558 -1.4434 -2.6036  0.4211
 8781TIP3   OH226283   4.240   6.581   5.507  0.4332  0.2253 -0.4455
 8781TIP3    H126284   4.231   6.528   5.428 -2.6238  0.6096 -0.4299
 8781TIP3    H226285   4.237   6.518   5.579 -0.8053  0.1693 -0.5241
 8782TIP3   OH226286   5.586   7.381   1.307 -0.3116 -0.1128 -0.0726
 8782TIP3    H126287   5.665   7.351   1.352 -0.5182 -0.2126  0.2320
 8782TIP3    H226288   5.528   7.407   1.379  0.4281  2.4482 -0.3551
 8783TIP3   OH226289   3.662   5.104   2.526 -0.0434  0.1296 -0.1310
 8783TIP3    H126290   3.577   5.147   2.531  0.1484  0.6418 -1.0989
 8783TIP3    H226291   3.658   5.054   2.444 -0.2619 -1.7142  0.9697
 8784TIP3   OH226292   4.864   5.604   3.852 -0.0842 -0.1590  0.8409
 8784TIP3    H126293   4.887   5.551   3.775 -0.5605  0.4192  0.2837
 8784TIP3    H226294   4.895   5.692   3.830 -0.8852  0.1677  0.9810
 8785TIP3   OH226295   4.977   6.461   2.077  0.3121  0.0583  0.4780
 8785TIP3    H126296   4.926   6.530   2.034 -0.4051 -0.6052  0.2303
 8785TIP3    H226297   4.972   6.481   2.170 -2.1350 -1.0891  0.6435
 8786TIP3   OH226298   4.445   3.367   0.670  0.1509 -0.3852  0.2201
 8786TIP3    H126299   4.528   3.326   0.646  1.0118  0.4807  1.6964
 8786TIP3    H226300   4.463   3.461   0.667 -2.0339  0.0453 -4.0206
 8787TIP3   OH226301   4.360   5.901   5.388  0.3179  0.0240 -0.0421
 8787TIP3    H126302   4.318   5.985   5.404  1.8725  0.6477  0.9752
 8787TIP3    H226303   4.317   5.840   5.448  0.6420  0.5832  0.7633
 8788TIP3   OH226304   6.880   7.042   3.514 -0.7544 -0.4550 -0.0639
 8788TIP3    H126305   6.868   7.112   3.450 -0.2938 -0.2093  0.1111
 8788TIP3    H226306   6.909   6.967   3.464 -0.6935 -0.3498 -0.1856
 8789TIP3   OH226307   5.497   5.970   3.316 -0.2551  0.2836  0.3946
 8789TIP3    H126308   5.405   5.956   3.338 -0.2751 -2.2160 -1.0548
 8789TIP3    H226309   5.544   5.954   3.398 -1.0096  0.0866  0.7935
 8790TIP3   OH226310   7.002   6.371   4.445  0.1370  0.3519  0.2910
 8790TIP3    H126311   7.059   6.447   4.429 -0.9565  1.4384  1.4402
 8790TIP3    H226312   7.029   6.307   4.380  1.3600  1.5852 -0.4452
 8791TIP3   OH226313   4.944   4.081   3.065  0.1894  0.0451 -0.2820
 8791TIP3    H126314   5.021   4.067   3.011 -0.4288  0.0106 -1.1764
 8791TIP3    H226315   4.873   4.039   3.016  0.0315 -2.1503  1.7279
 8792TIP3   OH226316   3.396   5.322   1.937  0.2912 -0.3346  0.0792
 8792TIP3    H126317   3.394   5.417   1.924 -1.8660 -0.4185 -0.3676
 8792TIP3    H226318   3.341   5.307   2.014  0.0855 -1.2809 -0.2433
 8793TIP3   OH226319   5.022   5.212   2.872 -0.1195  0.0279 -0.5506
 8793TIP3    H126320   5.056   5.269   2.803  0.4859 -0.7845 -0.9294
 8793TIP3    H226321   4.930   5.198   2.847 -0.6305  1.8635  0.2390
 8794TIP3   OH226322   6.444   6.151   2.451  0.2365  0.1192  0.4434
 8794TIP3    H126323   6.525   6.108   2.423  1.0834  1.0519  1.4517
 8794TIP3    H226324   6.375   6.104   2.404  1.3361 -0.8509 -0.2258
 8795TIP3   OH226325   4.372   5.383   2.982  0.0592 -0.1036 -0.4750
 8795TIP3    H126326   4.411   5.322   3.045  2.0544 -0.6985 -2.2299
 8795TIP3    H226327   4.388   5.469   3.020  0.7910 -0.4721  0.0767
 8796TIP3   OH226328   6.312   6.523   2.330  0.0764 -0.6443  0.5549
 8796TIP3    H126329   6.282   6.559   2.413 -1.2331  0.0071 -0.1930
 8796TIP3    H226330   6.254   6.561   2.264  1.7023 -0.3804 -0.7802
 8797TIP3   OH226331   6.220   4.457   2.023 -0.1487  0.2514 -0.0884
 8797TIP3    H126332   6.304   4.496   2.048 -0.2105  1.1369 -1.2052
 8797TIP3    H226333   6.179   4.523   1.967 -1.6177 -0.1550  0.4904
 8798TIP3   OH226334   5.133   6.818   3.254 -0.2633  0.0680 -0.4856
 8798TIP3    H126335   5.120   6.875   3.178  0.5785  1.5955  0.5097
 8798TIP3    H226336   5.067   6.847   3.317  0.3447  0.1164  0.1274
 8799TIP3   OH226337   8.504   1.367   4.830 -0.3442  0.0632 -0.1265
 8799TIP3    H126338   8.551   1.423   4.891  0.1288  0.2486 -0.6576
 8799TIP3    H226339   8.417   1.357   4.869 -1.0094  2.5656 -0.8658
 8800TIP3   OH226340   4.721   6.452   3.542 -0.1863  0.7759  0.3795
 8800TIP3    H126341   4.698   6.452   3.635 -0.2353 -1.6827  0.4133
 8800TIP3    H226342   4.640   6.429   3.497  0.3096 -0.0331 -0.1187
 8801TIP3   OH226343   6.034   6.782   3.340 -0.0519  0.3475  0.1433
 8801TIP3    H126344   6.015   6.841   3.414  1.0428  1.7564 -0.6932
 8801TIP3    H226345   6.129   6.779   3.335 -0.1080  1.1015 -1.8682
 8802TIP3   OH226346   3.268   5.181   0.615 -0.3891  0.2488 -0.3486
 8802TIP3    H126347   3.359   5.201   0.593  0.6335 -2.2484  1.3837
 8802TIP3    H226348   3.253   5.094   0.578 -1.2880 -0.3954  1.4766
 8803TIP3   OH226349   6.522   5.317   5.238 -0.4586  0.0411 -0.2647
 8803TIP3    H126350   6.531   5.406   5.271 -1.0642  0.2497 -0.6411
 8803TIP3    H226351   6.525   5.327   5.142  2.8393 -0.7215 -0.3118
 8804TIP3   OH226352   2.491   5.742   1.255 -0.1369  0.8664 -0.0268
 8804TIP3    H126353   2.555   5.775   1.193 -0.1856 -1.4201 -1.3750
 8804TIP3    H226354   2.543   5.704   1.326  0.0259 -0.0693 -0.6270
 8805TIP3   OH226355   5.214   7.143   2.840 -0.2664  0.2183  0.0865
 8805TIP3    H126356   5.163   7.081   2.892 -1.1723  0.5339 -0.4149
 8805TIP3    H226357   5.165   7.224   2.845 -0.7851  0.0436 -1.9086
 8806TIP3   OH226358   5.284   5.548   3.406 -0.3197  0.0991  0.0712
 8806TIP3    H126359   5.287   5.624   3.465 -2.7864  0.5760 -0.3955
 8806TIP3    H226360   5.330   5.479   3.454  0.6783  1.4487  1.1094
 8807TIP3   OH226361   6.492   6.637   2.701 -0.5031  0.2778 -0.1163
 8807TIP3    H126362   6.401   6.642   2.673 -0.9160 -1.4434  0.8869
 8807TIP3    H226363   6.543   6.653   2.621 -1.6596 -0.5336 -1.0238
 8808TIP3   OH226364   5.631   6.058   2.810 -0.3422 -0.2516  0.6664
 8808TIP3    H126365   5.581   6.102   2.878 -2.0993  1.4062 -1.6575
 8808TIP3    H226366   5.675   6.128   2.763  1.0453 -1.4131  0.1735
 8809TIP3   OH226367   4.103   5.411   3.325  0.4827  0.0276 -0.0416
 8809TIP3    H126368   4.190   5.449   3.334  0.4654 -0.2470  1.3589
 8809TIP3    H226369   4.047   5.466   3.380  0.3474 -1.6464  1.5554
 8810TIP3   OH226370   5.233   7.378   3.234  0.0236 -0.0048  0.3248
 8810TIP3    H126371   5.263   7.420   3.315 -0.3049  0.3429  0.2644
 8810TIP3    H226372   5.283   7.421   3.165 -0.0846  0.0713  0.2935
 8811TIP3   OH226373   7.953   5.695   3.981 -0.2539  0.6293  0.1205
 8811TIP3    H126374   7.859   5.680   3.999  0.2115 -0.5962  1.7308
 8811TIP3    H226375   7.987   5.729   4.064  0.9141  0.1749 -0.1722
 8812TIP3   OH226376   6.967   6.746   2.850 -0.8783  0.2667 -1.0657
 8812TIP3    H126377   6.880   6.784   2.844 -1.1910 -0.2871 -0.0980
 8812TIP3    H226378   6.970   6.682   2.779 -1.2321  0.3408 -1.1462
 8813TIP3   OH226379   1.175   0.145   3.362 -0.1856 -0.4500  0.2865
 8813TIP3    H126380   1.107   0.188   3.310 -1.7228 -1.7618  1.1601
 8813TIP3    H226381   1.205   0.212   3.423  0.7391  0.7257 -1.4312
 8814TIP3   OH226382   5.894   5.805   2.996  0.2407  0.3187 -0.2996
 8814TIP3    H126383   5.933   5.892   2.999 -0.5889  0.8324 -3.0188
 8814TIP3    H226384   5.799   5.820   3.003  0.2428 -0.7531  3.8544
 8815TIP3   OH226385   3.766   0.899   6.668  0.4253 -0.2820  0.2583
 8815TIP3    H126386   3.728   0.874   6.583  1.5443 -0.2394 -0.2701
 8815TIP3    H226387   3.811   0.982   6.650  2.2239 -1.1970  0.4472
 8816TIP3   OH226388   3.012   7.385   1.767  1.0334  0.7168 -0.0712
 8816TIP3    H126389   3.027   7.300   1.726 -0.7525  0.2170  0.2324
 8816TIP3    H226390   2.994   7.444   1.694 -1.8265 -0.1029 -0.1149
 8817TIP3   OH226391   7.005   6.399   2.971  0.0806 -0.1822  0.1406
 8817TIP3    H126392   7.056   6.349   2.908  1.4776  1.2254  0.1229
 8817TIP3    H226393   6.915   6.390   2.941  0.4703 -1.4612 -0.6935
 8818TIP3   OH226394   3.143   5.449   4.701 -0.1400 -0.1523  0.2274
 8818TIP3    H126395   3.114   5.532   4.662 -0.8627 -0.3615  0.3148
 8818TIP3    H226396   3.062   5.406   4.729  0.3522 -0.1330  1.7180
 8819TIP3   OH226397   4.081   7.543   5.070 -0.5353  0.2279  0.3036
 8819TIP3    H126398   4.169   7.506   5.074 -0.2693  0.5816 -1.9387
 8819TIP3    H226399   4.030   7.480   5.019 -1.4167  0.3670  1.0016
 8820TIP3   OH226400   5.057   2.355   2.647 -0.0119 -0.8721 -0.2748
 8820TIP3    H126401   5.013   2.436   2.621  0.6783 -0.6305 -0.7089
 8820TIP3    H226402   5.119   2.382   2.715 -0.6735 -1.2455  0.4854
 8821TIP3   OH226403   5.207   5.979   3.720 -0.8063 -0.1628  0.1262
 8821TIP3    H126404   5.186   5.918   3.791 -1.2004  0.1527  0.2848
 8821TIP3    H226405   5.277   6.034   3.756  1.1946 -1.9874 -0.8226
 8822TIP3   OH226406   7.992   1.882   2.457  0.0924  0.0062 -0.1137
 8822TIP3    H126407   8.053   1.948   2.491 -0.1137 -0.9108  2.1859
 8822TIP3    H226408   7.908   1.926   2.454  0.2522  0.3133 -0.0877
 8823TIP3   OH226409   6.644   6.701   0.115 -0.4277  0.5513 -0.0102
 8823TIP3    H126410   6.585   6.626   0.110 -0.7662  0.7402  0.9952
 8823TIP3    H226411   6.690   6.689   0.198  1.1615  0.2582 -0.9213
 8824TIP3   OH226412   6.015   7.792   4.275 -0.0873 -0.0794 -0.5045
 8824TIP3    H126413   5.986   7.882   4.267 -2.8121 -1.0997 -2.7272
 8824TIP3    H226414   6.012   7.757   4.186  0.9663 -2.3569  0.2998
 8825TIP3   OH226415   7.987   0.090   5.755 -0.1461 -0.0620  0.4090
 8825TIP3    H126416   8.011   0.164   5.699  0.9330 -0.8473 -0.1877
 8825TIP3    H226417   8.059   0.082   5.817  0.6098 -1.6725 -0.6196
 8826TIP3   OH226418   8.192   2.584   1.103 -0.0756 -0.6557  0.0239
 8826TIP3    H126419   8.154   2.499   1.077 -1.1291 -0.6315  1.4115
 8826TIP3    H226420   8.279   2.562   1.135 -0.2678 -1.2066  0.1889
 8827TIP3   OH226421   3.503   6.513   2.030 -0.6583  0.2690  0.5815
 8827TIP3    H126422   3.493   6.509   2.125  1.0294 -1.2693  0.7147
 8827TIP3    H226423   3.598   6.511   2.016 -0.8803  1.0051 -1.1164
 8828TIP3   OH226424   0.803   0.790   4.203 -0.0236  0.2125  0.0234
 8828TIP3    H126425   0.859   0.826   4.272 -1.3359  0.5992  0.9084
 8828TIP3    H226426   0.766   0.867   4.160  0.8431 -0.0267 -1.1889
 8829TIP3   OH226427   4.685   5.917   3.778 -0.2689 -0.4159  0.0790
 8829TIP3    H126428   4.606   5.878   3.740 -0.4362 -0.8555  0.8669
 8829TIP3    H226429   4.665   6.010   3.787  0.0168 -0.1837 -1.5294
 8830TIP3   OH226430   5.072   4.507   1.706  0.4646  0.0626  0.4300
 8830TIP3    H126431   5.100   4.425   1.747 -0.0093 -1.3627 -1.9406
 8830TIP3    H226432   5.137   4.523   1.638 -0.3137  0.8118 -0.1442
 8831TIP3   OH226433   4.645   6.954   3.652 -0.0998 -0.2603 -0.3458
 8831TIP3    H126434   4.627   6.896   3.726 -0.8380 -1.2588 -1.2832
 8831TIP3    H226435   4.563   6.954   3.602  0.1052  1.0971 -0.7017
 8832TIP3   OH226436   4.058   4.298   3.263 -0.0916  0.1622 -0.2951
 8832TIP3    H126437   3.970   4.332   3.244  0.3289  1.8704  0.7257
 8832TIP3    H226438   4.111   4.376   3.279  1.7922 -0.8056 -1.5622
 8833TIP3   OH226439   3.981   5.997   3.593 -0.0027 -0.0254 -0.0159
 8833TIP3    H126440   4.057   5.939   3.602  0.5399  0.6618 -0.1085
 8833TIP3    H226441   3.941   5.970   3.510  0.6689  0.2241 -0.4212
 8834TIP3   OH226442   6.513   4.113   2.610  0.2964 -0.3351 -0.4439
 8834TIP3    H126443   6.553   4.027   2.623  1.1973  0.2713  0.8222
 8834TIP3    H226444   6.584   4.166   2.573  1.5985  1.5308  4.3896
 8835TIP3   OH226445   6.922   0.537   4.316 -0.2171  0.0409  0.7664
 8835TIP3    H126446   6.963   0.507   4.397 -1.5328  1.9418  2.1854
 8835TIP3    H226447   6.860   0.468   4.294 -0.6940  0.0304  2.0597
 8836TIP3   OH226448   6.363   3.511   2.311  0.0888  0.0494 -0.7433
 8836TIP3    H126449   6.396   3.586   2.361 -0.7938 -0.2054  0.2471
 8836TIP3    H226450   6.309   3.551   2.242 -0.1781  0.3499 -0.3681
 8837TIP3   OH226451   4.490   5.454   2.113 -0.2582  0.6450  0.5171
 8837TIP3    H126452   4.529   5.500   2.039  0.5687 -0.0910  0.4809
 8837TIP3    H226453   4.484   5.519   2.183 -2.1812  1.6680 -0.5730
 8838TIP3   OH226454   6.362   3.680   1.781 -0.1506  0.5938 -0.7449
 8838TIP3    H126455   6.358   3.626   1.702  0.8981 -1.7873  0.7635
 8838TIP3    H226456   6.298   3.640   1.840  1.2061  0.4836  0.6929
 8839TIP3   OH226457   5.065   6.293   2.381 -0.0109  0.1785  0.0388
 8839TIP3    H126458   4.983   6.289   2.429  0.0697 -0.0972  0.1522
 8839TIP3    H226459   5.129   6.251   2.438  0.7277  2.5000  1.0092
 8840TIP3   OH226460   4.429   6.189   3.166 -0.1258 -0.8482 -0.1772
 8840TIP3    H126461   4.350   6.162   3.213  0.2052 -0.0913  0.8541
 8840TIP3    H226462   4.482   6.110   3.161  1.0497 -0.4006  3.2361
 8841TIP3   OH226463   8.555   0.451   1.601 -0.0902  0.4289 -0.1959
 8841TIP3    H126464   8.602   0.369   1.586  1.3788  1.3649 -0.8669
 8841TIP3    H226465   8.468   0.436   1.566 -0.0270 -1.0413  0.2343
 8842TIP3   OH226466   6.881   6.313   2.260  0.1511  0.5178 -0.3108
 8842TIP3    H126467   6.851   6.394   2.302 -1.4750  0.2550 -0.9234
 8842TIP3    H226468   6.874   6.247   2.329  1.4222  0.8719  0.1716
 8843TIP3   OH226469   4.062   7.140   2.296  0.0246 -0.0726 -0.2387
 8843TIP3    H126470   4.003   7.202   2.337 -1.4132 -0.3294 -1.8731
 8843TIP3    H226471   4.090   7.183   2.215  2.9435  0.4993  1.0243
 8844TIP3   OH226472   5.337   6.420   2.551  0.4194  0.2939 -0.0992
 8844TIP3    H126473   5.283   6.349   2.586 -1.3881  1.3869 -0.6027
 8844TIP3    H226474   5.314   6.496   2.605  1.8701  0.6662  0.0280
 8845TIP3   OH226475   0.938   0.429   3.384  0.6835 -0.0648 -0.0013
 8845TIP3    H126476   0.896   0.343   3.388  0.2040  0.0290 -2.3323
 8845TIP3    H226477   1.018   0.419   3.435  0.5492 -1.8607 -0.1066
 8846TIP3   OH226478   5.305   5.211   3.456  0.2208 -0.2525  0.1273
 8846TIP3    H126479   5.265   5.271   3.520 -0.0518 -0.9879  0.6522
 8846TIP3    H226480   5.286   5.124   3.490 -1.2823 -0.7011 -1.7773
 8847TIP3   OH226481   5.728   7.419   3.529 -0.4599 -0.2985 -0.3522
 8847TIP3    H126482   5.811   7.372   3.526 -0.5249 -0.3510 -1.2938
 8847TIP3    H226483   5.672   7.365   3.585 -0.2173 -0.8347 -0.6276
 8848TIP3   OH226484   3.715   7.338   2.577 -0.1836  0.0379  0.0536
 8848TIP3    H126485   3.674   7.416   2.615 -0.9335 -0.2660 -0.1205
 8848TIP3    H226486   3.799   7.369   2.544 -0.9207  1.0005 -0.9436
 8849TIP3   OH226487   8.044   0.706   5.899  0.4130 -0.0003 -0.6063
 8849TIP3    H126488   7.956   0.744   5.909  0.2941 -0.7476  1.4052
 8849TIP3    H226489   8.029   0.623   5.854  0.2320  0.4989 -1.4659
 8850TIP3   OH226490   4.961   8.014   1.096 -0.4227 -0.0702  0.7153
 8850TIP3    H126491   4.879   8.053   1.068 -0.7051 -0.2781  1.2382
 8850TIP3    H226492   5.020   8.024   1.021 -1.0013 -0.1474  0.2458
 8851TIP3   OH226493   6.240   6.750   2.589  0.0343  0.2062 -0.0415
 8851TIP3    H126494   6.191   6.699   2.652  0.3206 -2.2598 -1.7502
 8851TIP3    H226495   6.186   6.752   2.511  1.8257 -1.0105 -1.3538
 8852TIP3   OH226496   7.527   7.447   2.554 -0.4936  0.0908  0.3274
 8852TIP3    H126497   7.586   7.379   2.522  1.2597  1.8270 -0.2007
 8852TIP3    H226498   7.532   7.440   2.650  0.0678 -0.2028  0.2817
 8853TIP3   OH226499   2.932   0.762   4.034 -0.1803 -0.2447 -0.3051
 8853TIP3    H126500   2.936   0.728   3.945 -3.1249 -2.3869  0.3141
 8853TIP3    H226501   2.971   0.694   4.088 -1.9101 -0.6905  0.4293
 8854TIP3   OH226502   5.115   5.400   2.714  0.9209 -0.0758 -0.0207
 8854TIP3    H126503   5.079   5.488   2.722 -0.5032 -0.6353 -0.1145
 8854TIP3    H226504   5.114   5.382   2.620  0.7219 -0.3906  0.0412
 8855TIP3   OH226505   6.829   5.933   4.153 -0.0471  0.1876 -0.8994
 8855TIP3    H126506   6.752   5.988   4.139 -1.1578 -1.2255 -0.5372
 8855TIP3    H226507   6.827   5.912   4.247  0.7245  0.0763 -0.9072
 8856TIP3   OH226508   4.306   6.636   3.850  0.0076 -0.1571  0.2614
 8856TIP3    H126509   4.230   6.650   3.908 -0.3006  1.7979 -0.5719
 8856TIP3    H226510   4.268   6.629   3.763  0.4879 -2.9797  0.2289
 8857TIP3   OH226511   5.576   5.074   2.518  0.3412  1.0431  0.2916
 8857TIP3    H126512   5.529   5.155   2.500 -1.5332 -0.0816 -0.0329
 8857TIP3    H226513   5.561   5.057   2.611  0.6574  1.0435  0.3415
 8858TIP3   OH226514   3.633   5.012   4.263  0.0190  0.3088 -0.1771
 8858TIP3    H126515   3.717   5.007   4.309  0.8129 -0.3991 -1.6558
 8858TIP3    H226516   3.572   4.964   4.320  0.3137  1.9049  1.5134
 8859TIP3   OH226517   3.420   7.558   1.728  0.2295 -0.1435 -0.0230
 8859TIP3    H126518   3.463   7.497   1.668  0.2196  0.5595 -0.7582
 8859TIP3    H226519   3.434   7.644   1.688  0.4352  0.3551  1.1140
 8860TIP3   OH226520   4.256   5.351   1.969  0.1750  0.5694  0.4476
 8860TIP3    H126521   4.333   5.369   2.023  1.2279  1.8739 -1.4208
 8860TIP3    H226522   4.183   5.391   2.017  1.1232  1.8637  0.8373
 8861TIP3   OH226523   5.134   4.537   2.477 -0.7830  0.3498 -0.3803
 8861TIP3    H126524   5.105   4.544   2.568 -0.3303 -0.5602 -0.1628
 8861TIP3    H226525   5.053   4.526   2.427 -0.9243 -0.5999  0.0610
 8862TIP3   OH226526   4.906   5.708   4.429  0.1745  0.3917 -0.4924
 8862TIP3    H126527   4.924   5.625   4.474 -1.1449  1.2854  1.7446
 8862TIP3    H226528   4.939   5.775   4.489 -1.4556  1.6089 -0.9365
 8863TIP3   OH226529   5.144   6.027   3.443 -0.0872 -0.0640 -0.3383
 8863TIP3    H126530   5.133   6.116   3.410  0.9591  0.0546 -0.3773
 8863TIP3    H226531   5.149   6.036   3.538 -1.8058 -0.2742 -0.2210
 8864TIP3   OH226532   3.607   6.701   3.654 -0.7018 -0.0830  0.5929
 8864TIP3    H126533   3.569   6.693   3.566 -0.9391  0.2353  0.6656
 8864TIP3    H226534   3.681   6.640   3.654  0.3939  1.2263 -0.4185
 8865TIP3   OH226535   5.045   7.211   4.474  0.2952 -0.0891  0.2254
 8865TIP3    H126536   4.993   7.262   4.412  2.0761  0.0930 -1.1585
 8865TIP3    H226537   5.078   7.138   4.422  1.8140  0.0703  0.9463
 8866TIP3   OH226538   4.886   6.215   3.556  0.2282  0.1731 -0.1280
 8866TIP3    H126539   4.881   6.224   3.651 -0.1190  0.0152 -0.1279
 8866TIP3    H226540   4.842   6.293   3.522  0.9198  0.5452 -0.1635
 8867TIP3   OH226541   6.465   5.065   2.362  0.6601  0.1616 -0.0756
 8867TIP3    H126542   6.528   5.075   2.290 -0.4023  1.1923 -0.8865
 8867TIP3    H226543   6.454   5.153   2.397 -1.7149  0.3340 -1.1617
 8868TIP3   OH226544   5.706   6.050   5.351  0.4289 -0.5117 -0.8614
 8868TIP3    H126545   5.721   5.964   5.392 -0.4149  0.1788  0.9369
 8868TIP3    H226546   5.692   6.109   5.424 -0.8324  0.8211 -2.1506
 8869TIP3   OH226547   5.611   5.366   4.005  0.3513 -0.3424  0.1849
 8869TIP3    H126548   5.632   5.429   3.936 -1.2042 -0.7917 -0.7334
 8869TIP3    H226549   5.695   5.326   4.027  1.1717  1.2279 -0.0257
 8870TIP3   OH226550   4.989   4.531   2.716  0.4793 -0.2262 -0.4722
 8870TIP3    H126551   4.994   4.437   2.729  1.8451 -0.2959 -1.4523
 8870TIP3    H226552   4.905   4.556   2.756  0.0709 -1.8534 -0.2803
 8871TIP3   OH226553   4.051   4.806   3.287  0.4210 -0.3942 -0.3783
 8871TIP3    H126554   3.976   4.827   3.342  1.3854 -1.3843  1.3525
 8871TIP3    H226555   4.013   4.779   3.204 -1.1400 -0.6893  0.4124
 8872TIP3   OH226556   6.895   6.381   5.278  0.0400 -0.9233  0.4749
 8872TIP3    H126557   6.820   6.433   5.304  1.8405  3.3053 -2.1016
 8872TIP3    H226558   6.858   6.309   5.227 -2.3353  0.2322  0.5032
 8873TIP3   OH226559   5.225   5.539   4.673 -0.0916 -0.3193 -0.9898
 8873TIP3    H126560   5.202   5.624   4.709 -0.1860 -1.0217  0.6440
 8873TIP3    H226561   5.320   5.537   4.673 -0.0873 -0.1816 -1.1322
 8874TIP3   OH226562   5.146   7.771   4.041  0.5329  0.5966  0.6240
 8874TIP3    H126563   5.069   7.819   4.011  0.4291  1.2944  1.9741
 8874TIP3    H226564   5.180   7.823   4.114  1.9390 -0.0165  0.4216
 8875TIP3   OH226565   4.691   5.693   2.175  0.2236  0.2312 -0.0290
 8875TIP3    H126566   4.750   5.766   2.193 -0.7948  0.4905  2.5294
 8875TIP3    H226567   4.700   5.677   2.081  0.4536  3.6281 -0.6345
 8876TIP3   OH226568   4.333   5.514   3.430 -0.2545  0.1909  0.2344
 8876TIP3    H126569   4.417   5.478   3.403 -0.6949  0.4557 -1.5784
 8876TIP3    H226570   4.352   5.560   3.512  0.8916 -1.6402  1.0256
 8877TIP3   OH226571   0.429   0.825   4.092 -0.4834  0.1563 -0.7675
 8877TIP3    H126572   0.494   0.889   4.064  0.2665 -0.7355 -1.0859
 8877TIP3    H226573   0.400   0.856   4.178  2.1530 -0.7484  0.5024
 8878TIP3   OH226574   4.283   3.944   2.287 -0.2328 -0.1592 -0.0849
 8878TIP3    H126575   4.270   4.029   2.328 -0.7661  1.1008 -2.7894
 8878TIP3    H226576   4.196   3.914   2.264 -0.1095 -1.7910  1.4765
 8879TIP3   OH226577   4.322   4.734   2.746  0.4369  0.0107 -0.1520
 8879TIP3    H126578   4.357   4.811   2.790 -0.5665  0.8026 -0.7420
 8879TIP3    H226579   4.264   4.694   2.810  0.5969 -0.0006 -0.0129
 8880TIP3   OH226580   5.801   6.903   4.014 -0.5628  0.0688 -0.2770
 8880TIP3    H126581   5.867   6.945   3.960  0.4492 -1.5633 -0.3652
 8880TIP3    H226582   5.742   6.861   3.952 -0.2746 -0.5256 -0.1522
 8881TIP3   OH226583   5.707   6.386   1.807  0.1800 -1.3803 -0.0515
 8881TIP3    H126584   5.638   6.415   1.748  0.0412  0.7581  1.1126
 8881TIP3    H226585   5.662   6.372   1.891  0.9677 -0.9922  0.4401
 8882TIP3   OH226586   7.540   7.970   3.892 -0.1090  0.2340 -0.3937
 8882TIP3    H126587   7.524   7.909   3.964  0.8849 -0.3926 -0.7001
 8882TIP3    H226588   7.453   8.007   3.873 -0.3000  0.7718  1.4261
 8883TIP3   OH226589   2.677   5.874   4.788 -0.2831  0.4583 -0.2940
 8883TIP3    H126590   2.673   5.877   4.883 -0.0862  1.8246 -0.3244
 8883TIP3    H226591   2.586   5.859   4.761 -0.5228  1.2216  0.0700
 8884TIP3   OH226592   7.653   5.116   3.722  0.0382  0.1051  0.1599
 8884TIP3    H126593   7.613   5.099   3.807 -0.5595  0.2242 -0.0961
 8884TIP3    H226594   7.701   5.035   3.702 -1.1283 -0.5327 -0.1200
 8885TIP3   OH226595   6.669   7.086   1.719 -0.4491 -0.3150  0.3564
 8885TIP3    H126596   6.761   7.109   1.704  0.4323 -1.9051  3.0348
 8885TIP3    H226597   6.620   7.166   1.696  1.5926  0.6391 -0.8269
 8886TIP3   OH226598   4.609   4.796   5.396 -0.7285 -0.1748 -0.1030
 8886TIP3    H126599   4.533   4.813   5.452 -1.2055  0.8732 -1.0443
 8886TIP3    H226600   4.683   4.794   5.456 -1.4931 -1.2451  0.8376
 8887TIP3   OH226601   5.716   6.955   4.488 -0.5958 -0.4127  0.0728
 8887TIP3    H126602   5.631   6.916   4.469 -1.4208  2.5234 -2.6837
 8887TIP3    H226603   5.774   6.921   4.419 -0.5573  0.7648 -0.4808
 8888TIP3   OH226604   7.180   6.695   0.783 -0.2575 -0.4652  0.0999
 8888TIP3    H126605   7.257   6.697   0.839 -1.8380 -1.1810  2.3411
 8888TIP3    H226606   7.161   6.787   0.765  0.0436 -0.2163  1.0456
 8889TIP3   OH226607   5.236   4.788   3.794  0.6215 -0.0684  0.6476
 8889TIP3    H126608   5.191   4.766   3.713  0.4032 -1.0684  1.0404
 8889TIP3    H226609   5.218   4.715   3.853  2.1303 -0.1342  1.0594
 8890TIP3   OH226610   4.002   5.273   2.348  0.4367  0.2516  0.6765
 8890TIP3    H126611   4.062   5.316   2.409 -0.8477  1.9938  0.7500
 8890TIP3    H226612   3.915   5.289   2.385 -0.5041  2.9037 -2.5138
 8891TIP3   OH226613   4.535   6.096   3.453  0.1440  0.3249  0.0422
 8891TIP3    H126614   4.485   6.125   3.530 -1.0135 -0.5694 -0.3484
 8891TIP3    H226615   4.517   6.002   3.447  1.2197  0.1541 -0.6098
 8892TIP3   OH226616   5.427   7.095   1.314 -0.3334  0.3872  0.0121
 8892TIP3    H126617   5.442   7.015   1.364  1.0525 -0.1733 -1.2598
 8892TIP3    H226618   5.502   7.151   1.335  0.0962  0.2689 -1.1871
 8893TIP3   OH226619   7.252   7.963   1.250 -0.3918  0.3070  0.2326
 8893TIP3    H126620   7.247   8.022   1.325  1.7011  0.8428 -0.0266
 8893TIP3    H226621   7.256   7.875   1.289 -1.6522  0.4327  0.6647
 8894TIP3   OH226622   8.102   5.835   2.623  0.4734  0.4835 -0.3625
 8894TIP3    H126623   8.197   5.834   2.618  0.4549 -1.6971 -0.7387
 8894TIP3    H226624   8.080   5.763   2.683 -0.9564  0.7609 -0.5182
 8895TIP3   OH226625   5.051   6.220   3.259 -1.1019 -0.2524 -0.4185
 8895TIP3    H126626   4.957   6.238   3.255 -0.9971 -0.0386 -2.4410
 8895TIP3    H226627   5.091   6.304   3.282 -1.2830  0.1301 -1.4392
 8896TIP3   OH226628   5.926   4.983   1.830  0.1271  0.1122  0.1835
 8896TIP3    H126629   6.011   5.005   1.790  0.2693  0.5008  0.6869
 8896TIP3    H226630   5.881   5.067   1.837 -1.5476 -0.4857 -2.8860
 8897TIP3   OH226631   7.886   5.420   2.313 -0.2454  0.1654  0.7679
 8897TIP3    H126632   7.845   5.506   2.304 -0.7521 -0.1575 -0.0710
 8897TIP3    H226633   7.959   5.434   2.373 -0.7980  1.0213  1.2520
 8898TIP3   OH226634   4.302   5.121   4.038  0.3247 -0.3562  0.5056
 8898TIP3    H126635   4.333   5.188   3.976 -1.6197  0.0372 -0.0595
 8898TIP3    H226636   4.326   5.157   4.124 -1.3286  1.4472  0.2559
 8899TIP3   OH226637   7.821   7.756   3.450  0.1690 -0.1110  0.4216
 8899TIP3    H126638   7.786   7.799   3.528 -0.4070 -0.4476  0.3536
 8899TIP3    H226639   7.757   7.687   3.430 -1.5685  2.1946 -2.4077
 8900TIP3   OH226640   5.450   3.927   2.066 -0.1348  0.2246  0.7768
 8900TIP3    H126641   5.533   3.881   2.055  0.0114  1.0158 -1.8717
 8900TIP3    H226642   5.470   4.001   2.123  0.2067 -1.4535  2.8964
 8901TIP3   OH226643   3.668   5.252   1.475  0.0616 -0.3505  0.6644
 8901TIP3    H126644   3.683   5.281   1.564  0.9580 -0.8071  0.6674
 8901TIP3    H226645   3.733   5.183   1.461  0.8559  0.6970 -0.8195
 8902TIP3   OH226646   6.190   6.686   1.854 -0.0909 -0.3575  0.2882
 8902TIP3    H126647   6.130   6.725   1.790 -1.1699 -0.1300  1.4224
 8902TIP3    H226648   6.238   6.619   1.805 -1.2145 -0.4782 -0.6509
 8903TIP3   OH226649   6.740   6.005   2.680  0.2070 -0.4861 -0.2859
 8903TIP3    H126650   6.835   5.992   2.691  0.2876  0.3115 -0.0545
 8903TIP3    H226651   6.704   5.988   2.767  0.1296 -0.7881 -0.3738
 8904TIP3   OH226652   5.556   5.527   1.742 -0.4834  0.0996 -0.9219
 8904TIP3    H126653   5.548   5.539   1.836 -1.1734 -0.7827 -0.8716
 8904TIP3    H226654   5.651   5.533   1.725 -0.2443 -1.0067 -0.0059
 8905TIP3   OH226655   4.376   6.868   2.305  0.3912  0.0565 -0.1197
 8905TIP3    H126656   4.315   6.876   2.379  0.5172  0.7849 -0.0885
 8905TIP3    H226657   4.323   6.890   2.229  0.4396  0.0033 -0.1677
 8906TIP3   OH226658   5.622   0.258   4.357  0.2750  0.1037 -0.1725
 8906TIP3    H126659   5.667   0.342   4.344 -0.1361  0.3347 -0.0922
 8906TIP3    H226660   5.531   0.282   4.374  0.5943 -0.2465  2.1188
 8907TIP3   OH226661   4.828   4.702   6.018  0.4545 -0.2038  0.7461
 8907TIP3    H126662   4.907   4.648   6.017  1.7522  1.5654  3.1063
 8907TIP3    H226663   4.787   4.682   6.102 -0.4630  0.4970  0.4655
 8908TIP3   OH226664   8.066   0.205   6.065 -0.0763 -0.0179 -0.0751
 8908TIP3    H126665   8.105   0.248   5.989  1.4078 -0.6210  0.3228
 8908TIP3    H226666   8.107   0.119   6.068 -1.4450 -0.6590  0.3783
 8909TIP3   OH226667   4.120   5.447   2.185  0.5268  0.4950  0.2089
 8909TIP3    H126668   4.082   5.390   2.251  1.0447  0.1201  0.1833
 8909TIP3    H226669   4.161   5.518   2.235  0.1689  0.6713  0.2529
 8910TIP3   OH226670   8.267   0.167   2.732  0.2925  0.2389 -0.0465
 8910TIP3    H126671   8.241   0.257   2.754  0.9891  0.3899  0.1627
 8910TIP3    H226672   8.300   0.173   2.642  1.9339  0.5190  0.5573
 8911TIP3   OH226673   6.173   7.725   2.828 -0.2226 -0.4139  0.0101
 8911TIP3    H126674   6.174   7.666   2.903 -0.3946 -1.6122 -0.9160
 8911TIP3    H226675   6.266   7.735   2.805 -0.2390 -0.8588 -0.2483
 8912TIP3   OH226676   7.295   5.343   2.671  0.4710  0.0784 -0.3220
 8912TIP3    H126677   7.239   5.279   2.626 -1.5935  1.5689  0.0545
 8912TIP3    H226678   7.317   5.300   2.754 -0.1645 -0.5083 -0.4510
 8913TIP3   OH226679   4.388   6.917   3.566  0.5106  0.0346  0.8297
 8913TIP3    H126680   4.304   6.939   3.526  0.5649 -1.3055 -0.0668
 8913TIP3    H226681   4.411   6.833   3.527  1.8346 -0.0392  1.7503
 8914TIP3   OH226682   6.029   7.657   4.005  0.1315 -0.3332  0.1398
 8914TIP3    H126683   6.011   7.601   3.930 -0.1344  1.3824 -1.1203
 8914TIP3    H226684   6.112   7.624   4.040 -0.6858 -2.3233  0.2415
 8915TIP3   OH226685   7.890   5.440   3.726  0.0101  0.0882  0.3077
 8915TIP3    H126686   7.824   5.430   3.794 -0.9031  2.6089 -0.1348
 8915TIP3    H226687   7.964   5.482   3.770  0.2845 -0.3006  0.2205
 8916TIP3   OH226688   4.356   6.558   3.170 -0.0236  0.2307 -0.4626
 8916TIP3    H126689   4.329   6.631   3.227  0.6696  1.1277 -1.2628
 8916TIP3    H226690   4.298   6.486   3.194 -1.3576  1.3305 -0.3167
 8917TIP3   OH226691   2.827   7.960   2.090 -0.4284 -0.2541  0.5600
 8917TIP3    H126692   2.857   8.051   2.094  0.1442 -0.4665  1.2247
 8917TIP3    H226693   2.753   7.962   2.030  0.9871  0.2734 -1.2145
 8918TIP3   OH226694   5.995   0.640   2.007  0.4931 -0.8596  0.3991
 8918TIP3    H126695   6.032   0.726   1.991  0.1801 -0.5717  1.2031
 8918TIP3    H226696   5.981   0.603   1.919  0.5753 -0.0760  0.0521
 8919TIP3   OH226697   8.090   1.431   3.211 -0.6413  0.0125  0.0596
 8919TIP3    H126698   8.016   1.483   3.244 -1.5087 -1.7720  1.0249
 8919TIP3    H226699   8.154   1.434   3.282 -0.1707  0.7724 -0.3908
 8920TIP3   OH226700   6.360   5.142   2.006 -0.3199 -0.6208  0.0294
 8920TIP3    H126701   6.402   5.124   2.090 -0.3030  0.4461  0.2527
 8920TIP3    H226702   6.337   5.235   2.010  0.3659 -0.3810 -1.4505
 8921TIP3   OH226703   5.156   4.754   2.791  0.6263  0.0483  0.5351
 8921TIP3    H126704   5.089   4.690   2.769  0.1495  1.0576 -1.0054
 8921TIP3    H226705   5.230   4.702   2.821  0.4062 -1.2453 -1.1183
 8922TIP3   OH226706   7.313   6.754   3.191  0.2620  0.6605  0.0585
 8922TIP3    H126707   7.395   6.728   3.231  0.4607  0.5728 -0.4023
 8922TIP3    H226708   7.259   6.674   3.192 -0.0409  0.8742  0.9143
 8923TIP3   OH226709   4.066   7.813   2.427 -0.5932 -0.0965 -0.1053
 8923TIP3    H126710   4.116   7.737   2.398 -1.2026 -0.1778 -0.9552
 8923TIP3    H226711   4.115   7.846   2.503  0.4372 -0.5005 -0.5787
 8924TIP3   OH226712   4.152   3.463   3.668  0.3432  0.1714 -0.0747
 8924TIP3    H126713   4.180   3.385   3.715 -0.9405 -0.8508 -0.9725
 8924TIP3    H226714   4.173   3.446   3.576  1.9778  1.7674 -0.0353
 8925TIP3   OH226715   6.088   5.683   2.854 -0.3201  0.2025 -0.1128
 8925TIP3    H126716   6.072   5.687   2.759  0.6540  2.1854 -0.2126
 8925TIP3    H226717   6.012   5.727   2.893 -2.0044 -2.8282  0.2256
 8926TIP3   OH226718   4.734   5.517   4.621  0.0502 -0.4347 -0.0333
 8926TIP3    H126719   4.715   5.429   4.654  1.0140 -0.3453  0.7917
 8926TIP3    H226720   4.690   5.521   4.536  0.6735 -1.9940 -0.4388
 8927TIP3   OH226721   4.783   5.171   2.768 -0.4218 -0.4563 -0.4741
 8927TIP3    H126722   4.771   5.156   2.675 -0.4985 -0.9090 -0.3952
 8927TIP3    H226723   4.696   5.193   2.801 -0.2348  0.6180 -0.6637
 8928TIP3   OH226724   4.578   6.736   2.161  0.5640 -0.0879  0.2985
 8928TIP3    H126725   4.550   6.745   2.070  0.8744 -0.5641  0.1596
 8928TIP3    H226726   4.534   6.809   2.206  0.2031 -0.0046 -0.1793
 8929TIP3   OH226727   3.182   4.331   1.002 -0.1677  0.5114  0.4440
 8929TIP3    H126728   3.264   4.330   1.052  0.5823 -0.7252 -0.7748
 8929TIP3    H226729   3.159   4.238   0.992 -2.4388  0.9008  1.9354
 8930TIP3   OH226730   6.356   5.848   2.063  0.4294 -0.4624  0.3045
 8930TIP3    H126731   6.394   5.926   2.103 -1.9683  0.0751  1.6245
 8930TIP3    H226732   6.431   5.798   2.031  2.1310  1.1932  1.6329
 8931TIP3   OH226733   4.321   7.761   3.191  0.1050  0.6106  0.1267
 8931TIP3    H126734   4.277   7.755   3.276  3.7636  0.7874  2.1357
 8931TIP3    H226735   4.255   7.796   3.132 -3.3492 -1.9379  2.2548
 8932TIP3   OH226736   6.047   7.788   1.989 -0.2149  0.5187 -0.0115
 8932TIP3    H126737   6.103   7.864   1.975  0.1847  0.3198  0.4690
 8932TIP3    H226738   6.060   7.766   2.081  0.5203 -0.7894 -0.4172
 8933TIP3   OH226739   4.062   4.198   5.024 -0.0604 -0.0603  0.3528
 8933TIP3    H126740   4.157   4.188   5.020 -0.0618 -0.2595  0.7408
 8933TIP3    H226741   4.048   4.266   5.091 -0.1820  0.1401  0.1249
 8934TIP3   OH226742   4.973   4.341   6.171  0.2457 -0.2283  0.1850
 8934TIP3    H126743   5.003   4.303   6.254  1.3690  0.3438  0.0353
 8934TIP3    H226744   4.895   4.290   6.149  0.0842 -0.5482  1.4671
 8935TIP3   OH226745   5.526   7.227   3.355  0.5401  0.5884  0.1345
 8935TIP3    H126746   5.572   7.179   3.424 -0.3639  0.5124  0.6870
 8935TIP3    H226747   5.498   7.308   3.397  0.7187  0.9151 -0.3743
 8936TIP3   OH226748   6.237   6.170   6.436  0.7024 -0.0446  0.1792
 8936TIP3    H126749   6.232   6.122   6.518  0.8883 -0.6501 -0.1573
 8936TIP3    H226750   6.283   6.111   6.376 -1.7449 -0.7327 -1.1336
 8937TIP3   OH226751   6.191   6.575   2.959 -0.0612  0.2220 -0.5167
 8937TIP3    H126752   6.175   6.626   3.038  1.0688  1.2941 -0.9490
 8937TIP3    H226753   6.120   6.599   2.900  1.1029  2.2131 -1.1397
 8938TIP3   OH226754   0.662   0.462   3.556  0.3691  0.3258  0.1469
 8938TIP3    H126755   0.629   0.458   3.467 -0.5699  1.0563  0.4529
 8938TIP3    H226756   0.649   0.373   3.590 -0.7672  0.4573  0.0771
 8939TIP3   OH226757   6.432   6.548   3.563  0.0523 -0.0427  0.0292
 8939TIP3    H126758   6.521   6.582   3.573  0.0715 -0.0699 -0.0482
 8939TIP3    H226759   6.417   6.550   3.469  0.2952 -0.8535 -0.0338
 8940TIP3   OH226760   1.752   0.148   2.026  0.3715  0.1588 -0.5404
 8940TIP3    H126761   1.680   0.172   2.085  0.3421  2.1544 -1.3541
 8940TIP3    H226762   1.802   0.228   2.015  0.9022 -0.4115 -2.5323
 8941TIP3   OH226763   5.291   5.218   1.168 -0.1486 -0.0489  0.2805
 8941TIP3    H126764   5.269   5.151   1.233  0.7006 -0.0505  0.5768
 8941TIP3    H226765   5.253   5.298   1.204 -2.3552 -0.5983 -0.7454
 8942TIP3   OH226766   7.480   8.077   0.214 -0.3333  0.8394 -0.2790
 8942TIP3    H126767   7.385   8.062   0.216 -0.1050 -0.7259 -0.4276
 8942TIP3    H226768   7.514   8.007   0.159  1.0503  0.6417  0.8092
 8943TIP3   OH226769   6.025   6.258   2.908 -0.1789  0.4277 -0.3103
 8943TIP3    H126770   5.974   6.332   2.875 -0.9963 -0.3166 -0.7384
 8943TIP3    H226771   5.960   6.197   2.943  0.5241  0.1754  0.5845
 8944TIP3   OH226772   1.658   6.134   2.462  0.7168  0.4722 -0.5171
 8944TIP3    H126773   1.658   6.208   2.401  1.4376  1.4810  0.6871
 8944TIP3    H226774   1.692   6.170   2.544 -0.2743 -0.8467  0.5075
 8945TIP3   OH226775   8.088   4.753   2.778 -0.3579  0.1344 -0.0090
 8945TIP3    H126776   8.020   4.729   2.714 -0.1263  2.6522 -1.2718
 8945TIP3    H226777   8.044   4.813   2.838  0.1624  0.0071  0.4975
 8946TIP3   OH226778   1.870   5.741   2.768  0.4400  0.1660 -0.0534
 8946TIP3    H126779   1.810   5.667   2.778 -0.3002  0.5395 -1.6841
 8946TIP3    H226780   1.954   5.701   2.746  0.2908 -0.2293  0.0855
 8947TIP3   OH226781   7.213   7.164   3.508  0.3349 -0.0303 -0.0326
 8947TIP3    H126782   7.216   7.102   3.436 -0.1519 -0.1620  0.0581
 8947TIP3    H226783   7.154   7.234   3.477  0.5658  0.1868  0.0179
 8948TIP3   OH226784   5.442   5.315   2.519 -0.9552 -0.1859  0.1328
 8948TIP3    H126785   5.361   5.354   2.488 -0.1131  2.7341  1.4297
 8948TIP3    H226786   5.458   5.357   2.603  1.4243 -1.3988  0.3260
 8949TIP3   OH226787   1.846   0.205   1.111 -0.4321 -0.1515  0.1857
 8949TIP3    H126788   1.911   0.211   1.041 -0.5596 -1.1717 -0.0211
 8949TIP3    H226789   1.772   0.256   1.080  0.3572  1.2266  0.5255
 8950TIP3   OH226790   7.348   4.831   1.924  0.3467 -0.2795  0.3546
 8950TIP3    H126791   7.371   4.922   1.942  0.4695  0.0594 -1.4332
 8950TIP3    H226792   7.253   4.830   1.922  0.3584 -0.0982 -0.1330
 8951TIP3   OH226793   5.911   7.741   2.946 -0.3138 -0.1370 -0.0344
 8951TIP3    H126794   5.969   7.739   2.871 -0.1517  0.5162  0.0708
 8951TIP3    H226795   5.967   7.767   3.019 -0.5380 -0.4533  0.2529
 8952TIP3   OH226796   1.304   5.182   4.143  0.1722  0.0030  0.2188
 8952TIP3    H126797   1.382   5.237   4.145  0.9455 -1.1104  1.4372
 8952TIP3    H226798   1.276   5.184   4.051  0.2651  2.2756  0.2071
 8953TIP3   OH226799   5.641   5.866   3.068  0.6231  0.4632  0.3343
 8953TIP3    H126800   5.575   5.929   3.097  0.3641  1.5372 -2.4561
 8953TIP3    H226801   5.629   5.791   3.127 -3.0507  0.6582  0.0036
 8954TIP3   OH226802   0.397   7.041   1.539  0.1697 -0.2636  0.3549
 8954TIP3    H126803   0.471   6.985   1.514  0.5725  0.5793 -0.3256
 8954TIP3    H226804   0.396   7.111   1.474  0.4724  1.2608  1.9541
 8955TIP3   OH226805   5.882   7.812   0.594  0.6439 -0.3914 -0.4294
 8955TIP3    H126806   5.861   7.893   0.547 -1.0630 -0.2085  0.6481
 8955TIP3    H226807   5.901   7.749   0.524  1.2239  0.7134 -1.2899
 8956TIP3   OH226808   8.037   5.608   2.764 -0.3640  0.7898  0.0110
 8956TIP3    H126809   7.968   5.550   2.798  0.5546 -0.8615 -0.8948
 8956TIP3    H226810   8.095   5.621   2.839  1.2836 -2.2922 -0.6454
 8957TIP3   OH226811   6.511   5.455   2.869  0.1557 -0.4659  0.5029
 8957TIP3    H126812   6.417   5.468   2.870  0.2547  0.4120 -1.0515
 8957TIP3    H226813   6.533   5.441   2.777  2.0038  2.9671  0.3200
 8958TIP3   OH226814   7.439   7.671   2.945 -0.3479  0.2247 -0.0116
 8958TIP3    H126815   7.479   7.728   3.010 -0.3315 -0.5084  0.6267
 8958TIP3    H226816   7.419   7.591   2.993  0.2515 -0.5604 -1.0638
 8959TIP3   OH226817   6.173   5.659   3.157 -0.4492 -0.4945  0.4151
 8959TIP3    H126818   6.110   5.681   3.226 -0.2892 -0.5112  0.5657
 8959TIP3    H226819   6.121   5.660   3.077 -1.0377 -2.2662  0.7451
 8960TIP3   OH226820   0.590   6.352   1.982  0.0944  0.1334  0.0085
 8960TIP3    H126821   0.676   6.387   1.962  0.2834  0.8524  1.9368
 8960TIP3    H226822   0.578   6.370   2.075 -1.2538 -1.8345  0.2569
 8961TIP3   OH226823   7.958   7.535   2.596 -0.7654  0.0915  0.2054
 8961TIP3    H126824   8.003   7.559   2.515  1.0320  0.1366  1.1989
 8961TIP3    H226825   7.866   7.524   2.570 -0.1720 -0.1110 -1.8647
 8962TIP3   OH226826   6.890   5.860   1.860  0.8658  0.2397  0.2920
 8962TIP3    H126827   6.954   5.868   1.790  0.5481 -0.2984 -0.0653
 8962TIP3    H226828   6.939   5.882   1.940  1.5223 -0.2555  0.0371
 8963TIP3   OH226829   6.976   7.909   1.387 -0.4225 -0.1480 -0.1007
 8963TIP3    H126830   7.021   7.925   1.470 -2.7900  0.1404  1.1839
 8963TIP3    H226831   6.920   7.833   1.405 -2.5966  1.2481 -0.7260
 8964TIP3   OH226832   5.674   6.714   2.786 -0.1863 -0.0628 -0.0991
 8964TIP3    H126833   5.702   6.752   2.870  0.2754 -0.9961  0.1781
 8964TIP3    H226834   5.652   6.624   2.807  0.4756 -0.4659 -1.0847
 8965TIP3   OH226835   0.956   4.802   2.166  0.2996 -0.3005  0.0405
 8965TIP3    H126836   1.035   4.795   2.112  0.9239  1.7746  0.6124
 8965TIP3    H226837   0.887   4.829   2.106  0.1150 -1.6841 -0.3808
 8966TIP3   OH226838   0.701   0.551   3.069 -0.6710 -0.1607  0.0720
 8966TIP3    H126839   0.715   0.630   3.121 -2.0003  0.0020  0.1924
 8966TIP3    H226840   0.742   0.571   2.984 -0.3091  0.3526  0.3621
 8967TIP3   OH226841   6.434   5.022   0.193 -0.1859  0.0328 -0.5318
 8967TIP3    H126842   6.493   5.055   0.260  1.1720  0.9049 -2.1128
 8967TIP3    H226843   6.425   4.929   0.213  1.1880  0.0288  0.1386
 8968TIP3   OH226844   1.928   0.997   3.848  0.1006  0.0612 -0.0121
 8968TIP3    H126845   1.835   1.006   3.829  0.2761 -0.5112 -1.1818
 8968TIP3    H226846   1.941   0.902   3.857  0.4266  0.1882  0.9055
 8969TIP3   OH226847   1.971   6.008   2.686 -0.0259 -0.8478 -0.0315
 8969TIP3    H126848   1.942   6.026   2.775 -0.5711  0.2765 -0.4187
 8969TIP3    H226849   1.972   5.912   2.680 -2.8462 -0.9645  0.3006
 8970TIP3   OH226850   4.795   5.432   1.691  0.3892  0.1746  0.2312
 8970TIP3    H126851   4.789   5.407   1.599  0.8874  1.5593 -0.1940
 8970TIP3    H226852   4.804   5.350   1.738 -0.2798 -0.5741 -0.9226
 8971TIP3   OH226853   6.149   4.727   2.198  0.2996 -0.2009 -0.4706
 8971TIP3    H126854   6.220   4.664   2.188  1.8404  1.3583  0.3098
 8971TIP3    H226855   6.190   4.801   2.243 -1.8866  0.6224  0.2115
 8972TIP3   OH226856   5.652   7.543   2.754 -0.8552  0.2526 -0.1227
 8972TIP3    H126857   5.729   7.551   2.697 -0.7813  0.1396 -0.0416
 8972TIP3    H226858   5.623   7.632   2.770 -0.7326  0.2954 -0.1436
 8973TIP3   OH226859   1.406   0.342   1.221 -0.1985  0.0573 -0.2240
 8973TIP3    H126860   1.448   0.354   1.307 -1.9222  0.3337  0.6023
 8973TIP3    H226861   1.327   0.291   1.240  0.0187 -0.8895 -1.8244
 8974TIP3   OH226862   7.154   5.718   3.647 -0.2001  0.7273 -0.0515
 8974TIP3    H126863   7.211   5.683   3.715 -0.7272 -1.5730 -0.7459
 8974TIP3    H226864   7.214   5.760   3.585  0.4883  0.6843  0.5779
 8975TIP3   OH226865   2.343   0.610   0.179  0.5583 -0.4777  0.1384
 8975TIP3    H126866   2.436   0.590   0.190  0.8369 -0.1521 -1.5155
 8975TIP3    H226867   2.315   0.642   0.265  1.8637 -0.9734  0.7639
 8976TIP3   OH226868   6.022   7.902   4.815  0.2386 -0.2862 -0.1646
 8976TIP3    H126869   6.039   7.809   4.826  1.1660 -0.1626 -0.4513
 8976TIP3    H226870   5.986   7.910   4.727  2.9688 -0.0516 -1.3116
 8977TIP3   OH226871   5.910   4.862   2.206  0.3581  0.1462  0.0646
 8977TIP3    H126872   5.917   4.927   2.276  1.3946 -0.2144  0.3162
 8977TIP3    H226873   5.990   4.809   2.215 -1.0914 -1.9978  0.7157
 8978TIP3   OH226874   1.288   0.507   2.232 -0.2530  0.2418 -0.6215
 8978TIP3    H126875   1.233   0.584   2.250  1.2780  1.3480 -0.5389
 8978TIP3    H226876   1.259   0.476   2.146 -2.2285 -0.3054  0.1966
 8979TIP3   OH226877   4.963   5.552   2.117 -0.5059 -0.1140  0.3337
 8979TIP3    H126878   4.902   5.544   2.044 -0.5769  1.1016  0.2595
 8979TIP3    H226879   4.941   5.478   2.175 -0.2291 -1.2823 -1.0168
 8980TIP3   OH226880   4.932   5.849   3.748  0.4656 -0.1944 -0.0358
 8980TIP3    H126881   4.980   5.925   3.716  1.3770 -1.6001 -2.1590
 8980TIP3    H226882   4.851   5.885   3.784  2.3230  2.0689  2.0803
 8981TIP3   OH226883   6.701   7.955   1.229 -0.1043  0.4053 -0.3580
 8981TIP3    H126884   6.792   7.952   1.202  0.2251 -0.8104  0.8418
 8981TIP3    H226885   6.652   7.963   1.147  1.1145  2.6087 -0.9193
 8982TIP3   OH226886   6.933   7.008   4.276 -0.7873  0.0872 -0.2684
 8982TIP3    H126887   7.013   6.956   4.271  0.3720  1.8827 -1.1646
 8982TIP3    H226888   6.924   7.029   4.369 -0.6380 -0.7411 -0.0638
 8983TIP3   OH226889   8.021   8.033   2.471  0.2753  0.1371 -0.4008
 8983TIP3    H126890   8.081   8.033   2.546 -0.3398 -2.1171  0.1230
 8983TIP3    H226891   7.935   8.017   2.509 -0.3314  0.9121 -1.4103
 8984TIP3   OH226892   1.307   7.020   2.933 -0.1223 -0.0079 -0.5292
 8984TIP3    H126893   1.397   7.053   2.932 -0.5373  1.2883  1.7630
 8984TIP3    H226894   1.302   6.961   2.857  2.8542 -0.6446 -0.2879
 8985TIP3   OH226895   0.223   0.262   2.339 -0.4307 -0.6376  0.7400
 8985TIP3    H126896   0.197   0.347   2.376  1.3001 -0.2895  1.1893
 8985TIP3    H226897   0.140   0.218   2.321 -1.3933  1.8586 -1.1778
 8986TIP3   OH226898   1.781   7.848   3.790 -0.1408  0.5038  0.0552
 8986TIP3    H126899   1.876   7.850   3.775 -0.4103 -0.0160 -1.8887
 8986TIP3    H226900   1.759   7.938   3.810  0.6508  0.8027 -0.3551
 8987TIP3   OH226901   7.867   0.145   3.704  0.2824 -0.0995  0.0975
 8987TIP3    H126902   7.820   0.114   3.626  0.9012  1.1025 -0.7620
 8987TIP3    H226903   7.905   0.066   3.742 -2.3262 -1.1029  0.7667
 8988TIP3   OH226904   6.909   6.824   3.379  0.1413 -0.3825  0.4092
 8988TIP3    H126905   6.966   6.747   3.378  0.4172 -0.1821 -0.2677
 8988TIP3    H226906   6.870   6.825   3.291  1.2574  1.0522 -0.1010
 8989TIP3   OH226907   7.736   4.465   3.914 -0.0351  0.0269  0.4059
 8989TIP3    H126908   7.666   4.447   3.852 -0.5393 -0.1218  1.0163
 8989TIP3    H226909   7.696   4.453   4.000  0.7836 -0.2175  0.7541
 8990TIP3   OH226910   6.743   7.817   3.155 -0.2392 -0.3307  0.6171
 8990TIP3    H126911   6.721   7.774   3.238  0.7603  1.5010  1.8889
 8990TIP3    H226912   6.717   7.908   3.168  3.3853  0.8234  0.3717
 8991TIP3   OH226913   6.626   6.344   1.879  0.3056  0.5009 -0.0845
 8991TIP3    H126914   6.656   6.267   1.928 -1.4126  0.0475  0.2845
 8991TIP3    H226915   6.584   6.308   1.801  3.1214  1.2332 -2.0051
 8992TIP3   OH226916   0.476   6.795   2.175  0.4589  0.0156 -0.0624
 8992TIP3    H126917   0.418   6.773   2.248  0.0167  1.1106 -0.0654
 8992TIP3    H226918   0.564   6.789   2.211  0.2131  1.1493  0.7342
 8993TIP3   OH226919   7.506   7.934   1.696  0.1288  0.5228  0.4937
 8993TIP3    H126920   7.492   7.934   1.791  0.8660  0.1624  0.6075
 8993TIP3    H226921   7.418   7.929   1.659 -0.1671  0.6880  1.1564
 8994TIP3   OH226922   5.319   5.688   4.956 -0.1230 -0.2236  0.1752
 8994TIP3    H126923   5.305   5.719   5.046  0.1175  1.0956 -0.2301
 8994TIP3    H226924   5.414   5.696   4.943 -0.3571  1.1115 -0.7351
 8995TIP3   OH226925   2.110   1.144   2.569 -0.0470  0.2318  0.0088
 8995TIP3    H126926   2.056   1.168   2.493 -0.3548  0.2602  0.2328
 8995TIP3    H226927   2.071   1.063   2.601  0.6464 -0.2672 -0.4089
 8996TIP3   OH226928   7.367   6.081   2.672  0.3584 -0.2523  0.1561
 8996TIP3    H126929   7.326   6.017   2.730  1.3490 -2.4371 -1.4800
 8996TIP3    H226930   7.351   6.047   2.584  1.3306  1.4993 -0.7243
 8997TIP3   OH226931   8.597   7.671   1.923 -0.1927 -0.3522 -0.2493
 8997TIP3    H126932   8.506   7.653   1.902 -0.5034 -1.5635  1.9318
 8997TIP3    H226933   8.641   7.586   1.912  0.2048 -0.3073  0.9397
 8998TIP3   OH226934   5.314   6.815   3.817  0.4033 -0.1836  0.4947
 8998TIP3    H126935   5.279   6.881   3.877  0.8119  0.0478  0.4782
 8998TIP3    H226936   5.399   6.791   3.854  0.7358  0.0905 -0.0870
 8999TIP3   OH226937   1.855   7.976   5.521  0.0548  0.2953 -0.5675
 8999TIP3    H126938   1.875   8.024   5.440 -0.8745  1.8127  0.0788
 8999TIP3    H226939   1.866   7.884   5.497 -0.6966  0.6903 -2.5822
 9000TIP3   OH226940   7.399   6.866   1.361 -0.1679  0.0439 -0.6011
 9000TIP3    H126941   7.307   6.886   1.343  0.1546  1.1935 -0.9938
 9000TIP3    H226942   7.420   6.793   1.303 -1.4116 -1.6385  0.9781
 9001TIP3   OH226943   5.395   4.235   0.990 -0.1815 -0.4328  0.0360
 9001TIP3    H126944   5.338   4.212   1.064 -0.5285 -0.9110 -0.3791
 9001TIP3    H226945   5.407   4.154   0.942  0.6084 -0.2661 -0.0540
 9002TIP3   OH226946   5.616   5.987   3.559  0.1470  0.0048 -0.3880
 9002TIP3    H126947   5.616   6.082   3.572  1.0818 -0.3136  2.1237
 9002TIP3    H226948   5.566   5.953   3.633  1.4118 -1.5925 -0.2457
 9003TIP3   OH226949   5.619   6.446   2.488  0.2783  0.0289  0.2652
 9003TIP3    H126950   5.525   6.449   2.501 -0.0645 -0.0239 -1.9721
 9003TIP3    H226951   5.643   6.356   2.509 -0.4021 -0.3424 -0.5282
 9004TIP3   OH226952   5.955   7.595   2.364 -0.3618  0.4810  0.7489
 9004TIP3    H126953   5.882   7.590   2.426 -0.7784  0.5057  0.2636
 9004TIP3    H226954   5.936   7.526   2.300 -0.6777  1.3863 -0.1452
 9005TIP3   OH226955   7.193   4.765   3.588 -0.3206  0.1057  0.7345
 9005TIP3    H126956   7.198   4.672   3.611  1.1328 -0.7085 -2.6211
 9005TIP3    H226957   7.117   4.771   3.530  1.0792  0.4769 -1.1197
 9006TIP3   OH226958   2.111   4.971   2.521 -0.1714 -0.1199 -0.4515
 9006TIP3    H126959   2.198   4.933   2.530  0.7381  1.9283 -0.3543
 9006TIP3    H226960   2.123   5.044   2.460 -1.6430  0.7310  0.2650
 9007TIP3   OH226961   7.307   7.983   0.968 -0.0358  0.2561  0.3123
 9007TIP3    H126962   7.250   7.980   1.044 -1.4337 -1.5667 -0.7530
 9007TIP3    H226963   7.323   7.891   0.948  0.5966  0.7265 -1.3850
 9008TIP3   OH226964   2.049  -0.009   1.338  0.0814  1.0357  0.0144
 9008TIP3    H126965   1.988  -0.016   1.264 -0.9259  1.5998  0.7787
 9008TIP3    H226966   2.035   0.079   1.373  1.1156  1.0539  0.3967
 9009TIP3   OH226967   1.147   0.093   3.812 -0.3780 -0.4293  0.2415
 9009TIP3    H126968   1.076   0.031   3.797  0.5957 -1.6563  0.5110
 9009TIP3    H226969   1.104   0.175   3.835 -1.7165 -0.7857 -0.9335
 9010TIP3   OH226970   7.141   5.579   2.717  0.2341 -0.4280 -0.0292
 9010TIP3    H126971   7.204   5.511   2.739  1.6539  1.7377  2.8992
 9010TIP3    H226972   7.064   5.558   2.769  0.1477 -0.5519 -0.2029
 9011TIP3   OH226973   6.352   7.409   0.938 -0.1728  0.4784  0.1152
 9011TIP3    H126974   6.319   7.493   0.971  0.7550  0.5807  0.7977
 9011TIP3    H226975   6.369   7.425   0.845 -0.8159  0.7925  0.0469
 9012TIP3   OH226976   7.717   6.940   3.106  0.2708  0.3852 -0.2457
 9012TIP3    H126977   7.636   6.927   3.056  0.3385  0.9988 -0.5172
 9012TIP3    H226978   7.759   7.016   3.065  1.4878 -0.5515 -0.7590
 9013TIP3   OH226979   2.335   0.642   3.675 -0.2576  0.0513  0.0396
 9013TIP3    H126980   2.276   0.567   3.674 -2.1518  1.4879  1.2047
 9013TIP3    H226981   2.305   0.697   3.603 -0.2985  0.7202  0.5546
 9014TIP3   OH226982   0.319   5.695   3.271  0.5241  0.0815  0.1859
 9014TIP3    H126983   0.256   5.643   3.320  0.3808 -0.6083 -0.7157
 9014TIP3    H226984   0.266   5.757   3.221  0.4325 -1.6360 -1.8990
 9015TIP3   OH226985   5.811   7.507   3.093  0.1132  0.9303 -0.0507
 9015TIP3    H126986   5.752   7.453   3.041  0.5123  0.7570 -0.3298
 9015TIP3    H226987   5.818   7.590   3.045 -0.6514  1.3027  0.4784
 9016TIP3   OH226988   7.636   7.477   2.000 -0.5914  0.1113  0.4391
 9016TIP3    H126989   7.728   7.498   1.982 -1.1408  1.3751 -0.9746
 9016TIP3    H226990   7.640   7.411   2.069  1.4012 -0.2674  0.0050
 9017TIP3   OH226991   5.723   6.559   4.073  0.5804  0.2562 -0.0996
 9017TIP3    H126992   5.783   6.579   4.001  1.2680 -1.3021  0.0219
 9017TIP3    H226993   5.769   6.494   4.125 -0.5401  0.2724  0.9319
 9018TIP3   OH226994   0.708   6.688   1.122  0.2926  0.4182 -0.1839
 9018TIP3    H126995   0.770   6.726   1.185  0.3247  0.4731 -0.2493
 9018TIP3    H226996   0.725   6.594   1.126  0.0870  0.3917  0.1138
 9019TIP3   OH226997   1.994   1.553   5.106  0.3616 -0.3933  0.3558
 9019TIP3    H126998   1.970   1.644   5.096  1.2827 -0.1974 -0.1556
 9019TIP3    H226999   1.917   1.504   5.077 -0.4010  0.2161  1.3279
 9020TIP3   OH227000   6.369   6.884   1.045  0.2818  0.3907 -0.6064
 9020TIP3    H127001   6.390   6.975   1.026 -0.5454  0.5548 -0.7540
 9020TIP3    H227002   6.273   6.881   1.046  0.2966 -0.1902  0.7772
 9021TIP3   OH227003   1.069   0.318   2.859 -0.2044 -0.3787 -0.1875
 9021TIP3    H127004   1.099   0.406   2.882 -0.6747  0.2477 -1.9156
 9021TIP3    H227005   1.135   0.259   2.896  2.5648  0.9093 -2.9750
 9022TIP3   OH227006   3.271   5.735   1.992 -0.1231  0.1152 -0.1653
 9022TIP3    H127007   3.258   5.775   2.078 -2.7913 -0.5012 -0.2457
 9022TIP3    H227008   3.208   5.780   1.935  1.8395  0.7404 -1.8958
 9023TIP3   OH227009   1.436   5.475   3.523  0.1457  0.0678 -0.6339
 9023TIP3    H127010   1.391   5.559   3.523 -0.1746 -0.1026 -0.0916
 9023TIP3    H227011   1.529   5.498   3.534 -0.1421  0.2535  1.6243
 9024TIP3   OH227012   7.510   6.750   3.461  0.4606 -0.0010  0.5404
 9024TIP3    H127013   7.523   6.691   3.536  0.4949 -0.4400  0.1900
 9024TIP3    H227014   7.566   6.714   3.392 -0.4807 -0.2897 -0.0817
 9025TIP3   OH227015   6.422   6.454   3.296 -0.3780 -0.0692 -0.0569
 9025TIP3    H127016   6.428   6.375   3.350 -4.6923 -1.0715 -0.7940
 9025TIP3    H227017   6.467   6.432   3.215 -1.3319 -1.7422 -0.1529
 9026TIP3   OH227018   6.872   7.127   3.940 -0.2733  0.0062  0.4039
 9026TIP3    H127019   6.827   7.092   4.016 -0.7311 -2.8922 -1.1435
 9026TIP3    H227020   6.807   7.125   3.870  0.3236  2.0616 -0.2661
 9027TIP3   OH227021   6.811   6.865   1.805  0.0192 -0.2509  0.1086
 9027TIP3    H127022   6.740   6.915   1.765  0.4170  1.2287  1.1894
 9027TIP3    H227023   6.773   6.780   1.825 -1.5471  0.6447  1.0082
 9028TIP3   OH227024   3.117   3.004   6.734 -0.1363  0.2650 -0.4172
 9028TIP3    H127025   3.026   2.982   6.755 -0.3158  0.2030 -1.2668
 9028TIP3    H227026   3.134   2.961   6.651  1.0218 -0.6203  0.2640
 9029TIP3   OH227027   0.631   6.671   4.183  0.4811  0.2063  0.0701
 9029TIP3    H127028   0.670   6.712   4.105  0.8575  0.0472  0.1710
 9029TIP3    H227029   0.541   6.654   4.159  0.9502 -1.0811 -0.7982
 9030TIP3   OH227030   6.888   7.546   1.711  0.4921  0.2881  0.4191
 9030TIP3    H127031   6.821   7.477   1.710  1.4024 -0.6052 -1.9639
 9030TIP3    H227032   6.967   7.503   1.743  0.7501  0.5499  0.1375
 9031TIP3   OH227033   7.191   7.554   2.590  0.2238 -0.0884 -0.1536
 9031TIP3    H127034   7.177   7.648   2.604 -2.8931 -0.4481 -0.4403
 9031TIP3    H227035   7.147   7.512   2.664  0.3480 -1.3752 -0.7974
 9032TIP3   OH227036   8.227   0.362   1.460  0.0952 -0.3211 -0.2156
 9032TIP3    H127037   8.221   0.378   1.554  0.7662  1.3320 -0.4457
 9032TIP3    H227038   8.160   0.296   1.443 -0.1722 -0.4876  1.3812
 9033TIP3   OH227039   1.632   0.354   1.042  0.8945  0.0681 -0.4829
 9033TIP3    H127040   1.562   0.330   1.104  0.8205  0.6547 -0.3403
 9033TIP3    H227041   1.640   0.449   1.050 -1.7855  0.7062 -4.1777
 9034TIP3   OH227042   6.187   6.292   1.804 -0.4039  0.6325  0.2865
 9034TIP3    H127043   6.092   6.296   1.791 -0.2967  1.0671 -0.3557
 9034TIP3    H227044   6.224   6.334   1.727  0.3751 -1.4577 -0.5274
 9035TIP3   OH227045   8.420   7.286   2.352  0.6056  0.0689 -0.6821
 9035TIP3    H127046   8.512   7.295   2.376 -0.4551  1.5965  3.2093
 9035TIP3    H227047   8.411   7.334   2.270  2.8853  1.6233 -0.0562
 9036TIP3   OH227048   6.397   7.127   0.897  0.0261  0.4141  0.4014
 9036TIP3    H127049   6.384   7.221   0.896 -0.2808  0.3661 -1.5696
 9036TIP3    H227050   6.492   7.115   0.893  0.0502  0.6348  0.3541
 9037TIP3   OH227051   4.846   6.252   2.567  0.6595 -0.2831 -0.0150
 9037TIP3    H127052   4.820   6.174   2.517  1.4236 -1.4379  1.3380
 9037TIP3    H227053   4.772   6.270   2.624  1.7798 -2.1191  2.1133
 9038TIP3   OH227054   0.418   6.208   4.888  0.0830  0.2236  0.0148
 9038TIP3    H127055   0.368   6.252   4.819  0.3012 -0.4296 -0.5560
 9038TIP3    H227056   0.507   6.239   4.877 -0.3231  2.0357  1.5534
 9039TIP3   OH227057   7.755   5.654   2.623  0.5339  0.1625 -0.3858
 9039TIP3    H127058   7.810   5.584   2.658  1.7801  0.3502 -1.9137
 9039TIP3    H227059   7.817   5.713   2.580 -0.4415  2.4400  1.2328
 9040TIP3   OH227060   7.596   7.703   3.212  0.2443 -0.0723  0.1544
 9040TIP3    H127061   7.613   7.630   3.272 -0.5364  0.3061  0.8392
 9040TIP3    H227062   7.507   7.731   3.232  0.1839  0.4440 -0.7832
 9041TIP3   OH227063   7.363   6.095   3.485  0.0602 -0.3426  0.5759
 9041TIP3    H127064   7.369   6.033   3.558  1.4935  0.3208  1.0389
 9041TIP3    H227065   7.360   6.181   3.527 -2.0725 -0.0649 -0.0568
 9042TIP3   OH227066   2.369   0.945   1.354  0.0784 -0.3946  0.1684
 9042TIP3    H127067   2.316   0.924   1.431 -0.6851  0.5945 -0.0683
 9042TIP3    H227068   2.343   0.880   1.288 -2.1767  1.1553 -0.5242
 9043TIP3   OH227069   0.834   5.794   4.100 -0.1933  0.5974  0.3472
 9043TIP3    H127070   0.760   5.781   4.159  0.9083  0.1797  1.6858
 9043TIP3    H227071   0.875   5.875   4.131 -0.7715  1.4670 -1.1387
 9044TIP3   OH227072   1.011   0.056   2.055 -0.9450 -0.1811 -0.4553
 9044TIP3    H127073   1.102   0.064   2.026 -0.7321  0.8601  0.4450
 9044TIP3    H227074   0.959   0.086   1.981 -0.4418  1.8450 -0.0120
 9045TIP3   OH227075   0.839   6.300   2.641  0.3926  0.1901  0.2061
 9045TIP3    H127076   0.905   6.361   2.607  1.1889 -1.3826 -1.1056
 9045TIP3    H227077   0.763   6.356   2.658  1.2842  1.6501 -0.4353
 9046TIP3   OH227078   6.711   7.784   4.198 -0.3190  0.1773  0.4995
 9046TIP3    H127079   6.773   7.855   4.178 -0.0889 -0.4484 -1.0124
 9046TIP3    H227080   6.646   7.825   4.256  0.9217  1.1043  1.2648
 9047TIP3   OH227081   7.336   7.789   3.317  0.2829  0.6126 -0.4812
 9047TIP3    H127082   7.241   7.779   3.327  0.2848 -0.0306 -1.0722
 9047TIP3    H227083   7.366   7.817   3.404 -0.3116 -0.1585 -0.0186
 9048TIP3   OH227084   6.371   6.522   1.692  0.6351  0.0251  0.1724
 9048TIP3    H127085   6.429   6.597   1.676  0.4663 -0.0446 -0.8010
 9048TIP3    H227086   6.414   6.449   1.648 -0.5404  0.1278 -1.1794
 9049TIP3   OH227087   5.452   4.689   1.614  0.2637  0.4202  0.4117
 9049TIP3    H127088   5.500   4.755   1.563 -1.6211  0.6079 -1.1780
 9049TIP3    H227089   5.486   4.605   1.583 -0.7508  0.5379 -1.0714
 9050TIP3   OH227090   8.538   5.704   3.022  0.2177  0.3034 -0.3740
 9050TIP3    H127091   8.609   5.745   3.072 -0.9761  1.7708  0.1468
 9050TIP3    H227092   8.574   5.692   2.935  1.2655  0.6103  0.0113
 9051TIP3   OH227093   4.525   5.838   2.468  0.2545  0.0877 -0.6396
 9051TIP3    H127094   4.446   5.799   2.504  0.1426  0.8552 -0.0410
 9051TIP3    H227095   4.542   5.789   2.388  0.6903 -1.8857  0.6296
 9052TIP3   OH227096   1.453   0.573   4.371 -0.4307  0.5400  0.0657
 9052TIP3    H127097   1.383   0.636   4.352 -0.3433  0.9686  1.1062
 9052TIP3    H227098   1.451   0.563   4.467  0.4688  0.0129  0.0377
 9053TIP3   OH227099   0.266   6.731   2.408 -0.2180  0.7701 -0.3793
 9053TIP3    H127100   0.247   6.708   2.317  1.2187  1.4466 -0.8635
 9053TIP3    H227101   0.248   6.825   2.414  2.4209  1.3579 -0.7542
 9054TIP3   OH227102   2.630   1.108   1.279 -0.1832 -0.0671 -0.4803
 9054TIP3    H127103   2.698   1.073   1.337  0.9916  2.0265 -0.5301
 9054TIP3    H227104   2.548   1.080   1.318  0.4908  2.5923  3.1380
 9055TIP3   OH227105   3.885   0.211   4.057 -0.2372  0.7066  0.0423
 9055TIP3    H127106   3.975   0.239   4.076 -0.2039 -0.7503  2.2473
 9055TIP3    H227107   3.893   0.117   4.037 -1.3244  0.4325  0.8498
 9056TIP3   OH227108   7.990   7.854   0.883 -0.1521  0.1398  0.3996
 9056TIP3    H127109   8.057   7.921   0.878 -1.5043  1.4932  0.0310
 9056TIP3    H227110   7.990   7.813   0.796  0.8596 -0.5512  0.7123
 9057TIP3   OH227111   7.124   7.836   2.635  0.5529 -0.3561  0.2374
 9057TIP3    H127112   7.029   7.820   2.637  0.1219  2.0525  0.8398
 9057TIP3    H227113   7.150   7.838   2.727  0.8436  0.7794  0.1404
 9058TIP3   OH227114   3.674   5.215   1.942  0.6918  0.2870 -0.2135
 9058TIP3    H127115   3.709   5.209   1.853  0.3436 -0.3764 -0.3102
 9058TIP3    H227116   3.601   5.276   1.935 -2.7092 -3.7199 -1.4904
 9059TIP3   OH227117   7.871   6.944   2.737  0.7571 -0.3236  0.2897
 9059TIP3    H127118   7.911   7.023   2.773  0.9334 -0.6280  0.7607
 9059TIP3    H227119   7.886   6.876   2.804  1.0818 -0.8865 -0.3434
 9060TIP3   OH227120   0.255   6.984   3.220 -0.7650  0.0516 -0.5140
 9060TIP3    H127121   0.299   6.945   3.296 -0.1917  1.6560  0.0083
 9060TIP3    H227122   0.188   7.040   3.258 -2.2886 -1.2267 -1.2849
 9061TIP3   OH227123   0.291   7.086   3.970 -0.0432 -0.2247  0.4063
 9061TIP3    H127124   0.232   7.061   4.041 -1.5266  0.1225 -0.6698
 9061TIP3    H227125   0.365   7.128   4.013 -0.4507 -0.9344  1.8024
 9062TIP3   OH227126   6.845   4.095   4.726 -0.4355 -0.4322  0.1639
 9062TIP3    H127127   6.824   4.079   4.818 -0.5963 -2.8710 -0.2643
 9062TIP3    H227128   6.845   4.190   4.717 -1.9930 -0.1998  2.3206
 9063TIP3   OH227129   7.082   7.706   3.328 -0.3435 -0.2660  0.4759
 9063TIP3    H127130   7.009   7.687   3.387 -0.0965  1.0467  1.2358
 9063TIP3    H227131   7.052   7.781   3.276 -0.1431 -0.7301 -0.3103
 9064TIP3   OH227132   6.165   7.705   3.102 -0.0380  0.4785 -0.2952
 9064TIP3    H127133   6.227   7.778   3.108  0.8702 -0.2602 -0.5128
 9064TIP3    H227134   6.191   7.646   3.172 -2.7175  1.7887  1.8532
 9065TIP3   OH227135   7.937   6.754   2.945 -0.2866  0.1496 -0.1859
 9065TIP3    H127136   8.009   6.797   2.991  0.5651  0.3186 -1.6532
 9065TIP3    H227137   7.873   6.735   3.013  1.5189 -0.7965  1.2582
 9066TIP3   OH227138   1.992   2.080   3.500 -0.3661 -0.5184 -0.0326
 9066TIP3    H127139   2.027   2.142   3.564 -1.4355 -0.5347  0.5759
 9066TIP3    H227140   1.937   2.021   3.551 -1.0112 -0.6974 -0.9218
 9067TIP3   OH227141   0.035   6.716   3.287 -0.4201  0.3111 -0.0850
 9067TIP3    H127142  -0.060   6.709   3.277 -0.1813 -0.6270 -1.8662
 9067TIP3    H227143   0.051   6.811   3.288 -1.3256  0.4752 -0.2959
 9068TIP3   OH227144   5.326   7.557   1.796 -0.6785 -0.2638 -0.2032
 9068TIP3    H127145   5.360   7.629   1.743  1.5544 -0.6730  0.6369
 9068TIP3    H227146   5.309   7.597   1.881  0.5947 -0.7290  0.2738
 9069TIP3   OH227147   6.951   7.150   1.678  0.1614 -0.0694  0.4616
 9069TIP3    H127148   7.009   7.096   1.624  0.7300  2.4177 -1.5490
 9069TIP3    H227149   7.007   7.220   1.710 -1.4815  1.9067 -0.8269
 9070TIP3   OH227150   8.215   6.479   1.843 -0.7972  0.1361  0.0324
 9070TIP3    H127151   8.301   6.520   1.832 -0.4982 -0.8765 -1.5919
 9070TIP3    H227152   8.158   6.529   1.784 -0.5631 -1.3623 -1.4904
 9071TIP3   OH227153   7.324   7.412   2.226 -0.4027  0.0400  0.1158
 9071TIP3    H127154   7.338   7.353   2.152  0.9444  0.9764 -0.3782
 9071TIP3    H227155   7.285   7.356   2.294  0.7643 -1.3872 -0.3812
 9072TIP3   OH227156   7.453   7.992   1.948  0.2812 -0.0495 -0.0662
 9072TIP3    H127157   7.441   8.085   1.966 -2.1731 -0.3410 -0.0532
 9072TIP3    H227158   7.443   7.949   2.032 -3.2684 -0.7084 -0.7645
 9073TIP3   OH227159   6.890   5.248   4.026  0.4834 -0.2864  0.3670
 9073TIP3    H127160   6.817   5.256   3.965  0.8940 -1.0286 -0.2357
 9073TIP3    H227161   6.966   5.280   3.976  0.6319  0.1127  0.8516
 9074TIP3   OH227162   8.287   6.617   3.033 -0.6029  0.0370  0.5129
 9074TIP3    H127163   8.292   6.632   2.938 -0.3626  1.7197  0.7757
 9074TIP3    H227164   8.273   6.523   3.041  1.6174 -0.4723 -1.1142
 9075TIP3   OH227165   8.034   6.738   3.873  0.8500 -0.2787 -0.1708
 9075TIP3    H127166   8.064   6.651   3.897  0.8919 -0.8439 -2.1542
 9075TIP3    H227167   7.941   6.726   3.851 -0.4029  1.0575  3.8971
 9076TIP3   OH227168   0.344   7.843   2.925 -0.2656  0.3458  0.6084
 9076TIP3    H127169   0.261   7.877   2.892 -0.4111  0.6948  1.3420
 9076TIP3    H227170   0.383   7.915   2.973  0.1487 -0.0288  0.8441
 9077TIP3   OH227171   6.893   5.675   3.637 -0.1493 -0.0831  0.1984
 9077TIP3    H127172   6.985   5.698   3.648 -0.2656  0.3598  0.2771
 9077TIP3    H227173   6.845   5.747   3.678 -0.5487  0.2292 -0.7926
 9078TIP3   OH227174   6.815   5.678   3.369 -0.2175  0.1621 -0.1528
 9078TIP3    H127175   6.805   5.583   3.370  0.8117  0.0497  1.3489
 9078TIP3    H227176   6.879   5.696   3.438  0.0425  1.8937 -0.8245
 9079TIP3   OH227177   7.578   5.315   3.513  0.0562  0.2161 -0.0931
 9079TIP3    H127178   7.636   5.317   3.437  0.2059  1.0189  0.0329
 9079TIP3    H227179   7.625   5.263   3.578  1.6918  2.7173  0.8235
 9080TIP3   OH227180   0.518   5.046   2.611 -0.1367  0.3055 -0.3058
 9080TIP3    H127181   0.501   5.137   2.588  1.0180  1.2597  2.3290
 9080TIP3    H227182   0.548   5.050   2.702  1.7638 -2.5195 -0.7263
 9081TIP3   OH227183   1.962   0.392   2.313 -0.1998  0.1330  0.9616
 9081TIP3    H127184   1.921   0.369   2.396 -2.4038 -2.0309 -0.6502
 9081TIP3    H227185   1.906   0.460   2.276 -0.7314 -0.7616  0.0863
 9082TIP3   OH227186   6.535   6.703   3.128 -0.2047  0.1769 -0.4116
 9082TIP3    H127187   6.550   6.619   3.086 -0.6756  0.1722 -0.5774
 9082TIP3    H227188   6.456   6.737   3.086 -0.6498  0.1969  0.4268
 9083TIP3   OH227189   6.929   5.278   2.959 -0.0120  0.0912  0.4513
 9083TIP3    H127190   6.971   5.210   2.906  0.7977 -0.0026  1.1962
 9083TIP3    H227191   6.985   5.286   3.036  0.4151  2.2284 -0.0442
 9084TIP3   OH227192   3.896   7.828   3.396  0.2393  0.2708  0.5109
 9084TIP3    H127193   3.886   7.735   3.416  0.6211  0.1889  0.3352
 9084TIP3    H227194   3.842   7.873   3.461  0.0541 -0.0740  0.5957
 9085TIP3   OH227195   7.834   7.165   2.991 -0.5888 -0.3194 -0.4302
 9085TIP3    H127196   7.784   7.226   3.045  1.5206  0.5023  0.6621
 9085TIP3    H227197   7.851   7.212   2.910 -0.1013  0.0539 -0.1130
 9086TIP3   OH227198   7.961   6.081   1.298  0.8738  0.2717 -0.2534
 9086TIP3    H127199   7.937   5.990   1.317  0.1273  0.5271  0.0241
 9086TIP3    H227200   8.057   6.081   1.303  0.8670 -0.4419  0.0033
 9087TIP3   OH227201   8.157   6.985   2.256  0.0610 -0.1752 -0.1862
 9087TIP3    H127202   8.238   6.998   2.206  0.0656  2.2598  0.4030
 9087TIP3    H227203   8.180   6.921   2.323  1.3366  0.0302 -0.4149
 9088TIP3   OH227204   0.848   6.266   0.849  0.1340  0.3152 -0.2018
 9088TIP3    H127205   0.913   6.333   0.868 -0.3127  0.4100  1.0650
 9088TIP3    H227206   0.822   6.233   0.935 -1.0783 -0.1183 -0.7180
 9089TIP3   OH227207   7.407   4.687   3.293  0.3360 -0.1740 -0.5538
 9089TIP3    H127208   7.395   4.619   3.359  0.2101  0.1193 -0.2738
 9089TIP3    H227209   7.423   4.767   3.343 -0.7736  0.2496 -0.8603
 9090TIP3   OH227210   8.300   7.760   1.140 -0.2193  0.1354  0.4744
 9090TIP3    H127211   8.343   7.739   1.223  0.5146 -2.5761 -0.5049
 9090TIP3    H227212   8.370   7.793   1.084 -0.4284  0.5765  0.4705
 9091TIP3   OH227213   7.452   0.477   0.891 -0.0880  0.3705  0.0712
 9091TIP3    H127214   7.377   0.525   0.854 -0.4293  0.6531  1.1150
 9091TIP3    H227215   7.467   0.405   0.829 -2.5557 -0.9144  0.8775
 9092TIP3   OH227216   0.500   7.127   1.109  0.3457 -0.3313  0.0097
 9092TIP3    H127217   0.535   7.146   1.022 -0.5904 -0.5771 -0.4296
 9092TIP3    H227218   0.508   7.210   1.156 -0.0694  0.0844 -0.6336
 9093TIP3   OH227219   0.793   8.082   2.349  0.2670  0.3548  0.2262
 9093TIP3    H127220   0.792   8.044   2.437 -0.7869  1.3313  0.6457
 9093TIP3    H227221   0.824   8.172   2.363 -1.0893  0.9004 -0.2270
 9094TIP3   OH227222   0.709   3.840   0.811 -0.1434 -0.4850  0.1104
 9094TIP3    H127223   0.670   3.835   0.898 -1.7946 -0.9895 -0.6239
 9094TIP3    H227224   0.747   3.928   0.806  0.9132 -0.8387  1.7090
 9095TIP3   OH227225   3.288   0.909   1.424 -0.2037 -0.3749  0.3225
 9095TIP3    H127226   3.236   0.850   1.370 -1.0547  0.2568  0.4440
 9095TIP3    H227227   3.368   0.860   1.442 -0.8899 -1.4846  0.4105
 9096TIP3   OH227228   0.631   6.362   1.511 -0.1011 -0.0850  0.5036
 9096TIP3    H127229   0.655   6.273   1.536  1.5844  0.0578 -0.5142
 9096TIP3    H227230   0.700   6.417   1.547 -1.6317  0.9502  1.9577
 9097TIP3   OH227231   6.703   7.157   2.195 -0.2314  0.3005 -0.3210
 9097TIP3    H127232   6.733   7.195   2.112  0.4613 -0.4679 -0.4310
 9097TIP3    H227233   6.734   7.066   2.192 -0.3225  0.2329  0.7206
 9098TIP3   OH227234   8.029   5.269   6.831 -0.4986 -0.4389  0.1161
 9098TIP3    H127235   8.087   5.235   6.899  0.8085  0.3751 -0.5604
 9098TIP3    H227236   8.017   5.196   6.771 -1.0133 -0.9239  0.8062
 9099TIP3   OH227237   0.683   6.252   5.239  0.3140  0.6074 -0.0274
 9099TIP3    H127238   0.691   6.163   5.206 -1.2312  0.7449 -0.8429
 9099TIP3    H227239   0.707   6.308   5.166  0.6138  0.8695  0.2682
 9100TIP3   OH227240   7.119   7.818   2.933 -0.2203  0.3222 -0.3016
 9100TIP3    H127241   7.164   7.882   2.988  0.5740 -1.0290  0.6580
 9100TIP3    H227242   7.143   7.733   2.971 -1.6269 -0.5224 -1.2626
 9101TIP3   OH227243   6.005   6.624   2.757 -0.0656 -0.6074  0.1098
 9101TIP3    H127244   5.939   6.556   2.770 -0.2663 -0.2497  0.9720
 9101TIP3    H227245   5.960   6.691   2.706 -1.2623  0.9257  3.0618
 9102TIP3   OH227246   0.207   5.146   3.822 -0.1321  0.1561  0.1609
 9102TIP3    H127247   0.222   5.230   3.778 -2.3641  1.1986  1.3210
 9102TIP3    H227248   0.124   5.115   3.787  0.5795 -1.4778 -0.0872
 9103TIP3   OH227249   5.971   7.055   2.122 -0.4523  0.4820 -0.3214
 9103TIP3    H127250   6.023   7.103   2.058  0.5282  0.2998  0.3406
 9103TIP3    H227251   5.978   7.106   2.202 -1.2387  0.4200 -0.2029
 9104TIP3   OH227252   8.191   5.861   1.879 -0.3230  0.1425 -0.0134
 9104TIP3    H127253   8.190   5.951   1.913 -2.8086  0.6924 -1.4346
 9104TIP3    H227254   8.150   5.809   1.948  2.1489 -0.1196  1.2973
 9105TIP3   OH227255   6.333   5.859   4.301 -0.0069  0.1293 -0.0674
 9105TIP3    H127256   6.265   5.926   4.310  0.4005  0.7947 -1.8263
 9105TIP3    H227257   6.320   5.822   4.214 -0.1032 -1.9858  0.8064
 9106TIP3   OH227258   6.995   6.015   3.325  0.7699  0.0041 -0.0434
 9106TIP3    H127259   7.025   6.020   3.416  0.8607  0.1385 -0.0797
 9106TIP3    H227260   6.927   5.948   3.326  1.0582 -0.2896  0.0429
 9107TIP3   OH227261   4.663   7.382   2.320 -0.4617  0.8117  0.5522
 9107TIP3    H127262   4.717   7.324   2.265  1.2032  2.2815  0.5887
 9107TIP3    H227263   4.634   7.326   2.392  1.4186  0.0961  0.7774
 9108TIP3   OH227264   2.117   0.871   2.698  0.5084 -0.5106 -0.2619
 9108TIP3    H127265   2.190   0.880   2.759  0.9152 -1.2988 -0.6181
 9108TIP3    H227266   2.076   0.788   2.722 -0.1053 -0.1954 -0.2346
 9109TIP3   OH227267   7.224   7.422   3.725 -0.5667  0.5719 -0.4875
 9109TIP3    H127268   7.246   7.347   3.669 -0.7398  0.8545 -0.9400
 9109TIP3    H227269   7.253   7.396   3.812  2.0322  1.1379 -1.1396
 9110TIP3   OH227270   8.344   7.714   3.188  0.3961  0.1384  0.0267
 9110TIP3    H127271   8.369   7.623   3.202 -0.2433  0.0712  0.7484
 9110TIP3    H227272   8.376   7.760   3.265  0.0566  0.3934  0.0165
 9111TIP3   OH227273   6.967   6.195   3.799 -0.2207 -0.2722  0.0272
 9111TIP3    H127274   6.975   6.124   3.863 -1.0592 -1.6523 -1.3566
 9111TIP3    H227275   6.995   6.273   3.846  1.9259 -1.7191  1.2011
 9112TIP3   OH227276   0.998   1.797   2.608  0.4344  0.0515  0.1603
 9112TIP3    H127277   0.904   1.810   2.617  0.5030  1.7135 -1.4512
 9112TIP3    H227278   1.009   1.702   2.618 -1.2017  0.0092  1.9504
 9113TIP3   OH227279   0.157   6.481   3.058  0.2538 -0.2861 -0.1422
 9113TIP3    H127280   0.252   6.468   3.058  0.6288  2.2538 -0.1331
 9113TIP3    H227281   0.146   6.575   3.066 -2.2955 -0.5850  0.1312
 9114TIP3   OH227282   2.813   0.134   3.619  1.1867  0.1067  0.2776
 9114TIP3    H127283   2.808   0.043   3.649  1.1512  0.2817  0.8020
 9114TIP3    H227284   2.815   0.186   3.699  2.0800  0.5286 -0.0162
 9115TIP3   OH227285   8.089   7.295   2.427 -0.6130  0.0214 -0.0920
 9115TIP3    H127286   8.121   7.368   2.481 -1.1343 -1.2973  2.0955
 9115TIP3    H227287   8.113   7.217   2.477 -0.2177 -1.3044 -2.3104
 9116TIP3   OH227288   7.419   7.586   1.554 -0.3051  0.2444 -0.0680
 9116TIP3    H127289   7.372   7.578   1.637  0.2496 -0.6657  0.1630
 9116TIP3    H227290   7.510   7.598   1.578 -0.4421  2.3174 -0.5165
 9117TIP3   OH227291   8.319   6.682   4.011  0.2639  0.7488  0.1512
 9117TIP3    H127292   8.346   6.756   4.065  0.8267  0.0754  0.8094
 9117TIP3    H227293   8.322   6.607   4.071 -1.8262  0.4502 -0.0820
 9118TIP3   OH227294   6.687   7.395   1.830 -0.2999 -0.0718 -0.3447
 9118TIP3    H127295   6.662   7.429   1.916  0.8063 -0.7217  0.2460
 9118TIP3    H227296   6.604   7.377   1.787 -0.9096  2.2339 -0.2288
 9119TIP3   OH227297   6.979   6.982   3.092 -0.3203 -0.2618 -0.3769
 9119TIP3    H127298   7.011   6.975   3.002 -0.2569  2.6892 -0.6306
 9119TIP3    H227299   6.912   6.914   3.098 -1.6677  0.7046 -3.2666
 9120TIP3   OH227300   6.841   4.482   0.587 -0.4906 -0.1654  0.4447
 9120TIP3    H127301   6.779   4.521   0.526 -0.1566 -1.4081 -0.7282
 9120TIP3    H227302   6.788   4.425   0.643 -0.1165 -3.7658 -2.6265
 9121TIP3   OH227303   0.426   6.142   3.157 -0.3165 -0.1195 -0.0052
 9121TIP3    H127304   0.433   6.140   3.062  0.8087  2.0508 -0.0149
 9121TIP3    H227305   0.514   6.124   3.188 -0.9427 -2.0752  0.6717
 9122TIP3   OH227306   7.684   7.032   1.099  0.1823 -1.0277 -0.3822
 9122TIP3    H127307   7.733   6.978   1.162  0.8858 -0.0687 -0.0953
 9122TIP3    H227308   7.608   7.063   1.149  1.1270  0.3390  0.2396
 9123TIP3   OH227309   8.423   6.713   2.571 -0.0828 -0.5156  0.6493
 9123TIP3    H127310   8.473   6.744   2.496  0.1084  1.1917  1.4452
 9123TIP3    H227311   8.486   6.665   2.624  0.0902 -0.6109  0.3588
 9124TIP3   OH227312   7.712   4.254   3.453  0.2088 -0.7897  0.6335
 9124TIP3    H127313   7.768   4.221   3.523  1.8909 -0.5020 -0.5469
 9124TIP3    H227314   7.764   4.243   3.373 -0.9528  0.5763 -0.3429
 9125TIP3   OH227315   1.782   4.927   5.148  0.1546 -0.0939 -0.2173
 9125TIP3    H127316   1.826   4.930   5.063  0.3015 -0.1031 -0.1406
 9125TIP3    H227317   1.813   5.005   5.194 -0.6357  0.4197 -0.5254
 9126TIP3   OH227318   0.802   5.623   2.161  0.3532 -0.4496  0.0146
 9126TIP3    H127319   0.727   5.584   2.117 -1.0107  1.3631  0.6487
 9126TIP3    H227320   0.848   5.672   2.093 -0.1901  0.0984  0.0458
 9127TIP3   OH227321   5.663   5.954   1.830  0.8526  0.2661  0.1944
 9127TIP3    H127322   5.693   5.866   1.805  3.1141  1.3872 -1.1159
 9127TIP3    H227323   5.721   5.980   1.901 -1.3147 -0.2012  2.2044
 9128TIP3   OH227324   5.803   5.600   2.532 -0.4236 -0.5856 -0.7521
 9128TIP3    H127325   5.867   5.671   2.539 -1.7118  0.4961  0.2409
 9128TIP3    H227326   5.852   5.527   2.493  1.7706 -0.2448  1.3035
 9129TIP3   OH227327   5.389   6.690   3.318 -0.8301  0.5346 -0.1036
 9129TIP3    H127328   5.314   6.736   3.280  0.5221  2.2626 -0.7392
 9129TIP3    H227329   5.369   6.685   3.411 -1.7450  0.9578 -0.2622
 9130TIP3   OH227330   0.211   6.091   2.129 -0.0750 -0.4681  0.3667
 9130TIP3    H127331   0.162   6.117   2.051  0.7969 -0.8724 -0.3302
 9130TIP3    H227332   0.302   6.111   2.107  0.0552  0.5686  1.7586
 9131TIP3   OH227333   6.372   5.216   4.653  0.0198 -0.0718 -0.0003
 9131TIP3    H127334   6.349   5.200   4.744 -2.2879  2.0482 -0.1457
 9131TIP3    H227335   6.419   5.299   4.654  1.8283 -1.0660 -0.5273
 9132TIP3   OH227336   3.924   5.861   1.963 -0.2685  0.3246 -0.7190
 9132TIP3    H127337   3.993   5.818   1.913 -0.8516 -1.5477  0.0417
 9132TIP3    H227338   3.878   5.914   1.899 -0.4080 -1.3080 -2.0116
 9133TIP3   OH227339   0.768   0.203   3.394  0.1967  0.1360  0.1106
 9133TIP3    H127340   0.760   0.176   3.486  2.4795 -0.9349  0.0465
 9133TIP3    H227341   0.749   0.123   3.345  1.0568  0.1652 -0.2742
 9134TIP3   OH227342   0.047   6.903   3.830 -0.0219 -0.6148  0.1459
 9134TIP3    H127343   0.107   6.840   3.869  0.2767 -0.6681 -0.3972
 9134TIP3    H227344   0.086   6.925   3.745 -1.2287 -1.3511 -0.6258
 9135TIP3   OH227345   0.856   7.242   4.413  0.1420  0.3905  0.3076
 9135TIP3    H127346   0.943   7.224   4.447 -0.0174  0.6160  0.8337
 9135TIP3    H227347   0.807   7.275   4.488  0.0981  1.9082 -0.3702
 9136TIP3   OH227348   7.567   5.380   4.671  0.0232 -0.1041  0.1145
 9136TIP3    H127349   7.655   5.369   4.636 -0.1261  1.9218 -0.9636
 9136TIP3    H227350   7.511   5.332   4.610  0.2013 -0.0033 -0.1307
 9137TIP3   OH227351   4.940   0.016   4.658  0.0686  0.4523 -0.0298
 9137TIP3    H127352   4.991   0.083   4.611  0.3498  0.6027  0.4886
 9137TIP3    H227353   4.975  -0.067   4.626  0.5290  0.5552  0.1979
 9138TIP3   OH227354   7.774   6.470   4.712  0.2644  0.5909 -0.1932
 9138TIP3    H127355   7.727   6.532   4.767 -2.4399 -1.0008 -0.6126
 9138TIP3    H227356   7.818   6.411   4.773 -0.8367  0.2228  0.2503
 9139TIP3   OH227357   0.377   7.616   3.892  0.4703  0.5172  0.1234
 9139TIP3    H127358   0.316   7.549   3.862  0.1097  1.4651 -1.2751
 9139TIP3    H227359   0.464   7.577   3.879  0.2350 -0.0217  0.1674
 9140TIP3   OH227360   7.165   6.484   3.168  0.4847  0.1744  0.6498
 9140TIP3    H127361   7.234   6.418   3.170 -0.0849 -0.5622 -1.7582
 9140TIP3    H227362   7.096   6.445   3.115  0.4321  2.9434 -1.4683
 9141TIP3   OH227363   1.326   7.123   2.168 -0.7150  0.4765  0.0120
 9141TIP3    H127364   1.397   7.187   2.179 -0.9931  0.7583  0.1731
 9141TIP3    H227365   1.266   7.164   2.107 -0.4337 -0.0279 -0.6167
 9142TIP3   OH227366   1.330   6.898   6.266  0.1256 -0.1483 -0.3098
 9142TIP3    H127367   1.303   6.921   6.177  1.6640 -1.9371 -1.2617
 9142TIP3    H227368   1.284   6.817   6.286 -1.3662  1.0150  1.1223
 9143TIP3   OH227369   7.754   7.058   3.709  0.4027  0.4374 -0.1846
 9143TIP3    H127370   7.686   7.090   3.651  0.7781  1.1220 -0.2463
 9143TIP3    H227371   7.725   6.970   3.734 -0.2453  0.5311 -0.6134
 9144TIP3   OH227372   2.228   4.747   2.991  0.3797  0.5181  0.2640
 9144TIP3    H127373   2.219   4.841   3.000 -2.7746  0.5429 -2.2760
 9144TIP3    H227374   2.249   4.732   2.899 -0.2505 -1.2876  0.3754
 9145TIP3   OH227375   1.502   8.048   3.191  0.2951 -0.2965  0.9600
 9145TIP3    H127376   1.594   8.069   3.174 -0.1662  0.4837 -0.7488
 9145TIP3    H227377   1.470   8.119   3.247  1.0079 -1.1647  2.4867
 9146TIP3   OH227378   1.001   7.429   3.130 -0.3808 -0.1269 -0.1053
 9146TIP3    H127379   1.065   7.453   3.197  1.5926 -0.3763 -1.8553
 9146TIP3    H227380   0.970   7.342   3.156  2.2130 -1.3078 -0.7988
 9147TIP3   OH227381   7.758   5.765   6.724 -0.1686  0.0677  0.4744
 9147TIP3    H127382   7.667   5.789   6.741 -0.1116 -0.9428  2.2746
 9147TIP3    H227383   7.754   5.675   6.692 -0.0158  0.9585 -2.1567
 9148TIP3   OH227384   1.980   7.643   1.652  0.1346 -0.1825  0.4980
 9148TIP3    H127385   1.929   7.720   1.677 -0.9749 -0.4160 -0.9630
 9148TIP3    H227386   1.982   7.588   1.730 -0.4514  0.5738  1.0509
 9149TIP3   OH227387   6.667   0.815   6.130 -0.3658 -0.1606  0.2541
 9149TIP3    H127388   6.726   0.848   6.198 -0.8593  1.0919  0.0767
 9149TIP3    H227389   6.660   0.887   6.067 -0.7663 -0.9199 -0.5783
 9150TIP3   OH227390   0.499   5.925   4.613  0.6356 -0.0652  0.3106
 9150TIP3    H127391   0.450   5.903   4.692 -0.0560  0.3573 -0.0017
 9150TIP3    H227392   0.435   5.921   4.542  1.0609  0.3979 -0.1058
 9151TIP3   OH227393   2.362   6.311   4.192 -0.3305  0.4507 -0.4500
 9151TIP3    H127394   2.407   6.395   4.203 -0.9078  0.5597  1.1759
 9151TIP3    H227395   2.292   6.331   4.129  0.0296  1.0053 -0.6821
 9152TIP3   OH227396   0.908   5.033   3.457  0.1166 -0.3436 -0.0094
 9152TIP3    H127397   0.913   5.067   3.547  2.3185 -3.6232  1.1986
 9152TIP3    H227398   0.999   5.032   3.427 -0.5220 -0.0175 -2.0450
 9153TIP3   OH227399   7.089   6.214   6.021  0.4703  0.1529  0.9915
 9153TIP3    H127400   7.133   6.256   5.947  0.5421 -0.9037  0.4219
 9153TIP3    H227401   7.097   6.277   6.092  0.5983  1.0946  0.1657
 9154TIP3   OH227402   8.601   5.533   3.333 -0.4399  0.3092  0.2345
 9154TIP3    H127403   8.523   5.523   3.388 -0.8334  0.9274 -0.1949
 9154TIP3    H227404   8.599   5.626   3.307  0.2220  0.2275 -0.0966
 9155TIP3   OH227405   1.467   7.438   2.036  0.5184  0.1162 -0.9478
 9155TIP3    H127406   1.420   7.470   2.113  1.3498  1.1704 -0.8704
 9155TIP3    H227407   1.554   7.415   2.069 -0.0644 -2.2411 -1.0062
 9156TIP3   OH227408   1.405   6.976   4.442 -0.4616  0.3907 -0.0025
 9156TIP3    H127409   1.312   6.955   4.436 -0.3525 -0.3637  0.8634
 9156TIP3    H227410   1.433   6.937   4.524  0.2887  1.9001  0.4659
 9157TIP3   OH227411   1.692   6.891   4.740 -0.0234  0.2877 -0.2518
 9157TIP3    H127412   1.718   6.936   4.821  0.5020  1.2103 -0.9147
 9157TIP3    H227413   1.698   6.959   4.673 -0.0865 -0.5674 -1.1282
 9158TIP3   OH227414   7.273   6.967   6.262  0.0304 -0.4980 -0.2445
 9158TIP3    H127415   7.181   6.947   6.276  0.3145 -1.0813  0.9153
 9158TIP3    H227416   7.309   6.888   6.220  0.3439 -0.9437  0.8364
 9159TIP3   OH227417   0.597   7.196   2.268  0.2875  0.3480 -0.4765
 9159TIP3    H127418   0.590   7.209   2.173  0.2877  1.5962 -0.3138
 9159TIP3    H227419   0.602   7.284   2.304 -2.0849 -0.0239  0.8761
 9160TIP3   OH227420   0.945   7.178   3.224  0.2084  0.1024  0.0438
 9160TIP3    H127421   0.891   7.147   3.152 -0.1738  0.2281  0.2750
 9160TIP3    H227422   0.899   7.149   3.303 -0.1765  1.2968  0.2659
 9161TIP3   OH227423   1.522   6.273   3.478  0.4155  0.0454 -0.2088
 9161TIP3    H127424   1.455   6.205   3.472  1.5683 -1.0025 -1.5147
 9161TIP3    H227425   1.474   6.353   3.496 -1.1295 -0.8174 -0.4642
 9162TIP3   OH227426   2.435   6.106   3.105 -0.1521 -0.0831 -0.8200
 9162TIP3    H127427   2.474   6.029   3.145  0.9936 -0.1508 -2.0194
 9162TIP3    H227428   2.341   6.093   3.113  0.0541 -0.8553  0.3722
 9163TIP3   OH227429   2.533   6.940   5.073  0.3764 -0.3561 -0.3878
 9163TIP3    H127430   2.596   6.874   5.045  0.1153 -0.7257 -0.1027
 9163TIP3    H227431   2.565   6.970   5.158  0.1373 -0.5887 -0.2136
 9164TIP3   OH227432   1.093   5.581   3.616 -0.2150 -0.8515 -0.9269
 9164TIP3    H127433   1.166   5.574   3.555  0.6705  1.9089 -0.2587
 9164TIP3    H227434   1.046   5.660   3.587 -0.9053 -0.6245  0.7595
 9165TIP3   OH227435   1.395   6.593   5.075 -0.1864 -0.0247 -0.0924
 9165TIP3    H127436   1.350   6.677   5.080 -3.6301 -1.6778 -1.4746
 9165TIP3    H227437   1.475   6.611   5.025 -0.3217  2.6154  0.6076
 9166TIP3   OH227438   0.436   7.910   3.468 -0.0859  0.1384  0.2220
 9166TIP3    H127439   0.512   7.897   3.524  1.9705  4.2761 -1.4191
 9166TIP3    H227440   0.442   7.839   3.403  0.5383 -1.4280  1.9603
 9167TIP3   OH227441   1.786   7.418   5.142 -0.7598  0.0182  0.5479
 9167TIP3    H127442   1.831   7.449   5.063 -0.0872  2.0826  1.6963
 9167TIP3    H227443   1.840   7.345   5.173  0.1188  0.5220  0.2206
 9168TIP3   OH227444   7.795   6.861   2.490  0.0028 -0.5216 -0.0164
 9168TIP3    H127445   7.823   6.904   2.571 -0.3089 -0.6478  0.1589
 9168TIP3    H227446   7.722   6.913   2.459 -0.0240 -0.6048 -0.0946
 9169TIP3   OH227447   7.886   5.828   2.446 -0.3578 -0.0920 -0.4663
 9169TIP3    H127448   7.910   5.825   2.353 -0.8247 -0.6997 -0.5719
 9169TIP3    H227449   7.966   5.857   2.490 -0.3823  1.0361 -1.1390
 9170TIP3   OH227450   7.354   0.232   5.224  0.4021 -0.6159  0.9255
 9170TIP3    H127451   7.275   0.194   5.262 -0.7977 -0.6746 -1.5095
 9170TIP3    H227452   7.392   0.161   5.173  2.4575 -0.7994  2.6752
 9171TIP3   OH227453   2.254   4.668   4.015 -0.1565 -0.2269 -0.0052
 9171TIP3    H127454   2.215   4.718   4.087  0.0905  0.4585 -0.3407
 9171TIP3    H227455   2.189   4.600   3.996 -1.7142  1.5277 -1.2405
 9172TIP3   OH227456   8.091   3.854   5.300 -0.6893 -0.0838 -0.1434
 9172TIP3    H127457   8.166   3.797   5.317 -0.0842  0.5430 -0.6409
 9172TIP3    H227458   8.029   3.800   5.253 -0.9818 -0.9010  1.1562
 9173TIP3   OH227459   0.067   7.208   3.004 -0.2915  0.3339  0.1867
 9173TIP3    H127460  -0.011   7.153   3.002 -0.4274  0.5243  0.1512
 9173TIP3    H227461   0.033   7.297   2.994 -0.1229  0.4708  0.8230
 9174TIP3   OH227462   0.824   6.592   5.315 -0.0021 -0.0242  0.3368
 9174TIP3    H127463   0.832   6.680   5.279 -0.0503  0.5661  1.7440
 9174TIP3    H227464   0.859   6.535   5.247 -1.7755  0.8943 -1.4104
 9175TIP3   OH227465   1.858   6.632   0.769  0.1162 -0.2375 -0.2507
 9175TIP3    H127466   1.874   6.538   0.761 -1.8876 -0.7394  1.2395
 9175TIP3    H227467   1.913   6.661   0.841  0.9007 -0.2181 -0.8549
 9176TIP3   OH227468   4.664   2.168   1.961 -0.1390 -0.0776 -0.1172
 9176TIP3    H127469   4.636   2.199   2.047 -0.6425  0.0120 -0.3089
 9176TIP3    H227470   4.630   2.235   1.900  0.8313  0.2345 -0.3161
 9177TIP3   OH227471   2.571   7.719   3.609 -0.6910  0.4222  0.1631
 9177TIP3    H127472   2.528   7.759   3.684 -1.5536  2.1284 -1.1918
 9177TIP3    H227473   2.606   7.637   3.642 -2.5772  0.3158  1.9944
 9178TIP3   OH227474   5.056   0.636   3.723 -0.2403 -0.0608  0.2089
 9178TIP3    H127475   5.044   0.701   3.654 -1.4985 -0.9289 -0.4079
 9178TIP3    H227476   5.047   0.552   3.679 -1.1143 -0.6290  1.4236
 9179TIP3   OH227477   4.769   1.993   3.515  0.0331 -0.1303 -0.2901
 9179TIP3    H127478   4.779   1.901   3.494  1.2933 -0.5804  2.0687
 9179TIP3    H227479   4.858   2.024   3.532 -0.3180  1.6571 -1.5617
 9180TIP3   OH227480   1.296   7.247   2.749  0.4257 -0.6320  0.3563
 9180TIP3    H127481   1.341   7.190   2.810  0.9751 -0.3259  0.2476
 9180TIP3    H227482   1.330   7.335   2.768  2.2874 -0.8179 -1.8516
 9181TIP3   OH227483   2.558   7.230   3.719 -0.3286 -0.0742 -0.0836
 9181TIP3    H127484   2.550   7.159   3.655 -0.4803 -0.0190 -0.1260
 9181TIP3    H227485   2.643   7.216   3.759  0.3371  0.6484 -1.2202
 9182TIP3   OH227486   5.966   0.156   6.138 -0.4771  0.3558 -0.4765
 9182TIP3    H127487   5.889   0.200   6.102 -0.5056  0.1766 -0.6334
 9182TIP3    H227488   6.039   0.189   6.085 -0.2715  1.5510  0.5440
 9183TIP3   OH227489   2.820   6.144   3.044 -0.1765  0.0127 -0.2402
 9183TIP3    H127490   2.752   6.151   2.976  0.1162  0.6462 -0.4794
 9183TIP3    H227491   2.844   6.052   3.045 -0.4056 -0.0571 -0.7890
 9184TIP3   OH227492   2.876   6.906   2.434  0.3464 -0.4800 -0.6291
 9184TIP3    H127493   2.842   6.843   2.498  0.1348  1.4695  1.2293
 9184TIP3    H227494   2.798   6.948   2.399  0.6257  2.0131  1.5863
 9185TIP3   OH227495   4.414   7.247   1.800 -0.2278  0.4325  0.0509
 9185TIP3    H127496   4.506   7.271   1.788 -0.0295  0.8073  2.0956
 9185TIP3    H227497   4.417   7.173   1.861 -1.2729  0.3331 -0.0119
 9186TIP3   OH227498   0.032   6.715   1.581  0.5846 -0.5602 -0.0320
 9186TIP3    H127499   0.119   6.726   1.542 -0.3335  0.3109 -1.8894
 9186TIP3    H227500  -0.024   6.690   1.508 -0.7549 -1.0222  1.1340
 9187TIP3   OH227501   0.171   5.593   4.160  0.5024  0.4592  0.2023
 9187TIP3    H127502   0.172   5.525   4.093 -0.5367  0.4840  0.1675
 9187TIP3    H227503   0.102   5.653   4.133 -1.3529 -0.6144  2.3863
 9188TIP3   OH227504   6.058   0.858   3.445 -0.1209  0.3918 -0.1990
 9188TIP3    H127505   6.071   0.860   3.540  1.4733 -0.7462 -0.3778
 9188TIP3    H227506   6.018   0.773   3.427  1.0203 -0.0638 -0.6902
 9189TIP3   OH227507   2.920   7.873   2.855 -0.1121  0.7451  0.7601
 9189TIP3    H127508   2.868   7.843   2.929 -1.2246  1.3550  0.2362
 9189TIP3    H227509   2.986   7.931   2.894 -1.6573  2.3129  1.1344
 9190TIP3   OH227510   2.226   6.731   2.019 -0.0874  0.4035  0.2719
 9190TIP3    H127511   2.268   6.686   2.092  1.2203  1.3148  0.0952
 9190TIP3    H227512   2.221   6.665   1.950  0.8510  0.2254  0.3700
 9191TIP3   OH227513   1.081   6.636   2.261 -0.5091  0.0151  0.6432
 9191TIP3    H127514   1.154   6.678   2.307 -1.1203  0.0368  1.5908
 9191TIP3    H227515   1.122   6.564   2.213  0.6134  1.8949 -1.3139
 9192TIP3   OH227516   4.651   0.567   4.248 -0.5682  0.4371 -0.1267
 9192TIP3    H127517   4.558   0.545   4.236 -0.8502  1.6731 -0.3047
 9192TIP3    H227518   4.651   0.635   4.315  0.1697  0.7571 -0.4413
 9193TIP3   OH227519   4.848   1.311   2.797  1.3011  0.7167 -0.2943
 9193TIP3    H127520   4.893   1.330   2.715  2.4604  0.9903  0.3976
 9193TIP3    H227521   4.763   1.277   2.770  1.1925  1.9664 -1.6016
 9194TIP3   OH227522   2.374   6.125   2.643  0.0250 -0.8581 -0.3874
 9194TIP3    H127523   2.389   6.040   2.685  0.7290 -1.0193 -0.9613
 9194TIP3    H227524   2.461   6.154   2.615 -0.3269 -0.3462 -0.9600
 9195TIP3   OH227525   4.996   0.769   3.279  0.3635  0.0728  0.2061
 9195TIP3    H127526   4.910   0.729   3.273  0.5153 -0.1903 -0.2747
 9195TIP3    H227527   5.050   0.719   3.218  0.7545  0.4972  0.1993
 9196TIP3   OH227528   1.639   7.387   3.041  0.4209 -0.1416  0.2024
 9196TIP3    H127529   1.697   7.377   2.965 -0.0043 -0.0930 -0.1289
 9196TIP3    H227530   1.585   7.463   3.020 -0.4999 -0.8322  0.0220
 9197TIP3   OH227531   1.287   7.875   3.109  0.0127 -0.6745  0.5116
 9197TIP3    H127532   1.274   7.899   3.018  0.5148 -0.5162  0.4818
 9197TIP3    H227533   1.358   7.931   3.139 -0.6832 -0.1659  1.2220
 9198TIP3   OH227534   2.711   5.303   4.841  0.3664 -0.3353  0.1162
 9198TIP3    H127535   2.775   5.242   4.803  0.6030  1.0088 -1.7219
 9198TIP3    H227536   2.764   5.375   4.875 -0.0796  0.3794 -0.6614
 9199TIP3   OH227537   5.470   0.727   4.007 -0.1323 -0.9020  0.4840
 9199TIP3    H127538   5.399   0.694   3.952  0.9482  0.8170 -2.0331
 9199TIP3    H227539   5.522   0.650   4.029  0.1797 -1.4667 -2.0923
 9200TIP3   OH227540   4.920   0.541   2.802 -0.0632  0.4813 -0.3661
 9200TIP3    H127541   4.906   0.449   2.824  0.6732  0.3211 -0.5712
 9200TIP3    H227542   4.931   0.541   2.707  0.0385  0.7710 -0.3536
 9201TIP3   OH227543   1.889   7.798   4.404 -0.9274  0.0552  0.0615
 9201TIP3    H127544   1.911   7.737   4.334 -1.4985  0.3560 -0.3825
 9201TIP3    H227545   1.807   7.765   4.440 -3.6767  3.0689 -3.1617
 9202TIP3   OH227546   2.813   5.489   2.554 -0.4708 -0.6933  0.3743
 9202TIP3    H127547   2.745   5.469   2.618  0.9119 -1.0468  1.7449
 9202TIP3    H227548   2.792   5.434   2.479 -1.5963 -0.9176  0.8428
 9203TIP3   OH227549   0.569   7.193   1.999 -0.7944 -0.2593 -0.1231
 9203TIP3    H127550   0.499   7.213   1.936 -1.7878 -2.4774  0.2036
 9203TIP3    H227551   0.618   7.122   1.957 -0.5491 -0.7276  0.9483
 9204TIP3   OH227552   2.260   7.081   2.391  0.1125 -0.4667 -0.2055
 9204TIP3    H127553   2.287   7.172   2.402 -0.0386 -0.3871 -0.4782
 9204TIP3    H227554   2.342   7.032   2.385  0.2021 -0.4384  0.6208
 9205TIP3   OH227555   6.659   0.853   2.694  0.2324  0.0358 -0.2177
 9205TIP3    H127556   6.633   0.764   2.672 -0.8598  0.5286 -1.0234
 9205TIP3    H227557   6.650   0.901   2.612 -0.7056  1.2168  0.5514
 9206TIP3   OH227558   5.016   1.415   2.560 -0.1269 -0.3495 -0.1417
 9206TIP3    H127559   5.088   1.380   2.612 -1.4255 -1.8250  0.7229
 9206TIP3    H227560   4.978   1.338   2.518 -1.8946  0.2565  0.3188
 9207TIP3   OH227561   7.941   7.279   2.752 -0.0660 -0.1497 -0.0344
 9207TIP3    H127562   7.948   7.343   2.681 -1.1622 -1.0236 -0.9614
 9207TIP3    H227563   8.027   7.239   2.758  0.1727  0.2874 -0.5322
 9208TIP3   OH227564   5.259   3.068   2.720  0.5916  0.9264  0.2684
 9208TIP3    H127565   5.354   3.065   2.728  0.5457  1.1361  0.9035
 9208TIP3    H227566   5.234   2.981   2.687  1.0258  0.9762 -0.1990
 9209TIP3   OH227567   0.572   5.751   2.985 -0.1933  0.3502 -0.0628
 9209TIP3    H127568   0.523   5.677   2.949 -0.0565  0.8582 -1.3336
 9209TIP3    H227569   0.640   5.712   3.038  1.4152 -0.5487 -2.6780
 9210TIP3   OH227570   4.643   1.449   4.201 -0.6541 -0.0215  0.1910
 9210TIP3    H127571   4.584   1.492   4.139  1.4403  0.7584 -1.3309
 9210TIP3    H227572   4.699   1.519   4.234 -0.4895 -0.7630  1.5283
 9211TIP3   OH227573   1.473   7.128   4.104 -0.5642  0.2036  0.3963
 9211TIP3    H127574   1.399   7.079   4.138 -0.7253  0.7986  0.9205
 9211TIP3    H227575   1.535   7.061   4.074 -0.0258 -0.3609  2.6782
 9212TIP3   OH227576   4.113   0.116   2.449 -0.9684 -0.4010 -0.0381
 9212TIP3    H127577   4.047   0.048   2.449 -0.9400 -0.4291  0.0155
 9212TIP3    H227578   4.167   0.098   2.372 -0.6066 -0.7867  0.2967
 9213TIP3   OH227579   3.305   1.045   5.853 -0.4586 -0.1201 -0.0615
 9213TIP3    H127580   3.269   1.029   5.940 -0.9978  0.6336 -0.1460
 9213TIP3    H227581   3.239   1.098   5.808 -0.3009 -0.7070 -1.0178
 9214TIP3   OH227582   1.521   5.665   1.649  0.5705 -0.3313  0.0154
 9214TIP3    H127583   1.593   5.663   1.712 -0.5393  0.7760  1.3680
 9214TIP3    H227584   1.551   5.612   1.576  2.1302 -1.1785  1.2431
 9215TIP3   OH227585   3.579   0.442   4.401 -0.3404  0.1424  0.2290
 9215TIP3    H127586   3.643   0.450   4.472 -1.5889 -0.8926  1.4912
 9215TIP3    H227587   3.618   0.378   4.342  0.1811  0.1605  0.5436
 9216TIP3   OH227588   1.864   6.823   4.988  0.0886  0.4470 -0.1802
 9216TIP3    H127589   1.820   6.908   4.984 -0.6150  0.0592 -0.5590
 9216TIP3    H227590   1.877   6.807   5.082 -2.0200 -0.1920  0.0216
 9217TIP3   OH227591   3.375   0.425   3.118 -0.0966 -0.0560 -0.2726
 9217TIP3    H127592   3.467   0.429   3.146 -0.1188 -1.8836  0.1298
 9217TIP3    H227593   3.370   0.346   3.064 -1.1180  0.8253 -1.4830
 9218TIP3   OH227594   4.809   0.753   2.925  0.1059  0.1710  0.3027
 9218TIP3    H127595   4.827   0.709   3.009 -0.1066  1.0364  0.8054
 9218TIP3    H227596   4.829   0.687   2.859 -0.5110 -0.7866  1.0625
 9219TIP3   OH227597   3.031   7.945   4.883  0.5527  0.2234 -0.1507
 9219TIP3    H127598   2.951   7.992   4.907 -0.4678 -1.5781  0.0683
 9219TIP3    H227599   3.008   7.852   4.892  1.9563 -0.3815 -2.3309
 9220TIP3   OH227600   5.215   0.919   4.000 -0.1420 -0.7409 -0.6745
 9220TIP3    H127601   5.125   0.888   3.989 -0.6100  0.5409 -0.6006
 9220TIP3    H227602   5.251   0.920   3.911 -0.3258 -0.9129 -0.7501
 9221TIP3   OH227603   3.248   7.346   2.774 -0.6294  0.4845  0.0326
 9221TIP3    H127604   3.246   7.442   2.774 -0.8236  0.4799  0.4176
 9221TIP3    H227605   3.331   7.323   2.815 -0.3478  0.4898 -0.5237
 9222TIP3   OH227606   0.453   7.691   3.623  0.3569  0.4585  0.0367
 9222TIP3    H127607   0.400   7.738   3.559  0.6175  0.6353 -0.0515
 9222TIP3    H227608   0.448   7.744   3.703  1.2148  1.0082 -0.2661
 9223TIP3   OH227609   4.181   1.018   6.453  0.2016 -0.3235  0.7500
 9223TIP3    H127610   4.119   0.961   6.407  1.8642 -1.1951 -0.4479
 9223TIP3    H227611   4.267   0.986   6.426  1.1695  1.2040  1.9963
 9224TIP3   OH227612   5.784   0.354   4.897 -0.6407 -0.3921 -0.1937
 9224TIP3    H127613   5.731   0.338   4.976  0.0879  0.8227  0.5660
 9224TIP3    H227614   5.866   0.309   4.913 -0.1762  0.5439  0.1227
 9225TIP3   OH227615   1.198   7.941   2.861 -0.5928 -0.0769 -0.2807
 9225TIP3    H127616   1.281   7.897   2.840 -0.5682 -0.3120  0.3042
 9225TIP3    H227617   1.206   8.027   2.820  1.1124  0.9626  2.0972
 9226TIP3   OH227618   2.813   8.080   4.170  0.1375 -0.2685  0.6729
 9226TIP3    H127619   2.777   7.998   4.202  0.5975  0.1534  2.3227
 9226TIP3    H227620   2.788   8.145   4.236 -0.8890  1.0809 -0.9811
 9227TIP3   OH227621   1.664   7.119   2.464 -0.0033  0.1347 -0.7006
 9227TIP3    H127622   1.587   7.074   2.500  0.8286 -1.9307 -1.3926
 9227TIP3    H227623   1.681   7.190   2.525 -2.0099  0.1454 -0.1207
 9228TIP3   OH227624   2.116   7.892   4.484  0.5446  0.4094  0.0683
 9228TIP3    H127625   2.042   7.832   4.475  0.4748  0.1432  2.1300
 9228TIP3    H227626   2.184   7.839   4.526  1.6683  0.8446 -1.1952
 9229TIP3   OH227627   1.636   8.091   4.601 -0.0521  0.0283  0.3576
 9229TIP3    H127628   1.655   8.078   4.694 -0.5255  1.3349  0.6393
 9229TIP3    H227629   1.722   8.088   4.558  0.0305 -2.2952  0.5964
 9230TIP3   OH227630   4.611   0.451   2.829 -0.1918 -0.4313 -0.0867
 9230TIP3    H127631   4.639   0.414   2.745  0.0383 -0.8891  0.1853
 9230TIP3    H227632   4.684   0.432   2.888  0.2711  1.1762 -0.1339
 9231TIP3   OH227633   1.370   7.462   4.733 -0.0171 -0.0720 -0.4486
 9231TIP3    H127634   1.297   7.475   4.793  0.0741 -0.3039 -0.2834
 9231TIP3    H227635   1.390   7.368   4.739 -0.2465 -0.1665 -1.1175
 9232TIP3   OH227636   1.170   7.761   2.476 -0.1511  0.1449  0.1488
 9232TIP3    H127637   1.096   7.713   2.438  0.0507  0.2300 -0.3450
 9232TIP3    H227638   1.176   7.727   2.566  1.1413 -2.0814 -0.7367
 9233TIP3   OH227639   2.410   5.885   2.812  0.1707  0.4671  1.0248
 9233TIP3    H127640   2.322   5.867   2.845  0.3084  0.1134  1.1965
 9233TIP3    H227641   2.447   5.799   2.792 -0.8682  0.7713 -2.5925
 9234TIP3   OH227642   3.127   8.105   4.271  0.1680 -0.1614  0.1467
 9234TIP3    H127643   3.077   8.177   4.232  0.8826 -0.1796 -0.8220
 9234TIP3    H227644   3.073   8.028   4.257  0.9971 -0.3943 -2.0374
 9235TIP3   OH227645   0.815   5.646   6.271 -0.1653  0.0446 -0.2514
 9235TIP3    H127646   0.829   5.733   6.310  0.4431 -0.3620  0.4441
 9235TIP3    H227647   0.783   5.592   6.343  0.1301 -0.4947 -0.5252
 9236TIP3   OH227648   0.910   6.576   3.204 -0.5733 -0.0331 -0.1362
 9236TIP3    H127649   0.861   6.495   3.192 -1.7093  0.7726 -1.1042
 9236TIP3    H227650   0.843   6.641   3.230 -0.1814  1.2664 -2.2603
 9237TIP3   OH227651   1.075   5.652   1.234  0.1598  0.0487  0.1390
 9237TIP3    H127652   1.160   5.630   1.196 -0.3990 -1.3580 -0.3623
 9237TIP3    H227653   1.012   5.624   1.167 -0.7265  0.0357  0.9813
 9238TIP3   OH227654   2.468   6.883   2.277 -0.5375  0.0958  0.1655
 9238TIP3    H127655   2.413   6.806   2.263  0.6411 -0.4469 -1.4788
 9238TIP3    H227656   2.537   6.853   2.336  1.8924 -1.0572 -3.1759
 9239TIP3   OH227657   5.278   0.050   3.205  0.0409  1.1265 -0.7460
 9239TIP3    H127658   5.232   0.085   3.281  0.5051  1.0388 -0.4225
 9239TIP3    H227659   5.297   0.126   3.150  1.4704  1.4553  0.1796
 9240TIP3   OH227660   0.620   7.331   3.530 -0.7797  0.0974 -0.2429
 9240TIP3    H127661   0.689   7.315   3.594 -1.4175 -0.1771  0.3886
 9240TIP3    H227662   0.650   7.406   3.480  0.9338 -1.2992 -1.3558
 9241TIP3   OH227663   4.354   0.561   3.879 -0.7180 -0.3711 -0.2677
 9241TIP3    H127664   4.426   0.604   3.926  0.4912 -0.3759 -2.0610
 9241TIP3    H227665   4.277   0.614   3.898  0.4370  1.6418 -1.0707
 9242TIP3   OH227666   1.158   7.265   2.013 -0.0235 -0.0448 -0.0700
 9242TIP3    H127667   1.127   7.351   1.982  1.6912 -0.0241 -1.7850
 9242TIP3    H227668   1.078   7.220   2.041 -0.7824  2.7138  2.4466
 9243TIP3   OH227669   0.561   7.907   3.808 -0.1474  0.6012 -0.0872
 9243TIP3    H127670   0.613   7.986   3.817 -0.2198  0.5420  0.9863
 9243TIP3    H227671   0.587   7.870   3.724  1.4540  0.6433  0.3681
 9244TIP3   OH227672   2.675   7.365   2.004 -0.1319  0.4619 -0.5740
 9244TIP3    H127673   2.676   7.272   1.985 -0.9283  0.5817 -1.2105
 9244TIP3    H227674   2.690   7.370   2.099  1.6712 -0.2206 -0.8172
 9245TIP3   OH227675   1.951   7.453   3.977  0.1851 -0.2867 -0.3367
 9245TIP3    H127676   2.007   7.377   3.982  1.2331  0.3797 -1.7187
 9245TIP3    H227677   1.866   7.419   3.948  0.7940 -0.8613 -1.4741
 9246TIP3   OH227678   4.413   1.098   4.712 -0.0685  0.5209 -0.0553
 9246TIP3    H127679   4.365   1.030   4.759 -2.0430  2.0928  0.2777
 9246TIP3    H227680   4.452   1.153   4.781  1.5586 -0.2630 -0.3203
 9247TIP3   OH227681   4.165   5.393   2.792 -0.3189 -0.0358  0.4747
 9247TIP3    H127682   4.227   5.397   2.865  0.6861  0.3701 -0.3999
 9247TIP3    H227683   4.139   5.484   2.778 -0.4059 -0.0981  0.2301
 9248TIP3   OH227684   1.636   7.898   3.375 -0.8262 -1.0198 -0.0460
 9248TIP3    H127685   1.565   7.834   3.379 -1.3036 -0.6304 -2.0320
 9248TIP3    H227686   1.623   7.943   3.292  0.8462  0.1118  0.2904
 9249TIP3   OH227687   6.386   0.402   2.710  0.0111  0.2061  0.2649
 9249TIP3    H127688   6.403   0.396   2.804  0.8047 -0.0706  0.1043
 9249TIP3    H227689   6.455   0.461   2.677 -0.1594  0.1652 -0.1688
 9250TIP3   OH227690   7.955   5.838   3.256 -0.0858 -0.6757  0.2027
 9250TIP3    H127691   7.950   5.855   3.350 -3.6589 -1.0217  0.1235
 9250TIP3    H227692   8.039   5.875   3.230  1.2784 -1.1580  3.6364
 9251TIP3   OH227693   4.995   1.372   4.793 -0.2169  0.3706  0.1876
 9251TIP3    H127694   4.985   1.428   4.716  2.1294 -0.9017 -1.0975
 9251TIP3    H227695   4.909   1.331   4.803 -1.6016  3.1703  0.3857
 9252TIP3   OH227696   2.208   5.778   2.018 -0.5844 -0.2030  0.2091
 9252TIP3    H127697   2.271   5.849   2.005  1.3332 -2.2327 -2.1631
 9252TIP3    H227698   2.234   5.737   2.100  0.1708 -0.0296  0.0590
 9253TIP3   OH227699   1.094   7.727   3.495  0.5762 -0.0841  0.0537
 9253TIP3    H127700   1.087   7.822   3.492  0.8278  0.0235  2.0175
 9253TIP3    H227701   1.177   7.708   3.451  0.0915  0.5207 -1.1466
 9254TIP3   OH227702   4.610   0.798   6.158 -0.4824 -0.0967  0.7132
 9254TIP3    H127703   4.565   0.837   6.083  0.2398 -1.8735 -0.7106
 9254TIP3    H227704   4.697   0.838   6.157 -0.3169 -0.4542  0.2916
 9255TIP3   OH227705   2.256   7.005   0.844 -0.1309 -0.2568  0.3704
 9255TIP3    H127706   2.183   6.969   0.793  1.1837 -1.3459 -0.7841
 9255TIP3    H227707   2.219   7.082   0.887 -1.6641 -0.1347 -1.0936
 9256TIP3   OH227708   5.424   1.384   5.422 -0.7341 -0.0316 -0.0194
 9256TIP3    H127709   5.463   1.392   5.508 -2.0622  1.7743  0.4599
 9256TIP3    H227710   5.398   1.292   5.415  1.7355 -0.7840  0.4252
 9257TIP3   OH227711   3.139   7.887   3.510 -0.1861 -0.1580 -0.3579
 9257TIP3    H127712   3.207   7.955   3.512  0.1326 -0.4803  0.0907
 9257TIP3    H227713   3.179   7.815   3.462  0.4232 -0.9882  1.3348
 9258TIP3   OH227714   1.549   7.838   4.219  0.4664 -0.0535 -0.5711
 9258TIP3    H127715   1.643   7.830   4.231  0.6868 -0.5785 -2.3998
 9258TIP3    H227716   1.524   7.758   4.173 -0.6115  0.7233 -1.3819
 9259TIP3   OH227717   4.544   0.496   5.525 -0.3390  0.7193 -0.0635
 9259TIP3    H127718   4.531   0.455   5.611  0.4784 -0.5972 -0.5482
 9259TIP3    H227719   4.623   0.548   5.536 -0.9266  1.5276  0.3306
 9260TIP3   OH227720   1.605   6.870   1.707 -0.5553 -0.2886  0.2274
 9260TIP3    H127721   1.664   6.901   1.638 -2.1233 -0.2426 -1.1244
 9260TIP3    H227722   1.640   6.909   1.787  0.9133  0.1969 -0.6310
 9261TIP3   OH227723  -0.031   6.845   2.378 -0.3080  0.1125  0.1102
 9261TIP3    H127724   0.025   6.797   2.317  0.1741  0.7360  0.0462
 9261TIP3    H227725   0.025   6.917   2.409 -0.5556 -0.1903  1.2661
 9262TIP3   OH227726   4.144   0.808   3.980 -0.4302 -0.2146 -0.3907
 9262TIP3    H127727   4.196   0.828   4.058 -0.5551  1.7228 -0.7696
 9262TIP3    H227728   4.053   0.815   4.009 -0.4794 -1.1084 -0.3266
 9263TIP3   OH227729   1.732   7.851   5.146 -0.1719 -0.1594 -0.4938
 9263TIP3    H127730   1.716   7.945   5.156 -2.1096 -0.5135 -0.1073
 9263TIP3    H227731   1.815   7.846   5.099  0.9492  1.7155  1.2196
 9264TIP3   OH227732   5.284   1.395   4.806 -0.0265 -0.2135 -0.0942
 9264TIP3    H127733   5.345   1.444   4.751 -0.4910 -0.3097 -0.6914
 9264TIP3    H227734   5.204   1.448   4.807  0.2482  0.1971  1.1455
 9265TIP3   OH227735   4.305   1.898   3.542 -0.3115  0.2975  0.2756
 9265TIP3    H127736   4.366   1.964   3.508  0.1046  1.2665  2.8537
 9265TIP3    H227737   4.246   1.946   3.599 -3.6721 -0.6044 -2.3040
 9266TIP3   OH227738   2.419   7.818   4.512  0.1377  0.3196  0.3903
 9266TIP3    H127739   2.505   7.784   4.538 -0.4505 -1.4510  0.0566
 9266TIP3    H227740   2.413   7.800   4.419 -1.3469 -1.2714  0.7716
 9267TIP3   OH227741   8.457   8.006   2.535  0.4146 -0.3001  0.5329
 9267TIP3    H127742   8.501   8.024   2.452 -0.3615 -1.5719 -0.1809
 9267TIP3    H227743   8.425   7.916   2.526 -1.6709  0.3280  1.3054
 9268TIP3   OH227744   1.004   6.662   3.919  0.1553  0.3665 -0.6290
 9268TIP3    H127745   1.072   6.594   3.919  0.9969  1.1981 -1.0222
 9268TIP3    H227746   0.929   6.621   3.962  1.9948  0.5168  2.8882
 9269TIP3   OH227747   1.712   6.546   3.599 -0.5361 -0.2401  0.3133
 9269TIP3    H127748   1.643   6.611   3.589 -0.9593 -0.5936  0.9081
 9269TIP3    H227749   1.764   6.578   3.673  0.7140  0.7095 -0.9557
 9270TIP3   OH227750   5.637   0.021   1.224  0.1541  0.3823 -0.1535
 9270TIP3    H127751   5.695  -0.032   1.278 -1.5708 -0.1822  1.1993
 9270TIP3    H227752   5.672   0.014   1.135  2.6146  0.7438  0.7635
 9271TIP3   OH227753   1.055   5.880   2.456 -0.8348  0.2002  0.3951
 9271TIP3    H127754   1.035   5.790   2.433  0.6769 -0.3899  1.3238
 9271TIP3    H227755   1.111   5.912   2.385 -0.1143 -0.0897  0.8262
 9272TIP3   OH227756   3.638   7.400   3.386  0.5336  0.4024  0.1835
 9272TIP3    H127757   3.622   7.307   3.368 -0.9209  0.2127  2.2431
 9272TIP3    H227758   3.592   7.446   3.315 -3.0996 -0.3647  1.9093
 9273TIP3   OH227759   1.414   5.735   6.341  0.2952  0.2711 -0.1478
 9273TIP3    H127760   1.469   5.715   6.266  0.2086  0.2274 -0.2004
 9273TIP3    H227761   1.438   5.825   6.366 -0.2033  0.5594 -0.6912
 9274TIP3   OH227762   0.249   7.553   1.475  0.1269 -0.1940 -0.1817
 9274TIP3    H127763   0.216   7.464   1.484 -0.6568  0.1729  0.6248
 9274TIP3    H227764   0.285   7.556   1.386 -0.8710 -0.9709 -0.6225
 9275TIP3   OH227765   3.806   6.546   2.876  0.0639 -0.0714  0.5251
 9275TIP3    H127766   3.862   6.531   2.800 -0.0483 -0.9962  0.6108
 9275TIP3    H227767   3.868   6.560   2.948  0.2087 -1.1522  0.6319
 9276TIP3   OH227768   5.403   0.630   3.705 -0.0337 -0.4207 -0.2266
 9276TIP3    H127769   5.368   0.716   3.682  1.6000  0.6075  1.0077
 9276TIP3    H227770   5.388   0.623   3.799 -0.3756 -1.5965 -0.3669
 9277TIP3   OH227771   1.023   7.723   2.925 -0.4385 -0.3088 -0.0632
 9277TIP3    H127772   1.063   7.808   2.909  1.4454 -0.8064  1.6843
 9277TIP3    H227773   1.089   7.659   2.897 -0.4812 -1.1610  1.6752
 9278TIP3   OH227774   3.683   6.681   4.855 -0.0380  0.4739  0.3499
 9278TIP3    H127775   3.707   6.595   4.822 -1.4995  1.2927 -3.1374
 9278TIP3    H227776   3.592   6.672   4.882 -0.0476  0.8068  0.4309
 9279TIP3   OH227777   1.611   5.827   4.436  0.2861  0.1308 -0.5605
 9279TIP3    H127778   1.542   5.814   4.371 -0.0390 -1.9867  0.1572
 9279TIP3    H227779   1.672   5.755   4.420  2.7027  2.3330 -1.5936
 9280TIP3   OH227780   4.879   0.265   4.803  0.1444  0.7215 -0.5696
 9280TIP3    H127781   4.903   0.239   4.714 -0.7828  0.3378 -0.7216
 9280TIP3    H227782   4.826   0.344   4.792  0.2817  0.8478 -0.3368
 9281TIP3   OH227783   7.748   7.599   3.790 -0.1113 -0.3816  0.1932
 9281TIP3    H127784   7.798   7.574   3.713  1.9033 -0.4849  1.4984
 9281TIP3    H227785   7.771   7.534   3.856 -2.1744 -0.5658  0.7649
 9282TIP3   OH227786   1.645   6.596   1.808 -0.1731  0.7828 -0.2749
 9282TIP3    H127787   1.609   6.684   1.794 -1.5570 -0.0342 -2.0072
 9282TIP3    H227788   1.658   6.561   1.720  2.9325  0.2405  0.3445
 9283TIP3   OH227789   4.096   0.533   3.649 -0.0652 -0.4683 -0.9267
 9283TIP3    H127790   4.012   0.509   3.611  0.4019 -1.9732 -1.0188
 9283TIP3    H227791   4.107   0.626   3.627 -2.4640  0.2067  0.5372
 9284TIP3   OH227792   1.371   6.559   3.439  0.0978  0.2706 -0.1638
 9284TIP3    H127793   1.300   6.539   3.500 -1.1401 -1.1048 -2.0239
 9284TIP3    H227794   1.356   6.650   3.413 -1.5262 -0.3129 -1.2674
 9285TIP3   OH227795   4.733   0.867   5.269  0.0691  0.3398 -0.5922
 9285TIP3    H127796   4.666   0.838   5.207 -3.6256  1.8133  2.4660
 9285TIP3    H227797   4.762   0.952   5.235  0.4298 -0.3308 -1.9740
 9286TIP3   OH227798   0.114   7.193   3.714  0.2323 -0.1136  0.0781
 9286TIP3    H127799   0.165   7.162   3.789  1.2091 -1.1184 -0.9841
 9286TIP3    H227800   0.123   7.124   3.649 -1.5869  0.2130 -0.5499
 9287TIP3   OH227801   1.362   6.798   3.817  0.3707  0.2465  0.5165
 9287TIP3    H127802   1.298   6.789   3.747  0.5200  0.0283  0.4080
 9287TIP3    H227803   1.310   6.819   3.895  0.2535  1.0407  0.2314
 9288TIP3   OH227804   5.693   1.022   4.397 -0.9567 -0.3711 -0.3653
 9288TIP3    H127805   5.700   1.081   4.472 -0.3164  0.1087 -0.7923
 9288TIP3    H227806   5.642   0.948   4.429  0.1528 -0.6369  0.8381
 9289TIP3   OH227807   2.654   6.625   3.068 -0.1092 -0.7026  0.5067
 9289TIP3    H127808   2.701   6.684   3.009  1.3803  0.2298  2.5442
 9289TIP3    H227809   2.710   6.547   3.071 -0.1250 -0.7023  0.7708
 9290TIP3   OH227810   5.412   0.226   5.839  0.2447  0.8206 -0.1020
 9290TIP3    H127811   5.437   0.151   5.785 -0.0664 -0.6144  1.7163
 9290TIP3    H227812   5.351   0.275   5.784 -2.3252 -2.1700 -0.0401
 9291TIP3   OH227813   2.190   8.080   1.530  0.1357  0.0730 -0.1016
 9291TIP3    H127814   2.250   8.014   1.495  0.0187 -0.2697  0.3358
 9291TIP3    H227815   2.148   8.118   1.453 -0.0685 -0.6244 -0.3424
 9292TIP3   OH227816   3.000   7.496   0.918  0.1091 -0.3618 -0.1819
 9292TIP3    H127817   3.093   7.478   0.905 -0.0053 -1.8058  0.9118
 9292TIP3    H227818   2.991   7.506   1.013 -1.1421 -1.9690 -0.1105
 9293TIP3   OH227819   0.520   6.975   2.436 -0.4453 -0.4075 -0.4890
 9293TIP3    H127820   0.497   7.010   2.522  0.8733  0.2451 -0.3723
 9293TIP3    H227821   0.570   7.046   2.395  0.3034 -1.3005 -1.1563
 9294TIP3   OH227822   4.024   0.144   3.394 -0.5089 -0.9139  0.6857
 9294TIP3    H127823   3.978   0.084   3.336 -1.5800  2.2597 -1.9247
 9294TIP3    H227824   4.110   0.156   3.354 -1.1744  1.1265 -0.2231
 9295TIP3   OH227825   5.406   1.698   0.566  0.0283 -0.4010  0.2748
 9295TIP3    H127826   5.393   1.630   0.500 -2.0765 -0.4411  0.6944
 9295TIP3    H227827   5.333   1.687   0.627  1.8143 -0.2464  2.5343
 9296TIP3   OH227828   4.343   0.348   6.717  0.6683  0.2391 -0.3200
 9296TIP3    H127829   4.372   0.436   6.691  0.1322  0.8525  1.0657
 9296TIP3    H227830   4.350   0.349   6.813  1.6462 -1.5947 -0.3624
 9297TIP3   OH227831   4.459   5.001   0.222 -0.0780 -0.1256  0.2108
 9297TIP3    H127832   4.433   5.063   0.289  0.8668  0.7839 -0.2553
 9297TIP3    H227833   4.401   4.926   0.235 -0.4700  0.3873  1.4890
 9298TIP3   OH227834   0.854   4.000   2.698  0.3925  0.5988  0.4323
 9298TIP3    H127835   0.841   3.905   2.690  1.7689  0.3223  1.3210
 9298TIP3    H227836   0.934   4.017   2.648  0.5191  1.1926  0.8385
 9299TIP3   OH227837   0.041   7.267   3.348  0.4783 -0.4080 -0.2419
 9299TIP3    H127838   0.082   7.266   3.434  2.1061 -0.4994 -0.9928
 9299TIP3    H227839   0.005   7.179   3.337 -1.1646  0.0985  0.9968
 9300TIP3   OH227840   1.790   7.120   3.009  0.3191 -0.5391  0.2684
 9300TIP3    H127841   1.838   7.062   3.068  0.6233  0.3250  0.8773
 9300TIP3    H227842   1.855   7.183   2.979  0.1712 -0.9674 -1.0013
 9301TIP3   OH227843   7.127   0.082   4.309 -0.4952  0.1365  0.0955
 9301TIP3    H127844   7.204   0.071   4.253 -0.8838 -2.6011  0.0445
 9301TIP3    H227845   7.155   0.144   4.376  1.4126 -0.0386 -0.5182
 9302TIP3   OH227846   0.827   6.507   4.081 -0.6404  0.9144 -0.0366
 9302TIP3    H127847   0.766   6.497   4.007  0.7121 -0.2764 -1.0169
 9302TIP3    H227848   0.771   6.536   4.154 -2.5151 -0.8370 -0.7235
 9303TIP3   OH227849   1.239   5.417   6.255  0.0681  0.4355 -0.1890
 9303TIP3    H127850   1.331   5.404   6.280  0.3455  1.4002 -0.6956
 9303TIP3    H227851   1.228   5.512   6.250 -1.3726  0.3751  1.3898
 9304TIP3   OH227852   1.870   5.098   5.972 -0.1333 -0.0555 -0.1004
 9304TIP3    H127853   1.795   5.143   6.012 -1.2489 -1.1362 -0.9190
 9304TIP3    H227854   1.870   5.128   5.881  0.2348 -0.3023 -0.1823
 9305TIP3   OH227855   1.549   1.289   5.399  0.1669 -0.2626  0.0185
 9305TIP3    H127856   1.565   1.274   5.305  1.0002 -0.7519  0.2325
 9305TIP3    H227857   1.577   1.207   5.441 -0.5186 -0.1673  0.6650
 9306TIP3   OH227858   6.870   1.002   6.219  0.7603  0.1856  0.2052
 9306TIP3    H127859   6.832   0.985   6.305 -0.3130  0.5598 -0.1971
 9306TIP3    H227860   6.952   0.952   6.220  0.5437 -0.1746  1.2756
 9307TIP3   OH227861   3.571   6.675   3.023 -0.3474 -0.1103  0.1430
 9307TIP3    H127862   3.512   6.602   3.041 -0.5299 -0.1212 -0.5007
 9307TIP3    H227863   3.632   6.641   2.958  0.8522 -0.3443  1.3664
 9308TIP3   OH227864   5.442   1.127   3.322 -0.2969 -1.0793  0.0199
 9308TIP3    H127865   5.419   1.181   3.246 -0.3690 -2.4743 -0.9549
 9308TIP3    H227866   5.530   1.095   3.303  0.2560 -0.2836  1.1893
 9309TIP3   OH227867   4.886   1.016   3.297 -0.3078 -0.6606  0.4696
 9309TIP3    H127868   4.791   1.026   3.298 -0.1679  1.3241  4.6824
 9309TIP3    H227869   4.900   0.922   3.306 -1.9047 -0.8004  1.8147
 9310TIP3   OH227870   6.392   0.849   2.495 -0.2988 -0.5107  0.4503
 9310TIP3    H127871   6.327   0.820   2.431  0.5735  0.6961 -1.0147
 9310TIP3    H227872   6.343   0.905   2.555 -0.6926  0.0516 -0.3895
 9311TIP3   OH227873   2.141   7.830   3.454  0.0528 -0.2245  0.0754
 9311TIP3    H127874   2.227   7.847   3.491 -0.4453 -0.3179  1.2904
 9311TIP3    H227875   2.157   7.768   3.383  1.1887  1.0549 -0.8034
 9312TIP3   OH227876   1.258   7.623   4.938  0.4839  0.1144 -0.0284
 9312TIP3    H127877   1.218   7.639   5.024 -0.6694  0.0964 -0.5520
 9312TIP3    H227878   1.348   7.654   4.948 -0.6222  3.4436  0.1445
 9313TIP3   OH227879   1.139   7.788   4.015 -0.4434 -0.0558 -0.1731
 9313TIP3    H127880   1.200   7.734   3.966 -1.0049 -1.4670  0.6505
 9313TIP3    H227881   1.091   7.726   4.070  0.5775  1.5059  2.5947
 9314TIP3   OH227882   1.482   7.408   3.524 -0.3740 -0.4176 -0.3859
 9314TIP3    H127883   1.453   7.421   3.433 -1.7121 -2.1104 -0.2429
 9314TIP3    H227884   1.555   7.346   3.517  1.3195  1.5341 -0.4977
 9315TIP3   OH227885   2.421   7.467   5.138  0.3163  0.4712 -0.5237
 9315TIP3    H127886   2.410   7.372   5.137 -1.3058  0.6360  0.0394
 9315TIP3    H227887   2.512   7.480   5.164 -0.2965 -0.8852  2.6006
 9316TIP3   OH227888   2.702   7.382   3.464 -0.1628 -0.0915 -0.4453
 9316TIP3    H127889   2.619   7.337   3.476  0.4387 -1.0590  0.0786
 9316TIP3    H227890   2.692   7.429   3.381 -1.1959 -0.2697 -0.4196
 9317TIP3   OH227891   4.361   0.673   5.337  0.4050 -0.5535 -0.5749
 9317TIP3    H127892   4.317   0.725   5.405 -1.8087 -2.4331 -0.5009
 9317TIP3    H227893   4.411   0.608   5.386  1.6200  0.2788 -0.7011
 9318TIP3   OH227894   1.026   7.989   3.491  0.2161 -0.0425  0.2514
 9318TIP3    H127895   1.094   8.032   3.543 -0.0846  0.6415  0.0844
 9318TIP3    H227896   0.951   8.049   3.495 -0.8349 -1.4157  1.5272
 9319TIP3   OH227897   0.562   4.507   5.026 -0.0560  0.1813 -0.4623
 9319TIP3    H127898   0.480   4.543   4.993  0.3078  2.3247  0.9269
 9319TIP3    H227899   0.630   4.560   4.985  0.6125 -0.8224 -0.6764
 9320TIP3   OH227900   2.596   7.982   1.942 -0.0659  0.2894  0.4396
 9320TIP3    H127901   2.620   7.936   1.862  1.3840  1.8848 -0.0549
 9320TIP3    H227902   2.505   8.010   1.927 -0.1575 -0.3490 -0.2007
 9321TIP3   OH227903   2.702   7.510   3.766  0.0992 -0.0859 -0.1438
 9321TIP3    H127904   2.789   7.472   3.779 -0.6592 -1.9702 -0.3545
 9321TIP3    H227905   2.641   7.437   3.782 -1.4716  1.3272  0.5549
 9322TIP3   OH227906   6.623   7.242   4.907  0.3103  0.0002 -0.2010
 9322TIP3    H127907   6.541   7.222   4.952 -0.2066 -1.4409 -1.7251
 9322TIP3    H227908   6.687   7.251   4.977 -0.5350 -1.9193  0.8687
 9323TIP3   OH227909   1.052   6.709   4.771 -0.3947 -0.0272  0.7460
 9323TIP3    H127910   1.065   6.622   4.735 -2.1652 -0.3136  0.7682
 9323TIP3    H227911   1.000   6.756   4.705 -0.2052  0.7245  1.1168
 9324TIP3   OH227912   4.658   1.024   3.797  0.4951 -0.1783  0.1029
 9324TIP3    H127913   4.646   1.091   3.864 -0.4852 -1.3181  1.0731
 9324TIP3    H227914   4.651   1.072   3.714  0.0638  0.9702  0.7949
 9325TIP3   OH227915   7.630   0.059   4.116  0.1975  0.2443  0.4359
 9325TIP3    H127916   7.686   0.078   4.191  2.3128 -0.0411 -1.0002
 9325TIP3    H227917   7.627   0.141   4.066  0.5010 -0.1225 -0.2039
 9326TIP3   OH227918   1.610   6.223   5.581  0.4700  0.5169 -0.2183
 9326TIP3    H127919   1.554   6.155   5.619  0.3433  1.1411  0.7457
 9326TIP3    H227920   1.673   6.175   5.527 -0.3915 -0.2642 -0.5474
 9327TIP3   OH227921   0.755   5.527   6.515  0.5194  0.1661 -0.0769
 9327TIP3    H127922   0.754   5.442   6.559 -0.8150  0.1172 -0.1759
 9327TIP3    H227923   0.662   5.546   6.498  0.8982  1.0106 -1.2589
 9328TIP3   OH227924   1.196   7.610   3.741 -0.2294  0.4233 -0.3437
 9328TIP3    H127925   1.257   7.681   3.759 -0.4326  0.6694 -0.6335
 9328TIP3    H227926   1.143   7.641   3.668  0.9901 -0.8301 -1.7684
 9329TIP3   OH227927   1.235   6.659   3.041 -0.2396 -0.5288  0.1702
 9329TIP3    H127928   1.145   6.659   3.008 -0.2841  0.1278  0.2894
 9329TIP3    H227929   1.230   6.707   3.124  0.0328 -1.3831  0.6847
 9330TIP3   OH227930   1.589   8.021   2.422  0.0948 -0.4530  0.1675
 9330TIP3    H127931   1.610   8.092   2.482  2.2676 -1.0019  0.1046
 9330TIP3    H227932   1.518   8.055   2.368  0.4643  1.3180  0.7687
 9331TIP3   OH227933   2.192   7.624   3.279  0.2087  0.4660 -0.1644
 9331TIP3    H127934   2.267   7.566   3.284 -0.1449  0.1130  1.4348
 9331TIP3    H227935   2.117   7.570   3.303 -0.5806  0.7999 -1.7901
 9332TIP3   OH227936   2.499   6.325   3.227  0.0134 -0.6705 -0.1963
 9332TIP3    H127937   2.590   6.309   3.255 -0.0607 -0.1269  0.3527
 9332TIP3    H227938   2.482   6.255   3.164  0.8555 -0.7127 -0.3936
 9333TIP3   OH227939   6.055   0.312   3.746 -0.1780  0.4033  0.7333
 9333TIP3    H127940   6.093   0.258   3.677 -0.8006 -0.3448  0.9690
 9333TIP3    H227941   5.975   0.348   3.707  0.0217  0.8274  0.7129
 9334TIP3   OH227942   2.207   7.065   4.154  0.2823  0.3378 -0.3699
 9334TIP3    H127943   2.268   7.119   4.205  1.8628 -0.0614 -1.8129
 9334TIP3    H227944   2.188   7.118   4.076 -0.4970  0.0553 -0.3792
 9335TIP3   OH227945   6.841   0.495   2.536 -0.5268 -0.0312  0.5189
 9335TIP3    H127946   6.883   0.580   2.524 -1.5950  0.4228 -0.0708
 9335TIP3    H227947   6.842   0.482   2.631 -0.7504  0.8567  0.6563
 9336TIP3   OH227948   3.286   6.766   2.132 -0.1473 -0.1146 -0.3556
 9336TIP3    H127949   3.224   6.700   2.101 -0.3377 -0.6816  1.1423
 9336TIP3    H227950   3.244   6.802   2.211  1.0582  0.0416  0.2249
 9337TIP3   OH227951   1.084   5.440   5.551  0.4639 -0.4070  0.5030
 9337TIP3    H127952   1.027   5.513   5.573  1.0978  0.3465 -0.3154
 9337TIP3    H227953   1.025   5.367   5.533 -0.1686 -0.1014  1.3298
 9338TIP3   OH227954   4.340   0.290   4.400  0.0028  0.2663  0.5971
 9338TIP3    H127955   4.262   0.295   4.345 -0.8745  1.5403  1.9044
 9338TIP3    H227956   4.404   0.244   4.347 -1.4903 -0.3926 -0.6793
 9339TIP3   OH227957   1.508   7.264   4.406  0.0242 -0.0100 -0.5983
 9339TIP3    H127958   1.460   7.185   4.383  0.5655  0.1857 -2.4662
 9339TIP3    H227959   1.580   7.269   4.342  0.0122  1.9677 -0.5115
 9340TIP3   OH227960   3.517   0.660   6.515 -0.1108  0.5338  0.0933
 9340TIP3    H127961   3.488   0.572   6.490 -0.6682  0.9035 -0.5838
 9340TIP3    H227962   3.470   0.678   6.596 -0.3617  0.3959 -0.0205
 9341TIP3   OH227963   4.982   1.268   4.429 -0.2973 -0.4059  0.2244
 9341TIP3    H127964   5.001   1.203   4.497  0.0634 -0.7483 -0.1992
 9341TIP3    H227965   4.986   1.352   4.475 -2.9845 -0.8006  1.2497
 9342TIP3   OH227966   4.920   7.332   4.264 -0.8466 -0.2932  0.4375
 9342TIP3    H127967   4.976   7.393   4.214  0.2458  0.0337  1.9920
 9342TIP3    H227968   4.839   7.381   4.279 -1.4965 -0.6817 -1.6398
 9343TIP3   OH227969   3.678   6.033   3.047  0.2352 -0.1559  1.0780
 9343TIP3    H127970   3.728   6.115   3.051  2.1188 -1.2951  1.5131
 9343TIP3    H227971   3.701   5.995   2.962 -1.0269  0.0035  0.6598
 9344TIP3   OH227972   3.296   2.334   4.437  0.6276  0.0091  0.3368
 9344TIP3    H127973   3.341   2.269   4.491 -0.3178  0.1373  1.3000
 9344TIP3    H227974   3.312   2.417   4.482 -0.3313  0.0934  0.5370
 9345TIP3   OH227975   2.886   7.879   1.314  0.1645 -0.0587 -0.2250
 9345TIP3    H127976   2.813   7.819   1.295 -0.4292  0.6066 -0.0671
 9345TIP3    H227977   2.964   7.829   1.291 -0.2571 -1.3153  0.9956
 9346TIP3   OH227978   2.970   6.792   5.575 -0.2743  0.0556 -0.0142
 9346TIP3    H127979   2.920   6.712   5.588  1.3692 -1.0401 -0.3479
 9346TIP3    H227980   2.943   6.823   5.489  1.1993 -1.7103 -1.1399
 9347TIP3   OH227981   3.685   5.047   2.793 -0.1931  0.1902  0.0768
 9347TIP3    H127982   3.702   5.087   2.707  0.8276  2.9966  1.5143
 9347TIP3    H227983   3.755   4.983   2.803  0.7434  1.1037 -0.4597
 9348TIP3   OH227984   6.866   0.447   2.815  0.0968 -0.0162 -0.2508
 9348TIP3    H127985   6.831   0.361   2.836 -1.7551  0.6331 -0.5847
 9348TIP3    H227986   6.961   0.436   2.819 -0.1355 -1.6880  1.1987
 9349TIP3   OH227987   8.162   0.567   4.581 -0.4014 -0.3643  0.3965
 9349TIP3    H127988   8.143   0.527   4.496  0.2136 -1.1571  0.6266
 9349TIP3    H227989   8.243   0.525   4.610 -0.5123  0.0275  1.2964
 9350TIP3   OH227990   2.762   7.945   5.877 -0.7001 -0.0987  0.1674
 9350TIP3    H127991   2.853   7.946   5.908 -0.4414  0.1734 -0.6014
 9350TIP3    H227992   2.710   7.935   5.957 -0.0871  1.7767  0.8205
 9351TIP3   OH227993   2.691   7.095   1.961  0.0228  0.1284  0.2055
 9351TIP3    H127994   2.640   7.015   1.946 -0.1899  0.1568  0.7456
 9351TIP3    H227995   2.776   7.077   1.921 -0.8076  0.5626 -1.8339
 9352TIP3   OH227996   6.769   0.062   4.384 -0.2043 -0.0966  0.1289
 9352TIP3    H127997   6.769  -0.021   4.335  1.9078 -2.1401  3.3802
 9352TIP3    H227998   6.685   0.103   4.361 -2.0045 -3.8439 -0.4208
 9353TIP3   OH227999   3.097   7.700   1.714 -0.2857  0.0808  0.7062
 9353TIP3    H128000   3.143   7.682   1.796  0.7256  1.4897  0.4766
 9353TIP3    H228001   3.007   7.671   1.729  0.2731 -1.1350  1.7621
 9354TIP3   OH228002   3.452   5.580   1.893 -0.0711 -0.1705 -0.0100
 9354TIP3    H128003   3.380   5.635   1.924  1.1582 -0.1128  2.8929
 9354TIP3    H228004   3.515   5.642   1.855 -0.4493  0.0254 -0.3151
 9355TIP3   OH228005   3.758   5.692   3.534 -0.0526 -0.3659  0.6551
 9355TIP3    H128006   3.772   5.728   3.622  0.4982  1.5613 -0.2110
 9355TIP3    H228007   3.746   5.768   3.478  1.1787 -1.5131 -1.2228
 9356TIP3   OH228008   5.633   7.765   4.226  0.1561  0.1181  0.2092
 9356TIP3    H128009   5.590   7.680   4.229  0.1858  0.0886 -0.2583
 9356TIP3    H228010   5.653   7.784   4.318  1.4583 -1.0353  0.1752
 9357TIP3   OH228011   1.496   5.870   5.314 -0.0384  0.1346 -0.0818
 9357TIP3    H128012   1.449   5.903   5.390 -1.5454 -0.0542 -0.9157
 9357TIP3    H228013   1.528   5.948   5.270  1.9849  0.2048  1.4324
 9358TIP3   OH228014   6.669   0.034   2.206  0.2607 -0.4855 -0.1697
 9358TIP3    H128015   6.755  -0.008   2.216  0.3051 -0.6478 -1.1251
 9358TIP3    H228016   6.690   0.122   2.173  0.0243 -0.9403 -1.5952
 9359TIP3   OH228017   4.218   7.832   3.651  0.1103  0.1733 -0.0187
 9359TIP3    H128018   4.158   7.906   3.664 -0.6040 -0.3248 -0.4948
 9359TIP3    H228019   4.221   7.788   3.736 -0.9603 -0.3706 -0.2565
 9360TIP3   OH228020   4.317   6.946   2.637 -0.1762  0.6472 -0.5906
 9360TIP3    H128021   4.299   7.030   2.595 -0.4589  1.2896  0.7734
 9360TIP3    H228022   4.331   6.968   2.729 -1.4522 -0.9282  0.0066
 9361TIP3   OH228023   3.167   6.792   0.980 -0.4162  0.3503 -0.6266
 9361TIP3    H128024   3.156   6.868   0.922  0.2630  0.0765 -1.1253
 9361TIP3    H228025   3.259   6.796   1.007 -0.7530  0.5307  0.5259
 9362TIP3   OH228026   3.885   7.573   2.717  0.2517 -0.3902  0.1248
 9362TIP3    H128027   3.857   7.651   2.668 -0.4543 -0.9669 -0.3978
 9362TIP3    H228028   3.965   7.601   2.762 -1.4331  1.4757  2.0844
 9363TIP3   OH228029   5.314   0.925   2.956 -0.1085  0.1512  0.3584
 9363TIP3    H128030   5.273   0.847   2.919 -1.0518  1.3404 -1.1642
 9363TIP3    H228031   5.247   0.962   3.015 -0.6212  1.1862 -0.8606
 9364TIP3   OH228032   7.518   0.540   3.348  0.8334 -0.1073  0.2257
 9364TIP3    H128033   7.613   0.547   3.357  0.7968  2.4251 -0.9532
 9364TIP3    H228034   7.490   0.625   3.315 -1.8933 -0.7226  0.7740
 9365TIP3   OH228035   4.010   6.782   4.262  0.4688 -0.0856  0.0498
 9365TIP3    H128036   4.054   6.699   4.244  0.1609 -0.6000  1.5550
 9365TIP3    H228037   4.001   6.824   4.177 -0.3910 -2.1157 -0.8949
 9366TIP3   OH228038   4.613   8.060   5.826  0.0445 -0.1131 -0.7465
 9366TIP3    H128039   4.691   8.116   5.830  0.6349 -0.8775 -1.4030
 9366TIP3    H228040   4.586   8.051   5.917  1.2383 -0.5570 -0.4200
 9367TIP3   OH228041   4.238   7.600   2.361 -0.1303  0.0598 -0.5210
 9367TIP3    H128042   4.233   7.524   2.304 -1.1349 -1.2371  1.2512
 9367TIP3    H228043   4.289   7.570   2.437 -0.9903  0.9960  0.4432
 9368TIP3   OH228044   4.928   5.428   2.500  0.7422  0.4038  0.4789
 9368TIP3    H128045   4.860   5.438   2.434  1.1422 -0.6915 -0.1044
 9368TIP3    H228046   4.919   5.506   2.556  0.0894  1.0881 -0.5697
 9369TIP3   OH228047   8.264   1.190   2.497  0.1776  0.1977  0.3230
 9369TIP3    H128048   8.185   1.230   2.458 -0.9047 -0.2280  2.0252
 9369TIP3    H228049   8.315   1.265   2.529  0.3613  0.4629 -0.5720
 9370TIP3   OH228050   2.636   6.684   2.392 -0.0111  0.2414 -0.2271
 9370TIP3    H128051   2.663   6.633   2.468  1.0885  0.0376 -0.7367
 9370TIP3    H228052   2.685   6.646   2.319  0.6546  1.8628 -0.6560
 9371TIP3   OH228053   5.381   7.793   2.918 -0.3153  0.0618 -0.1179
 9371TIP3    H128054   5.391   7.855   2.846  0.3133  0.1315  0.0239
 9371TIP3    H228055   5.344   7.715   2.877 -1.4636  0.6620 -0.2275
 9372TIP3   OH228056   3.530   7.455   2.258  0.0363 -0.5478 -1.0540
 9372TIP3    H128057   3.516   7.360   2.256 -1.0063 -0.4838  1.6116
 9372TIP3    H228058   3.445   7.492   2.236 -0.1319 -0.2206  0.1362
 9373TIP3   OH228059   7.016   0.711   5.046 -0.4080  0.1248  0.2841
 9373TIP3    H128060   7.107   0.681   5.045 -1.1077 -2.2014  2.0612
 9373TIP3    H228061   6.996   0.723   5.138 -1.7876  1.0560 -0.1257
 9374TIP3   OH228062   3.724   6.623   4.418  0.0778 -0.0507 -0.1062
 9374TIP3    H128063   3.719   6.698   4.477 -0.9067 -0.1432 -0.0540
 9374TIP3    H228064   3.738   6.661   4.331  2.4847  0.0429  0.2831
 9375TIP3   OH228065   3.199   7.605   2.709  0.0246 -0.3164  0.0010
 9375TIP3    H128066   3.248   7.679   2.676  0.7461 -1.1721 -0.8707
 9375TIP3    H228067   3.109   7.620   2.680  0.5883 -0.9039 -2.1088
 9376TIP3   OH228068   2.334   7.325   2.477  0.8317 -0.1088 -0.6007
 9376TIP3    H128069   2.417   7.351   2.439  0.5108 -0.0756 -1.2887
 9376TIP3    H228070   2.341   7.349   2.570  1.7228 -0.4437 -0.5758
 9377TIP3   OH228071   3.428   6.881   0.999  0.4663 -0.8948 -0.1892
 9377TIP3    H128072   3.507   6.855   0.951  0.5475 -1.1508  0.0805
 9377TIP3    H228073   3.409   6.970   0.968  1.4238 -0.4527  0.4760
 9378TIP3   OH228074   6.439   0.849   3.576  0.1975 -0.3829 -0.4193
 9378TIP3    H128075   6.529   0.874   3.600  0.1710 -0.3353 -0.3690
 9378TIP3    H228076   6.417   0.778   3.637  0.3148 -0.6097 -0.6403
 9379TIP3   OH228077   6.629   0.774   1.908  0.2735  0.5702  0.1368
 9379TIP3    H128078   6.683   0.760   1.831 -2.3638 -1.4436 -1.4411
 9379TIP3    H228079   6.689   0.766   1.982  2.0581 -2.0376 -1.5336
 9380TIP3   OH228080   4.906   0.786   4.235  0.2122 -0.1088  0.8406
 9380TIP3    H128081   4.958   0.720   4.189 -1.4723 -1.9328  1.4786
 9380TIP3    H228082   4.959   0.810   4.311  0.4149 -1.4546  1.1337
 9381TIP3   OH228083   5.921   0.094   2.352 -0.1765 -0.0439 -0.2433
 9381TIP3    H128084   5.917   0.100   2.448 -1.6643  1.5563 -0.3732
 9381TIP3    H228085   6.011   0.115   2.330 -0.3810  1.8751  0.6887
 9382TIP3   OH228086   2.581   5.421   1.880 -0.5168  0.4862  0.3677
 9382TIP3    H128087   2.617   5.489   1.822  0.5257  0.5538  1.0800
 9382TIP3    H228088   2.516   5.376   1.826  1.4132 -0.3480 -1.3338
 9383TIP3   OH228089   6.029   0.165   2.633 -0.2061 -0.5672 -0.0352
 9383TIP3    H128090   5.954   0.114   2.663  0.1061 -1.2205 -0.3726
 9383TIP3    H228091   6.101   0.137   2.689 -0.1588 -0.1089  0.1347
 9384TIP3   OH228092   6.120   3.938   3.990  0.0328 -0.1367 -0.3235
 9384TIP3    H128093   6.175   3.977   4.058  0.5544 -0.9141 -0.2913
 9384TIP3    H228094   6.032   3.937   4.027  0.2030  0.0346  0.0868
 9385TIP3   OH228095   6.279   0.388   5.080  0.0009  0.5564  0.3436
 9385TIP3    H128096   6.338   0.326   5.038 -0.6611 -0.7079  1.2261
 9385TIP3    H228097   6.219   0.415   5.010 -0.4283 -0.7125  0.2005
 9386TIP3   OH228098   6.652   0.868   4.368  0.0074  0.4331  0.2787
 9386TIP3    H128099   6.742   0.892   4.391  0.4706 -1.7450  0.7875
 9386TIP3    H228100   6.623   0.813   4.441 -1.3147  0.1016 -0.4890
 9387TIP3   OH228101   1.477   6.546   4.242 -0.1614  0.0218  0.7908
 9387TIP3    H128102   1.543   6.534   4.310  0.5445  0.8706  0.2648
 9387TIP3    H228103   1.527   6.551   4.160 -0.9316 -0.0849  0.3061
 9388TIP3   OH228104   3.259   7.268   1.994  0.3772 -0.3364  0.6371
 9388TIP3    H128105   3.339   7.234   2.034 -0.0701 -1.5192  0.5565
 9388TIP3    H228106   3.204   7.190   1.981 -0.6686  0.4251  0.4374
 9389TIP3   OH228107   8.305   0.757   4.435 -0.0233 -0.3661  0.0317
 9389TIP3    H128108   8.308   0.722   4.346 -0.7845 -0.8597  0.1963
 9389TIP3    H228109   8.257   0.691   4.485  1.6972 -0.8273  1.1456
 9390TIP3   OH228110   1.993   2.424   1.613  0.4108  0.1212 -0.3467
 9390TIP3    H128111   1.904   2.417   1.578 -0.3360 -0.3007  1.5737
 9390TIP3    H228112   1.989   2.497   1.674  1.3942  0.1198 -0.2742
 9391TIP3   OH228113   5.711   7.304   2.445  0.4656 -0.0752 -0.0765
 9391TIP3    H128114   5.709   7.389   2.402  0.2140 -0.4946 -0.9129
 9391TIP3    H228115   5.628   7.263   2.421  0.9447 -0.8843 -0.3584
 9392TIP3   OH228116   3.919   7.411   2.944  0.7255  0.2419  0.1761
 9392TIP3    H128117   3.975   7.447   3.013 -0.5806  1.8271  0.4600
 9392TIP3    H228118   3.937   7.467   2.868  0.2631  0.1388 -0.0081
 9393TIP3   OH228119   4.182   0.206   1.367 -0.9778  0.0405 -0.5202
 9393TIP3    H128120   4.127   0.282   1.349 -0.3365  0.5335 -0.4065
 9393TIP3    H228121   4.140   0.135   1.319 -1.1971  0.6182 -1.1971
 9394TIP3   OH228122   7.025   1.262   1.861  0.4903  0.3621 -0.4978
 9394TIP3    H128123   7.015   1.315   1.940 -0.4397 -0.2691 -0.1824
 9394TIP3    H228124   7.099   1.302   1.815  1.9859 -0.1257  1.3884
 9395TIP3   OH228125   2.629   7.017   3.559 -0.0209 -0.2201  0.3702
 9395TIP3    H128126   2.720   7.043   3.546  0.1828  0.3654  2.6409
 9395TIP3    H228127   2.612   6.953   3.490  2.2511 -0.6608  0.1771
 9396TIP3   OH228128   5.242   0.629   3.177 -0.1818 -0.4182 -0.0124
 9396TIP3    H128129   5.319   0.666   3.221 -0.6789 -0.3449  0.8085
 9396TIP3    H228130   5.256   0.648   3.084  0.8017 -0.4269  0.1289
 9397TIP3   OH228131   7.889   2.007   4.544  0.2658  0.3939 -0.4624
 9397TIP3    H128132   7.885   1.980   4.452 -1.2872 -1.8083  0.2125
 9397TIP3    H228133   7.960   1.956   4.581  0.0209  0.2960 -0.1263
 9398TIP3   OH228134   1.283   6.504   0.120  0.5599 -0.2950 -0.1644
 9398TIP3    H128135   1.193   6.491   0.089  0.0433  1.7840  0.4025
 9398TIP3    H228136   1.276   6.497   0.216  0.8578  0.6030 -0.0718
 9399TIP3   OH228137   3.620   7.722   4.533 -0.0680 -0.4224 -0.3572
 9399TIP3    H128138   3.551   7.769   4.580 -0.8096 -0.8817 -0.9753
 9399TIP3    H228139   3.602   7.629   4.549  0.7550 -0.5300 -0.0316
 9400TIP3   OH228140   2.790   6.974   3.262 -0.5007  0.2356 -0.0758
 9400TIP3    H128141   2.747   6.900   3.305  1.5013 -1.2004 -0.5152
 9400TIP3    H228142   2.786   7.045   3.326 -0.1801 -0.9959  1.3103
 9401TIP3   OH228143   2.422   6.408   4.890 -0.0340 -0.1648 -0.3383
 9401TIP3    H128144   2.362   6.354   4.837 -0.5998 -0.0089  0.1376
 9401TIP3    H228145   2.509   6.385   4.858 -0.2872 -1.1640 -0.3303
 9402TIP3   OH228146   4.284   5.668   2.257 -0.6372 -0.2235 -0.0036
 9402TIP3    H128147   4.303   5.667   2.351 -0.4074  0.5784 -0.0376
 9402TIP3    H228148   4.201   5.715   2.250  0.3392  1.5233 -0.3615
 9403TIP3   OH228149   2.252   4.815   2.717 -0.3695 -0.3202  0.2888
 9403TIP3    H128150   2.309   4.887   2.744  0.0652 -0.4935 -0.1473
 9403TIP3    H228151   2.313   4.746   2.689 -0.7982 -0.4406 -0.3586
 9404TIP3   OH228152   5.112   0.081   5.469 -0.7621 -0.4027 -0.0781
 9404TIP3    H128153   5.041   0.146   5.476 -0.5529  0.0127 -1.6360
 9404TIP3    H228154   5.192   0.133   5.464 -0.3487 -0.8702  1.5486
 9405TIP3   OH228155   5.036   7.584   0.768 -0.1822 -0.1650 -0.2759
 9405TIP3    H128156   5.099   7.532   0.717 -0.4243 -0.2278 -0.5091
 9405TIP3    H228157   5.058   7.675   0.748 -1.2386 -0.1960 -1.6715
 9406TIP3   OH228158   3.369   4.871   2.363 -0.3272  0.3128 -0.9257
 9406TIP3    H128159   3.327   4.795   2.324  2.0390 -2.0026  0.8397
 9406TIP3    H228160   3.372   4.852   2.457  1.8239  1.7785 -0.6381
 9407TIP3   OH228161   5.083   0.284   4.251 -0.3862  0.5975  0.5161
 9407TIP3    H128162   4.988   0.295   4.263 -1.0468 -0.0591 -3.4965
 9407TIP3    H228163   5.095   0.189   4.246  0.3358  0.7212 -0.1470
 9408TIP3   OH228164   4.455   4.650   3.346 -0.5031 -0.5694  0.0861
 9408TIP3    H128165   4.546   4.680   3.345 -0.6267 -0.1916 -0.7735
 9408TIP3    H228166   4.408   4.717   3.395 -0.1744 -1.2033  1.2704
 9409TIP3   OH228167   3.538   6.490   2.691 -0.0223  0.0731 -0.3074
 9409TIP3    H128168   3.572   6.495   2.602  0.8764  1.9859  0.1119
 9409TIP3    H228169   3.597   6.430   2.736 -0.7395 -1.2473 -1.0981
 9410TIP3   OH228170   4.303   6.773   4.160 -0.5620 -0.0813 -0.5412
 9410TIP3    H128171   4.295   6.867   4.144  0.6818  0.3131  0.9544
 9410TIP3    H228172   4.389   6.750   4.126 -0.9712 -0.7283 -1.1310
 9411TIP3   OH228173   7.686   0.142   3.448  0.0676  0.4330  0.2190
 9411TIP3    H128174   7.608   0.197   3.440  0.1391  0.5377  0.2514
 9411TIP3    H228175   7.651   0.053   3.449  0.1778  0.3284 -2.8575
 9412TIP3   OH228176   4.223   0.489   2.501  0.0243 -0.4429 -0.6239
 9412TIP3    H128177   4.138   0.459   2.534  0.5073 -0.3747  0.7114
 9412TIP3    H228178   4.201   0.547   2.428 -1.1463  0.7505  0.6342
 9413TIP3   OH228179   3.825   6.600   1.511 -0.2232 -0.5402  0.2820
 9413TIP3    H128180   3.852   6.581   1.601  1.5980  0.3010 -0.0513
 9413TIP3    H228181   3.794   6.690   1.514  1.0447 -0.0747 -0.1573
 9414TIP3   OH228182   0.419   3.448   0.981  0.1535  0.0477 -0.3016
 9414TIP3    H128183   0.325   3.464   0.992  0.5029  1.2512  0.9496
 9414TIP3    H228184   0.425   3.398   0.899 -1.5654  0.0050 -0.4175
 9415TIP3   OH228185   6.480   0.446   2.952 -0.4531  0.1850 -0.0747
 9415TIP3    H128186   6.532   0.527   2.952 -1.2437  0.7367 -2.2895
 9415TIP3    H228187   6.469   0.424   3.044 -0.0934  2.5235  0.5534
 9416TIP3   OH228188   5.631   0.428   6.282 -0.5661 -0.2904  0.1732
 9416TIP3    H128189   5.705   0.425   6.342 -0.8269 -2.3792  0.4531
 9416TIP3    H228190   5.664   0.388   6.202 -0.6137  1.2537 -0.6341
 9417TIP3   OH228191   7.796   0.832   4.590 -0.3623 -0.7756  0.4148
 9417TIP3    H128192   7.784   0.927   4.591  2.8670 -0.3228  2.0417
 9417TIP3    H228193   7.831   0.813   4.503  1.5397 -0.0950  1.0222
 9418TIP3   OH228194   1.654   7.779   4.747 -0.5122 -0.9114  0.6610
 9418TIP3    H128195   1.748   7.788   4.764 -0.2062 -0.9349 -0.9685
 9418TIP3    H228196   1.640   7.685   4.738 -0.9540 -1.0213  2.2033
 9419TIP3   OH228197   4.782   1.665   4.293  0.0286 -0.6314 -0.0959
 9419TIP3    H128198   4.810   1.742   4.243  0.9430 -0.8828  0.0098
 9419TIP3    H228199   4.864   1.623   4.319 -0.4639 -2.1302 -0.9182
 9420TIP3   OH228200   7.395   0.757   3.163  0.4251 -0.1254 -0.1992
 9420TIP3    H128201   7.344   0.785   3.087 -1.2250 -1.3003  0.4385
 9420TIP3    H228202   7.439   0.677   3.134  0.2745 -0.2418 -0.1056
 9421TIP3   OH228203   6.987   0.666   3.510  0.1488 -0.1232 -0.2799
 9421TIP3    H128204   6.994   0.736   3.575 -0.7086 -0.8525  0.6373
 9421TIP3    H228205   7.076   0.649   3.482  0.7617 -1.0282  2.0807
 9422TIP3   OH228206   0.232   3.126   3.618 -0.6868  0.1930 -0.5381
 9422TIP3    H128207   0.315   3.119   3.571 -0.4380  0.9973 -0.2341
 9422TIP3    H228208   0.252   3.185   3.692 -1.7851  1.2069 -1.0405
 9423TIP3   OH228209   3.421   7.454   1.104 -0.1939  0.3027 -0.2147
 9423TIP3    H128210   3.348   7.400   1.072 -0.1551  0.6580 -0.9034
 9423TIP3    H228211   3.498   7.399   1.090 -0.2832  0.0614  0.2041
 9424TIP3   OH228212   3.769   8.038   3.514  0.0881  0.0256 -0.4063
 9424TIP3    H128213   3.784   8.090   3.436  2.3453 -0.1144 -0.0999
 9424TIP3    H228214   3.673   8.034   3.523 -0.1540  3.3727 -0.9061
 9425TIP3   OH228215   3.153   8.050   4.669  0.2278 -0.6496  0.0850
 9425TIP3    H128216   3.114   8.137   4.675 -0.4202 -0.9742  0.7122
 9425TIP3    H228217   3.141   8.012   4.756  0.5425 -1.3521 -0.1732
 9426TIP3   OH228218   2.789   7.238   3.881 -0.6416  0.0286 -0.6594
 9426TIP3    H128219   2.754   7.183   3.951  1.3023 -1.4443 -0.8164
 9426TIP3    H228220   2.837   7.307   3.925 -1.2196  0.3343 -0.5053
 9427TIP3   OH228221   4.421   8.036   4.668 -0.1792  0.4873 -0.0554
 9427TIP3    H128222   4.365   7.959   4.673 -1.1687  1.0411 -1.9773
 9427TIP3    H228223   4.398   8.088   4.745  0.0723 -0.8469  0.9289
 9428TIP3   OH228224   6.758   0.196   2.865 -0.2178  0.1557 -0.3269
 9428TIP3    H128225   6.670   0.172   2.838 -0.2847  0.3715 -0.3042
 9428TIP3    H228226   6.760   0.178   2.959  0.0753 -0.7736 -0.5058
 9429TIP3   OH228227   6.396   0.030   2.322  0.2140  0.3618  0.4702
 9429TIP3    H128228   6.425   0.090   2.391  0.7763  0.8555 -0.2024
 9429TIP3    H228229   6.473   0.014   2.269 -0.1302 -0.3243  0.1706
 9430TIP3   OH228230   2.150   6.888   6.534 -0.4945 -0.0010 -0.4177
 9430TIP3    H128231   2.196   6.948   6.475 -0.0630  0.5734  0.4697
 9430TIP3    H228232   2.058   6.913   6.526 -0.4344  0.1038 -0.8101
 9431TIP3   OH228233   8.021   0.362   3.770 -0.0794 -0.6409  0.4822
 9431TIP3    H128234   8.051   0.360   3.680  1.7387 -1.1587  1.0779
 9431TIP3    H228235   7.957   0.290   3.776  0.6652 -1.3594 -0.0959
 9432TIP3   OH228236   5.218   0.522   1.730  0.2118 -0.5335  0.1936
 9432TIP3    H128237   5.152   0.575   1.773  0.0867  0.6292 -1.4082
 9432TIP3    H228238   5.183   0.504   1.643  1.4192 -1.0048 -0.2189
 9433TIP3   OH228239   3.894   7.800   3.752  0.0313 -0.2408 -0.6058
 9433TIP3    H128240   3.937   7.877   3.713  1.5108 -1.6461 -1.8279
 9433TIP3    H228241   3.801   7.822   3.752  0.2393  0.8172 -2.6864
 9434TIP3   OH228242   6.655   0.285   2.461 -0.1802 -0.6801 -0.2871
 9434TIP3    H128243   6.712   0.358   2.486 -0.4471 -1.0059  1.3401
 9434TIP3    H228244   6.682   0.263   2.372  1.3606  0.0232 -0.0116
 9435TIP3   OH228245   7.347   0.971   4.794 -0.3426 -0.1043  0.5011
 9435TIP3    H128246   7.305   1.034   4.852 -1.5550 -0.2033 -0.2403
 9435TIP3    H228247   7.275   0.936   4.741  0.4682 -1.3441  0.1906
 9436TIP3   OH228248   3.940   6.551   1.266  0.7212  0.1485 -0.3144
 9436TIP3    H128249   3.897   6.572   1.349  1.3100  0.9277 -0.1973
 9436TIP3    H228250   3.959   6.458   1.271  0.4191  0.1179  0.2700
 9437TIP3   OH228251   3.597   7.861   2.384 -0.1825  0.2734  0.1127
 9437TIP3    H128252   3.520   7.853   2.328 -1.5816 -0.4113  2.0468
 9437TIP3    H228253   3.620   7.954   2.382 -0.2652  0.2690 -1.4827
 9438TIP3   OH228254   4.920   0.353   2.454 -0.5382  0.1252 -0.0274
 9438TIP3    H128255   4.994   0.373   2.397 -0.2935 -1.9046 -0.4526
 9438TIP3    H228256   4.958   0.305   2.527 -1.2399  0.3582  0.4979
 9439TIP3   OH228257   3.315   7.258   3.281  0.0670  0.2250  0.2477
 9439TIP3    H128258   3.276   7.252   3.194  0.8898 -0.7878 -0.0473
 9439TIP3    H228259   3.246   7.228   3.340  0.3586 -1.5278 -0.2751
 9440TIP3   OH228260   2.065   6.934   2.928  0.4592  0.2205  0.0490
 9440TIP3    H128261   2.064   6.866   2.995  0.2914  1.0587  0.8992
 9440TIP3    H228262   1.994   6.911   2.869  0.1078 -0.0862  0.5884
 9441TIP3   OH228263   6.744   0.526   3.547 -0.0502 -0.1902 -0.0302
 9441TIP3    H128264   6.834   0.558   3.536  0.3679 -1.1586  0.5254
 9441TIP3    H228265   6.753   0.447   3.599 -1.3485  0.4272  1.1617
 9442TIP3   OH228266   2.590   6.076   2.881  0.6506 -0.4429  0.2291
 9442TIP3    H128267   2.541   6.004   2.842  0.1899 -0.5524  0.9867
 9442TIP3    H228268   2.543   6.095   2.962  1.5230 -0.1438  0.6677
 9443TIP3   OH228269   4.380   7.515   4.325 -0.1985  0.4247  0.5845
 9443TIP3    H128270   4.332   7.596   4.307 -4.0626 -1.3939  2.0841
 9443TIP3    H228271   4.409   7.524   4.416 -0.3913  0.2144  0.6655
 9444TIP3   OH228272   2.525   5.554   0.899 -0.9913  0.5916 -0.1251
 9444TIP3    H128273   2.436   5.560   0.934 -0.6148 -0.0908  1.0035
 9444TIP3    H228274   2.579   5.600   0.964 -0.3088 -0.4988  0.0926
 9445TIP3   OH228275   5.813   0.887   3.599 -0.2092  0.5072 -0.2142
 9445TIP3    H128276   5.802   0.976   3.632 -1.7072 -0.5893  2.3243
 9445TIP3    H228277   5.898   0.859   3.632  0.1273  0.8666 -0.7629
 9446TIP3   OH228278   7.969   0.716   5.028  0.2275  0.3272 -0.7079
 9446TIP3    H128279   7.877   0.692   5.015 -1.3196  5.5273 -0.6315
 9446TIP3    H228280   7.999   0.743   4.942  1.2556 -0.1280 -0.4893
 9447TIP3   OH228281   5.269   2.128   5.748  0.0955 -0.3202  0.1991
 9447TIP3    H128282   5.267   2.033   5.738 -0.9061 -0.4383  1.3420
 9447TIP3    H228283   5.293   2.161   5.662  0.8446 -1.6262 -0.0971
 9448TIP3   OH228284   6.145   1.796   1.638  0.5759 -0.5402 -0.3773
 9448TIP3    H128285   6.156   1.821   1.729 -0.4627  0.7277 -0.5956
 9448TIP3    H228286   6.207   1.851   1.590 -1.5057  1.4524 -0.8247
 9449TIP3   OH228287   7.492   0.311   3.500  0.8005  0.7908 -0.1523
 9449TIP3    H128288   7.497   0.387   3.441  0.0419  0.3410 -0.7983
 9449TIP3    H228289   7.404   0.314   3.536  0.8545  0.3541  0.0227
 9450TIP3   OH228290   3.919   6.583   1.813 -0.0097 -0.2540  1.0409
 9450TIP3    H128291   3.980   6.656   1.825  1.4258 -1.3603  0.6380
 9450TIP3    H228292   3.975   6.509   1.787 -1.5349 -1.2732  0.5895
 9451TIP3   OH228293   2.998   7.564   5.204 -0.1545 -0.7565  0.2660
 9451TIP3    H128294   2.996   7.470   5.219 -1.4580 -0.8949 -0.7068
 9451TIP3    H228295   2.969   7.602   5.287 -1.2078 -1.2735  0.1391
 9452TIP3   OH228296   2.189   7.635   5.113  0.0449  1.0869 -0.2418
 9452TIP3    H128297   2.274   7.593   5.103 -1.0272 -1.0284 -0.8521
 9452TIP3    H228298   2.189   7.669   5.202  0.9357 -0.2882  0.2945
 9453TIP3   OH228299   3.885   0.285   2.046 -0.5886  0.0496 -0.2604
 9453TIP3    H128300   3.879   0.376   2.076 -0.1094  0.2934 -0.8761
 9453TIP3    H228301   3.797   0.250   2.056 -1.0089  0.8825 -0.9341
 9454TIP3   OH228302   5.563   0.873   3.519  0.6001 -0.3567 -0.1058
 9454TIP3    H128303   5.570   0.835   3.432  0.9115  1.5498 -0.9211
 9454TIP3    H228304   5.652   0.896   3.543  0.6129 -1.4609  1.0139
 9455TIP3   OH228305   1.982   7.267   1.707 -0.2716 -0.1136  0.6842
 9455TIP3    H128306   1.982   7.348   1.757  0.8841  0.1151  0.3084
 9455TIP3    H228307   2.034   7.206   1.760  1.5264  0.3260 -0.5535
 9456TIP3   OH228308   4.707   4.950   3.856  0.0521 -0.0586 -0.3366
 9456TIP3    H128309   4.749   4.968   3.772  0.5145 -2.3294 -0.6181
 9456TIP3    H228310   4.613   4.956   3.837  0.1634  2.2997 -0.3219
 9457TIP3   OH228311   7.321   1.173   1.870  0.2005  0.8058  0.4686
 9457TIP3    H128312   7.285   1.218   1.794 -0.7810 -1.2332 -0.3243
 9457TIP3    H228313   7.412   1.154   1.847  0.7233  2.6169  0.9453
 9458TIP3   OH228314   2.999   6.688   4.880  0.3425 -0.4069 -0.0330
 9458TIP3    H128315   2.944   6.655   4.950  0.6653  0.8119  0.8049
 9458TIP3    H228316   3.047   6.611   4.849 -1.4723 -1.3912 -0.4654
 9459TIP3   OH228317   2.926   5.761   2.250 -0.2526 -0.1605 -0.4415
 9459TIP3    H128318   2.941   5.728   2.162  0.6555 -2.5205  0.5758
 9459TIP3    H228319   2.980   5.706   2.307 -1.3033  0.9108  1.6642
 9460TIP3   OH228320   6.100   0.293   1.582  0.1930 -0.6280 -0.8138
 9460TIP3    H128321   6.090   0.267   1.673 -2.5089 -0.8634 -1.1308
 9460TIP3    H228322   6.165   0.363   1.583  0.2204 -0.6678  1.2575
 9461TIP3   OH228323   6.179   0.541   3.700  0.1403 -0.5586  0.3567
 9461TIP3    H128324   6.259   0.555   3.753 -0.2609 -1.1230  1.1199
 9461TIP3    H228325   6.144   0.458   3.731 -0.5360 -0.5055 -0.2592
 9462TIP3   OH228326   6.351   0.436   4.522  0.1386  0.0942 -0.5241
 9462TIP3    H128327   6.297   0.362   4.550  0.4949  0.6632  1.7558
 9462TIP3    H228328   6.305   0.513   4.556  0.3391  0.8545 -1.9580
 9463TIP3   OH228329   3.222   7.254   4.337 -0.3264 -0.1422  0.0419
 9463TIP3    H128330   3.301   7.208   4.308  0.2109  0.5764  0.3276
 9463TIP3    H228331   3.149   7.204   4.301  0.2050 -1.8766  1.3414
 9464TIP3   OH228332   1.128   5.901   4.071  0.1146 -0.2095 -0.0045
 9464TIP3    H128333   1.106   5.831   4.009  0.5662 -0.9896  0.7074
 9464TIP3    H228334   1.050   5.958   4.072  0.2006 -0.0435 -1.4697
 9465TIP3   OH228335   6.973   0.034   4.563 -0.1630  0.2942  0.4407
 9465TIP3    H128336   7.040  -0.006   4.506 -0.1418  0.1490  0.5664
 9465TIP3    H228337   6.903   0.059   4.503 -0.1689  0.0839  0.3562
 9466TIP3   OH228338   4.198   1.485   3.483  0.1431 -0.6182  0.2295
 9466TIP3    H128339   4.271   1.536   3.447  0.1064 -0.5583  0.2398
 9466TIP3    H228340   4.121   1.515   3.434 -0.2101  0.7215  1.5463
 9467TIP3   OH228341   4.139   7.633   4.062  0.0840 -0.0302  0.7591
 9467TIP3    H128342   4.202   7.644   3.991 -1.6529  1.5867 -0.5686
 9467TIP3    H228343   4.109   7.722   4.082 -1.3692 -0.7158  1.7271
 9468TIP3   OH228344   3.262   6.875   3.664 -0.0592  0.0002  0.2421
 9468TIP3    H128345   3.300   6.799   3.619  1.4742  1.7664 -1.5751
 9468TIP3    H228346   3.338   6.924   3.697 -0.8163  2.4080 -1.4336
 9469TIP3   OH228347   3.168   7.981   1.770 -0.0513  0.0446  0.4327
 9469TIP3    H128348   3.250   7.946   1.733 -0.2647 -0.8573  0.8153
 9469TIP3    H228349   3.099   7.931   1.727 -0.2703 -2.0099  3.0444
 9470TIP3   OH228350   1.619   7.482   1.581 -0.7353  0.1646 -0.1275
 9470TIP3    H128351   1.617   7.512   1.672  1.2052  1.7868 -0.5974
 9470TIP3    H228352   1.582   7.554   1.531 -0.3785 -0.1096 -0.7983
 9471TIP3   OH228353   4.557   8.132   5.081 -0.1834 -0.4904 -0.2889
 9471TIP3    H128354   4.574   8.069   5.151  2.3475 -0.0328 -0.4164
 9471TIP3    H228355   4.608   8.098   5.006 -0.3249  0.6911 -0.9289
 9472TIP3   OH228356   7.049   1.321   3.876  0.0663  0.1771  0.4602
 9472TIP3    H128357   7.108   1.372   3.931  0.6413  0.4368 -0.3779
 9472TIP3    H228358   7.048   1.367   3.792 -1.6400  0.3841  0.5797
 9473TIP3   OH228359   7.843   0.923   3.070  0.2956  0.0370 -0.1289
 9473TIP3    H128360   7.821   0.990   3.005 -1.9703 -1.5997 -1.1427
 9473TIP3    H228361   7.825   0.965   3.154 -2.3524  0.3219 -0.7948
 9474TIP3   OH228362   0.544   0.891   2.450  0.7030 -0.3569  0.2426
 9474TIP3    H128363   0.631   0.930   2.439  0.0517  1.1655  0.3804
 9474TIP3    H228364   0.530   0.890   2.545  0.4477 -0.3260  0.2060
 9475TIP3   OH228365   6.226   8.005   4.993  0.2725  0.2184 -0.1185
 9475TIP3    H128366   6.226   7.942   5.065 -0.8593  1.6141  1.1392
 9475TIP3    H228367   6.163   7.969   4.930 -0.6842  0.2913  0.7809
 9476TIP3   OH228368   5.594   1.364   1.704 -0.1176  0.2346 -0.5390
 9476TIP3    H128369   5.526   1.391   1.643 -0.8828  0.5176  0.4196
 9476TIP3    H228370   5.643   1.445   1.722 -0.3186  0.2896 -0.2463
 9477TIP3   OH228371   5.088   6.646   3.891  0.6783  0.0697 -0.5377
 9477TIP3    H128372   5.038   6.635   3.810  0.4423 -0.3792 -0.3326
 9477TIP3    H228373   5.170   6.687   3.863  0.8401 -0.6198 -1.0815
 9478TIP3   OH228374   3.006   6.354   2.791 -0.4569  0.1051 -0.2587
 9478TIP3    H128375   2.956   6.280   2.755 -2.1388  0.4767  1.2777
 9478TIP3    H228376   2.981   6.428   2.737  0.9866 -0.3437 -1.5959
 9479TIP3   OH228377   2.343   6.614   4.459 -0.5700  0.1074 -0.0555
 9479TIP3    H128378   2.434   6.591   4.444 -0.9704 -0.7377 -1.3085
 9479TIP3    H228379   2.321   6.673   4.388 -0.5883  1.5114  1.0943
 9480TIP3   OH228380   7.309   3.390   3.426  0.2259 -0.5598  0.5018
 9480TIP3    H128381   7.272   3.380   3.513  1.4265 -1.6037  0.9077
 9480TIP3    H228382   7.272   3.318   3.375  0.1363 -0.4188  0.3673
 9481TIP3   OH228383   5.995   0.302   3.346  0.2554  0.1021  0.5136
 9481TIP3    H128384   6.046   0.228   3.314 -0.4265  0.2927 -1.0341
 9481TIP3    H228385   5.908   0.266   3.364  0.2789  0.2606  0.9555
 9482TIP3   OH228386   3.938   5.788   1.539  0.3344  0.2821  0.1515
 9482TIP3    H128387   3.964   5.697   1.555  0.2779  0.6908  2.6876
 9482TIP3    H228388   3.842   5.785   1.536  0.3529  0.1469 -0.6982
 9483TIP3   OH228389   5.295   8.028   4.048  0.4723  0.0513  0.0530
 9483TIP3    H128390   5.282   8.122   4.036  0.8881 -0.1761 -2.2887
 9483TIP3    H228391   5.307   8.018   4.143 -2.5339  1.9512  0.6784
 9484TIP3   OH228392   5.216   7.107   3.453 -0.0266 -0.2013  0.0922
 9484TIP3    H128393   5.139   7.119   3.398 -0.6963  1.4901  1.3655
 9484TIP3    H228394   5.288   7.146   3.402 -0.0668 -1.3132 -0.8586
 9485TIP3   OH228395   3.687   7.597   4.272 -0.6194  1.1399  0.1238
 9485TIP3    H128396   3.757   7.582   4.336 -0.1029  0.3026 -0.6322
 9485TIP3    H228397   3.607   7.569   4.317 -0.2301  0.3485  0.3315
 9486TIP3   OH228398   1.869   5.936   2.422 -0.0087  0.0871 -0.0667
 9486TIP3    H128399   1.798   5.999   2.413 -0.4328 -0.5970 -1.6750
 9486TIP3    H228400   1.932   5.979   2.480 -1.9666  0.4501  1.8582
 9487TIP3   OH228401   1.840   6.323   5.733 -0.3892 -0.3025  0.5561
 9487TIP3    H128402   1.768   6.345   5.673 -1.3321 -1.4970  1.2203
 9487TIP3    H228403   1.917   6.319   5.677 -0.5346  2.5369  0.0702
 9488TIP3   OH228404   2.974   6.293   2.103  0.1687 -0.1585  0.6245
 9488TIP3    H128405   3.023   6.213   2.081 -0.0754  0.0446 -0.6918
 9488TIP3    H228406   3.020   6.329   2.179  1.2590 -0.6896  0.2347
 9489TIP3   OH228407   2.075   5.752   1.211 -0.1072 -0.2083  0.2750
 9489TIP3    H128408   2.056   5.844   1.228 -0.5895 -0.0055 -1.3013
 9489TIP3    H228409   2.123   5.723   1.289  1.8722  1.9167 -0.0901
 9490TIP3   OH228410   4.515   0.262   4.627 -0.7974  0.2879 -0.0196
 9490TIP3    H128411   4.448   0.276   4.560 -1.5808 -0.7212  0.5473
 9490TIP3    H228412   4.532   0.168   4.625  1.1432  0.6276 -0.6536
 9491TIP3   OH228413   1.759   7.294   4.271 -0.5050  0.2305  0.0137
 9491TIP3    H128414   1.729   7.308   4.181 -0.8181  1.4860  0.2958
 9491TIP3    H228415   1.837   7.239   4.262 -0.3569  0.5910 -1.0496
 9492TIP3   OH228416   6.999   1.110   3.034  0.1124 -0.1321  0.2709
 9492TIP3    H128417   6.931   1.057   3.075 -0.8031  0.3597 -0.5931
 9492TIP3    H228418   6.964   1.130   2.947  1.1514  0.5277  0.0009
 9493TIP3   OH228419   3.207   5.324   3.658 -0.0478  0.2619 -0.2235
 9493TIP3    H128420   3.146   5.327   3.584 -0.8909 -0.2353  0.4299
 9493TIP3    H228421   3.188   5.403   3.708  1.1984  1.0944 -1.0511
 9494TIP3   OH228422   5.795   0.106   3.701 -0.1833 -0.1440 -0.4891
 9494TIP3    H128423   5.800   0.198   3.726  0.1916 -0.2859 -0.0341
 9494TIP3    H228424   5.806   0.058   3.783 -0.7728 -0.5906 -0.6671
 9495TIP3   OH228425   2.820   7.386   2.667  0.4003  0.0420 -0.1215
 9495TIP3    H128426   2.869   7.409   2.588  0.8218 -0.1724  0.0787
 9495TIP3    H228427   2.865   7.431   2.738 -2.3920  3.7080 -0.4588
 9496TIP3   OH228428   6.028   0.918   3.963 -0.1516 -0.2148  0.3376
 9496TIP3    H128429   5.969   0.994   3.969 -1.0225 -0.7850 -0.8714
 9496TIP3    H228430   5.976   0.845   3.996 -0.1114 -0.7124 -0.6868
 9497TIP3   OH228431   4.730   5.631   3.084 -0.0144 -0.3735 -0.2351
 9497TIP3    H128432   4.812   5.678   3.070  0.1233 -0.2539  0.9401
 9497TIP3    H228433   4.749   5.570   3.156 -1.4390  0.9057  1.2810
 9498TIP3   OH228434   6.546   6.130   5.303 -0.2899 -0.4958  0.3953
 9498TIP3    H128435   6.468   6.138   5.358  0.5087 -1.0087  1.6383
 9498TIP3    H228436   6.613   6.096   5.362  0.9567  0.2207 -0.5813
 9499TIP3   OH228437   4.783   5.558   6.993 -0.6097  0.2399 -0.2415
 9499TIP3    H128438   4.704   5.611   6.978 -1.0671  0.0340  1.4106
 9499TIP3    H228439   4.837   5.611   7.051  0.0979  0.0060 -0.6790
 9500TIP3   OH228440   3.269   8.045   1.215  0.1936 -0.8659  0.4846
 9500TIP3    H128441   3.357   8.025   1.247  1.3872 -0.3674 -2.2887
 9500TIP3    H228442   3.231   8.101   1.282  3.0200  1.1154  0.5308
 9501TIP3   OH228443   4.683   6.797   1.693 -0.0968  0.2228 -0.8203
 9501TIP3    H128444   4.757   6.850   1.722  0.4746 -1.5949  1.2306
 9501TIP3    H228445   4.720   6.709   1.680 -1.8575 -0.6852  0.1142
 9502TIP3   OH228446   2.612   5.384   2.703 -0.0697 -0.2309 -0.4290
 9502TIP3    H128447   2.649   5.299   2.678  0.6372 -0.9001  2.6789
 9502TIP3    H228448   2.598   5.377   2.798  0.3511  3.2672 -0.0398
 9503TIP3   OH228449   3.439   7.561   3.606  0.0502 -0.1250  0.1001
 9503TIP3    H128450   3.506   7.619   3.570 -0.1110 -0.2360 -0.3745
 9503TIP3    H228451   3.369   7.562   3.541  0.1500 -1.0455 -0.0297
 9504TIP3   OH228452   2.768   7.885   3.090  0.7206  0.0118 -0.0356
 9504TIP3    H128453   2.694   7.848   3.043  1.3155 -2.2400  0.7499
 9504TIP3    H228454   2.729   7.947   3.152 -0.4296 -0.5822 -0.1598
 9505TIP3   OH228455   4.017   6.321   1.760  0.7246 -0.2669 -0.9387
 9505TIP3    H128456   4.066   6.290   1.837 -0.6437  1.1415  0.5571
 9505TIP3    H228457   4.049   6.267   1.688  4.2800  0.4090  0.0066
 9506TIP3   OH228458   6.027   0.575   3.451 -0.2059 -0.4908 -0.0504
 9506TIP3    H128459   6.054   0.492   3.413  0.1084 -0.2229 -0.4186
 9506TIP3    H228460   6.056   0.570   3.542 -0.5080 -0.9267  0.0236
 9507TIP3   OH228461   4.942   7.657   4.389 -0.4741 -0.0343 -0.0315
 9507TIP3    H128462   4.928   7.743   4.349 -2.6939 -0.2088  0.3185
 9507TIP3    H228463   5.009   7.616   4.334 -0.8108  1.1562 -1.3718
 9508TIP3   OH228464   2.499   7.838   5.471 -0.1869  0.0982 -0.5804
 9508TIP3    H128465   2.424   7.874   5.518 -0.4112  0.5813 -1.2976
 9508TIP3    H228466   2.570   7.900   5.487  0.2588 -0.7363  0.6923
 9509TIP3   OH228467   3.233   7.419   4.541  0.2240 -0.4290 -0.0365
 9509TIP3    H128468   3.309   7.371   4.573  0.6939  0.5627  0.3494
 9509TIP3    H228469   3.220   7.386   4.452  2.8216  1.3385 -1.1426
 9510TIP3   OH228470   0.096   0.197   4.129  0.4778  0.7064  0.4956
 9510TIP3    H128471   0.157   0.232   4.064 -1.2176  1.5008 -0.7074
 9510TIP3    H228472   0.105   0.256   4.204 -0.4890  2.2369 -0.5593
 9511TIP3   OH228473   6.046   6.748   2.418  0.2490 -0.0309 -0.1881
 9511TIP3    H128474   6.092   6.815   2.367  1.7479 -1.6312 -0.9614
 9511TIP3    H228475   5.959   6.743   2.377  0.3316  0.9843 -0.5125
 9512TIP3   OH228476   1.970   6.929   3.792  0.1639  0.2897 -0.1414
 9512TIP3    H128477   2.050   6.905   3.838 -1.3420 -1.0680  1.9202
 9512TIP3    H228478   1.999   6.972   3.712  2.9104  1.0477  1.2136
 9513TIP3   OH228479   7.816   1.988   3.516 -0.2519  0.4723  0.5961
 9513TIP3    H128480   7.748   2.056   3.522  0.6716  1.3645  1.2925
 9513TIP3    H228481   7.888   2.022   3.570 -0.2100 -1.5988  1.8584
 9514TIP3   OH228482   0.268   2.222   3.116  0.0962 -0.3172 -0.6123
 9514TIP3    H128483   0.220   2.148   3.155 -1.0343  0.7254 -0.0018
 9514TIP3    H228484   0.285   2.281   3.189 -0.0710  0.5974 -1.3062
 9515TIP3   OH228485   0.500   0.482   2.296 -0.7087 -0.4569 -0.0246
 9515TIP3    H128486   0.508   0.521   2.382 -0.9867  0.2877 -0.3345
 9515TIP3    H228487   0.589   0.456   2.273 -0.5125  0.0576  0.1520
 9516TIP3   OH228488   8.438   0.256   3.473  0.2646 -0.2493  0.0792
 9516TIP3    H128489   8.457   0.249   3.380 -1.1696  2.2638 -0.4386
 9516TIP3    H228490   8.348   0.224   3.481  0.1186  0.2690  0.4979
 9517TIP3   OH228491   0.535   1.108   3.735  0.0677  0.0808 -0.1145
 9517TIP3    H128492   0.495   1.051   3.669  0.1243  2.0171 -1.8753
 9517TIP3    H228493   0.627   1.080   3.738  0.8018  1.8412 -3.0739
 9518TIP3   OH228494   7.447   6.942   3.647 -0.4914 -0.1313  0.1599
 9518TIP3    H128495   7.449   7.030   3.611  0.7330  0.3484  1.3592
 9518TIP3    H228496   7.486   6.887   3.579  2.2012  0.8246  0.8573
 9519TIP3   OH228497   7.579   1.791   3.859  0.1900  0.0745  0.1241
 9519TIP3    H128498   7.507   1.744   3.902  0.2273  1.3066  1.5573
 9519TIP3    H228499   7.563   1.777   3.766 -1.9148  0.2980  0.4212
 9520TIP3   OH228500   4.614   7.140   4.865 -0.1151 -0.0747 -0.3461
 9520TIP3    H128501   4.709   7.129   4.868 -0.3029 -1.8529 -0.0252
 9520TIP3    H228502   4.582   7.057   4.830 -1.6016  0.2150  0.2972
 9521TIP3   OH228503   6.334   1.170   2.632  0.0730  0.4517  0.4608
 9521TIP3    H128504   6.279   1.169   2.711  1.3293  2.6334  1.4146
 9521TIP3    H228505   6.397   1.099   2.646 -0.4765  0.0455  0.8651
 9522TIP3   OH228506   4.381   7.590   2.936 -0.6764  0.2217  0.4945
 9522TIP3    H128507   4.437   7.518   2.965 -1.8517 -0.4292  1.2117
 9522TIP3    H228508   4.419   7.619   2.854  0.1877 -0.8094  0.5188
 9523TIP3   OH228509   5.789   1.487   1.065  0.5357  0.2325 -0.2955
 9523TIP3    H128510   5.876   1.527   1.065 -0.2720  2.0249 -0.3739
 9523TIP3    H228511   5.745   1.524   0.989  0.4969 -2.4949 -1.6458
 9524TIP3   OH228512   1.097   1.220   3.421 -0.4531 -0.2270  0.6313
 9524TIP3    H128513   1.182   1.209   3.463 -0.0304  0.5263  0.0036
 9524TIP3    H228514   1.079   1.314   3.427 -1.1081 -0.3411  0.5109
 9525TIP3   OH228515   7.731   1.574   2.644 -0.0802 -0.3066 -0.1331
 9525TIP3    H128516   7.795   1.616   2.585  1.3353 -1.4147  0.5714
 9525TIP3    H228517   7.775   1.572   2.729 -0.6562 -1.9783  0.1410
 9526TIP3   OH228518   5.957   8.117   3.787 -0.1872 -0.1035 -0.9338
 9526TIP3    H128519   5.940   8.098   3.694 -1.4281 -0.9902 -0.5401
 9526TIP3    H228520   5.926   8.040   3.833  0.5713  0.2748  0.2234
 9527TIP3   OH228521   6.284   8.025   1.145 -0.3770 -0.1730  0.3083
 9527TIP3    H128522   6.262   8.093   1.208 -0.2597 -0.7003  0.9216
 9527TIP3    H228523   6.337   7.963   1.194 -0.1123 -0.4828 -0.3636
 9528TIP3   OH228524   8.511   7.288   2.664  0.8542 -0.6363 -0.1482
 9528TIP3    H128525   8.488   7.199   2.636 -0.9691 -0.3640  0.4650
 9528TIP3    H228526   8.598   7.302   2.627  0.0482 -1.6651 -2.5531
 9529TIP3   OH228527   3.224   5.820   4.327  0.4466 -0.1737  0.3385
 9529TIP3    H128528   3.176   5.876   4.267 -0.1906 -0.2327  0.7946
 9529TIP3    H228529   3.229   5.736   4.282 -2.2347 -0.9576  1.4241
 9530TIP3   OH228530   8.078   0.585   3.898 -0.2642 -0.2286  0.3295
 9530TIP3    H128531   8.030   0.514   3.855  1.5119 -0.0793 -2.0573
 9530TIP3    H228532   8.169   0.569   3.875  0.2382  2.4301  0.3170
 9531TIP3   OH228533   0.407   0.314   3.614  0.6349  0.1116  0.1495
 9531TIP3    H128534   0.395   0.393   3.562  1.7717  1.5639  2.0215
 9531TIP3    H228535   0.318   0.284   3.634  0.1813  1.8002  0.7056
 9532TIP3   OH228536   8.296   1.456   2.609  0.2804 -0.1676 -0.1837
 9532TIP3    H128537   8.225   1.429   2.668 -0.6732  0.9382 -0.8052
 9532TIP3    H228538   8.253   1.467   2.524  0.8709  2.0873 -0.2184
 9533TIP3   OH228539   1.735   0.001   4.847 -0.4213 -0.0574  0.4243
 9533TIP3    H128540   1.813   0.016   4.901 -0.4544  0.0539  0.4405
 9533TIP3    H228541   1.770  -0.012   4.758 -0.4686  1.2655  0.1965
 9534TIP3   OH228542   5.256   6.731   5.049 -0.3522  0.1523  0.0271
 9534TIP3    H128543   5.255   6.683   5.132 -0.4742 -0.3237 -0.2506
 9534TIP3    H228544   5.166   6.759   5.036 -0.7615 -1.6497 -1.0384
 9535TIP3   OH228545   8.226   0.573   3.303 -0.5902  0.3239 -0.5581
 9535TIP3    H128546   8.320   0.557   3.311  0.0096  2.8624 -2.0389
 9535TIP3    H228547   8.212   0.587   3.210 -2.4568  0.0249 -0.3430
 9536TIP3   OH228548   6.664   7.576   3.307  0.2904 -0.1632  0.2572
 9536TIP3    H128549   6.699   7.570   3.396 -0.3157 -1.5633  0.4130
 9536TIP3    H228550   6.584   7.627   3.316  1.3695  1.5873  0.1607
 9537TIP3   OH228551   7.764   1.072   3.306  0.2441 -0.1364  0.1822
 9537TIP3    H128552   7.858   1.085   3.309  0.7284 -3.1422 -0.1952
 9537TIP3    H228553   7.739   1.052   3.396  0.0903  0.0091  0.1715
 9538TIP3   OH228554   5.719   6.243   4.643  0.1176 -0.1892 -0.5315
 9538TIP3    H128555   5.749   6.296   4.569  2.2824  0.1009  0.4959
 9538TIP3    H228556   5.687   6.306   4.707 -0.0320 -0.3069 -0.4899
 9539TIP3   OH228557   8.485   0.523   3.418  0.1699  0.1534 -0.3179
 9539TIP3    H128558   8.558   0.512   3.358  1.5516 -0.1766  1.3622
 9539TIP3    H228559   8.476   0.438   3.461 -0.4481  0.5225  0.2943
 9540TIP3   OH228560   6.232   0.264   2.491 -0.1465 -0.4446 -0.6726
 9540TIP3    H128561   6.171   0.211   2.543 -0.6071  0.2691 -0.4759
 9540TIP3    H228562   6.295   0.298   2.554 -0.7108  0.4285 -0.5582
 9541TIP3   OH228563   0.768   0.443   2.214  0.0906  0.4387 -0.1291
 9541TIP3    H128564   0.812   0.371   2.258  0.9351  1.6047  0.9534
 9541TIP3    H228565   0.828   0.517   2.220 -0.3109  0.9876 -2.1308
 9542TIP3   OH228566   7.472   2.485   2.568 -0.0442 -0.0722  0.0423
 9542TIP3    H128567   7.394   2.501   2.622  0.6463 -0.3636  1.1356
 9542TIP3    H228568   7.444   2.508   2.479 -1.2141  0.3488  0.5029
 9543TIP3   OH228569   7.467   2.738   3.335  0.4802  0.2608  0.0180
 9543TIP3    H128570   7.533   2.797   3.371  0.6410 -0.0130  0.1746
 9543TIP3    H228571   7.384   2.772   3.368  0.7527 -1.0580  2.1733
 9544TIP3   OH228572   1.096   2.468   3.806  0.4957  0.1548 -0.1557
 9544TIP3    H128573   1.046   2.479   3.887  1.5587  0.0445  0.5335
 9544TIP3    H228574   1.182   2.505   3.826  1.7678 -2.6035 -0.1843
 9545TIP3   OH228575   5.963   7.306   4.258  0.4495 -0.2723  0.4085
 9545TIP3    H128576   5.942   7.396   4.284  0.3690 -0.1912  0.0707
 9545TIP3    H228577   6.054   7.294   4.286  0.4000 -0.1508  0.6268
 9546TIP3   OH228578   3.296   7.798   3.953 -0.5295  0.1715 -0.3764
 9546TIP3    H128579   3.274   7.888   3.974  1.5366  0.2742  1.5149
 9546TIP3    H228580   3.386   7.787   3.983 -0.8744 -2.6307 -0.1911
 9547TIP3   OH228581   5.741   6.364   1.261  0.0737 -0.8241 -0.4841
 9547TIP3    H128582   5.807   6.428   1.286  0.3436 -1.3008  0.0490
 9547TIP3    H228583   5.753   6.352   1.167 -0.4595  0.4368 -0.7256
 9548TIP3   OH228584   7.158   1.482   4.258  0.3118 -0.6100  0.6507
 9548TIP3    H128585   7.229   1.429   4.295 -0.1092 -1.7823 -0.2206
 9548TIP3    H228586   7.182   1.493   4.166 -0.4484 -0.7010  0.4409
 9549TIP3   OH228587   6.808   7.444   2.762  0.1728 -0.0281  0.1076
 9549TIP3    H128588   6.778   7.532   2.740  0.2488 -0.0732 -0.1708
 9549TIP3    H228589   6.731   7.402   2.801 -0.0420 -0.0447 -0.3332
 9550TIP3   OH228590   8.067   1.185   1.520 -0.4004 -0.1929  0.5299
 9550TIP3    H128591   8.137   1.222   1.466  0.5447 -0.8625  1.2581
 9550TIP3    H228592   7.986   1.218   1.482  0.3174  0.5307 -0.3834
 9551TIP3   OH228593   6.862   1.034   2.165 -0.2087 -0.5864 -0.3865
 9551TIP3    H128594   6.956   1.049   2.175 -0.1808 -1.3990  0.7484
 9551TIP3    H228595   6.821   1.111   2.205 -0.0268 -0.2843 -0.7815
 9552TIP3   OH228596   2.511   6.878   0.823 -0.3794 -0.3928  0.0464
 9552TIP3    H128597   2.454   6.950   0.798 -1.1437 -0.5914  1.2036
 9552TIP3    H228598   2.455   6.801   0.820  0.1843 -0.8005 -0.1771
 9553TIP3   OH228599   1.088   3.603   2.567  0.2383 -0.2091 -0.0768
 9553TIP3    H128600   1.160   3.608   2.504  0.8177  3.2713  0.7603
 9553TIP3    H228601   1.010   3.620   2.515  0.4036 -0.2823 -0.3513
 9554TIP3   OH228602   1.057   0.297   3.165  0.4344  0.6349 -0.4541
 9554TIP3    H128603   1.129   0.358   3.148  1.1190 -0.3926 -1.2706
 9554TIP3    H228604   0.988   0.352   3.202  0.9101  1.9757 -1.5093
 9555TIP3   OH228605   8.544   1.330   2.634  0.0768  0.2563 -0.2989
 9555TIP3    H128606   8.605   1.371   2.697  0.2671 -0.0520 -0.2795
 9555TIP3    H228607   8.464   1.380   2.643  0.2196  0.4471 -0.0675
 9556TIP3   OH228608   5.672   7.696   4.499  0.0499 -0.2586 -0.0559
 9556TIP3    H128609   5.659   7.603   4.481 -1.3695 -0.4327  1.7230
 9556TIP3    H228610   5.646   7.706   4.591  2.3188  1.4869  0.4298
 9557TIP3   OH228611   4.503   6.656   2.931  0.7799  0.2723 -0.3731
 9557TIP3    H128612   4.471   6.618   3.012  0.4506  1.3098 -0.0101
 9557TIP3    H228613   4.438   6.631   2.865  0.3543  0.5353 -0.0576
 9558TIP3   OH228614   1.146  -0.014   1.731 -0.3071 -0.4750  0.0566
 9558TIP3    H128615   1.168  -0.030   1.823  0.1405 -2.6128 -0.4077
 9558TIP3    H228616   1.209   0.052   1.702 -0.9956  0.8549  1.5054
 9559TIP3   OH228617   4.534   7.421   3.488  0.3343 -0.0640 -0.5250
 9559TIP3    H128618   4.492   7.454   3.408  0.1846 -0.1319 -0.4739
 9559TIP3    H228619   4.622   7.396   3.460 -0.1486 -1.3133 -0.9409
 9560TIP3   OH228620   7.540   0.712   4.283  0.2111  0.0166  0.6757
 9560TIP3    H128621   7.598   0.786   4.301 -1.3788  1.2359  0.8456
 9560TIP3    H228622   7.475   0.715   4.353 -1.4329  0.0724 -0.8240
 9561TIP3   OH228623   4.854   7.375   3.780 -0.7952 -0.3150 -0.3758
 9561TIP3    H128624   4.802   7.319   3.722 -1.4190  1.1562 -1.2685
 9561TIP3    H228625   4.878   7.450   3.725  2.8650 -1.2783 -0.2063
 9562TIP3   OH228626   5.151   8.029   1.954  0.1001  0.0039  0.2001
 9562TIP3    H128627   5.181   8.119   1.944  0.1033  0.0403  0.5134
 9562TIP3    H228628   5.072   8.035   2.007  0.0824 -0.1727  0.1957
 9563TIP3   OH228629   5.490   7.226   4.234 -0.0301  0.4834 -0.2912
 9563TIP3    H128630   5.436   7.225   4.313  0.1231  0.2692 -0.1903
 9563TIP3    H228631   5.488   7.136   4.202  1.8907  0.0212  0.8194
 9564TIP3   OH228632   5.934   6.430   3.175  0.3073  0.2675  0.6867
 9564TIP3    H128633   5.956   6.342   3.207  1.5975  0.1871 -0.3722
 9564TIP3    H228634   5.996   6.487   3.220  0.6401  0.4128  0.0555
 9565TIP3   OH228635   4.488   6.481   4.297  0.3387  0.2306  0.0436
 9565TIP3    H128636   4.574   6.447   4.272  0.4169 -0.8968  1.7372
 9565TIP3    H228637   4.426   6.425   4.249  0.5255  0.1188 -0.0707
 9566TIP3   OH228638   7.070   0.217   2.401 -0.0698  0.5900 -0.3360
 9566TIP3    H128639   7.099   0.265   2.324 -0.4803  0.7212 -0.4093
 9566TIP3    H228640   6.975   0.233   2.405 -0.0879  0.3846  0.0532
 9567TIP3   OH228641   0.722   0.932   5.070  0.3073  0.1731  0.7782
 9567TIP3    H128642   0.629   0.951   5.080  0.1559  0.4558 -1.0723
 9567TIP3    H228643   0.732   0.907   4.978  1.7545 -1.5972  1.3849
 9568TIP3   OH228644   4.653   7.350   3.966 -0.4016  0.4964 -0.3144
 9568TIP3    H128645   4.725   7.360   3.903 -0.5300  1.9886 -0.2602
 9568TIP3    H228646   4.639   7.256   3.972  0.9763  0.2314 -0.9777
 9569TIP3   OH228647   6.023   7.207   4.981 -0.4012  0.1336  0.5335
 9569TIP3    H128648   5.982   7.124   5.006  0.0359 -0.1706  0.2311
 9569TIP3    H228649   6.111   7.202   5.018 -1.2936  1.6631  3.0248
 9570TIP3   OH228650   7.733   0.139   4.373  0.1535 -0.8052 -0.8509
 9570TIP3    H128651   7.647   0.167   4.341  0.6367  0.5803 -0.9962
 9570TIP3    H228652   7.728   0.150   4.467 -0.7261 -3.3468 -0.5564
 9571TIP3   OH228653   2.146   0.951   4.019 -0.1640  0.4768 -0.2201
 9571TIP3    H128654   2.147   0.859   3.992  0.1688  0.0291  1.2587
 9571TIP3    H228655   2.087   0.993   3.956 -1.6589 -1.0736  0.0862
 9572TIP3   OH228656   8.373   0.058   0.267  0.5192  0.8595  0.4293
 9572TIP3    H128657   8.372   0.002   0.344 -0.2096  0.9053  0.4582
 9572TIP3    H228658   8.431   0.130   0.290 -0.1072  1.1479  1.1348
 9573TIP3   OH228659   4.403   6.216   3.688 -0.4869 -0.1371 -0.1942
 9573TIP3    H128660   4.342   6.146   3.713 -1.2632  0.7584  0.4142
 9573TIP3    H228661   4.423   6.261   3.770 -0.3853  0.6851 -0.6748
 9574TIP3   OH228662   6.688   5.985   3.489 -0.4254  0.0963  0.4631
 9574TIP3    H128663   6.676   5.968   3.583 -1.8829  0.6328  0.3997
 9574TIP3    H228664   6.625   5.927   3.446 -1.1611  1.2792 -0.0695
 9575TIP3   OH228665   6.907   2.178   2.974 -0.0088 -0.8777  0.3687
 9575TIP3    H128666   7.000   2.194   2.955 -0.2521 -0.4261 -0.4477
 9575TIP3    H228667   6.890   2.091   2.940 -0.4952  0.0013 -1.7393
 9576TIP3   OH228668   1.757   4.315   6.055 -0.1060 -0.3787 -0.0832
 9576TIP3    H128669   1.814   4.338   5.981 -0.3542  0.4336 -0.0210
 9576TIP3    H228670   1.812   4.329   6.132  0.2293 -1.4508 -0.1154
 9577TIP3   OH228671   8.048   0.277   4.574  0.1881  0.0488  0.2630
 9577TIP3    H128672   8.069   0.329   4.497 -0.8236 -1.8821 -1.3672
 9577TIP3    H228673   8.129   0.276   4.625  1.0194  0.9610 -0.9995
 9578TIP3   OH228674   0.914   0.795   5.291  0.4082 -0.1189 -0.1318
 9578TIP3    H128675   0.998   0.771   5.252  1.5189  2.3358  0.6519
 9578TIP3    H228676   0.863   0.831   5.218  0.8975  0.5173 -0.1595
 9579TIP3   OH228677   0.277   0.797   5.031 -0.5519 -0.5021 -0.9750
 9579TIP3    H128678   0.314   0.886   5.034 -0.4265 -0.5857  0.0437
 9579TIP3    H228679   0.352   0.740   5.046 -0.8166 -0.7468 -0.6056
 9580TIP3   OH228680   0.745   1.311   3.448 -0.2484  0.1883  0.3740
 9580TIP3    H128681   0.754   1.268   3.533  0.8640  0.4959  0.4225
 9580TIP3    H228682   0.832   1.345   3.429 -1.2132  2.8696  0.5653
 9581TIP3   OH228683   8.449   0.125   3.762  0.0049  0.4320 -0.6447
 9581TIP3    H128684   8.479   0.216   3.749  2.8661 -0.4481 -0.6511
 9581TIP3    H228685   8.429   0.119   3.855 -0.3524  1.1239 -0.6747
 9582TIP3   OH228686   0.739   0.763   2.816  0.5453  0.0591  0.0962
 9582TIP3    H128687   0.651   0.774   2.853  1.3014  0.4853  1.8102
 9582TIP3    H228688   0.763   0.673   2.839  0.9834  0.3000  0.6041
 9583TIP3   OH228689   8.029   0.630   2.891  0.3795 -0.4156  0.3836
 9583TIP3    H128690   7.951   0.654   2.942 -0.0101  1.8703 -1.2178
 9583TIP3    H228691   8.010   0.663   2.802  3.3858  0.6594  0.0994
 9584TIP3   OH228692   7.599   2.607   3.766 -0.3084  0.2548 -0.6094
 9584TIP3    H128693   7.599   2.701   3.783 -1.3222  0.1852 -0.1672
 9584TIP3    H228694   7.528   2.573   3.821 -0.1803 -0.7169 -1.0344
 9585TIP3   OH228695   8.232   0.940   2.677  0.5437  0.1301 -0.2849
 9585TIP3    H128696   8.286   0.920   2.754 -1.2392  1.7138  1.4417
 9585TIP3    H228697   8.290   0.989   2.619  0.6053  3.3751  2.3249
 9586TIP3   OH228698   5.831   6.847   4.280 -0.4238 -0.6701  0.1655
 9586TIP3    H128699   5.764   6.861   4.213  0.5863  0.8174 -0.5521
 9586TIP3    H228700   5.907   6.815   4.232 -0.3858 -1.7082  0.8943
 9587TIP3   OH228701   7.763   0.515   4.324 -0.1745  0.2441 -0.3128
 9587TIP3    H128702   7.723   0.599   4.348 -0.3476  1.1074 -3.4175
 9587TIP3    H228703   7.692   0.452   4.330 -0.0706  0.3050  1.9276
 9588TIP3   OH228704   6.125   7.019   4.017 -0.2594  0.1635  0.2174
 9588TIP3    H128705   6.114   6.956   4.088  0.6056 -0.7305 -0.4300
 9588TIP3    H228706   6.199   7.073   4.044  0.0378 -0.1442  0.0167
 9589TIP3   OH228707   7.206   7.311   2.459 -0.3536  0.5440  0.1677
 9589TIP3    H128708   7.240   7.388   2.503 -1.8829  2.4035 -1.7830
 9589TIP3    H228709   7.114   7.306   2.487  0.0303 -1.3016  1.2174
 9590TIP3   OH228710   7.067   8.066   3.952  0.0344 -0.2178  0.9950
 9590TIP3    H128711   7.139   8.047   3.892  0.0825  0.4805  0.8331
 9590TIP3    H228712   7.014   8.130   3.906 -0.3842 -0.3078  1.3541
 9591TIP3   OH228713   0.552   1.508   3.506  0.0205  0.1275 -0.4342
 9591TIP3    H128714   0.489   1.480   3.572 -0.9229 -1.5224 -2.0012
 9591TIP3    H228715   0.596   1.427   3.479  2.6826  1.2111  0.4631
 9592TIP3   OH228716   1.816   2.161   4.220  0.7291 -0.3872 -0.2669
 9592TIP3    H128717   1.778   2.074   4.231 -1.3299  0.6173  0.9048
 9592TIP3    H228718   1.909   2.149   4.236  0.3068 -2.2054  0.9747
 9593TIP3   OH228719   8.217   0.099   2.238  0.1052 -0.2224 -0.5384
 9593TIP3    H128720   8.129   0.134   2.258 -0.1540 -0.8211 -0.6206
 9593TIP3    H228721   8.254   0.078   2.324 -0.3978 -1.3282 -0.5898
 9594TIP3   OH228722   6.849   7.857   2.685  0.7697 -0.5211  0.0313
 9594TIP3    H128723   6.790   7.789   2.653  0.6363 -1.0462  1.3441
 9594TIP3    H228724   6.850   7.845   2.780  2.4801 -0.0918  0.0764
 9595TIP3   OH228725   8.375   1.778   2.039 -0.3777 -0.4272 -0.1464
 9595TIP3    H128726   8.315   1.705   2.025 -1.0525  0.2557 -0.8597
 9595TIP3    H228727   8.329   1.854   2.004  1.0480  0.0426 -1.0794
 9596TIP3   OH228728   5.019   7.928   3.430 -0.2157 -0.3791 -0.4900
 9596TIP3    H128729   4.973   7.964   3.506  0.3422  3.2097 -1.7420
 9596TIP3    H228730   5.066   7.852   3.464 -0.6980  0.6112  2.5502
 9597TIP3   OH228731   5.622   6.717   1.159 -0.3489 -0.0558 -0.2558
 9597TIP3    H128732   5.576   6.793   1.123  1.4018  0.6801 -1.0073
 9597TIP3    H228733   5.585   6.706   1.247  0.5036  2.7314  0.5165
 9598TIP3   OH228734   2.735   7.504   3.185  0.4329 -0.6600 -0.5583
 9598TIP3    H128735   2.825   7.534   3.197  0.8347 -1.8463 -0.5747
 9598TIP3    H228736   2.743   7.413   3.156 -0.7502 -0.5437 -1.3139
 9599TIP3   OH228737   1.690   0.368   3.682  0.3487  0.1864 -0.5002
 9599TIP3    H128738   1.737   0.355   3.600  0.3676  1.2270 -0.6573
 9599TIP3    H228739   1.756   0.404   3.741 -0.2589  1.6615 -0.7234
 9600TIP3   OH228740   8.548   0.161   1.741  0.3038 -0.3293  0.2292
 9600TIP3    H128741   8.580   0.236   1.792  0.8051 -0.3657 -0.0373
 9600TIP3    H228742   8.600   0.087   1.772  0.6344 -0.3472 -0.3578
 9601TIP3   OH228743   7.504   0.659   2.889  0.1862 -0.5631  0.8470
 9601TIP3    H128744   7.560   0.626   2.959  0.6011 -0.0062  0.7833
 9601TIP3    H228745   7.548   0.738   2.858 -0.1525 -0.6363  0.1632
 9602TIP3   OH228746   7.896   1.336   2.599 -0.4117 -0.1051 -0.3395
 9602TIP3    H128747   7.982   1.324   2.639 -1.0895  0.0132  1.1946
 9602TIP3    H228748   7.882   1.431   2.601 -2.0828 -0.3784  2.6959
 9603TIP3   OH228749   7.462   7.780   4.381  0.8195  0.0452 -0.6897
 9603TIP3    H128750   7.440   7.690   4.402  1.5620 -0.4656 -2.0534
 9603TIP3    H228751   7.441   7.829   4.461 -0.1240 -1.2299 -0.1352
 9604TIP3   OH228752   0.197   0.091   3.127  0.5642  0.1371 -0.0663
 9604TIP3    H128753   0.154   0.124   3.206  1.6720  0.5451  0.3799
 9604TIP3    H228754   0.185   0.161   3.062  0.5720  0.2598  0.0637
 9605TIP3   OH228755   3.812   7.192   4.386 -0.7157  0.0784  0.1012
 9605TIP3    H128756   3.848   7.117   4.434 -0.0292  0.6414  0.4779
 9605TIP3    H228757   3.802   7.161   4.296  1.8333  0.2425 -0.2840
 9606TIP3   OH228758   7.078   7.559   5.453  0.1507 -0.3306 -0.1277
 9606TIP3    H128759   7.077   7.491   5.386 -1.0846 -1.0057  0.5446
 9606TIP3    H228760   6.990   7.596   5.451  0.3708  0.2441  0.5167
 9607TIP3   OH228761   6.295   7.614   5.048  0.0154 -0.3586  0.6140
 9607TIP3    H128762   6.365   7.582   5.104 -0.3156 -0.3648  1.0218
 9607TIP3    H228763   6.219   7.563   5.073 -0.5969  0.9625  1.4925
 9608TIP3   OH228764   6.395   0.341   1.658  0.3127  0.3174 -0.2371
 9608TIP3    H128765   6.413   0.376   1.745  0.6332  0.4769 -0.3672
 9608TIP3    H228766   6.444   0.398   1.598 -2.8069  2.5079 -0.8556
 9609TIP3   OH228767   7.077   7.450   2.800  0.2879  0.6496  0.3949
 9609TIP3    H128768   7.066   7.492   2.885 -0.4594  0.9515  0.1568
 9609TIP3    H228769   6.988   7.425   2.774  0.4873  0.7198 -0.3726
 9610TIP3   OH228770   7.171   8.097   1.506  0.8820  0.3313  0.2619
 9610TIP3    H128771   7.115   8.148   1.564  1.0129  0.3747  0.3495
 9610TIP3    H228772   7.238   8.060   1.563  0.1845 -0.7972  0.3792
 9611TIP3   OH228773   1.164   0.520   3.065  0.4489 -0.0045 -0.3349
 9611TIP3    H128774   1.254   0.504   3.094  0.7997  1.2236 -0.7076
 9611TIP3    H228775   1.142   0.605   3.102 -1.3133 -1.2338  1.4972
 9612TIP3   OH228776   6.018   6.807   4.493  0.5564 -0.1669  0.0515
 9612TIP3    H128777   5.987   6.775   4.408 -1.9831  2.7557 -0.2080
 9612TIP3    H228778   6.088   6.870   4.471 -0.3511  0.8628  0.0837
 9613TIP3   OH228779   1.667   2.621   2.999 -0.2523  0.6413 -0.3354
 9613TIP3    H128780   1.585   2.668   2.981 -1.4650 -0.6956  1.4963
 9613TIP3    H228781   1.736   2.683   2.976 -1.7716  1.9172 -1.5985
 9614TIP3   OH228782   6.668   2.928   3.839  0.5448 -0.3366  0.0556
 9614TIP3    H128783   6.656   2.838   3.870  1.5658 -0.2207  0.8392
 9614TIP3    H228784   6.687   2.919   3.746 -0.2914 -0.8693 -0.0645
 9615TIP3   OH228785   0.238   1.339   3.505 -0.2634  0.6076 -0.1104
 9615TIP3    H128786   0.284   1.365   3.585  0.8084 -0.3174 -0.4213
 9615TIP3    H228787   0.197   1.255   3.526  0.0186  0.3615 -0.5261
 9616TIP3   OH228788   4.789   7.622   3.003 -0.1250  0.2827 -0.2986
 9616TIP3    H128789   4.867   7.646   2.954 -0.4000 -1.3756 -1.5718
 9616TIP3    H228790   4.730   7.697   2.991  1.0117  1.2743  0.1781
 9617TIP3   OH228791   8.467   0.303   3.142 -0.0587  0.5524 -0.4044
 9617TIP3    H128792   8.385   0.281   3.098  0.3299  0.4813 -1.1082
 9617TIP3    H228793   8.484   0.230   3.201 -1.8328  1.7687  1.6662
 9618TIP3   OH228794   7.036   0.498   4.038  0.4763 -0.5611 -0.0511
 9618TIP3    H128795   7.110   0.437   4.031  1.2222  0.2029  1.0380
 9618TIP3    H228796   7.014   0.496   4.131  1.7506  2.2961  0.3435
 9619TIP3   OH228797   3.566   7.131   3.372  0.7309  0.2025  1.1436
 9619TIP3    H128798   3.487   7.137   3.319  0.2776  1.5178  1.9489
 9619TIP3    H228799   3.611   7.053   3.339 -0.0541  0.3957 -0.4628
 9620TIP3   OH228800   6.520   2.891   2.878  0.0847  0.0424  0.0300
 9620TIP3    H128801   6.517   2.845   2.794 -1.2066  0.9213 -0.4152
 9620TIP3    H228802   6.454   2.848   2.931 -1.2093  1.4326 -0.4272
 9621TIP3   OH228803   8.298   1.508   3.899 -0.2063  0.1710  0.6019
 9621TIP3    H128804   8.258   1.586   3.859  1.0911  1.2707  1.3852
 9621TIP3    H228805   8.325   1.538   3.986  1.2175 -0.8850  0.5289
 9622TIP3   OH228806   6.204   1.366   3.279 -0.3466  0.3040 -0.1337
 9622TIP3    H128807   6.118   1.375   3.320 -0.7690  1.0984 -1.1846
 9622TIP3    H228808   6.195   1.292   3.220 -0.3147  0.4035 -0.2633
 9623TIP3   OH228809   6.234   6.985   4.454  0.6819 -0.3483 -0.0487
 9623TIP3    H128810   6.327   7.007   4.463  0.6028  0.0656 -0.2361
 9623TIP3    H228811   6.191   7.069   4.437 -0.1449 -0.0619  3.1867
 9624TIP3   OH228812   5.295   7.174   0.069  0.1915  0.1762  0.4388
 9624TIP3    H128813   5.358   7.105   0.052 -0.3709 -0.4262  0.7746
 9624TIP3    H228814   5.281   7.171   0.164 -1.4419 -0.6841  0.2055
 9625TIP3   OH228815   5.842   8.081   1.908  0.2521  0.3184 -0.3447
 9625TIP3    H128816   5.915   8.110   1.854  1.0397  0.3246  0.7282
 9625TIP3    H228817   5.882   8.039   1.983 -0.8416 -2.8222 -1.4252
 9626TIP3   OH228818   1.430   0.439   5.003 -0.3123  0.3529  0.0405
 9626TIP3    H128819   1.395   0.376   4.940 -1.4710  0.5107  0.5131
 9626TIP3    H228820   1.385   0.521   4.982  0.4960  0.7956  0.0276
 9627TIP3   OH228821   0.390   1.199   3.043 -0.1168  0.2149 -0.2505
 9627TIP3    H128822   0.403   1.224   3.135 -0.5592 -3.2880  0.8621
 9627TIP3    H228823   0.464   1.238   2.997  1.0461  0.6426  1.8877
 9628TIP3   OH228824   3.426   5.479   0.487 -0.2590  0.1577 -0.2745
 9628TIP3    H128825   3.478   5.474   0.407 -1.3838  1.8520 -1.1620
 9628TIP3    H228826   3.432   5.392   0.526  1.9886 -0.0951 -1.1160
 9629TIP3   OH228827   0.699   1.493   4.023  0.0237 -0.3320  0.3636
 9629TIP3    H128828   0.625   1.532   4.069 -1.4262  1.1054 -3.0290
 9629TIP3    H228829   0.776   1.531   4.064 -1.2687  2.2134  0.4894
 9630TIP3   OH228830   8.415   7.988   3.649  0.0991 -0.1091 -0.1811
 9630TIP3    H128831   8.334   8.029   3.678  0.5033 -0.0445  0.8938
 9630TIP3    H228832   8.454   7.953   3.729  1.6732  0.8570 -0.4945
 9631TIP3   OH228833   5.584   6.349   2.058 -0.4118 -0.9402  0.5606
 9631TIP3    H128834   5.505   6.340   2.111 -0.5510 -1.0215  0.3413
 9631TIP3    H228835   5.654   6.310   2.111 -0.3134  0.1335  1.2192
 9632TIP3   OH228836   6.496   1.365   4.439  0.3754  0.2726  0.2007
 9632TIP3    H128837   6.445   1.394   4.514  0.3359 -0.8386  0.6109
 9632TIP3    H228838   6.515   1.445   4.390 -2.8799  0.5923 -0.6897
 9633TIP3   OH228839   6.441   7.123   5.076  0.4206 -0.2076 -0.7508
 9633TIP3    H128840   6.387   7.079   5.011  0.7690  0.9280 -1.8113
 9633TIP3    H228841   6.510   7.059   5.096 -0.2037 -0.9073 -0.8063
 9634TIP3   OH228842   7.407   7.882   4.639  0.4307  0.0146 -0.5646
 9634TIP3    H128843   7.472   7.948   4.664  0.6060 -0.4933  0.3527
 9634TIP3    H228844   7.332   7.899   4.696 -0.0747  0.3220 -1.3159
 9635TIP3   OH228845   8.079   1.930   4.083  0.6062  0.4969 -0.4598
 9635TIP3    H128846   8.050   1.910   3.994  0.9485 -0.1091 -0.4419
 9635TIP3    H228847   8.123   1.850   4.112 -2.1329 -0.3853  1.3777
 9636TIP3   OH228848   5.043   7.604   2.829 -0.0639 -0.1952 -0.0190
 9636TIP3    H128849   5.021   7.686   2.872 -0.0548 -0.5294  0.6345
 9636TIP3    H228850   5.037   7.623   2.735  0.8358  0.8024  0.1122
 9637TIP3   OH228851   6.232   7.967   4.034 -0.2810 -0.7281  0.0093
 9637TIP3    H128852   6.234   8.041   3.974  3.8783 -0.3876  0.4287
 9637TIP3    H228853   6.189   8.001   4.113 -0.5995  0.4948 -0.6779
 9638TIP3   OH228854   6.003   0.894   2.266  0.2232  0.1548  0.5311
 9638TIP3    H128855   5.938   0.942   2.318  0.8457 -0.0902  1.5613
 9638TIP3    H228856   5.962   0.810   2.248  0.3243 -0.0803  1.3644
 9639TIP3   OH228857   8.487   0.815   4.033 -0.0706  0.1615 -0.1337
 9639TIP3    H128858   8.562   0.762   4.007 -1.2216 -0.7018 -1.7713
 9639TIP3    H228859   8.415   0.753   4.042 -0.6544  1.0119  1.1466
 9640TIP3   OH228860   8.295   1.722   4.388 -0.0780 -0.2320 -0.0826
 9640TIP3    H128861   8.292   1.686   4.299 -0.8206 -0.1143 -0.1085
 9640TIP3    H228862   8.303   1.644   4.444  2.5764 -0.2014 -0.3420
 9641TIP3   OH228863   1.612   1.639   2.758 -0.5997  0.6319 -0.4110
 9641TIP3    H128864   1.630   1.545   2.764  1.4137  1.0666  0.5385
 9641TIP3    H228865   1.529   1.650   2.804 -0.6689 -0.6130 -0.2102
 9642TIP3   OH228866   5.638   7.830   2.655  0.0246 -0.0873  0.0779
 9642TIP3    H128867   5.721   7.873   2.637  0.1682 -0.3324  0.1443
 9642TIP3    H228868   5.590   7.891   2.712 -0.2634  0.5023 -0.7903
 9643TIP3   OH228869   6.277   7.428   3.211 -0.2215  0.1250  0.6065
 9643TIP3    H128870   6.191   7.387   3.216 -0.3879  0.4027  0.0825
 9643TIP3    H228871   6.328   7.385   3.279 -0.5316 -0.6322  0.3685
 9644TIP3   OH228872   5.289   7.385   3.711 -0.6284  0.0187  0.1353
 9644TIP3    H128873   5.225   7.447   3.745 -1.9979 -0.5864 -1.2574
 9644TIP3    H228874   5.257   7.299   3.740 -0.5206 -0.2955 -0.6475
 9645TIP3   OH228875   5.043   7.740   3.208 -0.0353  0.3970 -0.1184
 9645TIP3    H128876   5.137   7.746   3.190 -0.2162  3.2491 -0.3277
 9645TIP3    H228877   5.026   7.810   3.272 -1.6855 -1.3720  1.4551
 9646TIP3   OH228878   4.676   7.616   4.380 -0.0830  0.0938 -0.3709
 9646TIP3    H128879   4.771   7.625   4.388 -0.0413  0.1031 -0.8725
 9646TIP3    H228880   4.646   7.702   4.352 -0.2110  0.0210 -0.4594
 9647TIP3   OH228881   6.081   7.464   2.935 -0.3611 -0.1439 -0.0143
 9647TIP3    H128882   6.157   7.455   2.992  1.1672  0.0368 -1.9914
 9647TIP3    H228883   6.006   7.468   2.996  1.2891  1.0627  1.9983
 9648TIP3   OH228884   0.198   0.141   4.475  0.6589  0.2510 -0.1019
 9648TIP3    H128885   0.200   0.236   4.485 -0.6682  0.3794 -0.9726
 9648TIP3    H228886   0.221   0.107   4.561 -0.7769  1.3644  0.7360
 9649TIP3   OH228887   8.337   0.516   3.821 -0.0387 -0.1565  0.3999
 9649TIP3    H128888   8.307   0.504   3.730  0.9784  2.8980 -0.3909
 9649TIP3    H228889   8.427   0.484   3.820 -0.1262 -0.4097  0.4217
 9650TIP3   OH228890   0.471   0.981   3.467 -0.6773  0.1058 -0.0962
 9650TIP3    H128891   0.416   0.907   3.443 -0.5064  0.3549 -1.3118
 9650TIP3    H228892   0.561   0.949   3.455 -0.5950  0.3718 -0.2011
 9651TIP3   OH228893   7.953   0.037   3.183 -0.2061  0.0021 -0.2641
 9651TIP3    H128894   7.974  -0.042   3.232 -0.6784  0.8421  1.3374
 9651TIP3    H228895   7.883   0.010   3.124 -2.8608 -0.0142  2.7235
 9652TIP3   OH228896   0.937   0.934   3.083 -0.7805 -0.1521  0.4461
 9652TIP3    H128897   0.864   0.909   3.140 -0.1295 -1.5540  0.6683
 9652TIP3    H228898   0.899   0.934   2.995 -0.9013 -1.4504  0.4982
 9653TIP3   OH228899   0.300   2.302   5.321  0.0608 -0.1523 -0.3234
 9653TIP3    H128900   0.230   2.237   5.310 -1.6088  1.4945  0.4075
 9653TIP3    H228901   0.287   2.365   5.250 -1.3034  2.0126  1.7820
 9654TIP3   OH228902   7.399   7.316   1.972  0.3429  0.4661 -0.1536
 9654TIP3    H128903   7.474   7.353   1.925  0.4536 -0.2474 -0.5414
 9654TIP3    H228904   7.391   7.227   1.938  0.1036  0.1157  0.8127
 9655TIP3   OH228905   5.227   7.557   2.599 -0.1871 -0.0586  0.3198
 9655TIP3    H128906   5.162   7.488   2.586 -1.1356  0.8357  0.2317
 9655TIP3    H228907   5.269   7.534   2.682 -2.1210  0.4973  1.5012
 9656TIP3   OH228908   4.974   5.719   3.075  0.3824 -0.1422  0.0208
 9656TIP3    H128909   5.043   5.714   3.141 -0.3945  3.2538  1.2196
 9656TIP3    H228910   4.949   5.811   3.075 -3.0531 -1.0113 -1.5186
 9657TIP3   OH228911   4.756   7.015   4.605  0.1724  0.0454 -0.4021
 9657TIP3    H128912   4.719   7.064   4.532 -3.4936  0.3680  1.5582
 9657TIP3    H228913   4.723   6.926   4.594 -1.0008  0.2494  1.1548
 9658TIP3   OH228914   5.303   6.176   3.919 -0.2713 -0.0996  0.3720
 9658TIP3    H128915   5.325   6.218   4.002 -1.3292  0.1872  0.5132
 9658TIP3    H228916   5.295   6.248   3.856  0.4648 -0.3118  0.0237
 9659TIP3   OH228917   5.579   8.011   3.578 -0.6614 -0.7658  0.1854
 9659TIP3    H128918   5.541   8.040   3.496  0.9513 -0.9623 -0.6505
 9659TIP3    H228919   5.574   8.087   3.636 -1.0749 -0.3850 -0.3509
 9660TIP3   OH228920   6.649   7.969   1.627  0.4785 -0.1970  0.1966
 9660TIP3    H128921   6.571   7.950   1.679  1.0389 -0.5896  0.8995
 9660TIP3    H228922   6.694   8.037   1.676  0.1975  0.5605 -0.5951
 9661TIP3   OH228923   5.361   1.474   2.889 -0.0728 -0.2987 -0.8137
 9661TIP3    H128924   5.393   1.483   2.799 -0.9762 -0.3997 -1.1491
 9661TIP3    H228925   5.272   1.440   2.880  0.1738 -1.2507  0.1490
 9662TIP3   OH228926   7.363   1.334   4.391 -0.5771  0.4043 -0.3685
 9662TIP3    H128927   7.373   1.362   4.482 -0.2536  0.1737 -0.3336
 9662TIP3    H228928   7.445   1.290   4.370 -0.7567  0.2219 -0.6895
 9663TIP3   OH228929   5.721   7.207   4.839 -0.3063 -0.0702 -0.1688
 9663TIP3    H128930   5.638   7.244   4.871 -0.1984 -0.6253  0.7777
 9663TIP3    H228931   5.763   7.172   4.918  2.4242  3.1987 -0.0620
 9664TIP3   OH228932   3.647   6.334   4.418  0.4031 -0.2971  0.7276
 9664TIP3    H128933   3.621   6.425   4.426 -1.3641 -0.7902  0.8274
 9664TIP3    H228934   3.654   6.302   4.508  1.0304 -0.2588  0.6938
 9665TIP3   OH228935   0.244   0.394   4.573  0.3196 -0.0642 -0.1335
 9665TIP3    H128936   0.314   0.457   4.557 -0.1461  0.0964 -1.5631
 9665TIP3    H228937   0.256   0.368   4.664 -2.5342  6.0403  2.3135
 9666TIP3   OH228938   1.693   0.692   4.285 -0.1562 -0.4290 -0.0325
 9666TIP3    H128939   1.614   0.660   4.330 -0.7831  0.3631 -0.5459
 9666TIP3    H228940   1.693   0.645   4.201  0.2366 -0.8507  0.2001
 9667TIP3   OH228941   3.990   7.989   3.009  0.7750 -0.5353  0.0120
 9667TIP3    H128942   3.941   7.970   2.929  1.2790  0.1696 -0.4645
 9667TIP3    H228943   4.082   7.982   2.983  0.9408  0.0828  0.4340
 9668TIP3   OH228944   6.539   7.498   3.617 -0.5959  0.0189 -0.9573
 9668TIP3    H128945   6.548   7.429   3.683 -2.7839  0.4871 -0.1493
 9668TIP3    H228946   6.498   7.454   3.542 -1.4975  0.3038 -0.6386
 9669TIP3   OH228947   6.440   7.302   3.435 -0.3678  0.0153 -0.2919
 9669TIP3    H128948   6.474   7.225   3.390  0.0776  0.3143 -0.4704
 9669TIP3    H228949   6.393   7.267   3.511 -1.6801 -0.5277 -1.3430
 9670TIP3   OH228950   6.544   0.355   3.201 -0.1642 -0.2972 -0.1358
 9670TIP3    H128951   6.563   0.288   3.267  0.7573 -0.5811 -0.6781
 9670TIP3    H228952   6.603   0.428   3.223 -0.6055  0.0296 -0.0193
 9671TIP3   OH228953   7.837   6.233   4.350 -0.3761  0.9684 -0.7323
 9671TIP3    H128954   7.895   6.231   4.275  0.2467  1.1881 -0.2603
 9671TIP3    H228955   7.793   6.318   4.345  0.6762  1.5586 -0.0930
 9672TIP3   OH228956   3.552   7.103   4.373 -0.4998 -0.2815  0.2697
 9672TIP3    H128957   3.641   7.136   4.363  0.3882 -2.4905  0.4645
 9672TIP3    H228958   3.501   7.148   4.306  1.0983 -0.1410 -0.8703
 9673TIP3   OH228959   7.980   3.150   3.087  0.2707  0.4064  0.7586
 9673TIP3    H128960   7.953   3.170   3.177  1.0816  0.1068  1.0728
 9673TIP3    H228961   8.064   3.105   3.096  2.7068  4.4502 -0.3523
 9674TIP3   OH228962   2.950   7.818   3.314 -0.4656  0.1617 -0.3040
 9674TIP3    H128963   2.959   7.813   3.410 -0.4831 -0.2725 -0.3271
 9674TIP3    H228964   2.859   7.845   3.301  0.0045  1.8870 -0.1530
 9675TIP3   OH228965   3.649   5.929   3.947  0.0213 -0.0487  0.1067
 9675TIP3    H128966   3.570   5.887   3.912  0.8204 -0.8384 -0.7916
 9675TIP3    H228967   3.645   6.019   3.916  0.0756 -0.4087 -0.9628
 9676TIP3   OH228968   6.470   6.636   4.617 -0.1474 -0.5422 -0.2359
 9676TIP3    H128969   6.406   6.693   4.575  2.0838  0.3222 -2.6365
 9676TIP3    H228970   6.439   6.548   4.600 -1.6180 -0.1161  0.1772
 9677TIP3   OH228971   8.364   1.312   3.158  0.5074  0.4038 -0.2073
 9677TIP3    H128972   8.347   1.326   3.251 -0.0957  0.2364 -0.2911
 9677TIP3    H228973   8.330   1.390   3.115 -0.0316  0.0835 -0.3707
 9678TIP3   OH228974   0.766   0.422   1.058  0.5284 -0.1720  0.1899
 9678TIP3    H128975   0.851   0.443   1.021  0.7345 -1.1132  0.1370
 9678TIP3    H228976   0.774   0.332   1.089  0.2254  0.4288  2.1197
 9679TIP3   OH228977   7.909   1.061   4.888  0.1096 -0.5160  0.2001
 9679TIP3    H128978   7.826   1.109   4.880 -0.6023 -1.7378  0.0374
 9679TIP3    H228979   7.931   1.036   4.798  1.7722  1.6076 -0.0154
 9680TIP3   OH228980   0.834   0.165   1.134  0.0323 -0.1513 -0.2236
 9680TIP3    H128981   0.914   0.113   1.143 -0.6879 -1.2217  0.0443
 9680TIP3    H228982   0.790   0.157   1.218 -2.2731 -2.7644 -1.6187
 9681TIP3   OH228983   7.059   7.474   2.037 -1.1599 -0.0399 -0.3220
 9681TIP3    H128984   7.150   7.499   2.055 -0.7478 -1.5181 -0.2880
 9681TIP3    H228985   7.014   7.557   2.022 -0.2110  0.8311  1.5155
 9682TIP3   OH228986   7.707   1.510   4.877 -0.2521 -0.0701 -0.0203
 9682TIP3    H128987   7.711   1.415   4.875 -1.6370 -0.1890  1.4577
 9682TIP3    H228988   7.715   1.533   4.970 -0.6455  1.1981 -0.2823
 9683TIP3   OH228989   8.207   0.518   3.039 -0.3633  0.0385  0.0636
 9683TIP3    H128990   8.148   0.453   3.074 -0.2212 -0.9260 -1.4256
 9683TIP3    H228991   8.153   0.570   2.979  0.4617 -1.4854 -2.0796
 9684TIP3   OH228992   2.201   0.192   1.908  0.0392 -0.4432 -0.0423
 9684TIP3    H128993   2.160   0.279   1.918 -0.0765 -0.5334  0.2856
 9684TIP3    H228994   2.133   0.131   1.935 -0.4591 -0.7325 -1.9360
 9685TIP3   OH228995   7.274   2.127   2.603  0.4463  0.1518 -0.1184
 9685TIP3    H128996   7.294   2.221   2.608  0.8136  0.1216 -0.9363
 9685TIP3    H228997   7.293   2.094   2.691  1.0431  0.7005 -0.0318
 9686TIP3   OH228998   1.772   0.699   0.097  0.8092  0.1321 -0.1420
 9686TIP3    H128999   1.792   0.664   0.184  1.2059  1.6773  0.4094
 9686TIP3    H229000   1.720   0.778   0.115 -0.1645 -0.2154 -1.3541
 9687TIP3   OH229001   5.042   7.097   1.932  0.2078 -0.1195 -0.3523
 9687TIP3    H129002   4.988   7.140   1.998 -0.4118 -2.4076  0.6679
 9687TIP3    H229003   5.121   7.151   1.928 -0.8567  1.5305  0.3397
 9688TIP3   OH229004   1.250   1.096   5.454  0.1722  0.3619  0.3562
 9688TIP3    H129005   1.286   1.087   5.542  0.9855 -1.1360 -0.1039
 9688TIP3    H229006   1.160   1.066   5.460  0.2848  0.0887  0.6400
 9689TIP3   OH229007   7.054   6.944   2.202  0.3007  1.1570 -0.1426
 9689TIP3    H129008   7.076   7.037   2.212  0.0972  1.0126  1.8358
 9689TIP3    H229009   7.035   6.914   2.291  0.1151 -0.7273 -0.7944
 9690TIP3   OH229010   0.892   0.113   3.025  0.3520 -0.1897  0.1023
 9690TIP3    H129011   0.925   0.069   3.103  1.1528  0.7413  0.2979
 9690TIP3    H229012   0.960   0.176   3.002  0.1238 -0.4444 -1.3452
 9691TIP3   OH229013   0.695   2.012   6.977 -0.1755  0.1437 -0.2547
 9691TIP3    H129014   0.608   2.011   7.017 -0.1230 -0.0650 -0.1479
 9691TIP3    H229015   0.708   1.922   6.947 -0.6002  0.5065 -1.5604
 9692TIP3   OH229016   1.532   0.220   2.827  0.3995  0.1421 -0.0329
 9692TIP3    H129017   1.471   0.249   2.896  0.0971  1.2506 -0.7511
 9692TIP3    H229018   1.476   0.186   2.758  0.7368 -1.6010  0.5404
 9693TIP3   OH229019   3.984   2.617   5.778 -0.6453 -0.1510  0.1488
 9693TIP3    H129020   3.953   2.640   5.865 -0.0560  0.6077  0.1701
 9693TIP3    H229021   4.044   2.544   5.792 -1.0261 -0.4348  0.3066
 9694TIP3   OH229022   0.525   0.390   3.253  0.1348 -0.0692 -0.1301
 9694TIP3    H129023   0.545   0.451   3.183  1.0674 -0.7596 -0.4757
 9694TIP3    H229024   0.600   0.331   3.256 -0.5051 -0.8685  0.5530
 9695TIP3   OH229025   1.804   1.469   1.965  0.0317  0.0177  0.0225
 9695TIP3    H129026   1.742   1.543   1.969 -0.6533 -0.5730  0.3816
 9695TIP3    H229027   1.818   1.444   2.056  0.1262 -0.4155 -0.1103
 9696TIP3   OH229028   5.809   7.718   3.381  0.2282 -0.1134 -0.4289
 9696TIP3    H129029   5.818   7.657   3.308  2.6417  0.5796 -0.7521
 9696TIP3    H229030   5.816   7.804   3.341  0.1472  0.2985  0.4380
 9697TIP3   OH229031   7.754   6.309   2.207  0.4314 -0.1793  0.5720
 9697TIP3    H129032   7.746   6.217   2.181  1.7738  0.5528 -2.6867
 9697TIP3    H229033   7.672   6.349   2.179  1.0124  0.1720 -0.6736
 9698TIP3   OH229034   6.353   6.107   4.491  0.4478 -0.0911  0.0484
 9698TIP3    H129035   6.347   6.196   4.456  1.8742  0.2172  0.5729
 9698TIP3    H229036   6.274   6.063   4.458 -1.4158  1.9860  1.5684
 9699TIP3   OH229037   0.263   0.383   0.989 -0.2031 -0.1725  0.5052
 9699TIP3    H129038   0.240   0.326   1.063 -1.6938  0.3134  0.4307
 9699TIP3    H229039   0.353   0.411   1.008  0.5427 -2.4874  0.5695
 9700TIP3   OH229040   7.728   7.756   2.637  0.1700  0.3246 -0.5455
 9700TIP3    H129041   7.750   7.849   2.630 -0.1632  0.2770 -2.6166
 9700TIP3    H229042   7.810   7.714   2.661  0.5142  1.0561 -0.4169
 9701TIP3   OH229043   1.415   0.389   3.028 -0.2973  0.5804  0.2077
 9701TIP3    H129044   1.489   0.447   3.043 -0.5120  0.3495  2.3699
 9701TIP3    H229045   1.397   0.395   2.934  2.5786  0.4729 -0.3742
 9702TIP3   OH229046   6.672   7.365   1.303 -1.0564 -0.2875 -0.5481
 9702TIP3    H129047   6.739   7.420   1.265  0.2388 -0.5648  1.2394
 9702TIP3    H229048   6.590   7.411   1.286 -0.0238  2.2078  0.8485
 9703TIP3   OH229049   5.419   7.571   2.400 -0.0516 -0.0197  0.1311
 9703TIP3    H129050   5.385   7.495   2.353 -0.4409 -0.0314  0.4297
 9703TIP3    H229051   5.347   7.598   2.457 -0.3929  1.3871 -0.9249
 9704TIP3   OH229052   7.386   0.028   2.744 -0.2725  0.2353  0.0904
 9704TIP3    H129053   7.356   0.045   2.655 -3.1443  1.7075  1.2788
 9704TIP3    H229054   7.406   0.114   2.780  1.2267 -0.3810  0.8006
 9705TIP3   OH229055   0.630   0.178   2.923  0.2612  0.3675  0.8274
 9705TIP3    H129056   0.717   0.182   2.964 -0.4856  2.1533  2.2942
 9705TIP3    H229057   0.593   0.265   2.937 -1.4832 -0.1552 -0.4374
 9706TIP3   OH229058   7.438   0.750   3.572 -0.7249  0.4194 -0.1968
 9706TIP3    H129059   7.488   0.760   3.653 -0.6630 -2.4537  0.1645
 9706TIP3    H229060   7.401   0.837   3.556  0.2690  1.3386  2.2331
 9707TIP3   OH229061   4.882   6.685   3.402 -0.2633  0.0406  0.4407
 9707TIP3    H129062   4.917   6.671   3.314  3.3196  0.4666  1.7202
 9707TIP3    H229063   4.857   6.598   3.432  0.6845 -0.4491 -0.1479
 9708TIP3   OH229064   1.409   0.129   3.151  0.5982 -0.2547  0.2935
 9708TIP3    H129065   1.356   0.136   3.230  0.0473 -0.7280 -0.0342
 9708TIP3    H229066   1.413   0.218   3.117  0.6755 -0.0831  0.7468
 9709TIP3   OH229067   5.014   6.718   3.636 -0.3306  0.0029 -0.4407
 9709TIP3    H129068   4.958   6.718   3.558 -0.9139 -0.9621 -0.0284
 9709TIP3    H229069   4.996   6.802   3.678 -0.5772  0.2087 -0.9518
 9710TIP3   OH229070   7.370   1.031   3.230  0.2675 -0.4121 -0.5289
 9710TIP3    H129071   7.408   1.061   3.148  1.1248 -2.2804 -0.8281
 9710TIP3    H229072   7.372   0.935   3.225  0.6820 -0.5596  1.8273
 9711TIP3   OH229073   7.556   1.285   3.286  0.0071 -0.0367 -0.4951
 9711TIP3    H129074   7.614   1.211   3.270  0.0795 -0.3091  0.9760
 9711TIP3    H229075   7.472   1.259   3.247 -0.3443 -1.4683  1.1488
 9712TIP3   OH229076   1.671   1.078   2.508 -0.0346 -0.4475  0.2599
 9712TIP3    H129077   1.576   1.076   2.499  0.0271 -0.8815 -0.2820
 9712TIP3    H229078   1.702   1.109   2.423  0.2492  0.8494  0.8130
 9713TIP3   OH229079   1.311   2.618   4.451  0.3533 -0.3585  0.1012
 9713TIP3    H129080   1.315   2.711   4.474 -0.5411 -0.2150 -0.2882
 9713TIP3    H229081   1.403   2.590   4.448  0.5956  0.3117  0.9922
 9714TIP3   OH229082   6.119   7.888   1.714 -0.2849  0.1597 -0.2098
 9714TIP3    H129083   6.131   7.823   1.783 -1.4254 -0.3469 -0.4856
 9714TIP3    H229084   6.026   7.885   1.694 -0.4457  2.2989  0.1718
 9715TIP3   OH229085   6.265   6.438   4.677 -0.0165 -0.4433 -0.1420
 9715TIP3    H129086   6.310   6.354   4.685  0.1988 -0.2515  0.8183
 9715TIP3    H229087   6.236   6.457   4.767  0.0129  0.5480 -0.3460
 9716TIP3   OH229088   5.834   6.025   4.363  0.1358 -0.1851  0.0734
 9716TIP3    H129089   5.778   6.086   4.411 -1.7505 -0.2002 -2.0232
 9716TIP3    H229090   5.827   5.943   4.412 -0.2406  0.3095  0.8562
 9717TIP3   OH229091   6.831   7.618   0.783  0.4370  0.2850 -0.1058
 9717TIP3    H129092   6.773   7.694   0.773 -1.2261 -1.0232 -0.5019
 9717TIP3    H229093   6.895   7.627   0.711 -0.7996  0.3879 -1.2077
 9718TIP3   OH229094   8.570   1.652   4.946  0.0827 -0.5479  0.3738
 9718TIP3    H129095   8.660   1.663   4.977  0.3909  0.7293 -0.9109
 9718TIP3    H229096   8.515   1.685   5.017  0.6445 -0.6028  0.8372
 9719TIP3   OH229097   0.029   1.644   4.225 -0.1235  0.1606 -0.5053
 9719TIP3    H129098   0.121   1.625   4.208  0.6745  2.1889  1.3980
 9719TIP3    H229099   0.027   1.736   4.249 -2.7638  0.3258 -1.1823
 9720TIP3   OH229100   2.007   2.628   3.767  0.3987 -0.1641  0.5119
 9720TIP3    H129101   2.083   2.661   3.816 -0.0332  0.8919  0.4794
 9720TIP3    H229102   1.989   2.696   3.702 -0.2069 -0.6867  0.1307
 9721TIP3   OH229103   8.278   0.435   2.793  0.5769 -0.0263 -0.6785
 9721TIP3    H129104   8.273   0.472   2.881  0.7840 -1.4437 -0.0538
 9721TIP3    H229105   8.266   0.510   2.735  2.4203  1.2550  0.5240
 9722TIP3   OH229106   6.959   3.447   3.805  0.7260 -0.3670 -0.4769
 9722TIP3    H129107   7.009   3.370   3.833  2.8627  1.6391  1.5134
 9722TIP3    H229108   7.026   3.511   3.781 -0.9139  1.8307  0.6357
 9723TIP3   OH229109   6.097   6.736   4.190 -0.1037 -0.3479  0.3373
 9723TIP3    H129110   6.128   6.676   4.258  1.0929 -2.1236 -1.6988
 9723TIP3    H229111   6.168   6.738   4.126 -1.4469  0.8416 -1.1492
 9724TIP3   OH229112   0.811   0.493   2.825  0.0921  0.1502 -0.3673
 9724TIP3    H129113   0.761   0.447   2.758 -1.3697 -1.4341  1.7369
 9724TIP3    H229114   0.895   0.449   2.828 -0.5323 -1.0405  0.1426
 9725TIP3   OH229115   6.186   7.160   3.306 -0.3973  0.1732  0.4173
 9725TIP3    H129116   6.233   7.131   3.228 -0.5221 -1.8677  1.0758
 9725TIP3    H229117   6.094   7.158   3.280 -0.5386 -1.8109  1.0022
 9726TIP3   OH229118   7.555   6.143   3.808  0.0438  0.8145 -0.0653
 9726TIP3    H129119   7.599   6.089   3.874  0.6420 -0.3537 -1.3952
 9726TIP3    H229120   7.626   6.181   3.757 -0.4190  1.3580 -0.3019
 9727TIP3   OH229121   0.028   7.633   2.704 -0.3588  0.2162 -0.1015
 9727TIP3    H129122   0.045   7.662   2.615 -0.4955 -0.0422 -0.2111
 9727TIP3    H229123   0.106   7.582   2.729 -0.1450  0.6254  0.0693
 9728TIP3   OH229124   6.352   5.799   2.866  0.1810 -0.1572  0.3480
 9728TIP3    H129125   6.334   5.893   2.860  2.3071  0.3732  1.6046
 9728TIP3    H229126   6.268   5.760   2.891 -0.9039  1.3130 -0.9305
 9729TIP3   OH229127   1.020   1.530   2.613 -0.4586 -0.3928 -0.6300
 9729TIP3    H129128   1.064   1.527   2.698  1.0459 -0.3460 -1.3873
 9729TIP3    H229129   0.990   1.441   2.598 -0.0964 -0.5587 -0.3732
 9730TIP3   OH229130   4.256   6.993   3.793  0.7896  0.1521  0.7434
 9730TIP3    H129131   4.163   6.974   3.776  0.4728  1.3173  1.0807
 9730TIP3    H229132   4.301   6.968   3.713  0.1742 -0.4157  0.5760
 9731TIP3   OH229133   3.399   7.918   1.625  0.1872 -0.3643 -0.0687
 9731TIP3    H129134   3.488   7.903   1.657  0.3342  1.1418  0.2359
 9731TIP3    H229135   3.398   7.877   1.539  1.1688 -0.3783 -0.0795
 9732TIP3   OH229136   3.922   4.457   2.017 -0.3658 -0.4349 -0.0477
 9732TIP3    H129137   3.957   4.450   2.106 -2.2828 -1.1360  0.6579
 9732TIP3    H229138   3.854   4.524   2.023 -0.2901 -0.2496 -1.0737
 9733TIP3   OH229139   4.411   7.140   3.248  0.4333  0.0087 -0.2877
 9733TIP3    H129140   4.499   7.109   3.268  0.4351 -1.2751 -2.1086
 9733TIP3    H229141   4.353   7.080   3.295  0.5035  0.3373  0.2261
 9734TIP3   OH229142   5.546   7.214   2.146  0.7832 -0.5159  0.5883
 9734TIP3    H129143   5.587   7.280   2.090  1.6704 -0.9312  0.7361
 9734TIP3    H229144   5.590   7.132   2.123  0.4440 -0.8665  1.1731
 9735TIP3   OH229145   7.181   6.993   3.289 -0.5299  0.3366 -0.5420
 9735TIP3    H129146   7.214   6.904   3.274 -0.6704 -0.0205  1.1867
 9735TIP3    H229147   7.110   7.002   3.226 -0.9908 -1.0578 -0.2586
 9736TIP3   OH229148   1.749   2.005   2.844 -0.4629 -0.0975  0.4000
 9736TIP3    H129149   1.837   2.040   2.861 -0.7291  0.2109  1.1496
 9736TIP3    H229150   1.762   1.911   2.833  0.1372  0.1077 -0.7338
 9737TIP3   OH229151   8.221   8.051   2.991 -0.4612 -0.3214 -0.2614
 9737TIP3    H129152   8.315   8.043   3.010 -0.6462 -3.0040 -0.3658
 9737TIP3    H229153   8.186   7.963   3.002 -3.1128  0.7594  0.3979
 9738TIP3   OH229154   1.105   0.062   0.729 -0.3201  0.2222 -0.1596
 9738TIP3    H129155   1.143   0.075   0.816 -1.4188  2.7698 -0.0160
 9738TIP3    H229156   1.181   0.064   0.670  0.1430  1.7438  0.4509
 9739TIP3   OH229157   6.752   6.683   4.675  0.0312  0.3524 -0.2657
 9739TIP3    H129158   6.787   6.620   4.737  0.1038  0.2220 -0.4382
 9739TIP3    H229159   6.704   6.630   4.611 -1.3985  0.6134  0.5712
 9740TIP3   OH229160   0.376   0.862   2.248  0.0733 -0.6444  0.5331
 9740TIP3    H129161   0.441   0.880   2.316  1.4272 -1.9305 -0.3930
 9740TIP3    H229162   0.292   0.876   2.291  0.9111 -1.3383  2.4493
 9741TIP3   OH229163   3.106   4.326   6.800  0.1536  0.1870  0.3840
 9741TIP3    H129164   3.039   4.305   6.734  1.3529  0.5151 -0.9737
 9741TIP3    H229165   3.123   4.419   6.788  1.6654 -0.1315 -0.0605
 9742TIP3   OH229166   6.147   7.915   2.610  0.4756 -0.1629  0.0050
 9742TIP3    H129167   6.155   7.859   2.687 -2.8212 -1.4787 -0.5021
 9742TIP3    H229168   6.144   8.004   2.645  2.0871 -0.5529  1.1306
 9743TIP3   OH229169   7.388   0.220   2.950  0.1102 -0.3755 -0.2927
 9743TIP3    H129170   7.452   0.270   2.999  0.3419 -0.0296 -0.9416
 9743TIP3    H229171   7.344   0.284   2.894 -0.9863 -0.5613  0.3337
 9744TIP3   OH229172   0.127   0.588   0.824  0.3348  0.3899  0.6802
 9744TIP3    H129173   0.200   0.558   0.879  0.0978  1.7133  1.7309
 9744TIP3    H229174   0.065   0.626   0.886  0.0803  1.9517 -0.5180
 9745TIP3   OH229175   4.377   7.861   6.857 -0.2689  0.5878  0.3738
 9745TIP3    H129176   4.340   7.914   6.786 -2.3577 -0.9391  0.2750
 9745TIP3    H229177   4.441   7.805   6.814 -1.0576  0.1299 -0.2370
 9746TIP3   OH229178   7.087   8.077   6.439 -0.5773 -0.5883  0.4264
 9746TIP3    H129179   7.132   8.010   6.490  0.6159 -0.4304 -0.3945
 9746TIP3    H229180   7.078   8.039   6.352  1.4396  0.8379 -0.4584
 9747TIP3   OH229181   6.489   2.603   0.398  0.8591  0.4564 -0.9419
 9747TIP3    H129182   6.488   2.515   0.361  0.6130  0.6337 -1.3618
 9747TIP3    H229183   6.425   2.651   0.346  1.3752  1.0207 -1.0587
 9748TIP3   OH229184   0.932   3.638   6.493 -0.4799 -0.4238 -0.2418
 9748TIP3    H129185   0.961   3.617   6.582 -1.0265 -0.6655 -0.1183
 9748TIP3    H229186   0.859   3.699   6.506  1.5422  2.1898 -0.6031
 9749TIP3   OH229187   5.701   4.128   0.479 -0.1996  0.3400  0.0107
 9749TIP3    H129188   5.684   4.217   0.448 -0.3812  0.3716  0.2032
 9749TIP3    H229189   5.794   4.128   0.501  0.5785 -0.4328 -3.0708
 9750TIP3   OH229190   4.887   5.009   2.062  0.4765  0.3893  0.0026
 9750TIP3    H129191   4.964   5.010   2.118 -0.5621 -1.3773  1.5399
 9750TIP3    H229192   4.900   4.934   2.004  0.4738  0.8075 -0.5368
 9751TIP3   OH229193   4.215   4.293   1.381 -0.0403 -0.3053 -0.2366
 9751TIP3    H129194   4.208   4.388   1.392  2.1494 -0.0380 -1.0313
 9751TIP3    H229195   4.221   4.259   1.470  2.7639  0.6300 -0.0190
 9752TIP3   OH229196   3.817   4.348   0.397  0.3807  0.3452 -0.4374
 9752TIP3    H129197   3.818   4.283   0.327 -0.3982  0.2335 -0.3463
 9752TIP3    H229198   3.728   4.383   0.397  0.8955  1.7159 -0.7580
 9753TIP3   OH229199   2.506   4.644   5.459  0.0756  0.0842  0.1151
 9753TIP3    H129200   2.527   4.569   5.403  0.1880  0.5120 -0.4166
 9753TIP3    H229201   2.557   4.716   5.423 -1.7191  0.9575 -0.7224
 9754TIP3   OH229202   5.227   4.524   0.986 -0.1561 -0.7398  0.0075
 9754TIP3    H129203   5.225   4.538   0.891 -0.8321  1.3885  0.3133
 9754TIP3    H229204   5.153   4.466   1.003 -0.4213 -0.6159 -0.6994
 9755TIP3   OH229205   3.148   0.837   4.601 -0.5838  0.1265 -0.0784
 9755TIP3    H129206   3.202   0.893   4.544 -0.8132 -0.4765 -0.8978
 9755TIP3    H229207   3.058   0.862   4.580 -0.6956 -0.7306 -0.6415
 9756TIP3   OH229208   4.567   5.109   0.828 -0.1248  0.2991  0.6818
 9756TIP3    H129209   4.491   5.128   0.882 -1.0631 -0.4403 -0.3492
 9756TIP3    H229210   4.555   5.018   0.801  0.3570  0.6251 -0.6827
 9757TIP3   OH229211   0.665   0.479   5.207  0.1187 -0.4594  0.2403
 9757TIP3    H129212   0.638   0.387   5.214 -1.0461 -0.2598 -1.4085
 9757TIP3    H229213   0.660   0.511   5.297  0.4308 -1.9760  0.8186
 9758TIP3   OH229214   5.605   3.883   0.520 -0.1163  0.5746 -0.5118
 9758TIP3    H129215   5.641   3.971   0.530 -0.8479  0.8403 -0.1842
 9758TIP3    H229216   5.524   3.895   0.472  0.7701 -0.1471 -2.2601
 9759TIP3   OH229217   1.252   3.969   6.159  0.2693 -0.8379 -0.5992
 9759TIP3    H129218   1.177   4.022   6.187  1.9024  1.3462 -0.2581
 9759TIP3    H229219   1.275   4.004   6.073  1.6143 -0.7229 -0.2014
 9760TIP3   OH229220   2.789   2.509   6.452 -0.7935 -0.1927  0.5168
 9760TIP3    H129221   2.729   2.515   6.526 -2.2299 -1.3872 -0.5295
 9760TIP3    H229222   2.792   2.598   6.416 -1.5506 -0.0246  0.8626
 9761TIP3   OH229223   2.648   2.066   5.717 -0.0096  0.4341 -0.2393
 9761TIP3    H129224   2.598   2.129   5.664 -0.4949 -1.1731 -1.7316
 9761TIP3    H229225   2.584   2.034   5.781 -1.1410 -2.0259 -2.4907
 9762TIP3   OH229226   1.709   1.835   6.883  0.3488  0.1478 -0.2452
 9762TIP3    H129227   1.724   1.926   6.908  0.6438 -0.1919  0.8425
 9762TIP3    H229228   1.773   1.819   6.813  2.2138 -0.0408  1.4730
 9763TIP3   OH229229   0.347   1.972   6.654 -0.2638  0.0109  0.1427
 9763TIP3    H129230   0.322   2.063   6.673 -1.6996 -0.2021 -0.7088
 9763TIP3    H229231   0.441   1.970   6.672 -0.6044  1.1115  2.2798
 9764TIP3   OH229232   4.279   0.964   4.909 -0.2696  0.5410 -0.0777
 9764TIP3    H129233   4.290   0.880   4.864  0.6142  0.6403 -0.0644
 9764TIP3    H229234   4.249   0.940   4.997  1.6519  0.1255  0.4918
 9765TIP3   OH229235   1.496   1.811   6.549  0.0978  0.3491 -0.0410
 9765TIP3    H129236   1.519   1.778   6.462  1.2271  1.4739 -0.1867
 9765TIP3    H229237   1.543   1.894   6.557 -0.4620  0.5534  1.4139
 9766TIP3   OH229238   5.467   5.018   0.409  0.5998 -0.5638 -0.4485
 9766TIP3    H129239   5.528   5.001   0.337 -0.0104 -0.1939 -1.0531
 9766TIP3    H229240   5.500   5.098   0.450 -0.3628  0.4948 -1.7310
 9767TIP3   OH229241   5.904   5.584   0.313  0.8124  0.6052 -0.0277
 9767TIP3    H129242   5.910   5.679   0.320 -0.2852  0.5437  1.8614
 9767TIP3    H229243   5.922   5.566   0.221 -0.3802  2.7469 -0.7016
 9768TIP3   OH229244   4.438   7.045   1.978  0.0186 -0.7650 -0.0485
 9768TIP3    H129245   4.530   7.030   2.001  0.0225 -2.2034 -0.9273
 9768TIP3    H229246   4.405   6.959   1.953 -1.9165 -0.4717  1.4186
 9769TIP3   OH229247   4.989   6.295   1.206 -0.4117  0.5853 -0.1500
 9769TIP3    H129248   5.010   6.212   1.164  0.5742 -0.2571  1.9519
 9769TIP3    H229249   4.918   6.331   1.152 -0.8642 -1.6033 -1.0881
 9770TIP3   OH229250   5.249   5.394   0.378 -0.1030 -0.5881  0.2829
 9770TIP3    H129251   5.233   5.383   0.472 -0.3884  0.1477  0.3254
 9770TIP3    H229252   5.322   5.456   0.374 -0.5240 -0.1005  0.0170
 9771TIP3   OH229253   2.857   3.750   0.033  0.0333  0.2117 -0.0546
 9771TIP3    H129254   2.835   3.708  -0.050 -1.7811 -0.7278  0.8622
 9771TIP3    H229255   2.819   3.692   0.099  2.7038  0.1959  1.4987
 9772TIP3   OH229256   0.729   7.234   6.645 -0.1211  0.2203  0.3804
 9772TIP3    H129257   0.665   7.251   6.714 -0.1197  0.6437  0.2756
 9772TIP3    H229258   0.703   7.149   6.609 -1.2473  0.8523 -0.3541
 9773TIP3   OH229259   3.302   2.499   6.384 -0.7155  0.6324  0.3405
 9773TIP3    H129260   3.333   2.433   6.323  0.0111  3.0117 -1.9390
 9773TIP3    H229261   3.213   2.471   6.406 -0.8442 -0.4854 -1.5076
 9774TIP3   OH229262   1.381   3.604   6.964 -0.5687  0.1872  0.3924
 9774TIP3    H129263   1.314   3.668   6.938 -1.3960 -0.0430  1.8981
 9774TIP3    H229264   1.399   3.624   7.055  1.7004  0.4570 -0.1021
 9775TIP3   OH229265   7.467   3.092   2.681  0.1732 -0.0890  0.7047
 9775TIP3    H129266   7.542   3.038   2.704  0.7870 -0.0764 -1.2028
 9775TIP3    H229267   7.392   3.045   2.716  0.7526 -1.9133 -0.4625
 9776TIP3   OH229268   5.800   5.841   1.083 -0.2614 -0.4185  0.1366
 9776TIP3    H129269   5.804   5.812   0.992  0.8366  1.7325 -0.5488
 9776TIP3    H229270   5.715   5.812   1.114 -1.6142  0.7683 -2.2983
 9777TIP3   OH229271   7.355   5.447   0.842 -0.2238  0.1832  0.0944
 9777TIP3    H129272   7.299   5.458   0.918  1.1764  0.0570  1.1541
 9777TIP3    H229273   7.331   5.520   0.784  0.2979  1.6320  1.6555
 9778TIP3   OH229274   1.845   0.937   6.938 -0.1021 -0.0803  0.9289
 9778TIP3    H129275   1.886   1.012   6.896 -0.6381 -1.3660 -2.0157
 9778TIP3    H229276   1.752   0.961   6.945 -0.3940 -0.6927 -0.6248
 9779TIP3   OH229277   2.897   3.216   5.169 -0.3495 -0.1698 -0.0795
 9779TIP3    H129278   2.848   3.134   5.178  1.1672 -1.1503 -0.5977
 9779TIP3    H229279   2.926   3.217   5.078  0.6465  0.3534  0.2326
 9780TIP3   OH229280   5.078   2.019   6.734 -0.1763  0.6692 -0.1849
 9780TIP3    H129281   5.116   2.014   6.646  1.1368 -0.5699  0.4402
 9780TIP3    H229282   5.017   1.945   6.739  1.4154 -0.6204  0.7005
 9781TIP3   OH229283   5.720   5.995   0.163 -0.1194  0.5316  0.0460
 9781TIP3    H129284   5.719   5.901   0.177 -0.8619  0.1790 -2.2737
 9781TIP3    H229285   5.689   6.032   0.246 -1.7802 -1.3496  0.2873
 9782TIP3   OH229286   7.476   7.106   1.253 -0.3728 -0.3418  0.1922
 9782TIP3    H129287   7.482   7.045   1.327  1.7478 -0.1239  0.2108
 9782TIP3    H229288   7.386   7.139   1.257 -1.5020 -3.2924  0.3090
 9783TIP3   OH229289   5.108   5.568   0.953 -0.0882  0.4959  0.1896
 9783TIP3    H129290   5.153   5.556   1.037  0.9601 -0.8905 -0.5441
 9783TIP3    H229291   5.058   5.487   0.941  0.2583  0.4229 -0.8146
 9784TIP3   OH229292   7.443   6.093   2.334  0.1861 -0.8580  0.2865
 9784TIP3    H129293   7.507   6.142   2.283 -0.8660  0.0266 -0.1965
 9784TIP3    H229294   7.496   6.035   2.389  1.4156  0.2903  0.3300
 9785TIP3   OH229295   6.527   4.185   1.600  0.0190  0.0985  0.0106
 9785TIP3    H129296   6.470   4.128   1.651 -1.3542 -0.5362 -2.1436
 9785TIP3    H229297   6.565   4.245   1.664 -0.7759 -1.3665  1.9051
 9786TIP3   OH229298   3.938   1.950   4.726  0.1686  0.7191  0.5586
 9786TIP3    H129299   3.909   2.040   4.712 -2.4590 -0.3746 -1.3443
 9786TIP3    H229300   4.000   1.933   4.655 -0.6702  0.4698 -0.1158
 9787TIP3   OH229301   0.018   5.076   2.455  0.1936  0.3489 -0.0807
 9787TIP3    H129302   0.068   5.050   2.379  0.0345 -0.6426  0.1468
 9787TIP3    H229303  -0.074   5.063   2.429  0.1642 -0.9961  0.6140
 9788TIP3   OH229304   1.069   2.238   1.300  0.3114  0.1857  0.2930
 9788TIP3    H129305   1.037   2.313   1.350  1.8351  1.6410 -0.8817
 9788TIP3    H229306   0.994   2.178   1.298 -1.5155  2.4059 -0.2150
 9789TIP3   OH229307   5.571   4.142   2.263 -0.0327  0.2228  0.0359
 9789TIP3    H129308   5.636   4.200   2.302  0.1818 -0.7833  1.2009
 9789TIP3    H229309   5.499   4.140   2.325  0.0616 -0.9311  0.1318
 9790TIP3   OH229310   1.822   8.061   4.794 -0.0183 -0.2687 -0.1680
 9790TIP3    H129311   1.903   8.076   4.746 -0.1223  0.4157 -0.1272
 9790TIP3    H229312   1.834   8.107   4.877 -0.5574  0.0794 -0.2755
 9791TIP3   OH229313   6.954   4.874   1.018  0.0344 -0.0653  0.0135
 9791TIP3    H129314   7.046   4.897   1.031  0.5610 -1.7706 -0.5016
 9791TIP3    H229315   6.928   4.835   1.102 -0.0112 -0.2106 -0.0682
 9792TIP3   OH229316   3.491   2.072   4.096 -0.3653 -0.8971 -0.1871
 9792TIP3    H129317   3.583   2.060   4.072 -0.4201  0.0075 -0.8975
 9792TIP3    H229318   3.480   2.020   4.175  0.3661 -2.2356 -0.9413
 9793TIP3   OH229319   5.963   3.966   0.179 -0.1880 -0.1966  0.3234
 9793TIP3    H129320   5.892   3.904   0.190 -0.5306 -0.2154 -1.7723
 9793TIP3    H229321   6.041   3.918   0.207 -0.6838 -0.9683  0.4044
 9794TIP3   OH229322   5.317   5.736   0.545  0.6201 -0.0880 -0.2540
 9794TIP3    H129323   5.280   5.813   0.589  1.6559  0.7383 -0.8177
 9794TIP3    H229324   5.287   5.743   0.454  0.6814 -0.3683 -0.2973
 9795TIP3   OH229325   6.764   4.490   1.660 -0.4336  0.0425  0.2293
 9795TIP3    H129326   6.748   4.503   1.566 -0.0533  0.5516  0.2319
 9795TIP3    H229327   6.859   4.479   1.667 -0.6572 -2.0019  0.3308
 9796TIP3   OH229328   6.558   5.075   0.733 -0.1694  0.2260  0.1491
 9796TIP3    H129329   6.609   5.044   0.658  0.9347 -2.1093  1.8209
 9796TIP3    H229330   6.469   5.086   0.698  0.4246 -0.3081 -1.6080
 9797TIP3   OH229331   4.939   6.878   0.204  0.7536  0.1562  0.3313
 9797TIP3    H129332   4.934   6.802   0.263 -0.0062 -0.4723 -0.5244
 9797TIP3    H229333   4.889   6.851   0.127 -0.3234  1.8901  0.4021
 9798TIP3   OH229334   1.908   1.407   6.976  0.2916  0.1249 -0.5194
 9798TIP3    H129335   1.962   1.378   7.050  0.9619  0.1519 -0.9906
 9798TIP3    H229336   1.819   1.414   7.012  0.4523 -0.7377  0.0480
 9799TIP3   OH229337   2.715   0.466   6.918  0.3480 -0.5140  0.0851
 9799TIP3    H129338   2.634   0.424   6.891 -0.3106  0.7559  0.0491
 9799TIP3    H229339   2.756   0.404   6.978 -0.8933 -0.9362  0.4987
 9800TIP3   OH229340   4.437   0.967   6.359  0.3302 -0.1469 -0.1103
 9800TIP3    H129341   4.445   0.872   6.357 -0.7358 -0.2390 -0.3047
 9800TIP3    H229342   4.515   0.997   6.407  0.6661 -1.1062 -0.0467
 9801TIP3   OH229343   7.605   5.547   0.928 -0.1698 -0.0048  0.2245
 9801TIP3    H129344   7.526   5.495   0.913 -0.7138  0.1683  2.3575
 9801TIP3    H229345   7.573   5.637   0.937  0.5259  0.4005 -1.1053
 9802TIP3   OH229346   8.500   4.342   0.338  0.5730  0.3480 -0.8228
 9802TIP3    H129347   8.453   4.269   0.297 -2.2111  2.2738 -1.2345
 9802TIP3    H229348   8.572   4.361   0.279  0.0404 -0.6823 -1.8147
 9803TIP3   OH229349   8.363   3.635   1.907  0.1643  0.0908  0.1916
 9803TIP3    H129350   8.373   3.711   1.964  0.5896 -0.7408  1.2491
 9803TIP3    H229351   8.428   3.648   1.838 -0.0318  0.8736  0.1431
 9804TIP3   OH229352   2.598   1.316   6.017  0.0576  0.4370 -0.4438
 9804TIP3    H129353   2.679   1.304   5.967  0.5558  0.4569  0.3518
 9804TIP3    H229354   2.612   1.266   6.097 -0.0752  1.7533  0.4152
 9805TIP3   OH229355   0.958   5.094   3.711 -0.1460 -0.2249 -0.5254
 9805TIP3    H129356   0.904   5.133   3.779  0.5850 -1.3610  0.7299
 9805TIP3    H229357   1.008   5.167   3.675 -1.5755  0.6140 -0.8292
 9806TIP3   OH229358   3.864   1.175   5.991  0.5785  0.2542  0.3772
 9806TIP3    H129359   3.801   1.104   6.005 -0.0961  0.9908  1.1543
 9806TIP3    H229360   3.811   1.249   5.961  1.1826  0.6376  0.2373
 9807TIP3   OH229361   4.735   2.057   6.879  0.0740 -0.5533  0.2425
 9807TIP3    H129362   4.656   2.051   6.826  0.1319 -0.5224  0.1530
 9807TIP3    H229363   4.800   2.003   6.833  0.5298  0.5580 -0.4538
 9808TIP3   OH229364   2.825   1.669   6.161  0.9096  0.0858  0.6338
 9808TIP3    H129365   2.737   1.631   6.152  2.0804 -2.5732 -0.2199
 9808TIP3    H229366   2.837   1.682   6.255 -0.1607 -0.1025  0.7985
 9809TIP3   OH229367   8.028   5.221   1.447  0.6131  0.3154  0.4363
 9809TIP3    H129368   7.989   5.150   1.499  1.0364 -0.2355  0.0046
 9809TIP3    H229369   7.956   5.283   1.433  0.0708 -0.3511  0.2525
 9810TIP3   OH229370   6.091   6.405   0.935  0.4910  0.1061  0.0504
 9810TIP3    H129371   5.999   6.381   0.925  0.4285  0.2338  0.3099
 9810TIP3    H229372   6.135   6.362   0.862  0.3858 -0.7903  0.5147
 9811TIP3   OH229373   8.585   5.947   0.775 -0.1221  0.7239  0.7156
 9811TIP3    H129374   8.507   6.002   0.769 -1.0987 -0.5962  1.1292
 9811TIP3    H229375   8.591   5.905   0.689  0.4112  1.1967  0.5225
 9812TIP3   OH229376   8.122   5.519   1.516 -0.2152  0.4371 -0.3826
 9812TIP3    H129377   8.127   5.495   1.423 -0.0907  0.4822 -0.3882
 9812TIP3    H229378   8.209   5.554   1.536  0.0126 -0.3383 -0.0298
 9813TIP3   OH229379   7.437   4.459   2.468 -0.1042  0.0152  0.4138
 9813TIP3    H129380   7.410   4.449   2.559  0.4484 -0.1095  0.5594
 9813TIP3    H229381   7.380   4.528   2.434 -1.2606 -0.8953  0.4674
 9814TIP3   OH229382   7.470   5.487   1.572  0.0112 -0.5571 -0.3641
 9814TIP3    H129383   7.516   5.571   1.582 -0.1061 -0.4523 -0.6839
 9814TIP3    H229384   7.460   5.476   1.477 -1.9004  0.1330 -0.2801
 9815TIP3   OH229385   1.334   1.313   6.737 -0.0239  0.2628  0.2784
 9815TIP3    H129386   1.371   1.399   6.758  0.3486  0.1677  0.0120
 9815TIP3    H229387   1.298   1.324   6.649  0.1818  0.0942  0.1739
 9816TIP3   OH229388   5.432   1.976   6.700  0.1124  0.0180  0.0095
 9816TIP3    H129389   5.407   2.059   6.658  0.2746  0.2385  0.3462
 9816TIP3    H229390   5.505   2.000   6.757  0.5810 -0.4771 -0.3826
 9817TIP3   OH229391   5.112   4.838   1.688 -0.4386 -0.7036 -0.2601
 9817TIP3    H129392   5.050   4.766   1.675 -3.0746  0.8313  3.0375
 9817TIP3    H229393   5.102   4.893   1.611 -2.1168 -1.2229 -0.4222
 9818TIP3   OH229394   3.265   1.766   6.522  0.4290  0.2594  0.5866
 9818TIP3    H129395   3.263   1.694   6.459  0.6950  1.2020 -0.5077
 9818TIP3    H229396   3.281   1.723   6.606  3.3135 -0.7466 -0.4025
 9819TIP3   OH229397   5.029   7.836   0.653  0.1327  0.3681 -0.3506
 9819TIP3    H129398   5.062   7.923   0.675  1.0661 -0.2595  0.7462
 9819TIP3    H229399   4.933   7.845   0.659  0.2655  1.0126  0.8928
 9820TIP3   OH229400   5.438   7.853   0.573 -0.3473 -0.0410 -0.2890
 9820TIP3    H129401   5.484   7.937   0.569 -1.1973  0.4199 -0.3748
 9820TIP3    H229402   5.472   7.804   0.498  0.5678  0.0031  0.0824
 9821TIP3   OH229403   3.535   2.281   5.540 -0.4344 -0.4118  0.6140
 9821TIP3    H129404   3.601   2.256   5.476 -2.1742  0.0105 -1.4086
 9821TIP3    H229405   3.585   2.326   5.609  1.4947 -1.0087 -0.3495
 9822TIP3   OH229406   8.510   5.976   0.048  0.0558 -0.1674 -0.2484
 9822TIP3    H129407   8.436   5.961   0.106 -0.1708 -2.5581 -1.1000
 9822TIP3    H229408   8.471   6.011  -0.032 -0.2192 -1.6214 -0.7744
 9823TIP3   OH229409   2.900   1.217   5.371 -0.1755 -0.4628  0.2353
 9823TIP3    H129410   2.891   1.164   5.291 -2.1828 -0.9999  0.7859
 9823TIP3    H229411   2.810   1.229   5.402  0.2524  2.9094  0.3836
 9824TIP3   OH229412   4.296   1.277   6.458 -0.5333  0.3317 -0.0868
 9824TIP3    H129413   4.364   1.258   6.393  1.0422 -1.4215  2.0084
 9824TIP3    H229414   4.235   1.204   6.451 -1.7899  1.4781 -1.3766
 9825TIP3   OH229415   0.508   1.846   1.366 -0.0288  0.3573 -0.2963
 9825TIP3    H129416   0.426   1.869   1.323  0.5073  2.7930 -0.0847
 9825TIP3    H229417   0.519   1.753   1.348 -1.2140  0.7047 -3.1168
 9826TIP3   OH229418   2.617   1.408   6.366 -0.1330  0.5299 -0.3413
 9826TIP3    H129419   2.613   1.449   6.280  1.6000 -0.6797 -1.0184
 9826TIP3    H229420   2.567   1.327   6.356  0.2291  0.2973 -0.2554
 9827TIP3   OH229421   5.152   5.006   2.154 -0.2770 -0.2009 -0.5026
 9827TIP3    H129422   5.200   5.017   2.071  1.9553 -0.2142  0.7337
 9827TIP3    H229423   5.218   5.024   2.221 -2.9361  3.3363  1.2640
 9828TIP3   OH229424   0.201   5.021   0.632 -0.2714 -0.2668 -0.2875
 9828TIP3    H129425   0.183   5.070   0.712  0.7334  0.7121 -0.6626
 9828TIP3    H229426   0.147   5.064   0.565  0.1227 -0.0750 -0.4811
 9829TIP3   OH229427   6.852   2.963   6.514  0.2985  0.2001  0.3889
 9829TIP3    H129428   6.850   2.956   6.419 -1.3146 -1.0528  0.4782
 9829TIP3    H229429   6.918   2.899   6.542 -1.9937 -2.3078  0.2732
 9830TIP3   OH229430   0.653   3.509   1.391  0.2653 -0.1869  0.7578
 9830TIP3    H129431   0.584   3.453   1.425 -1.7899  2.3846  0.9470
 9830TIP3    H229432   0.610   3.562   1.324  1.9632  1.7093  1.1311
 9831TIP3   OH229433   6.699   2.528   0.549 -0.5353 -0.2385 -0.6039
 9831TIP3    H129434   6.674   2.445   0.591 -1.1685  1.0045  1.5468
 9831TIP3    H229435   6.625   2.549   0.492 -1.4004 -0.0032  0.5894
 9832TIP3   OH229436   5.696   4.391   0.410  0.1538  0.4946  0.0437
 9832TIP3    H129437   5.635   4.451   0.366 -0.2070  0.1489  0.0746
 9832TIP3    H229438   5.709   4.429   0.497 -1.6199 -0.5261  0.7762
 9833TIP3   OH229439   3.125   1.416   6.409 -0.1531 -0.2865  0.4094
 9833TIP3    H129440   3.033   1.405   6.432 -0.6329  2.7159  0.0804
 9833TIP3    H229441   3.125   1.483   6.341  1.9240 -3.3977 -2.8218
 9834TIP3   OH229442   5.199   5.489   0.625 -0.5052 -0.5727 -0.2987
 9834TIP3    H129443   5.105   5.473   0.631 -0.4582 -0.6877  0.1420
 9834TIP3    H229444   5.207   5.580   0.598 -0.7516 -0.7586 -1.0363
 9835TIP3   OH229445   8.286   6.585   1.176 -0.1902  0.5377 -0.3080
 9835TIP3    H129446   8.303   6.543   1.261  0.5062 -0.9820 -1.1728
 9835TIP3    H229447   8.370   6.625   1.152 -0.0359 -0.1010 -0.8487
 9836TIP3   OH229448   6.447   4.741   0.216  0.4344  0.2643  0.2108
 9836TIP3    H129449   6.352   4.736   0.226  0.5135 -0.5284  0.6359
 9836TIP3    H229450   6.481   4.710   0.299  1.0702  1.9162  0.5861
 9837TIP3   OH229451   7.964   5.600   1.259  0.1605 -0.3436  0.2267
 9837TIP3    H129452   7.944   5.688   1.228  2.9422 -0.3850 -1.8787
 9837TIP3    H229453   7.958   5.606   1.354 -1.9028  1.5270  0.0123
 9838TIP3   OH229454   7.680   4.776   0.951 -0.7339  0.1437  0.5418
 9838TIP3    H129455   7.735   4.824   1.013 -0.5002  0.8638 -0.2033
 9838TIP3    H229456   7.719   4.689   0.947  1.1224  0.9958 -0.8811
 9839TIP3   OH229457   5.751   3.799   6.585 -0.2104  0.0310 -0.4095
 9839TIP3    H129458   5.725   3.792   6.677  2.7902 -0.1055  0.4921
 9839TIP3    H229459   5.728   3.889   6.561  0.6813  0.6706  1.0574
 9840TIP3   OH229460   6.061   6.691   1.470 -0.1959 -0.4217  0.0748
 9840TIP3    H129461   6.087   6.758   1.534  0.3654  0.4896 -1.0768
 9840TIP3    H229462   6.018   6.624   1.522  2.0347 -0.6696  1.7068
 9841TIP3   OH229463   3.126   1.414   3.106  0.5921  0.2191  0.5250
 9841TIP3    H129464   3.112   1.464   3.026 -0.8625 -0.0439  0.5998
 9841TIP3    H229465   3.220   1.397   3.108  0.4509 -0.9311 -1.8149
 9842TIP3   OH229466   6.235   4.442   0.088  0.3459 -0.3633 -0.6148
 9842TIP3    H129467   6.322   4.472   0.061  0.5102 -1.1789 -0.9917
 9842TIP3    H229468   6.252   4.373   0.152 -0.0175 -0.9206 -1.1127
 9843TIP3   OH229469   5.396   0.846   6.398 -0.0160  0.3613 -0.0564
 9843TIP3    H129470   5.476   0.801   6.426  0.2875  1.2114  0.4874
 9843TIP3    H229471   5.330   0.820   6.462  0.2770  1.0485  0.5339
 9844TIP3   OH229472   7.302   4.787   1.659  0.3598  0.0850 -0.0804
 9844TIP3    H129473   7.394   4.793   1.636  0.3676  2.4687  0.5162
 9844TIP3    H229474   7.299   4.807   1.752 -0.6406 -1.2467  0.1961
 9845TIP3   OH229475   4.143   0.848   6.762  0.5454 -0.1415 -0.0244
 9845TIP3    H129476   4.102   0.778   6.711 -0.2846 -0.0409  0.5030
 9845TIP3    H229477   4.098   0.927   6.733  0.2281 -0.0574  0.7101
 9846TIP3   OH229478  -0.004   3.553   2.473  0.0003 -0.7244  0.1561
 9846TIP3    H129479   0.002   3.505   2.555  1.5970 -2.4106 -0.8865
 9846TIP3    H229480   0.080   3.599   2.466 -0.7056  0.5917  0.1551
 9847TIP3   OH229481   3.452   2.420   6.627  0.6107 -0.7096 -0.1460
 9847TIP3    H129482   3.420   2.454   6.543  1.8078  1.2308  0.1647
 9847TIP3    H229483   3.375   2.381   6.668 -0.4838  0.3943 -1.1242
 9848TIP3   OH229484   7.553   4.311   1.875 -0.3505 -0.4822 -0.6203
 9848TIP3    H129485   7.537   4.379   1.940  1.7249  0.0517 -0.6454
 9848TIP3    H229486   7.477   4.252   1.883 -0.7188  0.2372  1.4214
 9849TIP3   OH229487   3.464   1.349   6.157  0.4265  0.4049  0.7901
 9849TIP3    H129488   3.496   1.323   6.243  0.9420 -1.3283  0.0944
 9849TIP3    H229489   3.544   1.363   6.105  0.1296 -1.4377 -0.2186
 9850TIP3   OH229490   0.718   2.006   6.381  0.6244 -0.1801  0.0447
 9850TIP3    H129491   0.701   2.093   6.416 -1.3509 -0.2695 -0.6685
 9850TIP3    H229492   0.764   2.022   6.299 -1.1147  0.2631 -0.8672
 9851TIP3   OH229493   5.017   5.305   0.878 -0.2954 -0.4991 -0.1695
 9851TIP3    H129494   4.975   5.259   0.805  0.1501 -1.1236 -0.0260
 9851TIP3    H229495   5.060   5.237   0.929 -1.9422 -0.2602  1.6004
 9852TIP3   OH229496   6.188   5.418   0.608 -0.6327  0.3792  0.1125
 9852TIP3    H129497   6.132   5.465   0.546  0.9953  1.3940 -0.5987
 9852TIP3    H229498   6.126   5.374   0.666 -2.2085 -0.3402 -2.0239
 9853TIP3   OH229499   7.512   6.037   1.023  0.1826 -0.0714  0.2240
 9853TIP3    H129500   7.591   5.988   1.046  1.2876  0.9608 -1.2463
 9853TIP3    H229501   7.511   6.036   0.927  1.3133  4.3597  0.0558
 9854TIP3   OH229502   7.324   7.595   0.634 -0.2388 -0.0821 -0.2088
 9854TIP3    H129503   7.350   7.504   0.648  1.0992  0.4891  1.3537
 9854TIP3    H229504   7.381   7.626   0.564 -1.2589 -0.6645 -1.3057
 9855TIP3   OH229505   4.364   0.599   6.161 -0.1098 -0.2032  0.5973
 9855TIP3    H129506   4.380   0.549   6.080  1.4940 -1.5492  1.7119
 9855TIP3    H229507   4.446   0.645   6.177 -0.1423 -0.5782  1.8809
 9856TIP3   OH229508   3.246   1.235   6.583  0.8471  0.0103  0.3964
 9856TIP3    H129509   3.202   1.289   6.516  0.3676  0.4091  1.0315
 9856TIP3    H229510   3.183   1.167   6.604  0.8360  0.1313  0.7495
 9857TIP3   OH229511   3.822   1.600   6.257 -0.3086  0.1118  0.4013
 9857TIP3    H129512   3.740   1.604   6.306  0.3511 -0.8777  1.6158
 9857TIP3    H229513   3.799   1.557   6.175 -1.4627  1.9501 -0.2590
 9858TIP3   OH229514   7.384   4.113   0.506  0.3769 -0.5677 -0.0879
 9858TIP3    H129515   7.326   4.048   0.547 -0.3978  0.0441 -0.2133
 9858TIP3    H229516   7.333   4.193   0.504  0.8518 -0.2827 -1.1589
 9859TIP3   OH229517   6.722   6.270   0.041  0.2802  0.1482  0.2145
 9859TIP3    H129518   6.779   6.342   0.067  2.1391 -0.9210 -0.8073
 9859TIP3    H229519   6.673   6.249   0.120  1.4049  0.9917  1.1522
 9860TIP3   OH229520   6.479   4.975   1.239  0.5388 -0.4262  0.1675
 9860TIP3    H129521   6.498   4.959   1.147  1.4466  0.4503  0.1904
 9860TIP3    H229522   6.535   5.049   1.263 -2.5699  1.9561  0.3829
 9861TIP3   OH229523   2.767   5.224   5.469 -0.4524  0.2841  0.3835
 9861TIP3    H129524   2.750   5.311   5.505  0.8170  0.1377  1.3829
 9861TIP3    H229525   2.850   5.233   5.422 -1.2497  0.0573 -1.0822
 9862TIP3   OH229526   5.726   5.037   0.617 -0.2225  0.0893 -0.2219
 9862TIP3    H129527   5.667   4.990   0.675 -0.2426 -1.5434 -1.5424
 9862TIP3    H229528   5.671   5.102   0.574 -0.3192  0.9279  1.1422
 9863TIP3   OH229529   6.735   4.754   0.112  0.3611  0.6153 -0.4464
 9863TIP3    H129530   6.739   4.787   0.022 -0.1345  1.1555 -0.2702
 9863TIP3    H229531   6.646   4.772   0.140  0.0283 -1.0053 -0.3950
 9864TIP3   OH229532   4.531   1.690   6.184  0.1917  0.1216  0.7588
 9864TIP3    H129533   4.485   1.719   6.262 -1.3881 -1.7087  0.5471
 9864TIP3    H229534   4.560   1.601   6.204  2.0150  0.5633  0.1855
 9865TIP3   OH229535   7.150   4.626   0.937 -0.7125 -0.3077  0.1933
 9865TIP3    H129536   7.120   4.548   0.983  0.4638 -0.7074  0.2983
 9865TIP3    H229537   7.209   4.593   0.869 -0.6174  0.4408 -0.0927
 9866TIP3   OH229538   1.894   2.925   6.050 -0.7462  0.2523 -0.0087
 9866TIP3    H129539   1.934   2.883   6.126  2.8455 -0.8933 -2.4040
 9866TIP3    H229540   1.831   2.860   6.018  0.1576 -0.6434  0.0204
 9867TIP3   OH229541   6.758   5.874   0.715  0.1237  0.3069 -0.8562
 9867TIP3    H129542   6.783   5.963   0.740  1.9432 -0.9876  2.2541
 9867TIP3    H229543   6.663   5.877   0.707 -0.0442  2.0509  1.3244
 9868TIP3   OH229544   4.004   7.068   0.618 -0.1103  0.1021 -0.1244
 9868TIP3    H129545   3.947   7.063   0.695  1.6422 -0.5699  1.1808
 9868TIP3    H229546   4.038   7.157   0.619  0.4894 -0.1280  0.3221
 9869TIP3   OH229547   3.667   0.537   6.839  0.0227  0.2466 -0.3253
 9869TIP3    H129548   3.587   0.569   6.796  0.1094 -0.3124 -0.9151
 9869TIP3    H229549   3.639   0.516   6.928 -0.7977 -1.1676 -0.8975
 9870TIP3   OH229550   7.552   5.671   1.294 -0.3816 -0.2362 -0.6058
 9870TIP3    H129551   7.469   5.675   1.246 -0.2062 -0.2714 -0.9124
 9870TIP3    H229552   7.600   5.599   1.254  0.1421  0.3150 -0.9848
 9871TIP3   OH229553   2.643   2.421   6.662 -0.1213 -0.1208  0.9170
 9871TIP3    H129554   2.574   2.436   6.726  1.6470  1.0099  2.5938
 9871TIP3    H229555   2.701   2.357   6.703  1.2346  0.9026  0.6535
 9872TIP3   OH229556   4.262   3.118   5.986  0.7484 -0.2548  0.1085
 9872TIP3    H129557   4.294   3.177   5.917 -0.0708 -1.5579 -1.4242
 9872TIP3    H229558   4.168   3.136   5.990  0.5820 -1.0739 -0.0119
 9873TIP3   OH229559   5.962   2.042   6.992 -0.0335  0.8829 -0.1041
 9873TIP3    H129560   5.936   1.993   6.914 -0.9130 -0.8299  1.2469
 9873TIP3    H229561   5.909   2.122   6.989 -0.4447  0.5788 -0.9858
 9874TIP3   OH229562   4.073   3.715   6.527  0.4253  0.2513 -0.0109
 9874TIP3    H129563   4.054   3.745   6.616 -0.5174 -0.7161  0.1173
 9874TIP3    H229564   4.151   3.660   6.536 -0.1555 -0.5250  0.3507
 9875TIP3   OH229565   5.524   4.671   0.621  0.5210  0.3004  0.6505
 9875TIP3    H129566   5.491   4.757   0.647  3.0334  1.7175 -0.6548
 9875TIP3    H229567   5.571   4.639   0.698  0.7389  0.7071  0.6886
 9876TIP3   OH229568   3.601   3.430   5.504 -0.3232 -0.2221  0.1286
 9876TIP3    H129569   3.627   3.465   5.589  0.4154  0.4938 -0.3950
 9876TIP3    H229570   3.618   3.501   5.442 -2.4382 -0.1297 -0.3949
 9877TIP3   OH229571   6.768   6.166   0.754  0.1711 -0.1549 -0.2270
 9877TIP3    H129572   6.763   6.203   0.842 -0.7811 -1.6593  0.3598
 9877TIP3    H229573   6.829   6.223   0.708 -1.7172  2.5323  0.4779
 9878TIP3   OH229574   4.670   4.684   0.315  0.4213  0.3307 -0.3047
 9878TIP3    H129575   4.638   4.770   0.341  0.8422  0.5820 -0.5963
 9878TIP3    H229576   4.656   4.680   0.220  0.4864  0.1174 -0.3075
 9879TIP3   OH229577   1.752   2.034   6.642 -0.1400  0.1143  0.1598
 9879TIP3    H129578   1.781   2.051   6.552  0.8826  1.3707  0.7241
 9879TIP3    H229579   1.761   1.939   6.652  1.3663  0.1797 -0.5012
 9880TIP3   OH229580   4.865   4.891   0.094  0.3537  0.0613  0.5853
 9880TIP3    H129581   4.832   4.952   0.027  0.6103 -0.1207  0.2918
 9880TIP3    H229582   4.806   4.816   0.090  0.9393 -0.3712 -0.1093
 9881TIP3   OH229583   6.888   3.418   0.305 -0.7898  0.6378  0.3791
 9881TIP3    H129584   6.941   3.339   0.301 -1.3367  0.3402 -1.9650
 9881TIP3    H229585   6.798   3.387   0.296 -1.2572  1.2695  2.7380
 9882TIP3   OH229586   8.446   5.762   0.533  0.0481  0.2236  0.1558
 9882TIP3    H129587   8.536   5.756   0.500 -0.0355 -0.3424  0.0258
 9882TIP3    H229588   8.402   5.822   0.473  0.0516 -0.3488 -0.4251
 9883TIP3   OH229589   0.867   3.189   6.868  0.0548  0.2034  0.2391
 9883TIP3    H129590   0.823   3.190   6.954 -0.3313  0.6276  0.0412
 9883TIP3    H229591   0.813   3.131   6.815 -0.4554  0.9755 -0.0972
 9884TIP3   OH229592   6.344   6.310   1.387 -0.2135  0.1839 -0.2639
 9884TIP3    H129593   6.378   6.307   1.297 -0.4397  0.8634 -0.3704
 9884TIP3    H229594   6.272   6.373   1.384 -0.2814  0.1418  0.3781
 9885TIP3   OH229595   5.941   5.346   0.465  0.6696  0.0544 -0.6646
 9885TIP3    H129596   5.909   5.425   0.421  0.4145 -0.8388 -2.1067
 9885TIP3    H229597   5.877   5.330   0.534 -0.7095 -0.3562 -2.0103
 9886TIP3   OH229598   5.312   5.764   0.984  0.2226 -0.1973  0.1125
 9886TIP3    H129599   5.257   5.795   1.055 -0.0601  0.1353 -0.2460
 9886TIP3    H229600   5.261   5.696   0.941 -0.0649  0.3568 -0.4390
 9887TIP3   OH229601   5.672   2.190   6.547 -0.1132 -0.6805 -0.2135
 9887TIP3    H129602   5.724   2.115   6.516  0.5605 -0.3604  0.1160
 9887TIP3    H229603   5.700   2.201   6.638 -1.5157 -1.1486  0.2772
 9888TIP3   OH229604   8.379   3.448   2.122  0.2654  0.2157  0.2054
 9888TIP3    H129605   8.327   3.369   2.108  0.3730  0.5731 -2.2856
 9888TIP3    H229606   8.337   3.515   2.069  1.6870  1.1878  0.2663
 9889TIP3   OH229607   2.556   2.128   6.752  0.4944  0.5676  0.6516
 9889TIP3    H129608   2.543   2.142   6.658 -0.5666  0.2974  0.7551
 9889TIP3    H229609   2.651   2.138   6.764  0.8395 -0.7321 -0.6824
 9890TIP3   OH229610   7.810   3.194   1.631  0.2650 -0.1972 -0.4741
 9890TIP3    H129611   7.880   3.185   1.696 -0.6367 -1.0841  0.3968
 9890TIP3    H229612   7.779   3.104   1.618 -1.6762  0.3695  0.2188
 9891TIP3   OH229613   0.516   4.599   2.401  0.4868  0.3495 -0.3038
 9891TIP3    H129614   0.446   4.594   2.466  0.5756  2.1031 -0.0556
 9891TIP3    H229615   0.581   4.657   2.441  0.8372  0.9085 -1.6835
 9892TIP3   OH229616   1.158   4.720   1.908  0.7794  0.4562  0.0178
 9892TIP3    H129617   1.063   4.710   1.905  0.7306  0.6896  0.8006
 9892TIP3    H229618   1.189   4.669   1.833  0.0874 -0.1625  0.1439
 9893TIP3   OH229619   6.066   1.077   6.090 -0.4719  0.6845 -0.5447
 9893TIP3    H129620   6.140   1.082   6.151 -1.0627  0.3943  0.2023
 9893TIP3    H229621   6.077   0.992   6.047 -1.0019  0.1441  0.3813
 9894TIP3   OH229622   8.048   6.640   0.301 -0.1815  0.6405 -0.3949
 9894TIP3    H129623   7.972   6.582   0.298 -0.0749  0.3956  1.1458
 9894TIP3    H229624   8.013   6.724   0.332 -0.5028  1.7263 -3.5138
 9895TIP3   OH229625   4.760   0.605   6.317  0.4792 -0.5828  0.0063
 9895TIP3    H129626   4.725   0.688   6.282  2.4630  0.8604  1.3282
 9895TIP3    H229627   4.683   0.550   6.329 -1.0330  1.4654  0.0550
 9896TIP3   OH229628   4.624   0.599   6.655  0.6383  0.3505 -0.5806
 9896TIP3    H129629   4.658   0.522   6.610 -0.1702 -0.7764  0.7125
 9896TIP3    H229630   4.647   0.585   6.747 -2.1750  0.1641  0.1408
 9897TIP3   OH229631   5.609   6.118   1.008  0.2781  0.5367 -0.7247
 9897TIP3    H129632   5.669   6.066   1.061 -0.3113  0.6926  0.1160
 9897TIP3    H229633   5.527   6.117   1.058  0.5300  3.0820 -0.1982
 9898TIP3   OH229634   7.127   5.607   0.769  0.5185 -0.0285  0.5082
 9898TIP3    H129635   7.153   5.616   0.677  0.1241 -0.4844  0.3515
 9898TIP3    H229636   7.123   5.697   0.801  1.0811  0.1120  0.2008
 9899TIP3   OH229637   6.275   4.619   0.460  0.0425  0.1892 -0.1778
 9899TIP3    H129638   6.274   4.525   0.441 -1.7720  0.2187 -0.3463
 9899TIP3    H229639   6.210   4.656   0.400  1.3424  1.6790 -0.6927
 9900TIP3   OH229640   5.056   1.635   6.732  0.4863  0.0754  0.5045
 9900TIP3    H129641   5.098   1.569   6.787  0.8963  1.2299  1.5823
 9900TIP3    H229642   5.126   1.696   6.710  0.1030  0.1737 -0.4746
 9901TIP3   OH229643   4.742   0.746   5.505  0.2344 -0.7593 -0.2027
 9901TIP3    H129644   4.675   0.795   5.553  2.4139  1.4962  0.6577
 9901TIP3    H229645   4.742   0.784   5.418 -0.2609 -1.4090 -0.4862
 9902TIP3   OH229646   0.442   4.435   0.609 -0.1813 -0.0362 -0.7254
 9902TIP3    H129647   0.390   4.474   0.539 -1.0759  0.0101 -0.0440
 9902TIP3    H229648   0.494   4.367   0.565 -1.7055 -0.9035 -1.2223
 9903TIP3   OH229649   7.539   3.427   1.449  0.2309  0.3228  0.3343
 9903TIP3    H129650   7.524   3.374   1.370  0.0128 -0.5602  0.9623
 9903TIP3    H229651   7.459   3.479   1.457 -0.5307 -0.9363  1.0067
 9904TIP3   OH229652   8.289   5.143   0.282  0.4205 -0.0160 -0.1615
 9904TIP3    H129653   8.286   5.093   0.201  1.6957 -1.0742  0.4153
 9904TIP3    H229654   8.225   5.100   0.339  0.1448  0.1853 -0.3234
 9905TIP3   OH229655   4.612   2.600   6.738 -0.3935 -0.0941  0.5436
 9905TIP3    H129656   4.583   2.510   6.725 -1.2801  0.1576  0.7187
 9905TIP3    H229657   4.552   2.652   6.685  0.4516  0.3506  0.0113
 9906TIP3   OH229658   7.181   7.999   0.276 -0.0720 -0.4354 -0.2564
 9906TIP3    H129659   7.197   7.975   0.367 -0.7663  1.1223  0.2897
 9906TIP3    H229660   7.169   8.093   0.278  1.3922 -0.1736 -2.1825
 9907TIP3   OH229661   3.780   2.322   6.527  0.5130  0.1778 -0.2329
 9907TIP3    H129662   3.825   2.271   6.595 -1.7663  1.0671  2.0082
 9907TIP3    H229663   3.728   2.258   6.479 -1.0659  0.1292  1.5176
 9908TIP3   OH229664   5.535   7.016   0.440 -0.0847 -0.7199  0.2852
 9908TIP3    H129665   5.555   7.093   0.386 -1.1750 -0.7012 -0.1071
 9908TIP3    H229666   5.544   6.942   0.380  0.2191 -0.8375  0.4731
 9909TIP3   OH229667   6.334   7.172   1.574  0.5587  0.2025  0.0701
 9909TIP3    H129668   6.274   7.221   1.519  1.1730  0.0333 -0.7527
 9909TIP3    H229669   6.416   7.222   1.572  1.3944 -1.1621 -1.2985
 9910TIP3   OH229670   7.628   4.551   0.573  0.0838  0.1906  0.1287
 9910TIP3    H129671   7.593   4.524   0.659 -2.4155  0.3094 -0.8030
 9910TIP3    H229672   7.581   4.632   0.553  1.6672  0.9060 -0.7466
 9911TIP3   OH229673   3.388   1.303   5.092  0.1438  0.1501 -0.1062
 9911TIP3    H129674   3.419   1.234   5.033  0.6728  0.7775 -0.5721
 9911TIP3    H229675   3.344   1.366   5.034  0.0960  0.4506  0.2551
 9912TIP3   OH229676   6.370   2.678   6.528 -0.1720 -0.4539 -0.3404
 9912TIP3    H129677   6.459   2.646   6.545 -0.6308 -0.7436  1.6464
 9912TIP3    H229678   6.337   2.705   6.614 -2.1291 -0.6421 -1.0036
 9913TIP3   OH229679   2.968   2.489   5.423  0.7163 -0.2855  0.7560
 9913TIP3    H129680   3.011   2.525   5.346  0.5982  0.2658  0.9416
 9913TIP3    H229681   3.030   2.426   5.459  0.3526 -1.3001 -0.3626
 9914TIP3   OH229682   8.132   6.318   0.729  0.2513 -0.2177  0.0729
 9914TIP3    H129683   8.157   6.383   0.795 -0.5791  1.2461 -1.0107
 9914TIP3    H229684   8.051   6.280   0.762  0.4755 -0.3350  0.4804
 9915TIP3   OH229685   6.001   6.445   0.482  0.5394  0.1502 -0.5638
 9915TIP3    H129686   5.961   6.395   0.553  2.3337  1.4830  1.4562
 9915TIP3    H229687   6.088   6.405   0.471  0.4556  0.2647 -1.6717
 9916TIP3   OH229688   2.380   4.195   5.930 -0.1843  0.1519 -0.1393
 9916TIP3    H129689   2.420   4.281   5.917 -1.2374  0.3788 -2.1106
 9916TIP3    H229690   2.311   4.210   5.994  0.1937  0.5927  0.1686
 9917TIP3   OH229691   5.036   5.198   6.119 -0.3549  0.0350  0.3161
 9917TIP3    H129692   4.964   5.259   6.134  0.8743  1.2724  1.3054
 9917TIP3    H229693   5.018   5.125   6.178 -0.6618  0.4474  0.7365
 9918TIP3   OH229694   1.627   2.245   6.722 -0.4319  0.1874 -0.0627
 9918TIP3    H129695   1.672   2.162   6.704 -1.0620  0.2658 -2.1643
 9918TIP3    H229696   1.588   2.232   6.809  2.1689 -0.5017  1.0658
 9919TIP3   OH229697   6.092   7.327   0.500 -0.3556  0.0673 -0.1013
 9919TIP3    H129698   6.142   7.251   0.530  0.5442 -1.5373 -5.1052
 9919TIP3    H229699   6.017   7.290   0.454 -0.3303  2.1962 -1.9664
 9920TIP3   OH229700   6.740   6.588   1.882 -0.2823  0.2393 -0.1597
 9920TIP3    H129701   6.686   6.513   1.860 -0.7587  0.0408  1.5740
 9920TIP3    H229702   6.830   6.560   1.865 -0.5567 -0.1963 -0.9144
 9921TIP3   OH229703   5.659   0.726   6.458 -0.1569  0.0868  0.2038
 9921TIP3    H129704   5.694   0.755   6.374  0.0705 -0.1679  0.2130
 9921TIP3    H229705   5.735   0.710   6.513 -0.2567 -0.9630  0.0580
 9922TIP3   OH229706   3.228   1.213   6.142  0.1114  0.3230  0.2360
 9922TIP3    H129707   3.169   1.272   6.189  0.3355 -0.6745  1.8328
 9922TIP3    H229708   3.313   1.257   6.147 -0.0283  0.6119  0.0621
 9923TIP3   OH229709   6.850   5.264   0.443 -0.2196 -0.0337 -0.4488
 9923TIP3    H129710   6.913   5.303   0.382 -1.2172  0.1380 -1.3809
 9923TIP3    H229711   6.813   5.339   0.489 -0.4270 -0.0583 -0.5739
 9924TIP3   OH229712   5.448   1.993   6.026  0.2267  0.0238 -0.0308
 9924TIP3    H129713   5.531   1.946   6.025 -0.4413 -1.2202  0.6814
 9924TIP3    H229714   5.390   1.939   5.972 -0.2110  0.7050 -0.2486
 9925TIP3   OH229715   7.150   0.185   6.722 -1.0528 -0.2177  0.5699
 9925TIP3    H129716   7.113   0.238   6.792  0.6784  0.2552  1.1648
 9925TIP3    H229717   7.148   0.241   6.645 -0.4466  0.2498  0.8886
 9926TIP3   OH229718   7.164   2.986   0.241  0.0590  0.2073  0.4489
 9926TIP3    H129719   7.126   2.912   0.192 -0.7834  1.2020 -0.4340
 9926TIP3    H229720   7.213   2.945   0.312 -2.3325 -1.1682  1.3915
 9927TIP3   OH229721   4.590   2.587   6.377 -0.4092  0.0236  0.0634
 9927TIP3    H129722   4.538   2.628   6.446 -0.3267 -1.5982  1.1130
 9927TIP3    H229723   4.680   2.589   6.411 -0.2653 -0.1321 -0.3035
 9928TIP3   OH229724   4.770   2.659   6.987  0.2568  0.9273  0.1921
 9928TIP3    H129725   4.842   2.690   6.931 -0.0517 -1.1637 -1.4184
 9928TIP3    H229726   4.712   2.612   6.927 -2.2858  2.2507  1.5248
 9929TIP3   OH229727   0.904   3.638   0.699 -0.2285 -0.2128  0.3952
 9929TIP3    H129728   0.911   3.625   0.605 -1.2147 -1.8988  0.5249
 9929TIP3    H229729   0.832   3.700   0.710  1.3096  1.6902 -0.0340
 9930TIP3   OH229730   8.584   3.267   2.214 -0.1316 -0.0122 -0.8044
 9930TIP3    H129731   8.571   3.248   2.307  0.0207 -0.0100 -0.7820
 9930TIP3    H229732   8.508   3.319   2.189  0.9694  1.9626 -0.1059
 9931TIP3   OH229733   0.729   3.941   1.214  0.2038 -0.1822  0.4016
 9931TIP3    H129734   0.698   4.032   1.207 -0.3448 -0.2460  1.7144
 9931TIP3    H229735   0.661   3.897   1.266  1.4378 -0.8545  1.4783
 9932TIP3   OH229736   7.654   3.266   0.494 -0.1986  0.6718 -0.1453
 9932TIP3    H129737   7.693   3.203   0.554 -0.3091  2.1987  1.5674
 9932TIP3    H229738   7.593   3.214   0.441  2.1220 -1.2393 -1.0474
 9933TIP3   OH229739   0.176   2.832   2.200  0.0975 -0.4974  0.2606
 9933TIP3    H129740   0.132   2.859   2.280  2.7595  0.8246  1.3596
 9933TIP3    H229741   0.231   2.759   2.226  1.5543  0.4273 -0.1441
 9934TIP3   OH229742   5.449   1.183   6.102 -0.0481 -0.2591  0.3315
 9934TIP3    H129743   5.543   1.195   6.119  0.2260 -0.9873 -0.6724
 9934TIP3    H229744   5.431   1.094   6.134 -0.4067 -0.1009  0.5634
 9935TIP3   OH229745   7.499   6.211   0.277  0.6863  0.5458  0.2629
 9935TIP3    H129746   7.453   6.208   0.193  0.4535 -3.6589  0.4235
 9935TIP3    H229747   7.561   6.283   0.268  0.4345  0.3782 -3.4295
 9936TIP3   OH229748   5.908   1.142   5.634  0.1890 -0.6151  0.6661
 9936TIP3    H129749   5.995   1.106   5.650  0.1649 -0.4385  1.1970
 9936TIP3    H229750   5.924   1.234   5.614  0.2560 -0.9270 -0.7440
 9937TIP3   OH229751   5.966   2.515   5.101  0.2668 -0.6181 -0.6094
 9937TIP3    H129752   6.034   2.566   5.057 -0.3559 -0.4996 -1.4247
 9937TIP3    H229753   6.012   2.474   5.175  0.5332  2.0558  0.7779
 9938TIP3   OH229754   6.261   1.147   6.277  0.4023  0.3434  0.5905
 9938TIP3    H129755   6.284   1.226   6.326 -1.0004 -0.0745  1.9390
 9938TIP3    H229756   6.306   1.076   6.323  0.5885  0.1732  0.1561
 9939TIP3   OH229757   8.029   7.753   0.597 -0.5501  0.5048  0.2508
 9939TIP3    H129758   8.122   7.777   0.598  0.1484 -2.0382  2.1833
 9939TIP3    H229759   8.019   7.699   0.519 -0.8783  2.4230 -1.0542
 9940TIP3   OH229760   8.341   0.698   5.817  0.1693 -0.0860 -0.3277
 9940TIP3    H129761   8.256   0.673   5.854  0.1866  2.3655  1.4905
 9940TIP3    H229762   8.325   0.781   5.773  1.2886 -0.4306 -1.3995
 9941TIP3   OH229763   3.133   0.128   0.318  0.0641 -0.2764 -0.8130
 9941TIP3    H129764   3.125   0.147   0.225 -0.1016 -1.1195 -0.9691
 9941TIP3    H229765   3.208   0.069   0.324 -0.3357 -0.7487 -0.4804
 9942TIP3   OH229766   1.137   2.396   1.078  0.4505  0.0396  0.1596
 9942TIP3    H129767   1.228   2.369   1.065  0.1091 -1.0723  0.1168
 9942TIP3    H229768   1.111   2.353   1.159 -0.0417  0.3794  0.1844
 9943TIP3   OH229769   1.208   4.107  -0.004 -0.5413  0.2834 -0.2377
 9943TIP3    H129770   1.207   4.149   0.082 -0.4789  1.4759 -0.8025
 9943TIP3    H229771   1.127   4.137  -0.046 -0.3062  0.1454 -0.7924
 9944TIP3   OH229772   2.453   5.269   0.918 -0.0888 -0.4197  0.0790
 9944TIP3    H129773   2.492   5.354   0.900  1.9551 -0.6993  2.8303
 9944TIP3    H229774   2.462   5.258   1.013 -0.5787 -3.5697 -0.1773
 9945TIP3   OH229775   0.255   5.819   0.803 -0.4194 -0.4287  0.2938
 9945TIP3    H129776   0.162   5.837   0.790 -0.1417 -0.0491 -1.2147
 9945TIP3    H229777   0.286   5.789   0.718  0.3842 -2.5975  1.3078
 9946TIP3   OH229778   5.605   0.447   5.817 -0.6024  0.1217 -0.0769
 9946TIP3    H129779   5.595   0.362   5.861  0.3574 -0.9622 -1.8533
 9946TIP3    H229780   5.669   0.430   5.748  1.1417  2.8184  0.8058
 9947TIP3   OH229781   4.812   0.175   5.696  0.8509  0.2253 -0.0971
 9947TIP3    H129782   4.900   0.167   5.733  1.3444  0.9748 -1.0513
 9947TIP3    H229783   4.777   0.256   5.733  1.8249  1.6487 -2.1290
 9948TIP3   OH229784   7.408   0.366   5.779 -0.1336  0.3955  0.3625
 9948TIP3    H129785   7.369   0.288   5.740  0.8971 -0.8927  1.8432
 9948TIP3    H229786   7.339   0.401   5.836 -0.5044  0.4270 -0.1005
 9949TIP3   OH229787   6.217   1.918   5.914  0.4291 -0.0265  0.1989
 9949TIP3    H129788   6.174   1.942   5.832  0.0612  1.7385  0.8936
 9949TIP3    H229789   6.308   1.902   5.888  0.5935  1.7387 -0.3657
 9950TIP3   OH229790   7.014   1.546   6.701 -0.2956 -0.8375 -0.1041
 9950TIP3    H129791   7.026   1.638   6.724 -2.3323 -1.1310  2.4005
 9950TIP3    H229792   7.102   1.509   6.701  0.4272  0.8625 -0.0112
 9951TIP3   OH229793   6.956   0.321   5.994  0.9684 -0.0239  0.3073
 9951TIP3    H129794   6.961   0.253   5.927 -0.0423 -0.6302  0.8299
 9951TIP3    H229795   6.948   0.402   5.945  2.8460 -0.2072 -0.3311
 9952TIP3   OH229796   7.975   4.920   1.086  0.0642 -0.2031 -0.8490
 9952TIP3    H129797   7.937   4.907   1.173  1.5160 -1.2799 -0.3632
 9952TIP3    H229798   7.920   4.988   1.046 -1.1803 -0.3600  0.5514
 9953TIP3   OH229799   7.634   3.511   0.109  0.3758  0.0490  0.6321
 9953TIP3    H129800   7.572   3.495   0.181 -0.2271 -1.3023 -0.1826
 9953TIP3    H229801   7.586   3.569   0.050  0.9601  1.3619  1.4056
 9954TIP3   OH229802   0.316   7.029   0.135  0.6004 -0.0851  0.0177
 9954TIP3    H129803   0.344   7.104   0.083 -1.6137  0.5026 -0.3736
 9954TIP3    H229804   0.221   7.024   0.122  0.3433 -1.3936  2.0802
 9955TIP3   OH229805   5.696   7.751   4.989  0.3835 -0.7628 -0.3880
 9955TIP3    H129806   5.757   7.700   4.936  1.7583 -0.9044  1.2760
 9955TIP3    H229807   5.707   7.716   5.078 -0.0373  1.1576  0.4432
 9956TIP3   OH229808   6.317   2.223   5.370 -0.2224 -0.6716  0.1429
 9956TIP3    H129809   6.379   2.152   5.388 -0.1195 -0.5644  0.2148
 9956TIP3    H229810   6.335   2.249   5.280 -0.5112 -0.9843 -0.0057
 9957TIP3   OH229811   7.109   6.815   1.303 -0.2244  0.3055  0.4032
 9957TIP3    H129812   7.062   6.863   1.371 -0.3242  0.2335  0.3868
 9957TIP3    H229813   7.096   6.867   1.224 -1.3049 -0.3324  0.1438
 9958TIP3   OH229814   8.251   3.001   1.544  0.2367 -0.3834  0.3129
 9958TIP3    H129815   8.281   2.914   1.518 -0.1112 -0.3575 -0.1851
 9958TIP3    H229816   8.184   3.024   1.480  0.4948  0.3517  0.2944
 9959TIP3   OH229817   0.234   6.841   0.576  0.0039  0.2721  0.0184
 9959TIP3    H129818   0.243   6.843   0.480 -0.4812 -3.6384 -0.2173
 9959TIP3    H229819   0.145   6.808   0.591  0.4933 -0.3296  1.7628
 9960TIP3   OH229820   3.487   2.467   4.826 -0.2059  0.4497 -0.1837
 9960TIP3    H129821   3.520   2.377   4.829  1.0377  0.8947 -0.1935
 9960TIP3    H229822   3.424   2.472   4.898 -0.8763 -0.6594 -0.6932
 9961TIP3   OH229823   5.919   1.212   5.332 -0.1421  0.7621 -0.2676
 9961TIP3    H129824   5.853   1.192   5.399  0.3237 -0.6803 -0.2298
 9961TIP3    H229825   5.869   1.216   5.250 -0.5260  1.3268 -0.0112
 9962TIP3   OH229826   4.995   3.573   6.920 -0.3057  0.1251 -0.2283
 9962TIP3    H129827   5.009   3.487   6.880  0.1250  0.4947 -0.8831
 9962TIP3    H229828   4.925   3.612   6.868  0.2341  0.5963 -0.6053
 9963TIP3   OH229829   3.289   7.979   6.980  0.0606 -0.2189 -0.8183
 9963TIP3    H129830   3.194   7.978   6.986  0.0755 -1.6639 -0.6238
 9963TIP3    H229831   3.316   8.054   7.033 -0.8878 -0.7407  0.4234
 9964TIP3   OH229832   5.930   0.193   6.828 -0.8119  0.1034 -0.0815
 9964TIP3    H129833   5.868   0.259   6.796 -0.8486  0.0102 -0.1986
 9964TIP3    H229834   6.014   0.239   6.828 -0.7785  0.0415 -0.4979
 9965TIP3   OH229835   1.187   4.671   0.869  0.2408 -0.2880  0.4334
 9965TIP3    H129836   1.177   4.763   0.894 -1.6483 -0.2961 -0.1703
 9965TIP3    H229837   1.281   4.657   0.865  0.5957  2.3914 -2.1700
 9966TIP3   OH229838   7.912   7.183   1.029 -0.1964 -0.3548  0.6886
 9966TIP3    H129839   7.867   7.130   1.095  0.9614 -0.4524  1.4311
 9966TIP3    H229840   7.883   7.148   0.945 -0.3812 -1.3643  1.1694
 9967TIP3   OH229841   0.751   3.204   0.332 -0.3296  0.1047 -0.3461
 9967TIP3    H129842   0.763   3.195   0.238  1.6871  0.3021 -0.1503
 9967TIP3    H229843   0.774   3.296   0.350  1.6349 -0.5256  0.6097
 9968TIP3   OH229844   7.841   3.808   0.850 -0.1640 -0.2534 -0.2441
 9968TIP3    H129845   7.869   3.731   0.899 -0.7584 -0.6018 -0.4504
 9968TIP3    H229846   7.907   3.875   0.871  0.6567 -0.9665 -0.4888
 9969TIP3   OH229847   8.005   4.784   0.809  0.5477  0.5535 -0.4279
 9969TIP3    H129848   7.940   4.714   0.798  0.1485  0.7689  0.5273
 9969TIP3    H229849   8.009   4.798   0.904  1.0938  1.3875 -0.5714
 9970TIP3   OH229850   8.064   5.793   0.066  0.1271 -0.0491  0.0919
 9970TIP3    H129851   7.991   5.855   0.062  1.0848  1.0774 -0.3872
 9970TIP3    H229852   8.045   5.738   0.142 -1.1211  0.3405  0.0747
 9971TIP3   OH229853   0.555   3.125   1.008 -0.0511 -0.2745  0.1187
 9971TIP3    H129854   0.595   3.181   1.074  0.9425 -1.7743  0.8441
 9971TIP3    H229855   0.525   3.184   0.940  0.4749  1.1590  1.1182
 9972TIP3   OH229856   0.073   4.388   1.954  0.1130 -0.1448  0.3915
 9972TIP3    H129857  -0.012   4.370   1.995 -0.1314  1.0212  0.4208
 9972TIP3    H229858   0.057   4.467   1.901  1.0136 -0.3004 -0.1188
 9973TIP3   OH229859   3.966   1.563   6.917 -0.3950 -0.2642  0.4230
 9973TIP3    H129860   3.892   1.572   6.858  0.0394 -0.9008 -0.2313
 9973TIP3    H229861   3.930   1.578   7.004 -1.1856 -0.0671  0.0621
 9974TIP3   OH229862   2.220   2.637   0.680  0.4453 -0.0999  0.1052
 9974TIP3    H129863   2.129   2.609   0.668 -0.4661  2.1656  1.2408
 9974TIP3    H229864   2.217   2.690   0.760  2.7546  0.0969  0.0753
 9975TIP3   OH229865   0.263   7.259   0.330  0.6197  0.8893  0.6345
 9975TIP3    H129866   0.305   7.173   0.335  1.0324  1.1752  2.4876
 9975TIP3    H229867   0.311   7.304   0.260  1.0787 -0.0283  0.3415
 9976TIP3   OH229868   7.512   2.553   1.222 -0.1750 -0.0211  0.5823
 9976TIP3    H129869   7.473   2.508   1.147  1.3617 -0.0744 -0.2060
 9976TIP3    H229870   7.438   2.594   1.266 -1.3892 -1.8064  0.2811
 9977TIP3   OH229871   7.135   5.811   0.289  0.2804 -0.3433  0.0290
 9977TIP3    H129872   7.057   5.755   0.289 -1.2211  1.6804 -0.9699
 9977TIP3    H229873   7.114   5.881   0.227  2.4613  0.8352  0.5795
 9978TIP3   OH229874   6.352   1.385   6.379 -0.1819  0.1967 -0.6350
 9978TIP3    H129875   6.359   1.473   6.417  0.1503  0.2281 -0.7741
 9978TIP3    H229876   6.442   1.353   6.373 -0.3860 -0.5858  0.4074
 9979TIP3   OH229877   6.046   1.366   6.039  0.0248  0.4700  0.0769
 9979TIP3    H129878   6.070   1.415   6.117  1.1684  0.7051 -0.4105
 9979TIP3    H229879   6.067   1.275   6.061  1.0650  0.6301 -0.2187
 9980TIP3   OH229880   1.246   7.627   6.594 -0.3820 -0.6401  0.1265
 9980TIP3    H129881   1.256   7.630   6.689 -0.2621 -2.3435  0.1815
 9980TIP3    H229882   1.152   7.620   6.579 -0.8189  3.7610 -0.0542
 9981TIP3   OH229883   4.674   7.992   4.862  0.3956 -0.2912 -0.1825
 9981TIP3    H129884   4.594   7.941   4.872 -0.6077  1.3787  0.5783
 9981TIP3    H229885   4.680   8.008   4.767 -0.4542 -0.0133 -0.1959
 9982TIP3   OH229886   6.711   0.603   6.965  0.1446  0.2910 -0.2405
 9982TIP3    H129887   6.793   0.602   7.014  0.9419  0.5157 -1.5354
 9982TIP3    H229888   6.679   0.513   6.970  0.3027  0.2776  0.5509
 9983TIP3   OH229889   6.411   0.547   5.246 -0.6341 -0.2208  0.0202
 9983TIP3    H129890   6.347   0.599   5.295 -0.0689  1.7959 -1.2989
 9983TIP3    H229891   6.366   0.523   5.165 -0.6640 -1.2393  0.3321
 9984TIP3   OH229892   6.238   1.092   5.783 -0.7155  0.0921  0.2864
 9984TIP3    H129893   6.226   1.162   5.720  1.4254  0.7456  0.5548
 9984TIP3    H229894   6.282   1.134   5.857 -1.0910 -1.1461  1.2229
 9985TIP3   OH229895   8.005   5.156   0.668  0.1230  0.3504 -0.3940
 9985TIP3    H129896   8.002   5.225   0.735 -1.3201 -0.9875  0.9744
 9985TIP3    H229897   7.922   5.109   0.679  0.3593 -0.5781 -2.4147
 9986TIP3   OH229898   8.090   3.369   1.313  0.7529 -0.4949  0.2200
 9986TIP3    H129899   7.995   3.379   1.319  0.8193  0.2366  0.0174
 9986TIP3    H229900   8.105   3.331   1.227  0.6147 -1.0781  0.4437
 9987TIP3   OH229901   3.334   1.050   6.358  0.1199  0.3630  0.1863
 9987TIP3    H129902   3.275   1.044   6.433  0.2313 -2.3950  0.1085
 9987TIP3    H229903   3.277   1.066   6.284 -0.2074  0.9777  0.5701
 9988TIP3   OH229904   8.445   3.059   4.349  0.1910  0.1317 -0.0336
 9988TIP3    H129905   8.437   2.964   4.345 -1.6245  0.3297 -2.1257
 9988TIP3    H229906   8.539   3.075   4.355  0.5932 -1.7630 -0.8483
 9989TIP3   OH229907   7.569   0.551   5.881  0.4013 -0.1636 -0.0215
 9989TIP3    H129908   7.628   0.576   5.810  1.2098 -0.8577  0.3972
 9989TIP3    H229909   7.513   0.483   5.843 -0.7546  1.1317 -0.6903
 9990TIP3   OH229910   1.105   3.225   1.738  0.5744 -0.0812 -0.2794
 9990TIP3    H129911   1.026   3.200   1.786  0.8217 -2.8651 -1.2008
 9990TIP3    H229912   1.104   3.168   1.660  2.2948  1.4530 -1.4569
 9991TIP3   OH229913   4.414   3.453   6.284 -0.4823  0.2628  0.0027
 9991TIP3    H129914   4.441   3.497   6.203  1.2232 -0.3258  0.2354
 9991TIP3    H229915   4.402   3.524   6.347 -1.1606  0.6667 -0.5690
 9992TIP3   OH229916   4.631   1.428   6.138 -0.1536 -0.0926  0.4544
 9992TIP3    H129917   4.719   1.464   6.130 -0.7934  1.1808 -0.9808
 9992TIP3    H229918   4.619   1.372   6.061 -1.2169  1.1298 -0.2989
 9993TIP3   OH229919   0.819   6.038   0.691  0.5096 -0.7922  0.1813
 9993TIP3    H129920   0.832   6.096   0.765 -0.4752 -0.7554  0.3286
 9993TIP3    H229921   0.737   5.992   0.710 -0.6924  0.4877 -1.6962
 9994TIP3   OH229922   5.418   1.152   6.432 -0.0457  1.0936  0.2407
 9994TIP3    H129923   5.452   1.066   6.406  0.9180  1.5214  0.0742
 9994TIP3    H229924   5.334   1.159   6.388 -1.2136 -0.7341  2.0605
 9995TIP3   OH229925   8.076   4.924   0.178 -0.5189 -0.1210  0.2935
 9995TIP3    H129926   8.083   4.950   0.269  1.6639 -0.2485  0.1830
 9995TIP3    H229927   8.167   4.919   0.147 -1.2469  0.5926 -2.0690
 9996TIP3   OH229928   4.573   1.949   6.597 -0.4694  0.4414 -0.5147
 9996TIP3    H129929   4.512   1.883   6.566 -0.0138  0.6176 -1.7944
 9996TIP3    H229930   4.567   2.020   6.533  3.7553 -1.0583 -2.7481
 9997TIP3   OH229931   7.456   4.774   0.805 -0.5980 -0.2384 -0.0922
 9997TIP3    H129932   7.421   4.686   0.816  0.7837 -0.6227  1.3247
 9997TIP3    H229933   7.521   4.784   0.875  0.5696  1.2510 -1.3430
 9998TIP3   OH229934   1.213   4.041   1.716  0.3769  0.2642 -0.7583
 9998TIP3    H129935   1.168   4.088   1.646 -2.5775  0.2138  1.0286
 9998TIP3    H229936   1.199   4.094   1.794  2.2990 -0.4602  0.1167
 9999TIP3   OH229937   5.552   6.784   0.290  0.3724 -0.2792  0.1261
 9999TIP3    H129938   5.531   6.707   0.342  2.5210 -1.0630 -0.1006
 9999TIP3    H229939   5.578   6.748   0.205 -1.4662  0.8882 -0.9681
10000TIP3   OH229940   3.807   2.452   6.146 -0.2261  0.4691 -0.0653
10000TIP3    H129941   3.824   2.543   6.124  0.1643  0.4137 -0.0048
10000TIP3    H229942   3.791   2.409   6.062  0.3802  0.4357 -0.1637
10001TIP3   OH229943   6.593   0.020   6.222 -0.3450  0.4743  0.9871
10001TIP3    H129944   6.639  -0.060   6.246 -0.3632 -0.6983 -2.6711
10001TIP3    H229945   6.660   0.088   6.226  0.0277  0.0522  2.5483
10002TIP3   OH229946   6.192   0.842   6.024 -0.2348 -0.2479 -0.4622
10002TIP3    H129947   6.220   0.775   6.087 -1.1297  2.8036  3.3685
10002TIP3    H229948   6.270   0.895   6.008  0.1948 -1.4573 -2.6657
10003TIP3   OH229949   4.906   2.076   5.792  0.2776  0.3586 -0.3172
10003TIP3    H129950   4.925   2.060   5.700  0.4609 -1.2426 -0.0155
10003TIP3    H229951   4.867   1.994   5.823  2.1162  0.1232  1.5107
10004TIP3   OH229952   7.071   2.350   5.782 -0.0503 -0.7392  0.5923
10004TIP3    H129953   7.149   2.386   5.740  0.2764 -0.4922  1.4153
10004TIP3    H229954   7.026   2.302   5.712 -0.0209  0.5154 -0.2992
10005TIP3   OH229955   2.080   7.801   6.446 -0.1863  0.0555  0.0103
10005TIP3    H129956   2.139   7.774   6.375 -0.2107 -2.5389  0.9199
10005TIP3    H229957   2.004   7.743   6.437 -0.6686  0.4399  1.5040
10006TIP3   OH229958   0.982   6.410   5.814  0.0769 -0.1781  0.0209
10006TIP3    H129959   1.069   6.405   5.853 -0.0024 -0.9511  0.0983
10006TIP3    H229960   0.968   6.504   5.800  0.6607 -0.0001  0.5867
10007TIP3   OH229961   0.392   6.787   0.292 -0.3099 -0.5082  0.0766
10007TIP3    H129962   0.404   6.878   0.264 -0.0501 -0.7570 -0.6360
10007TIP3    H229963   0.302   6.766   0.267 -0.6005 -0.2288  0.8766
10008TIP3   OH229964   6.969   1.811   6.851 -0.3932 -0.0519  0.0630
10008TIP3    H129965   6.957   1.897   6.891 -2.4226  0.1421 -0.8814
10008TIP3    H229966   6.917   1.751   6.905 -0.9658 -0.2460 -0.6910
10009TIP3   OH229967   5.283   0.420   5.445  0.1329 -0.4548 -0.3907
10009TIP3    H129968   5.299   0.327   5.458  0.2793 -0.7637 -2.5489
10009TIP3    H229969   5.259   0.453   5.532  2.2053 -2.0634  0.8602
10010TIP3   OH229970   7.431   1.115   6.976 -0.1039 -0.1213  0.2192
10010TIP3    H129971   7.446   1.107   6.882  0.2383  0.7318  0.1951
10010TIP3    H229972   7.345   1.158   6.983 -0.5612 -1.0254  0.3135
10011TIP3   OH229973   7.132   4.879   0.248 -0.7670  0.0018  0.2929
10011TIP3    H129974   7.193   4.949   0.229 -1.4110  0.5029  0.0513
10011TIP3    H229975   7.101   4.850   0.162 -0.3073 -0.7578  0.3768
10012TIP3   OH229976   2.340   0.244   0.656  0.3127 -0.0319  0.0881
10012TIP3    H129977   2.371   0.213   0.741  0.6292  2.0647  0.7662
10012TIP3    H229978   2.255   0.283   0.675  0.0455 -0.2466 -0.6898
10013TIP3   OH229979   3.629   2.031   5.006 -0.3388 -0.1954  0.8959
10013TIP3    H129980   3.592   2.067   4.925  0.4309  0.7102  0.9372
10013TIP3    H229981   3.568   2.058   5.074 -0.8725 -0.7727  0.6577
10014TIP3   OH229982   7.700   5.465   0.405 -0.2706  0.2394  0.0759
10014TIP3    H129983   7.705   5.504   0.492 -0.6924  2.0767 -0.7007
10014TIP3    H229984   7.771   5.506   0.355 -0.6035 -0.1110 -0.7092
10015TIP3   OH229985   2.273   7.532   5.783  0.5325  0.0286 -0.5018
10015TIP3    H129986   2.230   7.447   5.782 -0.6143  0.6075 -0.9964
10015TIP3    H229987   2.347   7.521   5.723  0.0819 -0.4654 -0.9768
10016TIP3   OH229988   0.391   4.050   0.557  0.9952 -0.2082 -0.1608
10016TIP3    H129989   0.416   3.974   0.505 -0.2319  0.0292 -1.1156
10016TIP3    H229990   0.452   4.119   0.528  2.5360 -0.9754  1.1723
10017TIP3   OH229991   7.188   3.803   0.092 -0.4609  0.2929  0.3089
10017TIP3    H129992   7.125   3.747   0.135 -0.7284  0.3204 -0.0434
10017TIP3    H229993   7.267   3.798   0.146 -0.0509 -1.4472 -0.4303
10018TIP3   OH229994   2.342   2.351   6.464  0.6539 -0.4945  0.0311
10018TIP3    H129995   2.281   2.313   6.401  0.2539  1.6259 -0.8932
10018TIP3    H229996   2.408   2.283   6.478 -0.6050 -1.9131 -0.7657
10019TIP3   OH229997   6.767   4.520   1.407 -0.2152 -0.5218  0.4734
10019TIP3    H129998   6.836   4.587   1.403 -0.3766 -0.3566  0.4466
10019TIP3    H229999   6.812   4.438   1.386  0.7272 -0.9799  3.9821
10020TIP3   OH230000   6.345   2.914   4.583  0.1582  0.1020  0.0542
10020TIP3    H130001   6.439   2.909   4.563 -0.5014 -0.0061 -3.1462
10020TIP3    H230002   6.313   2.825   4.569 -0.6321  0.3610  0.2214
10021TIP3   OH230003   6.252   5.942   0.805  0.1055  0.0816 -0.1671
10021TIP3    H130004   6.272   6.008   0.872 -0.6537  0.4981 -0.3467
10021TIP3    H230005   6.181   5.890   0.844 -0.0742  0.0861 -0.4877
10022TIP3   OH230006   1.975   8.059   6.445  0.0230 -0.4707  0.6069
10022TIP3    H130007   2.015   8.101   6.369  0.2470  0.4905  1.2474
10022TIP3    H230008   2.001   7.967   6.438  1.3808 -0.0784  0.4075
10023TIP3   OH230009   1.248   3.264   1.982 -0.2657  0.0092 -0.2682
10023TIP3    H130010   1.332   3.218   1.974 -0.7532 -1.0265  0.5020
10023TIP3    H230011   1.203   3.245   1.899 -0.9267 -1.8760  0.4880
10024TIP3   OH230012   3.076   2.919   3.993  0.0502 -0.0016  0.6107
10024TIP3    H130013   3.144   2.910   3.927  0.3406  0.5764  0.8294
10024TIP3    H230014   3.092   3.005   4.033 -1.0794  0.3453  0.3501
10025TIP3   OH230015   0.237   4.281   2.206 -0.2776 -0.0676  0.7247
10025TIP3    H130016   0.225   4.235   2.123  1.1129 -0.4526  0.7248
10025TIP3    H230017   0.200   4.368   2.191  1.3308  0.3847 -0.8114
10026TIP3   OH230018   3.334   8.131   5.119  0.1681  0.5005  0.0792
10026TIP3    H130019   3.278   8.055   5.133 -1.2565  1.6956  1.0857
10026TIP3    H230020   3.385   8.110   5.041 -1.8912 -0.5216 -1.0398
10027TIP3   OH230021   1.285   2.625   1.755 -0.1016 -0.2910 -0.3005
10027TIP3    H130022   1.230   2.558   1.795  0.7160 -0.2874  0.8520
10027TIP3    H230023   1.256   2.629   1.663 -0.4508 -1.8795 -0.2616
10028TIP3   OH230024   8.237   4.905   0.742 -0.0746  0.5243  0.2360
10028TIP3    H130025   8.148   4.871   0.737 -0.4071  1.3057  0.7766
10028TIP3    H230026   8.226   5.000   0.752  0.8046  0.5773  0.7382
10029TIP3   OH230027   4.488   0.047   5.150  0.1307 -0.4972  0.0878
10029TIP3    H130028   4.449   0.120   5.198  2.4441  1.3725 -0.8049
10029TIP3    H230029   4.429   0.032   5.077  0.5228  1.6467 -0.6936
10030TIP3   OH230030   0.789   4.794   1.543 -0.1062 -0.1262 -0.1665
10030TIP3    H130031   0.804   4.718   1.487  1.6078 -1.4101  1.9507
10030TIP3    H230032   0.737   4.853   1.490 -1.1482 -2.6163 -2.0086
10031TIP3   OH230033   4.191   2.885   6.610  0.0780  0.1361 -0.2819
10031TIP3    H130034   4.165   2.977   6.607  0.3272  0.1937 -0.6984
10031TIP3    H230035   4.152   2.846   6.531 -0.5644 -0.2596  0.2211
10032TIP3   OH230036   5.449   1.623   6.042 -0.0281 -0.0157  0.4769
10032TIP3    H130037   5.478   1.696   6.097 -1.6868  1.4753 -0.5498
10032TIP3    H230038   5.392   1.572   6.099  2.3890 -1.4604  1.6875
10033TIP3   OH230039   3.666   6.408   5.730  0.1857 -0.0016  0.0361
10033TIP3    H130040   3.646   6.320   5.698  0.2590  0.1799 -0.5179
10033TIP3    H230041   3.581   6.446   5.751  0.0936  0.0602 -0.4381
10034TIP3   OH230042   0.421   4.515   2.637  0.1424  0.0977 -0.9464
10034TIP3    H130043   0.339   4.509   2.685 -0.1586  2.7640 -1.0598
10034TIP3    H230044   0.485   4.471   2.694 -0.2494  2.9615  1.8699
10035TIP3   OH230045   0.879   4.262   1.198  0.8059  0.0569 -0.6691
10035TIP3    H130046   0.831   4.259   1.281  0.5372 -0.6262 -0.8385
10035TIP3    H230047   0.971   4.260   1.223  0.7580  1.8513 -0.3238
10036TIP3   OH230048   6.207   2.928   2.675  0.2264 -0.4882  0.5772
10036TIP3    H130049   6.214   3.000   2.738 -0.7450 -1.7375  2.1385
10036TIP3    H230050   6.115   2.900   2.680  1.0021 -3.0471  1.3589
10037TIP3   OH230051   6.019   2.472   6.923 -0.4982  0.7532  1.5445
10037TIP3    H130052   6.084   2.431   6.980  0.7143  0.8630  0.2520
10037TIP3    H230053   6.028   2.566   6.942 -0.3950  0.7562  1.4804
10038TIP3   OH230054   7.515   3.485   0.580 -0.4194 -0.1029 -0.1317
10038TIP3    H130055   7.462   3.476   0.659 -1.1302 -3.0420 -0.9212
10038TIP3    H230056   7.573   3.409   0.581  1.0684  0.9899 -1.3415
10039TIP3   OH230057   8.300   3.999   3.054 -0.6708  0.4862 -0.0318
10039TIP3    H130058   8.214   4.001   3.095 -0.4899 -1.4663  0.4632
10039TIP3    H230059   8.329   3.908   3.062  0.5070  0.6508 -2.1357
10040TIP3   OH230060   1.920   4.209   0.493  0.0133 -0.2449 -0.0721
10040TIP3    H130061   1.867   4.287   0.505  0.1478  0.0404 -1.2842
10040TIP3    H230062   1.883   4.166   0.416 -1.1583 -2.2968  1.6118
10041TIP3   OH230063   5.196   1.504   6.945  0.1953 -0.0457  0.6019
10041TIP3    H130064   5.212   1.449   7.022 -0.3084  0.0239  0.7551
10041TIP3    H230065   5.197   1.594   6.979 -0.0675 -0.0167  0.5317
10042TIP3   OH230066   6.168   4.712   0.194 -0.2690  0.5586 -0.1104
10042TIP3    H130067   6.168   4.621   0.163 -2.7974 -0.0231  1.4813
10042TIP3    H230068   6.085   4.748   0.161  0.7070  2.3004 -0.7194
10043TIP3   OH230069   7.537   5.255   2.237 -0.4211 -0.2990  0.0602
10043TIP3    H130070   7.587   5.328   2.202 -1.8681  0.3086 -0.7975
10043TIP3    H230071   7.461   5.296   2.279 -1.5107 -1.3108 -0.8820
10044TIP3   OH230072   5.604   0.660   6.108  0.2663  0.1376  0.2254
10044TIP3    H130073   5.568   0.618   6.030 -0.5306  1.2068  0.0147
10044TIP3    H230074   5.603   0.591   6.175  2.3849 -1.2250 -1.0939
10045TIP3   OH230075   0.329   3.967   1.173  0.3244  0.0139  0.2206
10045TIP3    H130076   0.319   4.019   1.252 -0.0173  1.3678 -0.6858
10045TIP3    H230077   0.333   3.877   1.203 -2.6054  0.2948  1.5693
10046TIP3   OH230078   2.310   3.678   1.671  0.2242 -0.6108  0.3093
10046TIP3    H130079   2.231   3.623   1.671  0.6193 -1.1810 -0.5529
10046TIP3    H230080   2.372   3.632   1.615  0.4043  0.9347 -0.8063
10047TIP3   OH230081   1.221   0.359   5.557  0.2198 -0.1565 -0.0135
10047TIP3    H130082   1.255   0.424   5.619 -0.0378 -1.5148  1.5671
10047TIP3    H230083   1.300   0.324   5.515  0.4340  0.3310 -0.0268
10048TIP3   OH230084   7.773   4.332   0.070 -0.1350 -0.3911  0.1943
10048TIP3    H130085   7.861   4.359   0.042  0.2241 -1.4494  0.2605
10048TIP3    H230086   7.764   4.369   0.158  0.0672  0.0870  0.0183
10049TIP3   OH230087   6.150   5.672   0.465 -0.0024  0.2019  0.3983
10049TIP3    H130088   6.060   5.704   0.455  0.7720  1.9491 -1.1681
10049TIP3    H230089   6.186   5.727   0.535 -0.0314 -0.2439  0.7635
10050TIP3   OH230090   1.302   4.061   0.635  0.4931 -0.4362 -0.7097
10050TIP3    H130091   1.384   4.024   0.604  0.7527 -0.7415  0.3249
10050TIP3    H230092   1.243   3.985   0.642  0.4011 -0.3518 -0.5697
10051TIP3   OH230093   4.206   2.599   4.332  0.0615 -0.0171 -0.2611
10051TIP3    H130094   4.284   2.578   4.281 -0.5540 -1.7161 -0.5464
10051TIP3    H230095   4.135   2.603   4.268 -0.0472  1.9582 -0.0673
10052TIP3   OH230096   2.159   3.404   0.812 -0.4810  0.2471  0.1071
10052TIP3    H130097   2.158   3.344   0.887 -1.2743  0.2230  0.0838
10052TIP3    H230098   2.089   3.372   0.756  0.0316  0.3418 -0.5912
10053TIP3   OH230099   0.171   4.273   1.294  0.2360 -0.5294 -0.1925
10053TIP3    H130100   0.231   4.323   1.240  0.0606 -1.2585 -1.0884
10053TIP3    H230101   0.226   4.209   1.339  0.6169  1.1443  1.8103
10054TIP3   OH230102   8.284   4.315   0.632 -0.2051  0.3124 -0.2511
10054TIP3    H130103   8.313   4.282   0.717  1.2958 -2.2694 -1.7041
10054TIP3    H230104   8.364   4.323   0.580 -1.3157 -0.1681 -2.0960
10055TIP3   OH230105   3.308   8.027   6.407  0.1475 -0.8759 -0.1079
10055TIP3    H130106   3.352   8.095   6.356 -0.2662 -0.7121 -0.2464
10055TIP3    H230107   3.290   8.067   6.492 -1.0873 -0.4485 -0.5647
10056TIP3   OH230108   1.522   5.087   1.102  0.0698 -0.3455 -0.2882
10056TIP3    H130109   1.435   5.100   1.064  0.2649  0.8533 -0.3493
10056TIP3    H230110   1.528   4.993   1.117 -1.3743 -0.3983  0.0411
10057TIP3   OH230111   1.068   6.950   5.794  0.1682  0.0812  0.5641
10057TIP3    H130112   1.150   6.954   5.746 -0.2250 -0.0823 -0.1205
10057TIP3    H230113   1.075   7.020   5.859  1.6757 -1.1733  1.8204
10058TIP3   OH230114   0.739   5.091   0.506  0.1028 -0.3995  0.1852
10058TIP3    H130115   0.645   5.084   0.495  0.1981 -0.2245 -0.8081
10058TIP3    H230116   0.760   5.181   0.479  0.5980 -0.5530  0.0429
10059TIP3   OH230117   8.438   3.924   2.815  0.8669  0.7146  0.0322
10059TIP3    H130118   8.448   4.015   2.843  0.1019  0.7384  0.2499
10059TIP3    H230119   8.390   3.882   2.887  1.6889  0.0082  0.1788
10060TIP3   OH230120   1.108   5.048   1.401 -0.2745  0.2042 -0.6215
10060TIP3    H130121   1.057   5.038   1.321  2.6144  1.2690 -2.6708
10060TIP3    H230122   1.068   5.123   1.445 -1.0904  0.4297 -1.7152
10061TIP3   OH230123   4.193   1.433   7.017  0.8813  0.4163  0.2648
10061TIP3    H130124   4.261   1.500   7.004 -0.3578  1.9287  1.4012
10061TIP3    H230125   4.112   1.477   6.991  0.1386 -0.9027  0.3406
10062TIP3   OH230126   6.477   1.269   6.023 -0.6640  0.4908  0.4483
10062TIP3    H130127   6.569   1.294   6.011 -0.7025  1.3696  1.8165
10062TIP3    H230128   6.428   1.339   5.981 -0.7126 -0.2746 -0.7896
10063TIP3   OH230129   0.302   7.288   0.059 -0.2032  0.3206 -0.8562
10063TIP3    H130130   0.229   7.332   0.014  0.6626  1.2798 -1.3459
10063TIP3    H230131   0.371   7.282  -0.008  0.1961 -0.4887 -0.3660
10064TIP3   OH230132   8.465   4.123   0.827 -0.1437  0.0949 -0.4509
10064TIP3    H130133   8.539   4.152   0.773  0.8467  0.5890  1.1342
10064TIP3    H230134   8.504   4.067   0.894 -0.9614  1.5531  1.3097
10065TIP3   OH230135   6.244   6.247   0.769  0.1786 -0.4819 -0.2895
10065TIP3    H130136   6.321   6.298   0.746 -1.4394  2.0552 -0.2645
10065TIP3    H230137   6.222   6.199   0.689 -0.5864  1.9649 -1.5962
10066TIP3   OH230138   7.372   2.155   5.564  0.3035  0.3540  0.1951
10066TIP3    H130139   7.313   2.109   5.503 -0.7127  1.0968  0.5999
10066TIP3    H230140   7.350   2.247   5.554  1.1072  0.6028  0.6723
10067TIP3   OH230141   7.297   6.621   0.118  0.2887  0.2483 -0.6737
10067TIP3    H130142   7.296   6.681   0.044 -0.0105 -0.8350 -1.5572
10067TIP3    H230143   7.225   6.651   0.175  0.3471  0.9126 -0.9552
10068TIP3   OH230144   5.033   0.850   5.458  0.0275 -0.4084  0.5154
10068TIP3    H130145   5.074   0.767   5.435  1.3033  0.1197  0.8837
10068TIP3    H230146   4.947   0.825   5.491  0.2562 -1.5553  0.2735
10069TIP3   OH230147   6.759   3.510   6.252 -0.0442  0.1358 -0.0754
10069TIP3    H130148   6.850   3.508   6.284  0.4239  1.6171 -1.2482
10069TIP3    H230149   6.711   3.456   6.314  1.8512 -1.6570 -0.1056
10070TIP3   OH230150   4.163   2.317   5.704 -0.1497  0.0537  0.0389
10070TIP3    H130151   4.125   2.393   5.660 -1.1624 -0.1597  0.5249
10070TIP3    H230152   4.248   2.346   5.733 -0.8761  1.2728  0.9693
10071TIP3   OH230153   6.095   1.479   6.302 -0.5733 -0.2381 -0.6246
10071TIP3    H130154   6.186   1.449   6.301 -0.9736 -1.4718 -0.2810
10071TIP3    H230155   6.061   1.452   6.387 -0.5883  2.3087  0.2271
10072TIP3   OH230156   5.566   3.100   6.447  0.0042 -0.3065 -0.4030
10072TIP3    H130157   5.567   3.046   6.368  0.3314 -2.2256  0.8849
10072TIP3    H230158   5.480   3.084   6.486 -0.4847  1.2882 -0.7834
10073TIP3   OH230159   7.944   6.148   0.393  0.1295  0.5899 -0.1938
10073TIP3    H130160   8.022   6.197   0.367  0.4926  1.4319  2.4191
10073TIP3    H230161   7.878   6.174   0.328  2.0144 -0.2471 -2.5175
10074TIP3   OH230162   5.294   4.957   5.839 -0.3722  0.5072 -0.2923
10074TIP3    H130163   5.340   4.959   5.923  1.1454 -1.1415 -1.0375
10074TIP3    H230164   5.216   5.012   5.852 -1.4052 -1.5881  2.9142
10075TIP3   OH230165   5.179   0.546   6.696  0.0944 -0.6869 -0.0405
10075TIP3    H130166   5.244   0.497   6.646  1.2105 -0.2266  0.9423
10075TIP3    H230167   5.183   0.635   6.662  1.0696 -0.3007  1.0554
10076TIP3   OH230168   8.052   2.396   5.377  0.6236 -0.5084  0.3966
10076TIP3    H130169   8.073   2.303   5.363 -1.0650 -0.7735 -0.6835
10076TIP3    H230170   7.994   2.396   5.453 -0.5135 -0.5133 -0.4568
10077TIP3   OH230171   4.089   1.464   6.250 -1.0302 -0.4176 -0.6288
10077TIP3    H130172   4.037   1.384   6.258  0.6440 -1.4217  0.3062
10077TIP3    H230173   4.172   1.435   6.212 -0.5176  0.9282 -0.5584
10078TIP3   OH230174   6.954   3.501   6.471 -0.1844  0.0191  0.2597
10078TIP3    H130175   6.982   3.411   6.486 -2.1161 -0.2563  2.3986
10078TIP3    H230176   6.997   3.551   6.541 -1.4252  0.2842  0.8409
10079TIP3   OH230177   4.625   5.253   0.568  0.2610  0.3251 -0.1278
10079TIP3    H130178   4.667   5.209   0.642 -0.9549 -1.8734 -0.6775
10079TIP3    H230179   4.573   5.323   0.607  1.6436  0.7981  0.8661
10080TIP3   OH230180   0.289   3.664   0.701  0.0052  0.0815 -0.5046
10080TIP3    H130181   0.239   3.709   0.633 -0.3978  0.7452  0.2259
10080TIP3    H230182   0.314   3.732   0.762  1.8523 -0.2507 -0.8715
10081TIP3   OH230183   2.262   5.252   0.695 -0.6007  0.2637 -0.3037
10081TIP3    H130184   2.177   5.214   0.721 -0.5172  0.4609  0.2649
10081TIP3    H230185   2.315   5.247   0.775  0.0170 -0.1187 -0.7354
10082TIP3   OH230186   0.776   7.731   0.403 -0.0860 -0.0921 -0.0652
10082TIP3    H130187   0.732   7.785   0.338 -1.3956  0.1698  1.0190
10082TIP3    H230188   0.710   7.666   0.429  1.4088 -2.1571 -1.2547
10083TIP3   OH230189   7.767   0.058   6.479  0.1084  0.1693 -0.3829
10083TIP3    H130190   7.698  -0.002   6.508  2.3104 -1.4722  1.7376
10083TIP3    H230191   7.747   0.141   6.522 -1.0928 -0.0145 -0.5942
10084TIP3   OH230192   3.340   3.136   0.578  0.9352 -0.1317 -0.5844
10084TIP3    H130193   3.434   3.150   0.565  0.9090  1.8518  1.1512
10084TIP3    H230194   3.331   3.041   0.582  2.7168 -0.3845 -1.7723
10085TIP3   OH230195   7.290   2.462   4.623  0.2648 -0.3106 -0.1023
10085TIP3    H130196   7.293   2.543   4.573  0.2398 -1.0713 -1.3548
10085TIP3    H230197   7.225   2.478   4.691 -2.3075 -0.4263 -2.4468
10086TIP3   OH230198   1.133   3.786   1.303 -0.5288  0.0463  0.0939
10086TIP3    H130199   1.042   3.796   1.272 -0.5382 -2.2231 -0.7034
10086TIP3    H230200   1.171   3.721   1.244  1.3442  0.2402  1.0528
10087TIP3   OH230201   2.856   5.974   0.364 -0.3383 -0.2808 -0.7926
10087TIP3    H130202   2.924   6.021   0.413  0.1279 -0.1818 -1.5087
10087TIP3    H230203   2.791   5.950   0.429 -0.8606  1.8619 -0.4817
10088TIP3   OH230204   0.886   4.910   0.343 -0.1729  0.2759  0.4256
10088TIP3    H130205   0.824   4.977   0.371 -1.4933 -0.4041 -0.8013
10088TIP3    H230206   0.837   4.856   0.280  1.0989 -1.3559  0.7823
10089TIP3   OH230207   3.666   7.555   5.098  0.2094 -0.2562 -0.7332
10089TIP3    H130208   3.699   7.571   5.010  0.2951  0.3218 -0.5947
10089TIP3    H230209   3.668   7.641   5.141  0.3266 -0.5655 -0.1155
10090TIP3   OH230210   8.374   0.177   6.264  0.1349  0.2806 -0.1811
10090TIP3    H130211   8.296   0.233   6.271 -0.9858 -1.4893  2.4787
10090TIP3    H230212   8.356   0.120   6.189 -0.6510  0.6175 -0.2536
10091TIP3   OH230213   1.225   4.571   0.109 -0.2758 -0.8295 -0.0353
10091TIP3    H130214   1.269   4.525   0.180 -0.4571 -0.7584  0.1253
10091TIP3    H230215   1.193   4.652   0.150  0.4010 -0.3667 -0.4074
10092TIP3   OH230216   8.448   0.363   5.413  0.2933 -0.4715  0.2766
10092TIP3    H130217   8.414   0.384   5.327  1.1868 -1.8184 -0.4376
10092TIP3    H230218   8.381   0.393   5.474  0.6071  2.4372 -0.7533
10093TIP3   OH230219   3.081   4.263   1.449 -0.2494 -0.0579 -0.5917
10093TIP3    H130220   3.108   4.225   1.532 -0.9372 -1.1668 -0.8618
10093TIP3    H230221   3.111   4.354   1.452  0.9249 -0.4769  0.2941
10094TIP3   OH230222   7.819   0.293   5.968  0.1640  0.0169 -0.6398
10094TIP3    H130223   7.752   0.309   6.035  1.2812  1.5494  0.1368
10094TIP3    H230224   7.895   0.263   6.017  0.4881 -0.3948 -1.3879
10095TIP3   OH230225   1.522   4.693   1.936  0.4248  0.6333  0.1489
10095TIP3    H130226   1.513   4.611   1.984 -0.1783  0.7576  0.2593
10095TIP3    H230227   1.436   4.707   1.896  1.4732 -0.5079 -2.6550
10096TIP3   OH230228   7.530   2.861   4.429 -0.4029 -0.3610  0.3005
10096TIP3    H130229   7.453   2.875   4.483  0.6234 -0.1854  1.7638
10096TIP3    H230230   7.553   2.947   4.396 -0.6318 -0.3518  0.1722
10097TIP3   OH230231   2.334   7.893   5.965  0.3339 -0.0461  0.2683
10097TIP3    H130232   2.361   7.981   5.991 -0.7844 -0.6096  3.6223
10097TIP3    H230233   2.271   7.908   5.894 -0.2307  1.9181  1.1246
10098TIP3   OH230234   6.970   1.512   5.741  0.2281  0.3013 -0.1276
10098TIP3    H130235   6.888   1.470   5.715 -0.1520  1.6532 -1.1736
10098TIP3    H230236   6.958   1.604   5.716  1.8084  0.6284  0.3171
10099TIP3   OH230237   3.420   6.225   0.321  0.2821 -0.1944  0.1204
10099TIP3    H130238   3.351   6.253   0.261 -0.8397  0.2668  1.6058
10099TIP3    H230239   3.422   6.129   0.311 -0.2770 -0.1710 -0.2619
10100TIP3   OH230240   1.337   2.166   1.495  0.3127 -0.4585 -0.1115
10100TIP3    H130241   1.347   2.212   1.578  0.4957 -0.0721 -0.3454
10100TIP3    H230242   1.245   2.180   1.471  0.5286  0.3212 -0.4937
10101TIP3   OH230243   1.071   0.177   5.440  0.2084 -0.0345  0.3897
10101TIP3    H130244   1.101   0.261   5.473  0.5495  0.3884 -0.9667
10101TIP3    H230245   1.149   0.122   5.439  0.8292  0.8016 -2.3067
10102TIP3   OH230246   1.048   2.743   0.657  0.4005  0.0077  0.3261
10102TIP3    H130247   1.043   2.720   0.750 -0.4853  0.7804  0.4776
10102TIP3    H230248   1.137   2.719   0.631  0.5608 -0.4780  1.3006
10103TIP3   OH230249   8.002   0.958   5.141  0.0264 -0.3734  0.4271
10103TIP3    H130250   7.995   0.867   5.112  1.5856 -0.0426 -1.1037
10103TIP3    H230251   7.964   1.009   5.070 -1.3368  0.1675  1.5146
10104TIP3   OH230252   7.822   1.919   5.542 -0.1314 -0.0988 -0.4035
10104TIP3    H130253   7.858   1.853   5.601 -0.4159  0.9269  0.9608
10104TIP3    H230254   7.729   1.923   5.565  0.1312  1.7135  0.4974
10105TIP3   OH230255   8.387   0.060   4.586 -0.1169  0.1983 -0.2052
10105TIP3    H130256   8.446   0.048   4.661 -0.1030  1.3064 -0.0250
10105TIP3    H230257   8.342   0.143   4.604  0.6286  0.9993 -1.9102
10106TIP3   OH230258   4.903   5.800   0.584  0.2220  0.0649 -0.3010
10106TIP3    H130259   4.850   5.871   0.621  2.1968  1.2504  0.3781
10106TIP3    H230260   4.910   5.736   0.655 -0.2625 -0.0571 -0.3672
10107TIP3   OH230261   7.073   1.276   6.114 -0.0803 -0.0280  0.0804
10107TIP3    H130262   7.156   1.287   6.067  0.8278 -0.7004  1.4925
10107TIP3    H230263   7.067   1.353   6.171  0.3354 -0.7377  1.0988
10108TIP3   OH230264   7.944   1.398   6.835  0.7333  0.2712 -0.3229
10108TIP3    H130265   7.986   1.312   6.834  0.9032  0.3614 -1.1522
10108TIP3    H230266   7.932   1.420   6.742 -2.6257 -0.4839 -0.1337
10109TIP3   OH230267   0.847   3.689   1.440 -0.3862  0.1007 -0.2070
10109TIP3    H130268   0.769   3.648   1.402  0.0397  0.1753 -1.1769
10109TIP3    H230269   0.847   3.661   1.531 -0.9071 -0.8646 -0.4971
10110TIP3   OH230270   8.372   0.972   6.057  0.4876 -0.2707  0.1014
10110TIP3    H130271   8.437   0.988   5.989  0.9068 -0.1819  0.5201
10110TIP3    H230272   8.419   0.923   6.124 -0.2796 -1.5672 -0.2859
10111TIP3   OH230273   7.509   6.261   0.632 -0.4053 -0.2834  0.1840
10111TIP3    H130274   7.579   6.324   0.616  0.2554 -1.0627 -0.0220
10111TIP3    H230275   7.430   6.314   0.637  0.2972  0.6881  1.2200
10112TIP3   OH230276   8.226   1.109   5.815 -0.3462  0.0483 -0.0011
10112TIP3    H130277   8.271   1.051   5.877 -1.5830  0.6028  1.4653
10112TIP3    H230278   8.246   1.072   5.729  0.8552 -1.1484  0.7659
10113TIP3   OH230279   3.758   7.711   6.553 -0.5601  0.1966  0.2773
10113TIP3    H130280   3.740   7.793   6.506  0.1525  0.1400 -0.0967
10113TIP3    H230281   3.710   7.644   6.503  3.6340 -0.5872 -3.0246
10114TIP3   OH230282   3.510   7.066   0.277 -0.3239 -0.7271  0.2104
10114TIP3    H130283   3.458   6.990   0.304 -1.6620 -0.4335 -1.4472
10114TIP3    H230284   3.600   7.044   0.300 -0.8217 -2.4379  0.5569
10115TIP3   OH230285   8.557   5.065   0.435 -0.2960  0.0366  0.0700
10115TIP3    H130286   8.621   4.994   0.430  0.8447  1.1514 -1.7265
10115TIP3    H230287   8.472   5.020   0.442  0.6232 -1.4462  2.2430
10116TIP3   OH230288   3.388   7.759   5.706  0.0889  0.1514  0.8215
10116TIP3    H130289   3.380   7.666   5.725 -2.0988 -0.0286 -0.8525
10116TIP3    H230290   3.418   7.762   5.615 -1.1675  1.1014  0.4377
10117TIP3   OH230291   0.231   1.666   5.384 -0.0515  0.4163 -0.2019
10117TIP3    H130292   0.169   1.737   5.401  1.0834  0.9852  1.7363
10117TIP3    H230293   0.258   1.636   5.471  2.1445 -0.0518 -1.0094
10118TIP3   OH230294   8.265   4.495   0.265 -0.1540  0.4654  0.5800
10118TIP3    H130295   8.341   4.441   0.288  0.2282  0.4889 -0.5567
10118TIP3    H230296   8.227   4.521   0.349 -0.5321 -1.8372  1.1578
10119TIP3   OH230297   6.842   2.324   6.055  0.6707 -0.4434 -0.3648
10119TIP3    H130298   6.890   2.405   6.035  1.3517 -1.2016 -1.8555
10119TIP3    H230299   6.807   2.339   6.143  1.5397  1.1202 -0.2542
10120TIP3   OH230300   7.286   2.010   5.028 -0.2772  0.4156 -0.4095
10120TIP3    H130301   7.289   2.043   4.939 -1.9745  0.6856 -0.3848
10120TIP3    H230302   7.378   1.992   5.051  0.0771 -0.6189 -2.5567
10121TIP3   OH230303   3.243   6.429   0.263  0.0530 -0.0266 -0.2713
10121TIP3    H130304   3.252   6.414   0.168  1.1886  2.0819 -0.5490
10121TIP3    H230305   3.201   6.515   0.269 -1.6240 -0.9225  1.1707
10122TIP3   OH230306   3.927   6.417   0.611  0.7746  1.2538  0.0975
10122TIP3    H130307   3.972   6.492   0.573  1.6800  1.4174  1.4701
10122TIP3    H230308   3.859   6.455   0.666 -2.5441  1.0098 -3.6161
10123TIP3   OH230309   3.658   2.605   5.125 -0.3650  0.2726 -0.5046
10123TIP3    H130310   3.598   2.578   5.194 -1.2192 -1.1172 -1.7657
10123TIP3    H230311   3.611   2.673   5.077  1.1044  2.9245  1.5884
10124TIP3   OH230312   6.499   0.929   6.725  0.0118  0.1294 -0.1824
10124TIP3    H130313   6.592   0.934   6.744  0.0092 -2.4404  0.8289
10124TIP3    H230314   6.456   0.940   6.810 -0.5483  0.0989 -0.4567
10125TIP3   OH230315   8.380   3.161   4.675 -0.2860  0.3804  0.0082
10125TIP3    H130316   8.474   3.177   4.677 -0.1755 -0.1241 -1.0976
10125TIP3    H230317   8.358   3.134   4.764  0.4626  1.3512  0.4908
10126TIP3   OH230318   7.203   1.356   6.712 -0.3247 -0.1286  0.6590
10126TIP3    H130319   7.280   1.307   6.685  0.5179  0.1165  2.5485
10126TIP3    H230320   7.164   1.304   6.782 -2.1120 -0.4454 -0.5414
10127TIP3   OH230321   0.732   0.388   5.582 -0.1673  0.2729 -0.3342
10127TIP3    H130322   0.659   0.410   5.640 -0.2178 -0.6539 -0.0224
10127TIP3    H230323   0.700   0.314   5.530 -0.3783  1.5776 -2.0919
10128TIP3   OH230324   6.584   2.246   6.428  0.5456  0.0880  0.3621
10128TIP3    H130325   6.533   2.300   6.489  0.1847  0.3448 -0.1601
10128TIP3    H230326   6.672   2.247   6.464  0.5005  0.8772  0.4696
10129TIP3   OH230327   6.391   0.251   4.852  0.2851  0.5250 -0.1821
10129TIP3    H130328   6.323   0.280   4.790 -1.0082 -3.3189 -0.6732
10129TIP3    H230329   6.472   0.256   4.801 -0.3727  0.1293 -1.3067
10130TIP3   OH230330   0.817   0.395   6.945  0.4823 -0.1107 -0.0145
10130TIP3    H130331   0.788   0.346   6.868 -2.1977 -0.8863  1.4301
10130TIP3    H230332   0.837   0.482   6.911 -1.6516 -0.1290 -1.4375
10131TIP3   OH230333   3.054   3.722   0.439 -0.0526 -0.1217  0.4188
10131TIP3    H130334   3.068   3.779   0.515  1.6037  0.4302 -0.2738
10131TIP3    H230335   3.097   3.767   0.367  2.4557 -2.8336  0.1148
10132TIP3   OH230336   3.317   6.793   5.622  0.9790  0.0710  0.0138
10132TIP3    H130337   3.339   6.786   5.715 -0.8088  0.2747  0.4623
10132TIP3    H230338   3.264   6.716   5.603  0.4679  0.5595 -0.5897
10133TIP3   OH230339   7.110   0.957   6.442 -0.5232  0.1722  0.0489
10133TIP3    H130340   7.076   1.039   6.480 -2.4982 -0.5635 -0.0997
10133TIP3    H230341   7.148   0.911   6.517  1.1538  1.4713  0.0345
10134TIP3   OH230342   4.298   7.515   5.390  0.5880 -0.0510  0.1462
10134TIP3    H130343   4.211   7.531   5.428  0.9859  0.3400  0.9141
10134TIP3    H230344   4.291   7.428   5.350 -0.5811  0.5958 -1.0661
10135TIP3   OH230345   2.320   3.286   1.374 -0.2175  0.5643 -0.1314
10135TIP3    H130346   2.320   3.297   1.279 -1.2067 -0.9607 -0.3251
10135TIP3    H230347   2.227   3.287   1.399 -0.2353 -3.5866  0.2288
10136TIP3   OH230348   0.316   5.949   0.203 -0.0863 -0.4646  0.1569
10136TIP3    H130349   0.411   5.959   0.195  0.4573 -4.0571  1.3588
10136TIP3    H230350   0.280   6.001   0.130  2.7269  1.2349 -0.0904
10137TIP3   OH230351  -0.017   2.431   0.971 -0.0496  0.0380 -0.3032
10137TIP3    H130352   0.063   2.482   0.963  0.3771 -0.5949 -0.1043
10137TIP3    H230353  -0.037   2.402   0.881  0.0266  0.0650 -0.3284
10138TIP3   OH230354   0.703   4.617   5.447  0.5630 -0.6292 -0.4514
10138TIP3    H130355   0.646   4.561   5.499 -1.1176  0.9940 -0.4699
10138TIP3    H230356   0.785   4.569   5.441  0.6253 -1.0943  3.2181
10139TIP3   OH230357   1.823   4.048   0.283 -0.6691  0.0335 -0.0858
10139TIP3    H130358   1.746   4.085   0.239 -0.9436 -0.7477 -0.2694
10139TIP3    H230359   1.853   3.979   0.224  1.0782  1.3167 -0.7620
10140TIP3   OH230360   8.613   1.993   4.666  0.0101  0.2265  0.1668
10140TIP3    H130361   8.600   1.969   4.574 -2.1977  0.8442  0.2841
10140TIP3    H230362   8.566   2.076   4.676  1.7157  1.0650  1.4389
10141TIP3   OH230363   5.346   7.224   5.743  0.2357 -0.0340  0.3995
10141TIP3    H130364   5.259   7.214   5.782 -1.2689  2.6212 -2.0659
10141TIP3    H230365   5.380   7.305   5.780  0.9759 -0.1729  0.0392
10142TIP3   OH230366   2.817   4.829   0.605 -0.1654 -0.3288  0.6693
10142TIP3    H130367   2.722   4.816   0.605  0.1061 -2.6503  3.0781
10142TIP3    H230368   2.829   4.915   0.564 -3.0849 -1.2424 -2.3316
10143TIP3   OH230369   4.014   7.784   4.852 -0.4005 -0.5517 -0.3888
10143TIP3    H130370   3.920   7.780   4.868 -0.3980  0.5609 -0.0199
10143TIP3    H230371   4.049   7.702   4.886 -1.1351 -0.6083  0.2353
10144TIP3   OH230372   5.113   1.078   3.694  0.2481  0.3247 -0.0724
10144TIP3    H130373   5.192   1.032   3.722 -0.0042 -0.9929 -1.4410
10144TIP3    H230374   5.145   1.164   3.668  1.1078  0.1116  0.2314
10145TIP3   OH230375   6.178   7.801   6.058 -0.3690 -0.6940 -0.3123
10145TIP3    H130376   6.200   7.846   5.976 -2.5563 -0.2470 -0.6955
10145TIP3    H230377   6.217   7.855   6.126  0.0979 -0.1903 -0.9736
10146TIP3   OH230378   8.535   0.843   6.302 -0.0133 -0.4433 -0.0156
10146TIP3    H130379   8.571   0.765   6.345  0.5027  0.5297  1.3337
10146TIP3    H230380   8.604   0.909   6.312 -1.5310  0.9793  1.2013
10147TIP3   OH230381   3.977   5.331   0.431  0.0496 -0.0885  0.2685
10147TIP3    H130382   3.964   5.368   0.344 -1.2065  0.2850  0.6048
10147TIP3    H230383   4.024   5.249   0.416  1.6707  0.9681 -0.5907
10148TIP3   OH230384   7.022   1.801   5.653  0.0644  0.2719  0.8367
10148TIP3    H130385   6.979   1.852   5.722 -0.4212  1.7568 -0.5434
10148TIP3    H230386   7.016   1.856   5.575 -1.4730 -2.3672 -0.9902
10149TIP3   OH230387   2.508   2.245   1.855 -0.0926  0.3394 -0.3518
10149TIP3    H130388   2.496   2.158   1.894 -1.5983 -0.3767 -2.3181
10149TIP3    H230389   2.419   2.275   1.836  0.5537  0.9851 -2.4700
10150TIP3   OH230390   0.765   1.319   1.768  0.3673  0.1282  0.0261
10150TIP3    H130391   0.741   1.236   1.726  1.5264  0.1683 -0.7557
10150TIP3    H230392   0.730   1.312   1.856  1.9723 -1.9768  0.5527
10151TIP3   OH230393   1.552   4.066   2.118  0.2475  0.4019  0.7607
10151TIP3    H130394   1.498   4.128   2.068 -0.6281  0.5095  1.8226
10151TIP3    H230395   1.560   3.990   2.061  0.5433  1.1096 -0.1731
10152TIP3   OH230396   6.920   0.881   3.684 -0.4147 -0.0259 -0.1717
10152TIP3    H130397   6.831   0.916   3.688 -0.3476  0.1051  0.2144
10152TIP3    H230398   6.964   0.919   3.761  0.0475  0.1244 -0.5032
10153TIP3   OH230399   2.002   4.434   0.067 -0.0149  0.0419  0.7000
10153TIP3    H130400   2.052   4.364   0.025  0.8830  0.3524  1.2534
10153TIP3    H230401   2.039   4.515   0.033  0.1210  0.2805  1.4030
10154TIP3   OH230402   8.473   2.751   5.300 -0.4745 -0.0309  0.0455
10154TIP3    H130403   8.419   2.689   5.349 -0.1016 -0.3116  0.1132
10154TIP3    H230404   8.532   2.695   5.248  0.7279  0.2463  1.0733
10155TIP3   OH230405   1.287   0.325   6.213  0.0794  0.0615 -0.0952
10155TIP3    H130406   1.327   0.403   6.252  0.7306 -0.1141 -0.4129
10155TIP3    H230407   1.195   0.348   6.203 -0.4539 -0.4216  3.0035
10156TIP3   OH230408   2.060   3.913   0.433  0.7365  0.8515  0.4710
10156TIP3    H130409   1.980   3.936   0.385  0.0379  1.0112  1.6790
10156TIP3    H230410   2.031   3.848   0.498  2.0235 -0.8285 -0.5872
10157TIP3   OH230411   0.188   4.152   1.967 -0.2700  0.5565 -0.2392
10157TIP3    H130412   0.114   4.090   1.964 -0.0226  0.2132  0.4765
10157TIP3    H230413   0.149   4.236   1.946 -1.1303  0.5879  1.3670
10158TIP3   OH230414   5.131   2.867   5.508  0.0128  0.0218  0.0442
10158TIP3    H130415   5.208   2.879   5.563  0.1416  2.0110 -0.5579
10158TIP3    H230416   5.165   2.823   5.429  0.4319  0.3672  0.0304
10159TIP3   OH230417   2.733   5.996   0.134  0.0141  0.4540  0.1925
10159TIP3    H130418   2.686   6.079   0.136  2.1779  1.6987  1.6711
10159TIP3    H230419   2.773   5.989   0.221  1.0933 -1.4039 -0.4329
10160TIP3   OH230420   0.452   7.929   0.062 -0.3617  0.1103  0.1540
10160TIP3    H130421   0.546   7.912   0.065 -0.2163  0.4854 -1.8425
10160TIP3    H230422   0.430   7.953   0.152  1.4770  0.1725  0.6157
10161TIP3   OH230423   2.437   4.608   0.433  0.8156  0.3226 -0.1980
10161TIP3    H130424   2.376   4.543   0.399 -0.6839  0.6041  1.8370
10161TIP3    H230425   2.503   4.557   0.480  0.4677  0.1620  0.1264
10162TIP3   OH230426   7.759   0.816   5.962 -0.0865  0.1563  0.2517
10162TIP3    H130427   7.780   0.898   6.006 -1.7329  0.5931  0.2540
10162TIP3    H230428   7.733   0.756   6.033 -0.4191  0.1245  0.1045
10163TIP3   OH230429   4.629   4.298   0.580  0.3532 -0.0905 -0.0262
10163TIP3    H130430   4.650   4.334   0.494 -0.0750  2.0207  0.7190
10163TIP3    H230431   4.537   4.272   0.573 -0.6858  3.1229  0.7217
10164TIP3   OH230432   8.017   0.755   4.728 -0.5642  0.0353 -0.0956
10164TIP3    H130433   8.036   0.685   4.666 -0.6324 -0.3887  0.3499
10164TIP3    H230434   7.933   0.790   4.700 -0.0980  0.5503 -0.8619
10165TIP3   OH230435   2.333   5.549   1.104  0.1031  0.0104 -0.1556
10165TIP3    H130436   2.375   5.472   1.142  0.5737  0.0251 -0.6226
10165TIP3    H230437   2.373   5.623   1.150 -2.1152 -0.0933  2.0061
10166TIP3   OH230438   0.226   5.777   0.431  0.0876 -0.1245  0.3877
10166TIP3    H130439   0.272   5.831   0.367 -1.7475  0.1754 -0.6989
10166TIP3    H230440   0.237   5.687   0.399 -0.0165 -0.0601  0.1733
10167TIP3   OH230441   6.677   0.166   5.861  0.1223 -0.2107  1.0443
10167TIP3    H130442   6.643   0.222   5.931  1.5931  0.9584  0.8610
10167TIP3    H230443   6.643   0.206   5.780 -1.8579 -1.7598  1.1039
10168TIP3   OH230444   3.752   8.005   5.053 -0.1237  0.6160  0.1626
10168TIP3    H130445   3.824   8.068   5.048  0.7774 -0.5102 -1.3876
10168TIP3    H230446   3.738   7.977   4.962 -1.5787 -0.2436  0.6307
10169TIP3   OH230447   1.126   5.071   0.400 -0.2564 -0.5414 -0.6246
10169TIP3    H130448   1.061   5.001   0.404  0.0502 -0.7447  1.0442
10169TIP3    H230449   1.095   5.128   0.329 -1.3550 -1.5153 -0.9458
10170TIP3   OH230450   6.191   0.760   6.392 -0.3186 -0.5400  0.3553
10170TIP3    H130451   6.220   0.745   6.482 -2.7625  3.6396  1.9609
10170TIP3    H230452   6.253   0.824   6.357 -0.2121 -1.0902 -0.4772
10171TIP3   OH230453   4.045   6.242   4.300  0.0419  0.2336 -0.1388
10171TIP3    H130454   4.103   6.172   4.329 -0.3859 -0.4277 -0.8765
10171TIP3    H230455   3.959   6.201   4.292 -1.0594  1.7090  3.1390
10172TIP3   OH230456   8.418   0.072   5.403  0.1472 -0.1792  0.5805
10172TIP3    H130457   8.384   0.066   5.313  3.1116  0.3632 -0.6401
10172TIP3    H230458   8.415   0.165   5.424 -0.2020 -0.2625  0.8981
10173TIP3   OH230459   8.277   0.032   5.166  0.7075 -0.0386 -0.1124
10173TIP3    H130460   8.340   0.008   5.097  1.2495 -0.1213  0.4119
10173TIP3    H230461   8.234   0.111   5.132  0.7394 -0.2646 -0.6942
10174TIP3   OH230462   1.016   2.864   0.399 -0.4480  0.2447  0.1187
10174TIP3    H130463   0.989   2.945   0.442  1.0740  2.3051 -2.6431
10174TIP3    H230464   1.054   2.812   0.469  2.0554  3.5314  1.3414
10175TIP3   OH230465   7.093   3.596   6.671 -0.1541 -0.1905  0.3176
10175TIP3    H130466   7.175   3.637   6.700 -0.3056  0.3693 -0.0462
10175TIP3    H230467   7.034   3.605   6.746 -0.7807  1.9057 -0.3983
10176TIP3   OH230468   7.409   4.200   3.949  0.1895 -0.5679 -1.1522
10176TIP3    H130469   7.381   4.234   4.034  0.1231 -0.0980 -1.3655
10176TIP3    H230470   7.474   4.133   3.971 -0.0894 -0.6962 -0.7157
10177TIP3   OH230471   7.829   1.822   5.841  0.3689 -0.7083 -0.4680
10177TIP3    H130472   7.842   1.729   5.859  0.9560 -0.3972  0.7872
10177TIP3    H230473   7.763   1.850   5.905  0.9896 -0.0250 -0.1210
10178TIP3   OH230474   7.507   1.073   6.122  0.4099 -0.1326  0.0488
10178TIP3    H130475   7.490   1.125   6.043  1.2095 -2.0592 -1.4268
10178TIP3    H230476   7.598   1.093   6.145  0.3495  0.0038  0.1762
10179TIP3   OH230477   7.697   1.761   6.331 -0.3520 -0.4883  0.3930
10179TIP3    H130478   7.659   1.696   6.390 -1.5568 -0.9406 -0.8521
10179TIP3    H230479   7.699   1.842   6.382 -1.4417 -0.8620  1.0284
10180TIP3   OH230480   1.353   2.527   1.299 -0.6607 -0.4780  0.0644
10180TIP3    H130481   1.306   2.464   1.244 -0.8690  0.6388 -1.0293
10180TIP3    H230482   1.416   2.568   1.241  0.3603 -0.5717  1.0827
10181TIP3   OH230483   8.589   3.838   0.837 -0.4848 -0.2233  0.0296
10181TIP3    H130484   8.646   3.891   0.782 -1.5137  1.4878  0.5338
10181TIP3    H230485   8.560   3.767   0.781  0.9057 -0.2347 -0.6887
10182TIP3   OH230486   4.448   2.132   6.399  0.0287  0.9403  0.6482
10182TIP3    H130487   4.382   2.076   6.360  0.5492  1.2598 -0.6977
10182TIP3    H230488   4.423   2.221   6.375  0.3738  1.1360  0.9977
10183TIP3   OH230489   8.228   3.703   4.415 -0.1913  0.2836  0.7741
10183TIP3    H130490   8.174   3.642   4.466 -0.4738 -0.1530 -0.0367
10183TIP3    H230491   8.269   3.648   4.348 -1.2060  1.1413 -0.5632
10184TIP3   OH230492   1.374   4.453   0.344 -0.2263 -0.0113 -0.4428
10184TIP3    H130493   1.377   4.364   0.307  1.2454  0.5189 -1.6540
10184TIP3    H230494   1.346   4.440   0.434 -1.7693 -1.5500 -1.1111
10185TIP3   OH230495   5.632   1.080   5.351 -0.3604 -0.1383 -0.8426
10185TIP3    H130496   5.614   1.033   5.270 -1.3349  0.9804 -1.2951
10185TIP3    H230497   5.644   1.011   5.417  1.6329 -1.0820 -2.1591
10186TIP3   OH230498   2.050   3.921   1.867  0.2825  0.0497 -0.5950
10186TIP3    H130499   2.051   3.992   1.931  0.2630  0.6443 -1.2414
10186TIP3    H230500   2.088   3.847   1.913  0.0757  0.4121  0.1683
10187TIP3   OH230501   6.867   2.246   5.523 -0.6586 -0.8269  0.0653
10187TIP3    H130502   6.797   2.311   5.519  1.8735  2.0897  0.5790
10187TIP3    H230503   6.918   2.260   5.443  1.1223 -0.6967  1.1737
10188TIP3   OH230504   1.620   6.465   1.143 -0.1337  0.4094 -0.1022
10188TIP3    H130505   1.626   6.559   1.160  0.2715  0.5479 -0.9619
10188TIP3    H230506   1.547   6.435   1.198 -0.8996  1.4060 -0.5523
10189TIP3   OH230507   6.587   1.958   6.375 -0.2187 -0.3532 -0.1906
10189TIP3    H130508   6.585   2.054   6.382  0.8516 -0.2697 -0.9954
10189TIP3    H230509   6.613   1.929   6.462  1.6564  0.1965 -0.5357
10190TIP3   OH230510   7.437   1.741   4.783  0.3518 -0.7856  0.1749
10190TIP3    H130511   7.515   1.792   4.760 -0.5714  1.0642  1.0900
10190TIP3    H230512   7.454   1.711   4.872 -0.1565 -0.0095  0.5396
10191TIP3   OH230513   6.078   3.612   6.032  0.2774  0.1705 -0.2485
10191TIP3    H130514   6.129   3.689   6.056 -1.3311  1.7258 -1.6575
10191TIP3    H230515   6.087   3.553   6.106  2.5057  1.2182  0.3438
10192TIP3   OH230516   5.302   0.040   6.988 -0.4624  0.3380  0.0228
10192TIP3    H130517   5.355   0.054   6.910  0.1543 -1.0293  0.1812
10192TIP3    H230518   5.247   0.118   6.995  0.8674  1.3399 -0.6640
10193TIP3   OH230519   0.929   4.592   1.874  0.7192 -0.7057 -0.0173
10193TIP3    H130520   0.943   4.535   1.799  1.6745 -0.6768  0.1307
10193TIP3    H230521   0.834   4.597   1.884  0.5918 -0.8088 -1.1465
10194TIP3   OH230522   4.479   0.363   5.297  0.1378  0.0882 -0.2619
10194TIP3    H130523   4.564   0.398   5.268  0.6194 -1.4295 -0.7306
10194TIP3    H230524   4.472   0.391   5.388  1.8485 -1.0673  0.2421
10195TIP3   OH230525   4.564   7.651   6.784  0.4811  0.4005 -0.3625
10195TIP3    H130526   4.642   7.700   6.756  1.1063  0.2284  1.0241
10195TIP3    H230527   4.597   7.592   6.852 -0.7264 -0.2255 -0.3178
10196TIP3   OH230528   6.728   0.211   6.566 -0.0009 -0.0023 -0.7227
10196TIP3    H130529   6.808   0.166   6.597 -0.2748 -0.9603 -1.3718
10196TIP3    H230530   6.663   0.141   6.558 -1.0336  0.8388  0.1974
10197TIP3   OH230531   2.408   6.191   0.933  0.3336 -0.1426 -0.2974
10197TIP3    H130532   2.343   6.205   0.865  0.0270  2.3049  0.4511
10197TIP3    H230533   2.445   6.105   0.914 -0.0756  0.3005 -3.2537
10198TIP3   OH230534   4.960   0.401   6.782 -0.0137 -0.4680 -0.9335
10198TIP3    H130535   5.037   0.457   6.768 -0.3093  0.4235  0.8871
10198TIP3    H230536   4.901   0.454   6.835 -0.8175 -2.0644 -0.1795
10199TIP3   OH230537   8.474   4.479   0.774  0.1419  0.3956  0.2807
10199TIP3    H130538   8.450   4.450   0.862 -1.0056  1.3369  0.2890
10199TIP3    H230539   8.533   4.411   0.741 -0.6557 -0.7417  1.1882
10200TIP3   OH230540   1.573   3.933   0.553 -0.2910  0.9353  0.3912
10200TIP3    H130541   1.653   3.967   0.593 -2.0675  2.2105  2.9684
10200TIP3    H230542   1.580   3.838   0.560  0.7720  1.0571  1.0470
10201TIP3   OH230543   5.098   7.906   4.636  0.0288 -0.2648 -0.0601
10201TIP3    H130544   5.160   7.921   4.565  0.6402  0.6929  0.6634
10201TIP3    H230545   5.129   7.825   4.678  0.9054  0.3143  0.4214
10202TIP3   OH230546   6.412   3.070   6.223 -0.0561 -0.2521 -0.6825
10202TIP3    H130547   6.375   3.112   6.145 -0.4664  1.3977  0.3900
10202TIP3    H230548   6.382   3.124   6.296  2.1185 -0.5402  0.4453
10203TIP3   OH230549   7.051   0.295   5.111  0.4135 -0.4875 -0.3921
10203TIP3    H130550   7.062   0.251   5.195 -0.6731  0.7938  0.4184
10203TIP3    H230551   6.984   0.361   5.126 -0.6763 -1.0581 -2.5867
10204TIP3   OH230552   8.473   1.797   5.163  0.3888  0.0948 -0.1946
10204TIP3    H130553   8.488   1.881   5.119 -0.9205  0.3578 -0.1724
10204TIP3    H230554   8.486   1.816   5.256  1.3147 -0.0235 -0.2959
10205TIP3   OH230555   8.278   0.990   5.273  0.0769  0.7714 -0.2062
10205TIP3    H130556   8.193   0.980   5.228 -1.2147  1.0554  2.1248
10205TIP3    H230557   8.294   1.084   5.274  0.1758  0.7540 -0.2115
10206TIP3   OH230558   0.162   0.891   5.553  0.4141  0.5255 -0.1917
10206TIP3    H130559   0.145   0.891   5.458  0.8741  0.5253 -0.2751
10206TIP3    H230560   0.197   0.979   5.570 -3.6909  2.0877  0.7161
10207TIP3   OH230561   0.277   4.165   5.283  0.0623  0.0211  0.4623
10207TIP3    H130562   0.284   4.075   5.251  0.2841  0.5839 -1.0919
10207TIP3    H230563   0.183   4.175   5.303  0.4180 -1.3353  3.0508
10208TIP3   OH230564   6.220   3.304   4.476 -0.4442 -0.1921 -0.4416
10208TIP3    H130565   6.261   3.281   4.560 -0.6781  0.7185 -0.0707
10208TIP3    H230566   6.210   3.221   4.430  1.7515 -0.4576 -0.4938
10209TIP3   OH230567   6.865   7.350   6.360  0.0876  0.2717 -0.1422
10209TIP3    H130568   6.788   7.294   6.355  1.1630 -1.2912  0.5012
10209TIP3    H230569   6.848   7.407   6.435 -0.4431 -0.0430 -0.0183
10210TIP3   OH230570   4.654   6.730   6.922 -0.0131 -0.4215 -0.0149
10210TIP3    H130571   4.572   6.754   6.880 -0.0413 -1.8666 -0.7992
10210TIP3    H230572   4.722   6.759   6.861  0.0617  0.2695  0.3806
10211TIP3   OH230573   8.593   3.103   5.016 -0.4387  0.0014  0.4795
10211TIP3    H130574   8.517   3.060   5.057 -0.9726  1.2367  0.7908
10211TIP3    H230575   8.579   3.092   4.922 -0.0883 -1.3251  0.5624
10212TIP3   OH230576   3.835   7.951   6.461  0.1303  0.1651  0.4599
10212TIP3    H130577   3.836   8.006   6.539 -0.2561  0.5851  0.1727
10212TIP3    H230578   3.924   7.917   6.454  0.2176  0.2876  0.9689
10213TIP3   OH230579   1.684   0.161   5.079  0.2678  0.1329  0.2911
10213TIP3    H130580   1.652   0.129   4.995 -1.6126  0.9174  0.6916
10213TIP3    H230581   1.644   0.103   5.144  2.2324 -0.8811  0.6228
10214TIP3   OH230582   8.598   2.166   6.388 -0.3613  0.0478 -0.1653
10214TIP3    H130583   8.570   2.108   6.316  0.4336  0.9167 -1.1797
10214TIP3    H230584   8.518   2.180   6.439 -0.6139 -1.7710 -0.0275
10215TIP3   OH230585   5.798   7.214   5.623  0.2181 -0.5348 -0.1656
10215TIP3    H130586   5.750   7.246   5.546 -0.1732  0.5365  0.5086
10215TIP3    H230587   5.795   7.119   5.615 -0.1959 -0.4440 -1.2433
10216TIP3   OH230588   5.113   7.669   6.473 -0.7102  0.4367  0.1071
10216TIP3    H130589   5.142   7.578   6.481 -0.0788  0.5803 -0.4475
10216TIP3    H230590   5.056   7.669   6.396 -0.6289  0.5268  0.0456
10217TIP3   OH230591   0.728   2.506   1.806 -0.2239 -0.0394  0.3467
10217TIP3    H130592   0.799   2.443   1.822  0.1466  0.3648  0.3246
10217TIP3    H230593   0.700   2.533   1.893 -0.1311  0.0380  0.3535
10218TIP3   OH230594   7.279   3.061   5.794  0.3836  0.1968  0.0018
10218TIP3    H130595   7.248   3.066   5.884 -0.3530  0.3219 -0.2603
10218TIP3    H230596   7.281   3.152   5.764 -1.0366  0.0168 -0.6734
10219TIP3   OH230597   7.084   0.832   6.199  0.0050  0.2493  1.0861
10219TIP3    H130598   7.093   0.891   6.274  1.9136  0.3114  0.8297
10219TIP3    H230599   7.143   0.759   6.219 -1.0056 -0.7200  0.5785
10220TIP3   OH230600   7.446   6.167   1.816  0.2493 -0.0115  0.1638
10220TIP3    H130601   7.365   6.117   1.824 -0.8728  1.5308 -1.1165
10220TIP3    H230602   7.436   6.216   1.735  2.7719 -0.2934 -0.3877
10221TIP3   OH230603   0.966   2.438   6.856 -0.0453  0.4660  0.2142
10221TIP3    H130604   0.933   2.377   6.922 -0.4411 -0.5407 -0.8969
10221TIP3    H230605   0.927   2.407   6.774  1.5858  0.8332 -0.7112
10222TIP3   OH230606   1.169   4.947   0.944 -0.3875 -0.5514 -0.4923
10222TIP3    H130607   1.085   4.988   0.923 -0.4594  0.2129  1.1918
10222TIP3    H230608   1.233   5.017   0.937 -0.1004 -0.7979 -0.3803
10223TIP3   OH230609   1.078   5.395   0.870  0.2524 -0.2073  0.2144
10223TIP3    H130610   1.024   5.336   0.923  2.2298  0.0785  2.6798
10223TIP3    H230611   1.114   5.339   0.801 -0.0734 -1.2662  0.8856
10224TIP3   OH230612   2.203   4.734   0.570  0.2817  0.3214 -0.6246
10224TIP3    H130613   2.224   4.656   0.518  1.6357 -0.0445  0.4357
10224TIP3    H230614   2.260   4.802   0.535 -0.1759  0.5717 -0.8827
10225TIP3   OH230615   8.511   1.507   6.048  0.2415  0.3340 -0.3344
10225TIP3    H130616   8.457   1.562   6.105 -0.8079  1.3362 -2.2499
10225TIP3    H230617   8.453   1.435   6.023  1.0152 -0.6343  0.6544
10226TIP3   OH230618   7.505   1.400   6.206  0.4401  0.0443  0.3949
10226TIP3    H130619   7.428   1.360   6.248 -0.2989  1.3407  0.2956
10226TIP3    H230620   7.476   1.424   6.118  0.3737  2.2490  0.9813
10227TIP3   OH230621   0.331   0.559   5.336 -0.3367  0.3989 -0.0148
10227TIP3    H130622   0.346   0.594   5.424 -0.9203 -0.6824  0.5118
10227TIP3    H230623   0.373   0.624   5.278 -1.1287  1.8180  0.9604
10228TIP3   OH230624   7.374   5.601   1.817  0.1559 -0.2657  0.1459
10228TIP3    H130625   7.431   5.575   1.744 -0.6602 -0.6695 -0.3672
10228TIP3    H230626   7.389   5.695   1.827  0.0229 -0.1411 -0.7757
10229TIP3   OH230627   4.293   7.702   5.817 -0.3532  0.0773 -0.3065
10229TIP3    H130628   4.333   7.619   5.844 -2.1042 -0.4789  0.6652
10229TIP3    H230629   4.365   7.751   5.777  1.5914 -0.4343  2.4099
10230TIP3   OH230630   1.110   4.239   0.209  0.0526 -0.2550 -0.4820
10230TIP3    H130631   1.048   4.166   0.212  0.1951 -0.3139  1.6910
10230TIP3    H230632   1.065   4.310   0.254  1.0920  0.0779  0.0348
10231TIP3   OH230633   4.361   7.314   5.553  0.0613 -0.4496 -0.6819
10231TIP3    H130634   4.432   7.306   5.617  0.7042  0.2433 -1.3011
10231TIP3    H230635   4.378   7.397   5.508 -1.4588 -0.0107 -0.4634
10232TIP3   OH230636   6.659   2.555   4.808  0.0177  1.3347 -0.3649
10232TIP3    H130637   6.735   2.611   4.788  0.8991  0.5971  0.8515
10232TIP3    H230638   6.594   2.579   4.742 -0.1655  4.8730  1.0078
10233TIP3   OH230639   0.559   2.894   4.166  0.2641 -0.1700  0.0191
10233TIP3    H130640   0.582   2.865   4.254 -0.3576 -1.4476 -0.2327
10233TIP3    H230641   0.635   2.945   4.137  0.4259  0.3538  1.3235
10234TIP3   OH230642   5.602   2.209   5.637  0.0600 -0.3398  0.2843
10234TIP3    H130643   5.545   2.190   5.563  0.6923  2.7218 -1.0633
10234TIP3    H230644   5.682   2.159   5.619 -0.4113 -0.8962 -0.2663
10235TIP3   OH230645   2.178   5.229   0.242 -0.6434  0.4133  0.3941
10235TIP3    H130646   2.182   5.198   0.151 -0.2593  0.4532  0.3967
10235TIP3    H230647   2.102   5.184   0.279  0.2156 -0.9177  0.5471
10236TIP3   OH230648   5.012   8.042   5.376  0.3384 -0.3095 -0.2884
10236TIP3    H130649   4.974   8.106   5.315  1.3246 -1.5837 -2.3061
10236TIP3    H230650   4.941   7.979   5.392 -0.8892  1.6625  2.3333
10237TIP3   OH230651   0.518   1.212   5.809 -0.3040 -0.4284 -0.0045
10237TIP3    H130652   0.574   1.135   5.819  0.9080  0.5539  0.9515
10237TIP3    H230653   0.479   1.223   5.896  0.6299  0.8516  0.2702
10238TIP3   OH230654   8.233   0.777   6.344 -0.5234  0.0207 -0.1052
10238TIP3    H130655   8.314   0.825   6.362 -0.4190  0.0643 -0.6810
10238TIP3    H230656   8.262   0.689   6.322 -0.6708 -0.1212  0.2602
10239TIP3   OH230657   1.067   0.038   6.398  0.4302  0.5863 -0.4798
10239TIP3    H130658   1.063  -0.042   6.347  1.4720 -1.2131  2.1528
10239TIP3    H230659   1.160   0.049   6.419  0.3651  2.7793 -1.2392
10240TIP3   OH230660   0.586   2.075   5.889  0.1671 -0.5486 -0.0411
10240TIP3    H130661   0.518   2.054   5.953  0.5796  1.5881  1.1512
10240TIP3    H230662   0.579   2.170   5.877  1.7000 -0.5763 -1.3287
10241TIP3   OH230663   1.244   0.052   4.324 -0.1876  0.5429 -0.0802
10241TIP3    H130664   1.187   0.105   4.380  0.1706  1.2020 -0.3372
10241TIP3    H230665   1.305   0.115   4.284 -0.4528  0.0865 -1.2302
10242TIP3   OH230666   0.542   3.200   5.292  0.1166  0.5151 -0.0617
10242TIP3    H130667   0.477   3.162   5.351  0.4734  1.3772  0.8870
10242TIP3    H230668   0.578   3.275   5.339  1.6600  0.1746 -0.6612
10243TIP3   OH230669   6.037   8.047   6.211 -0.2007  0.5123 -0.4274
10243TIP3    H130670   5.996   8.111   6.154 -0.9903  1.0077  0.6760
10243TIP3    H230671   5.964   8.005   6.257  0.4903  1.4239  1.5809
10244TIP3   OH230672   3.543   5.481   0.230 -0.0360  0.1302  0.7358
10244TIP3    H130673   3.599   5.558   0.241 -0.6703  0.4958  1.4803
10244TIP3    H230674   3.517   5.482   0.138  0.1458  0.6816  0.6891
10245TIP3   OH230675   8.027   3.293   5.399  0.5008  0.3396 -0.3909
10245TIP3    H130676   8.023   3.346   5.478  2.6535  0.2057 -0.1599
10245TIP3    H230677   7.996   3.206   5.426 -1.1655  0.9408 -0.3144
10246TIP3   OH230678   1.477   1.939   6.972  0.3949 -0.2947 -0.4583
10246TIP3    H130679   1.539   1.881   6.928  0.9446 -1.2271  1.4698
10246TIP3    H230680   1.456   1.893   7.054 -1.5049  0.8226 -0.2983
10247TIP3   OH230681   8.164   0.353   6.294  0.4021  0.1437  0.1697
10247TIP3    H130682   8.111   0.355   6.373  0.6323  1.8130  0.3075
10247TIP3    H230683   8.103   0.327   6.225 -0.4974  1.5345  0.4143
10248TIP3   OH230684   0.976   1.317   5.318  0.4455 -0.0988  0.1751
10248TIP3    H130685   0.905   1.369   5.354  0.5812 -0.5204  1.0673
10248TIP3    H230686   0.934   1.261   5.253  0.2609  0.9405 -0.6003
10249TIP3   OH230687   4.540   7.617   6.499 -0.4151  0.2671 -0.0921
10249TIP3    H130688   4.625   7.637   6.462 -0.5145  0.8129 -0.0276
10249TIP3    H230689   4.542   7.653   6.588 -1.1748  1.4478 -0.5431
10250TIP3   OH230690   3.694   6.303   1.605  0.0876 -0.4264 -0.2475
10250TIP3    H130691   3.752   6.377   1.624 -0.7395  0.3476 -0.7339
10250TIP3    H230692   3.703   6.290   1.510 -0.1724 -0.6166 -0.2457
10251TIP3   OH230693   0.274   1.347   6.997  0.6636  0.2752 -0.0634
10251TIP3    H130694   0.299   1.356   6.904 -3.1578 -0.9407 -1.2767
10251TIP3    H230695   0.226   1.428   7.016 -2.0299 -1.2053 -0.3655
10252TIP3   OH230696   6.425   3.005   3.712 -0.0093 -0.1671 -0.5072
10252TIP3    H130697   6.470   3.057   3.645 -0.9041  2.3986  0.8057
10252TIP3    H230698   6.485   3.003   3.786 -1.5820  2.5625  0.9421
10253TIP3   OH230699   2.631   1.395   5.342  0.1366  0.5225  0.1876
10253TIP3    H130700   2.561   1.386   5.277 -0.2504 -2.4380  0.9733
10253TIP3    H230701   2.587   1.387   5.426  1.0813  1.2618  0.7669
10254TIP3   OH230702   5.988   2.268   6.422 -0.3610 -0.2766 -0.1475
10254TIP3    H130703   5.896   2.262   6.445 -0.4566  1.9253  0.1804
10254TIP3    H230704   5.992   2.240   6.330 -1.0395 -2.2928  0.4251
10255TIP3   OH230705   2.873   3.295   0.112  0.0320 -0.1805 -0.5424
10255TIP3    H130706   2.806   3.302   0.045  1.1634 -0.1899 -1.6898
10255TIP3    H230707   2.862   3.373   0.166 -1.2560 -0.4629 -0.3710
10256TIP3   OH230708   4.414   5.991   2.119  0.2888 -0.2758 -0.0818
10256TIP3    H130709   4.477   6.062   2.110  1.2618 -1.1506 -0.1590
10256TIP3    H230710   4.386   5.996   2.210  1.3550 -0.6373  0.2678
10257TIP3   OH230711   0.493   0.069   5.663  0.5055  0.0054 -0.2062
10257TIP3    H130712   0.512   0.072   5.757 -0.5418 -0.0417  0.0039
10257TIP3    H230713   0.408   0.027   5.657 -1.2160  3.4858 -0.9218
10258TIP3   OH230714   0.627   2.552   4.013 -0.1080 -0.4141  0.9004
10258TIP3    H130715   0.675   2.471   4.029  1.2214 -0.1795 -1.7220
10258TIP3    H230716   0.684   2.621   4.049  1.2211 -0.2048 -1.5299
10259TIP3   OH230717   7.424   0.437   6.423  0.1600 -0.1168 -0.1706
10259TIP3    H130718   7.452   0.454   6.513 -0.3466  1.6868 -0.3285
10259TIP3    H230719   7.506   0.430   6.374  0.4521  2.7700 -0.2063
10260TIP3   OH230720   7.831   4.324   6.938  0.1241  0.0116  0.4518
10260TIP3    H130721   7.889   4.251   6.958 -0.7629 -0.7347  0.3004
10260TIP3    H230722   7.755   4.312   6.995  0.5850  1.5830  1.4260
10261TIP3   OH230723   2.277   5.495   0.192  0.0520 -0.1159  0.3489
10261TIP3    H130724   2.218   5.534   0.127  1.5067 -0.6689 -1.3429
10261TIP3    H230725   2.222   5.484   0.270 -1.7365  0.5653 -0.7622
10262TIP3   OH230726   0.595   3.265   5.890 -0.2656 -0.2249  0.3538
10262TIP3    H130727   0.606   3.322   5.815  0.7089 -0.6640  0.1506
10262TIP3    H230728   0.565   3.323   5.961 -0.8649  0.2399 -0.2727
10263TIP3   OH230729   3.572   6.446   0.200  0.5181 -0.0489 -0.2682
10263TIP3    H130730   3.618   6.515   0.248 -1.0324  0.7302  0.1210
10263TIP3    H230731   3.528   6.394   0.267 -0.9545  0.5383 -0.7452
10264TIP3   OH230732   3.080   5.674   0.034 -1.0807  0.3099  0.2018
10264TIP3    H130733   3.042   5.698   0.119 -1.7664  0.6067 -0.1843
10264TIP3    H230734   3.099   5.758  -0.008  1.5663  0.1764  1.0631
10265TIP3   OH230735   0.837   2.853   6.090  0.4119  0.3354 -0.7294
10265TIP3    H130736   0.835   2.944   6.061 -0.1530  0.5537 -0.0249
10265TIP3    H230737   0.929   2.827   6.081  1.2138  1.9677  2.0103
10266TIP3   OH230738   0.678   3.512   6.727  0.2090  0.0541  0.3272
10266TIP3    H130739   0.765   3.473   6.725 -0.2066 -0.8635  0.0354
10266TIP3    H230740   0.644   3.492   6.815 -0.0004 -0.2412  0.1799
10267TIP3   OH230741   7.943   1.106   5.352 -0.7898  0.2131  0.2228
10267TIP3    H130742   7.972   1.043   5.286  0.5070 -0.8701  1.7751
10267TIP3    H230743   7.963   1.191   5.314  0.2494 -0.3955 -0.6527
10268TIP3   OH230744   2.481   1.195   6.253 -0.4757  0.7351  0.2564
10268TIP3    H130745   2.388   1.211   6.236 -0.5534 -0.8139 -0.9332
10268TIP3    H230746   2.482   1.144   6.334 -0.7618 -0.4937 -0.5085
10269TIP3   OH230747   5.268   4.975   1.005 -0.3080 -0.3538  0.5258
10269TIP3    H130748   5.266   5.064   1.041 -2.7475 -0.7124  1.3853
10269TIP3    H230749   5.237   4.986   0.915  0.4952 -0.1824  0.2700
10270TIP3   OH230750   5.050   6.002   0.428  0.5489 -0.1263 -0.2321
10270TIP3    H130751   5.080   5.978   0.516  0.6982 -0.6893 -0.4345
10270TIP3    H230752   5.015   5.921   0.391 -2.5727  0.7819  0.5220
10271TIP3   OH230753   3.584   3.273   5.265 -0.6304 -0.4327 -0.2488
10271TIP3    H130754   3.512   3.211   5.254 -1.1864 -0.2459  2.1818
10271TIP3    H230755   3.565   3.318   5.347  1.0094  1.3114 -0.7875
10272TIP3   OH230756   3.924   7.595   0.326  0.1588  0.0464 -0.5770
10272TIP3    H130757   3.882   7.610   0.411 -1.8738 -0.0365 -1.5389
10272TIP3    H230758   4.005   7.548   0.347 -0.7144 -0.6948  1.2467
10273TIP3   OH230759   3.857   5.457   0.209 -0.3085 -0.8432 -0.1387
10273TIP3    H130760   3.794   5.385   0.206  0.8550 -1.9112  0.5305
10273TIP3    H230761   3.855   5.494   0.120 -1.7005 -1.0058 -0.1885
10274TIP3   OH230762   7.578   0.713   1.506  0.2234 -0.0133 -0.1616
10274TIP3    H130763   7.568   0.640   1.445  0.3298  0.8980 -1.2827
10274TIP3    H230764   7.489   0.730   1.538 -0.1238  0.7700 -1.5430
10275TIP3   OH230765   3.616   4.085   6.461 -0.1155  0.0006  0.3778
10275TIP3    H130766   3.702   4.124   6.477 -1.1928  2.2230  0.8757
10275TIP3    H230767   3.594   4.041   6.543 -0.3610  1.1808  0.9473
10276TIP3   OH230768   4.802   4.566   1.656 -0.3754  0.2184  0.2373
10276TIP3    H130769   4.774   4.475   1.644 -0.0065  0.0478  0.6641
10276TIP3    H230770   4.897   4.563   1.649 -0.4070  0.6715 -0.3886
10277TIP3   OH230771   1.860   2.079   6.968  0.1227  0.3573 -0.1013
10277TIP3    H130772   1.846   2.159   6.916  0.2299  1.1917  1.1275
10277TIP3    H230773   1.941   2.096   7.016  0.6180 -0.8619 -0.5022
10278TIP3   OH230774   3.467   2.719   6.405  0.8161 -0.0962  0.7876
10278TIP3    H130775   3.534   2.665   6.446  2.4442  0.7097 -0.7585
10278TIP3    H230776   3.421   2.659   6.345  1.4937 -0.1789  0.3469
10279TIP3   OH230777   6.512   0.150   0.140  0.0204 -0.0620  0.1501
10279TIP3    H130778   6.512   0.223   0.079 -1.6952  0.9982  1.3668
10279TIP3    H230779   6.533   0.074   0.087  3.2055  1.4816 -0.9021
10280TIP3   OH230780   8.160   0.322   0.280 -0.1257 -0.3276 -0.0142
10280TIP3    H130781   8.238   0.359   0.321  0.4732 -1.9064  0.3210
10280TIP3    H230782   8.128   0.257   0.343 -1.4920  0.0306 -0.3237
10281TIP3   OH230783   5.397   6.105   1.161 -0.0749 -0.1615 -0.5073
10281TIP3    H130784   5.401   6.150   1.245 -0.4581  1.0533 -1.1373
10281TIP3    H230785   5.340   6.029   1.177 -0.1534  0.0714  0.3182
10282TIP3   OH230786   3.638   3.194   6.566 -0.4983  0.2650 -0.6209
10282TIP3    H130787   3.555   3.146   6.564 -0.1758 -0.3193  0.0765
10282TIP3    H230788   3.616   3.280   6.529 -0.9299 -0.6157 -2.4393
10283TIP3   OH230789   7.665   2.198   6.226 -0.2189 -0.0643 -0.0332
10283TIP3    H130790   7.570   2.203   6.229 -0.2696 -1.7483  1.2637
10283TIP3    H230791   7.691   2.272   6.170 -2.1457  1.7262  1.4048
10284TIP3   OH230792   5.432   6.962   0.005 -0.2800 -0.4660 -0.3112
10284TIP3    H130793   5.454   6.894  -0.059  1.5531 -1.0201  0.8888
10284TIP3    H230794   5.385   6.915   0.074 -0.3462 -0.2362 -0.2003
10285TIP3   OH230795   2.058   4.013   6.171  0.0347 -0.1270 -0.2656
10285TIP3    H130796   2.144   3.977   6.192  0.3948 -0.5879 -2.4135
10285TIP3    H230797   2.015   4.025   6.256  1.2596 -2.2350  0.6716
10286TIP3   OH230798   4.648   7.232   0.134  0.5500 -0.0857 -1.0323
10286TIP3    H130799   4.731   7.209   0.176 -1.3114 -2.8062  1.3974
10286TIP3    H230800   4.652   7.326   0.121  2.7038  0.3129  2.0434
10287TIP3   OH230801   5.589   7.958   1.856 -0.2235 -0.0517  0.0038
10287TIP3    H130802   5.674   7.994   1.881  0.0395 -0.6455 -0.0117
10287TIP3    H230803   5.526   8.027   1.877  0.0330 -0.3368  1.8709
10288TIP3   OH230804   3.512   3.974   6.064 -0.0029  0.0315  0.5515
10288TIP3    H130805   3.584   4.010   6.116  0.8792 -1.4656  0.3926
10288TIP3    H230806   3.531   3.881   6.058 -1.1312 -0.1254 -0.8386
10289TIP3   OH230807   4.261   3.622   6.835  0.1636 -0.0252 -0.0408
10289TIP3    H130808   4.229   3.617   6.745  1.8082  1.5844 -0.7541
10289TIP3    H230809   4.278   3.532   6.861 -1.5261 -0.5990 -0.8873
10290TIP3   OH230810   4.223   7.701   0.200 -0.1433 -0.6249 -0.1849
10290TIP3    H130811   4.176   7.779   0.229 -1.7669 -2.1833  1.5498
10290TIP3    H230812   4.292   7.689   0.265  1.4597  0.5307 -1.6304
10291TIP3   OH230813   5.850   7.844   1.687 -0.4077 -0.5770  0.1880
10291TIP3    H130814   5.808   7.786   1.625 -1.6892 -0.4242  0.8965
10291TIP3    H230815   5.843   7.799   1.771  1.6580 -0.9625  0.1852
10292TIP3   OH230816   4.988   6.550   0.473  0.1397  0.2875  0.2737
10292TIP3    H130817   5.062   6.590   0.518 -1.0964  0.6458  2.0370
10292TIP3    H230818   5.022   6.467   0.440  1.6505  1.0116 -0.0061
10293TIP3   OH230819   4.836   6.256   0.234  0.1333  0.1386  0.1729
10293TIP3    H130820   4.874   6.344   0.230 -3.3464  1.7309 -0.0119
10293TIP3    H230821   4.861   6.214   0.152  1.3937  1.1604  0.0330
10294TIP3   OH230822   1.474   3.041   6.473 -0.3315  0.9732  0.3270
10294TIP3    H130823   1.472   3.030   6.568 -1.3740  0.7736  0.2877
10294TIP3    H230824   1.489   3.135   6.461  2.9176  0.5375  0.6701
10295TIP3   OH230825   5.215   7.865   2.685  0.1192 -0.3264 -0.7964
10295TIP3    H130826   5.189   7.789   2.633 -2.1977 -1.0869  1.3333
10295TIP3    H230827   5.142   7.877   2.747  2.2154  1.2374  1.4413
10296TIP3   OH230828   3.929   7.173   0.928  0.0336  0.4458 -0.1923
10296TIP3    H130829   3.848   7.176   0.877 -1.5273 -0.2558  2.1864
10296TIP3    H230830   3.954   7.265   0.940 -1.2560  0.7279  0.3677
10297TIP3   OH230831   2.582   5.268   7.012 -0.0017 -0.4725  0.2350
10297TIP3    H130832   2.656   5.243   7.067  0.3937 -0.3860 -0.2552
10297TIP3    H230833   2.616   5.336   6.954 -0.4024 -0.5895 -0.1457
10298TIP3   OH230834   4.161   6.926   0.215  0.4908 -0.2084  0.2659
10298TIP3    H130835   4.155   7.015   0.179  1.2869  0.7366  2.3397
10298TIP3    H230836   4.148   6.869   0.141  2.1044  1.6526 -1.5352
10299TIP3   OH230837   8.441   3.305   6.974  0.1744  0.8351 -0.7847
10299TIP3    H130838   8.417   3.213   6.969  0.3483  0.8022 -0.9641
10299TIP3    H230839   8.358   3.352   6.960  0.0292  0.7038 -0.3685
10300TIP3   OH230840   3.823   6.757   1.107 -0.4652  0.9978 -0.1327
10300TIP3    H130841   3.764   6.710   1.049 -1.7193  2.0403  0.2591
10300TIP3    H230842   3.849   6.693   1.173  0.0671  0.1195 -1.1797
10301TIP3   OH230843   1.326   2.675   6.469 -0.3757 -0.0339  0.1200
10301TIP3    H130844   1.250   2.619   6.455 -1.2365  1.7189 -2.5929
10301TIP3    H230845   1.305   2.757   6.424  2.6863  0.8465  0.1561
10302TIP3   OH230846   7.132   0.287   0.064  0.6289 -0.3985 -0.2321
10302TIP3    H130847   7.170   0.199   0.065  1.9701  0.1711 -0.3394
10302TIP3    H230848   7.195   0.340   0.016  0.1712  0.7784  0.4448
10303TIP3   OH230849   5.429   7.834   2.240 -0.4304 -0.1876  0.0008
10303TIP3    H130850   5.392   7.758   2.284 -1.3707  0.3941  0.2325
10303TIP3    H230851   5.455   7.892   2.312 -0.2062 -0.0672 -0.1796
10304TIP3   OH230852   5.917   7.306   1.182  0.2003 -0.1538 -0.0672
10304TIP3    H130853   5.884   7.216   1.179  0.5681 -0.2865 -0.2451
10304TIP3    H230854   5.881   7.343   1.262  0.0839 -0.4757  0.0284
10305TIP3   OH230855   2.984   5.336   6.792  0.0481  0.0941 -0.5709
10305TIP3    H130856   3.042   5.301   6.725 -1.1137 -0.8665 -1.0676
10305TIP3    H230857   3.001   5.282   6.869 -1.2058 -1.1234 -1.1256
10306TIP3   OH230858   7.036   0.885   0.891 -0.1391  0.0476 -0.2877
10306TIP3    H130859   7.052   0.978   0.874  0.1036 -0.2024 -1.4626
10306TIP3    H230860   6.953   0.867   0.847  0.2972 -0.5193 -0.8866
10307TIP3   OH230861   2.210   5.806   0.436  0.1505  0.0620  0.1564
10307TIP3    H130862   2.293   5.778   0.395  0.2125  1.6969 -0.8748
10307TIP3    H230863   2.142   5.769   0.379  0.2328  1.8577 -1.1635
10308TIP3   OH230864   7.089   4.171   6.408 -0.0622 -0.0771  0.6709
10308TIP3    H130865   7.048   4.085   6.407 -0.0811 -0.0636 -0.6056
10308TIP3    H230866   7.028   4.225   6.459 -2.4353  0.2863 -2.3396
10309TIP3   OH230867   2.961   6.620   1.706 -0.4538 -0.6081 -0.5853
10309TIP3    H130868   3.008   6.673   1.770 -0.3813 -2.4784  0.9519
10309TIP3    H230869   2.963   6.672   1.625  3.3228 -0.1296 -0.2660
10310TIP3   OH230870   0.356   2.752   6.380  0.1731 -0.0789  0.6929
10310TIP3    H130871   0.264   2.768   6.401 -0.4566  2.5188 -3.4111
10310TIP3    H230872   0.403   2.821   6.427 -0.3623  0.7589  0.0128
10311TIP3   OH230873   1.109   1.601   6.706 -0.7001 -0.0574 -0.3750
10311TIP3    H130874   1.079   1.675   6.652  1.2303 -0.1067 -1.5707
10311TIP3    H230875   1.205   1.605   6.700 -0.5911 -3.3280 -1.3654
10312TIP3   OH230876   4.658   8.017   6.304 -0.6983  0.3750  0.1080
10312TIP3    H130877   4.690   8.103   6.276  1.1852 -0.7422 -1.2876
10312TIP3    H230878   4.738   7.966   6.319 -1.8016 -1.5278 -0.3443
10313TIP3   OH230879   4.994   3.988   1.268 -0.0696 -0.0129 -0.0117
10313TIP3    H130880   4.965   3.909   1.223 -0.3671  0.8177 -1.3064
10313TIP3    H230881   4.920   4.048   1.260  0.5503  0.7643  0.0471
10314TIP3   OH230882   5.550   6.562   0.506 -0.0126  0.2791 -0.2804
10314TIP3    H130883   5.569   6.594   0.594  1.5412 -0.0820 -0.4625
10314TIP3    H230884   5.467   6.515   0.514  1.2330 -1.6975  1.4683
10315TIP3   OH230885   0.937   2.436   6.148  0.2308  0.1129  0.2308
10315TIP3    H130886   0.901   2.460   6.063 -0.7256  0.2990  0.6864
10315TIP3    H230887   1.016   2.489   6.156  0.5138 -0.1602 -0.6896
10316TIP3   OH230888   8.173   0.392   2.123  0.3345 -0.2613 -0.2235
10316TIP3    H130889   8.238   0.422   2.059  0.1810 -2.1253 -1.2753
10316TIP3    H230890   8.111   0.340   2.072 -0.7011 -0.4222  1.1777
10317TIP3   OH230891   5.563   7.393   1.031  0.0052  0.4071  0.1296
10317TIP3    H130892   5.637   7.452   1.014  0.6653 -0.5501 -0.4129
10317TIP3    H230893   5.552   7.395   1.126 -0.1177  1.5617  0.0969
10318TIP3   OH230894   4.740   6.033   0.682 -0.1945  0.4413 -0.1383
10318TIP3    H130895   4.797   6.101   0.646 -0.2009 -0.1760 -1.3299
10318TIP3    H230896   4.654   6.052   0.644 -0.0354 -0.6741 -1.0707
10319TIP3   OH230897   3.300   4.086   1.046 -0.3851  0.0289  0.1191
10319TIP3    H130898   3.381   4.116   1.087 -0.0713  0.2273 -0.6309
10319TIP3    H230899   3.328   4.036   0.970 -0.9797  0.9879 -0.7464
10320TIP3   OH230900   4.299   6.036   0.750 -0.0824  0.2910  0.4571
10320TIP3    H130901   4.212   6.011   0.719  0.3463  0.3478 -0.8368
10320TIP3    H230902   4.352   6.040   0.670  1.0043  0.6578  1.1914
10321TIP3   OH230903   1.990   1.832   1.532 -0.2230 -0.0806  0.0905
10321TIP3    H130904   1.921   1.898   1.537  0.1377  0.2141  1.2304
10321TIP3    H230905   1.959   1.760   1.587  1.4156  1.0370  2.5987
10322TIP3   OH230906   4.210   7.329   1.127  0.1737 -0.4377  0.3324
10322TIP3    H130907   4.247   7.418   1.131 -0.3043 -0.2006 -0.4594
10322TIP3    H230908   4.275   7.278   1.079 -0.1614 -0.2118 -0.3553
10323TIP3   OH230909   1.070   2.580   6.535 -0.0455 -0.3426  0.5264
10323TIP3    H130910   1.116   2.548   6.613  0.9617 -0.3584 -0.0675
10323TIP3    H230911   1.014   2.507   6.508 -0.4145 -0.3280  1.2489
10324TIP3   OH230912   5.278   7.180   0.617  0.2055 -0.9193 -0.1277
10324TIP3    H130913   5.246   7.268   0.596 -0.6976 -1.6500 -1.8454
10324TIP3    H230914   5.339   7.194   0.690 -1.5422  0.8774  1.0428
10325TIP3   OH230915   6.386   8.092   6.668  0.1858  0.3365 -0.2506
10325TIP3    H130916   6.344   8.015   6.707  2.8162 -1.2935 -0.5410
10325TIP3    H230917   6.343   8.103   6.583  0.9496 -1.8946 -0.9597
10326TIP3   OH230918   3.325   6.417   0.006 -1.4155  1.1292  0.3034
10326TIP3    H130919   3.317   6.508  -0.024  0.1232  1.1034 -0.2679
10326TIP3    H230920   3.418   6.407   0.026 -1.7543 -0.0338  1.3329
10327TIP3   OH230921   3.777   7.930   0.845 -0.3761  0.7136 -0.5548
10327TIP3    H130922   3.793   7.837   0.829  0.7625  1.0428 -1.3994
10327TIP3    H230923   3.739   7.962   0.763  0.7886  1.3430 -0.8563
10328TIP3   OH230924   0.547   2.135   5.376 -0.6294  0.3592 -0.7044
10328TIP3    H130925   0.608   2.164   5.308  1.2432  2.6460  1.8362
10328TIP3    H230926   0.466   2.181   5.355 -1.5484 -2.4989 -3.9577
10329TIP3   OH230927   2.498   4.405   6.981 -0.0293  0.1227 -0.2592
10329TIP3    H130928   2.516   4.314   6.957  1.1197  0.4897 -0.8213
10329TIP3    H230929   2.519   4.409   7.074 -1.2796 -0.4777  0.0703
10330TIP3   OH230930   2.836   3.841   6.529  0.1388  0.1125  0.2210
10330TIP3    H130931   2.909   3.902   6.514 -0.9744  1.0064 -1.8414
10330TIP3    H230932   2.823   3.799   6.443 -0.7785 -1.1706  0.9733
10331TIP3   OH230933   6.082   3.509   6.974  0.4070 -0.1981 -0.1513
10331TIP3    H130934   6.115   3.498   7.063 -1.3627 -3.9678  0.1138
10331TIP3    H230935   6.012   3.574   6.983  0.4836 -0.2736  1.1583
10332TIP3   OH230936   7.018   0.545   1.003 -0.3084 -0.0199 -0.6565
10332TIP3    H130937   7.057   0.510   0.923 -0.4334 -2.7376  0.4338
10332TIP3    H230938   6.925   0.523   0.995  0.1775 -3.3224  1.6779
10333TIP3   OH230939   2.847   2.906   6.802  0.0095 -0.5023  0.0155
10333TIP3    H130940   2.770   2.874   6.755 -0.7833  0.3024  0.7269
10333TIP3    H230941   2.869   2.836   6.862 -0.6492 -0.4325  0.3489
10334TIP3   OH230942   7.901   1.995   4.900 -0.3914  0.8209  0.1534
10334TIP3    H130943   7.930   2.053   4.829 -0.5782  0.5436 -0.1526
10334TIP3    H230944   7.931   2.038   4.980  0.1178  0.9659 -0.1105
10335TIP3   OH230945   0.232   2.632   6.701  0.2055  0.2785 -0.1873
10335TIP3    H130946   0.311   2.602   6.656  1.0127  1.7682  0.1886
10335TIP3    H230947   0.173   2.557   6.700  2.9805 -2.0255  2.7007
10336TIP3   OH230948   6.185   7.093   0.215  0.2872  0.0022 -0.3212
10336TIP3    H130949   6.236   7.134   0.145 -0.1825  1.2489  0.0519
10336TIP3    H230950   6.118   7.042   0.169  0.3427  0.3462 -0.7849
10337TIP3   OH230951   0.599   2.743   6.857  0.5226  0.4122 -0.0663
10337TIP3    H130952   0.670   2.699   6.904 -0.9732 -0.2770  1.5621
10337TIP3    H230953   0.555   2.673   6.809  0.1076  0.6364 -0.0117
10338TIP3   OH230954   4.917   7.433   0.064 -0.0779 -0.0747 -0.9852
10338TIP3    H130955   4.992   7.411   0.009 -1.0245  0.6994 -2.6325
10338TIP3    H230956   4.850   7.369   0.039 -0.2399 -0.2542 -0.1068
10339TIP3   OH230957   1.627   3.645   6.614  0.0756  0.3377 -0.1930
10339TIP3    H130958   1.695   3.578   6.616  0.8808  1.1484 -0.1602
10339TIP3    H230959   1.595   3.644   6.524 -0.4068 -0.5810 -0.0135
10340TIP3   OH230960   0.969   4.294   5.168 -0.2452 -0.1250  0.8722
10340TIP3    H130961   0.964   4.200   5.151 -0.2930 -0.1422  0.9780
10340TIP3    H230962   1.062   4.311   5.184 -0.3720 -0.3215  1.8336
10341TIP3   OH230963   1.653   5.444   6.401 -0.6078 -0.5139 -0.2616
10341TIP3    H130964   1.725   5.484   6.352 -1.4800  0.5577 -0.6702
10341TIP3    H230965   1.682   5.354   6.415  1.5244  0.3136  0.9793
10342TIP3   OH230966   3.565   7.433   0.327  0.1718  0.1745  0.3352
10342TIP3    H130967   3.598   7.471   0.408  1.2382  2.7341 -1.2493
10342TIP3    H230968   3.619   7.471   0.258 -1.7076 -0.7402 -1.7258
10343TIP3   OH230969   5.016   4.786   2.269  0.6881  0.5274  0.1342
10343TIP3    H130970   5.091   4.839   2.241 -0.3201  2.6481  1.3815
10343TIP3    H230971   4.989   4.823   2.353 -0.5470 -1.4738  0.6646
10344TIP3   OH230972   0.385   2.490   5.726 -0.1881 -0.2643  0.2987
10344TIP3    H130973   0.352   2.563   5.674  0.2185 -1.2580 -1.3995
10344TIP3    H230974   0.377   2.520   5.816 -3.3546  0.5148 -0.1644
10345TIP3   OH230975   0.294   2.733   5.647  0.5794  0.1067 -0.4246
10345TIP3    H130976   0.200   2.749   5.649  0.3769 -1.2038  3.2397
10345TIP3    H230977   0.334   2.820   5.649 -0.4973  0.6739 -2.1852
10346TIP3   OH230978   4.643   4.335   0.892 -0.0548  0.2869  0.0290
10346TIP3    H130979   4.734   4.363   0.906  0.9712 -2.7117 -0.3374
10346TIP3    H230980   4.639   4.311   0.799 -1.4451  1.0931 -0.1350
10347TIP3   OH230981   3.000   6.373   0.528  0.2336  0.4760  0.5924
10347TIP3    H130982   3.086   6.416   0.526 -0.1416  1.2339  0.3941
10347TIP3    H230983   3.015   6.288   0.488  0.7082  0.9724 -0.3213
10348TIP3   OH230984   0.610   3.424   6.470 -0.3799 -0.4692 -0.3194
10348TIP3    H130985   0.675   3.411   6.402 -0.7084 -1.6247 -0.4181
10348TIP3    H230986   0.661   3.447   6.548 -0.0400  1.3563 -1.0609
10349TIP3   OH230987   4.310   6.369   1.962 -0.2508  0.0686 -0.0156
10349TIP3    H130988   4.273   6.436   2.019  1.5283  0.6804  0.4202
10349TIP3    H230989   4.334   6.416   1.882 -0.3319 -0.3245 -0.2725
10350TIP3   OH230990   1.922   2.737   6.999  0.9735 -0.2726  0.1604
10350TIP3    H130991   1.944   2.722   6.907 -2.0093 -0.3391 -0.6108
10350TIP3    H230992   1.906   2.649   7.034 -0.3189 -0.0827  0.0630
10351TIP3   OH230993   4.133   7.951   1.623  0.3844  0.1149  0.3528
10351TIP3    H130994   4.200   7.987   1.682  0.0398  0.4240  0.5603
10351TIP3    H230995   4.050   7.979   1.661  0.1758  0.8082 -0.5940
10352TIP3   OH230996   0.893   1.300   6.826 -0.4075  0.1201 -0.9087
10352TIP3    H130997   0.854   1.354   6.757  0.6658 -0.0442 -1.6415
10352TIP3    H230998   0.942   1.363   6.880  0.5949 -0.0639 -1.5897
10353TIP3   OH230999   6.204   7.064   1.232  0.6468 -0.1113 -0.0627
10353TIP3    H131000   6.298   7.052   1.222  0.3577 -2.4459 -0.3700
10353TIP3    H231001   6.171   6.976   1.249 -1.7335  0.3723 -1.9695
10354TIP3   OH231002   6.776   0.938   1.352 -0.5823 -0.5080  0.3059
10354TIP3    H131003   6.682   0.952   1.337 -0.3153  1.1924  0.2041
10354TIP3    H231004   6.817   0.958   1.267 -0.0432 -0.4949  0.5678
10355TIP3   OH231005   2.700   6.587   0.572  0.1162  0.2940  0.1553
10355TIP3    H131006   2.743   6.535   0.639  0.8135  0.7296  0.0426
10355TIP3    H231007   2.650   6.523   0.521  1.4831 -0.3732 -0.3825
10356TIP3   OH231008   0.886   1.028   5.770  0.0901 -0.0540 -0.3365
10356TIP3    H131009   0.833   0.992   5.841  1.5158 -1.9569 -0.2057
10356TIP3    H231010   0.917   0.951   5.722  1.6578  1.0980 -1.1933
10357TIP3   OH231011   6.037   7.868   1.029  0.4276 -0.4434  0.3224
10357TIP3    H131012   6.037   7.834   0.940 -0.2058 -0.9990  0.5275
10357TIP3    H231013   6.129   7.864   1.056  0.8259  0.9909 -0.7586
10358TIP3   OH231014   7.993   1.678   6.248  0.0422  0.3108 -0.4772
10358TIP3    H131015   7.908   1.721   6.258  0.5738  1.0301  1.1451
10358TIP3    H231016   7.973   1.597   6.202 -1.3366  1.0732 -1.2905
10359TIP3   OH231017   1.674   4.712   5.302  0.5957 -0.1626 -0.1265
10359TIP3    H131018   1.688   4.714   5.397 -2.4172  1.3025  0.3665
10359TIP3    H231019   1.714   4.792   5.270  0.3740  0.0637  0.1466
10360TIP3   OH231020   0.998   1.303   0.540  0.2062 -0.5234  0.1833
10360TIP3    H131021   0.932   1.243   0.505 -1.5941 -0.0991  2.7174
10360TIP3    H231022   0.990   1.382   0.486  0.4956 -1.4407 -1.2204
10361TIP3   OH231023   5.020   7.205   1.326 -0.3003  0.1637  0.0841
10361TIP3    H131024   4.944   7.178   1.273 -1.6485 -1.5751  2.7862
10361TIP3    H231025   5.095   7.191   1.269 -1.9266  1.0947 -2.3750
10362TIP3   OH231026   0.591   3.187   6.230  0.4618 -0.1840 -0.0851
10362TIP3    H131027   0.671   3.212   6.276 -0.5597  0.5076  1.3633
10362TIP3    H231028   0.566   3.265   6.181 -0.6724  0.4511  1.4570
10363TIP3   OH231029   2.185   4.476   6.334 -0.0752  0.3344 -0.5525
10363TIP3    H131030   2.175   4.557   6.284  0.0872  0.2018 -0.8054
10363TIP3    H231031   2.243   4.500   6.407 -0.0994  0.4663 -0.5760
10364TIP3   OH231032   5.832   6.288   0.625  0.3082 -0.6018 -0.1272
10364TIP3    H131033   5.867   6.200   0.617  0.2932 -0.6305  0.1319
10364TIP3    H231034   5.777   6.286   0.703  0.5979 -0.2670  0.0861
10365TIP3   OH231035   5.220   7.919   1.026  0.1370  0.3454 -0.1229
10365TIP3    H131036   5.165   7.861   0.975  1.3299 -0.4686 -0.5179
10365TIP3    H231037   5.306   7.914   0.984  0.7439  0.8810  1.0146
10366TIP3   OH231038   1.708   3.152   6.686 -0.2735 -0.4109 -0.1359
10366TIP3    H131039   1.728   3.180   6.597  0.5816  0.4826  0.3166
10366TIP3    H231040   1.618   3.180   6.701 -0.0161  0.5248 -0.3069
10367TIP3   OH231041   2.389   2.003   5.873  0.1387 -0.3608 -0.0533
10367TIP3    H131042   2.306   1.977   5.914 -0.2426  0.9006 -0.0043
10367TIP3    H231043   2.456   1.976   5.935 -0.3461  0.2293  0.7389
10368TIP3   OH231044   3.442   6.605   0.919 -0.7149  0.1830  0.2578
10368TIP3    H131045   3.423   6.597   0.826 -0.1682 -0.8265  0.2224
10368TIP3    H231046   3.375   6.552   0.962 -0.7450  0.3476  0.4163
10369TIP3   OH231047   6.398   1.577   0.866  0.6951 -0.0105 -0.1570
10369TIP3    H131048   6.377   1.604   0.955 -1.4464  2.4385 -1.3441
10369TIP3    H231049   6.482   1.619   0.847  1.1754 -0.5717  0.6924
10370TIP3   OH231050   0.717   3.490   5.694  0.2205 -0.2424  0.0732
10370TIP3    H131051   0.679   3.575   5.674  2.5714  1.5535  2.8879
10370TIP3    H231052   0.809   3.498   5.667  0.9865 -1.1253  2.3361
10371TIP3   OH231053   8.120   2.123   6.653 -0.2378  0.2084  0.3699
10371TIP3    H131054   8.134   2.105   6.746 -0.1806 -0.4746  0.2253
10371TIP3    H231055   8.077   2.045   6.619 -0.5267  0.5770 -0.1198
10372TIP3   OH231056   3.007   7.953   1.546  0.3159  0.1029 -0.4239
10372TIP3    H131057   3.083   8.007   1.523  0.6767 -0.0377  0.4422
10372TIP3    H231058   2.987   7.906   1.465  1.3128 -0.0460 -0.5956
10373TIP3   OH231059   2.549   5.878   6.168 -0.0822  0.0950 -0.5253
10373TIP3    H131060   2.636   5.918   6.157  0.6293 -1.3490 -0.2539
10373TIP3    H231061   2.564   5.785   6.156 -1.4278 -0.2776  0.5445
10374TIP3   OH231062   4.965   6.620   1.143 -0.4230  0.4155 -0.4952
10374TIP3    H131063   4.923   6.616   1.057  0.1571  0.4762 -0.7843
10374TIP3    H231064   4.917   6.688   1.190 -0.8443  0.2718 -0.7164
10375TIP3   OH231065   5.464   6.592   0.795 -0.0918  0.5770  0.1882
10375TIP3    H131066   5.420   6.571   0.878 -0.0361  0.9834  0.3194
10375TIP3    H231067   5.555   6.605   0.819  0.1593 -0.5469 -0.1268
10376TIP3   OH231068   3.414   2.209   5.040 -0.2226  0.1278  0.2148
10376TIP3    H131069   3.331   2.175   5.007 -1.1542  1.0617  1.5540
10376TIP3    H231070   3.392   2.295   5.076  1.1616  0.0474  1.2835
10377TIP3   OH231071   4.047   7.332   0.596 -0.1327 -0.3631  0.0625
10377TIP3    H131072   3.969   7.321   0.541  0.2012 -0.4465 -0.3950
10377TIP3    H231073   4.075   7.422   0.580 -0.5468 -0.0972  0.7749
10378TIP3   OH231074   4.082   6.308   1.232 -0.1718  0.2656 -0.0562
10378TIP3    H131075   4.081   6.237   1.168 -2.0094 -0.5851  0.8530
10378TIP3    H231076   4.167   6.300   1.276  0.5332  0.0142 -1.4579
10379TIP3   OH231077   6.326   5.359   0.138  0.5269 -0.4553  0.1144
10379TIP3    H131078   6.383   5.343   0.213  0.3935 -1.3124  0.0460
10379TIP3    H231079   6.382   5.343   0.062  1.0453  1.7798  0.0061
10380TIP3   OH231080   2.144   2.995   6.597  0.1026  0.1749  0.5394
10380TIP3    H131081   2.057   2.955   6.607  0.2821 -0.8184 -1.5149
10380TIP3    H231082   2.127   3.089   6.601 -0.8496 -0.0305  1.6954
10381TIP3   OH231083   2.898   1.013   6.949 -1.1745  0.1219 -0.1622
10381TIP3    H131084   2.876   0.956   6.875  0.7369 -0.4288 -0.3384
10381TIP3    H231085   2.842   0.982   7.020 -1.9041 -0.3705 -0.9304
10382TIP3   OH231086   2.071   1.976   6.171  0.4013  0.2816 -0.0491
10382TIP3    H131087   2.095   1.957   6.081  1.7667  0.7871  0.1986
10382TIP3    H231088   2.106   2.064   6.188 -0.1413  0.3351  0.8553
10383TIP3   OH231089   0.098   0.360   1.959 -0.1154 -0.1313  0.0397
10383TIP3    H131090   0.153   0.411   2.018 -0.3708 -0.8553  0.9273
10383TIP3    H231091   0.048   0.303   2.017 -0.3941 -0.8389 -0.8818
10384TIP3   OH231092   7.396   1.073   2.747 -0.0709 -0.5933  0.1830
10384TIP3    H131093   7.383   1.168   2.746 -0.3508 -0.5804  2.2185
10384TIP3    H231094   7.313   1.037   2.717 -0.2101 -0.2054  0.1040
10385TIP3   OH231095   3.095   2.661   6.257  0.4518 -0.3315  0.6528
10385TIP3    H131096   3.173   2.618   6.292  0.1939  0.5194  2.2713
10385TIP3    H231097   3.129   2.723   6.192  1.0379 -0.8053  0.5080
10386TIP3   OH231098   3.393   1.934   6.994  0.8507 -0.2537 -0.1941
10386TIP3    H131099   3.323   1.927   6.930  1.6555 -1.5169 -0.9691
10386TIP3    H231100   3.354   1.906   7.076 -0.1001  1.0692 -0.1793
10387TIP3   OH231101   6.789   7.000   0.929  0.1760  0.4743  0.0538
10387TIP3    H131102   6.767   6.990   0.837  0.9874 -0.8352 -0.0050
10387TIP3    H231103   6.746   7.081   0.955 -0.9413  0.3050 -1.2068
10388TIP3   OH231104   5.204   2.304   6.180 -0.1638  0.1225  0.6009
10388TIP3    H131105   5.192   2.219   6.136 -1.4581  0.5944  0.0093
10388TIP3    H231106   5.115   2.330   6.205 -0.0134  2.2478 -1.0160
10389TIP3   OH231107   1.477   2.228   5.527  0.7357  0.3762 -0.9889
10389TIP3    H131108   1.534   2.252   5.454  2.5522  0.2675  0.3521
10389TIP3    H231109   1.524   2.258   5.605 -0.1443 -1.4813  0.2925
10390TIP3   OH231110   2.360   3.956   6.053  0.4943  0.0086 -0.2363
10390TIP3    H131111   2.453   3.941   6.035  0.8116  2.3735 -0.7417
10390TIP3    H231112   2.340   4.039   6.009 -2.2364 -1.2088 -1.4017
10391TIP3   OH231113   8.248   5.077   6.993  0.4911 -0.3445  0.5637
10391TIP3    H131114   8.286   5.054   6.908 -1.0330 -1.0126  0.0533
10391TIP3    H231115   8.209   4.996   7.025  1.7734 -0.3018  2.3065
10392TIP3   OH231116   2.724   7.036   0.237  0.4852  0.1171  0.5981
10392TIP3    H131117   2.725   7.123   0.278  1.4961 -0.0864  1.0092
10392TIP3    H231118   2.650   6.991   0.278  1.1571  0.1025  1.8124
10393TIP3   OH231119   3.823   6.347   2.280  0.1233  0.5685  0.9962
10393TIP3    H131120   3.778   6.289   2.219  1.8178 -1.5777  1.7046
10393TIP3    H231121   3.859   6.417   2.226 -3.2070  1.8550  0.3082
10394TIP3   OH231122   6.076   1.474   1.336 -0.0403 -0.2430  0.0151
10394TIP3    H131123   6.061   1.433   1.251  0.6504 -0.2021 -0.1235
10394TIP3    H231124   6.052   1.407   1.400 -0.1915 -0.4026 -0.2100
10395TIP3   OH231125   3.496   4.202   0.584 -0.3367 -0.9139 -0.1381
10395TIP3    H131126   3.401   4.208   0.592 -0.4161 -2.3781  0.1785
10395TIP3    H231127   3.523   4.289   0.555 -1.5580  0.1258  1.7203
10396TIP3   OH231128   6.074   0.048   0.752 -0.2731 -0.3056  0.0861
10396TIP3    H131129   6.095   0.053   0.845  1.0762  0.3566 -0.2459
10396TIP3    H231130   5.997   0.105   0.741 -0.8628 -0.9312  0.9011
10397TIP3   OH231131   5.907   8.099   1.159 -0.4844 -0.0948  0.7298
10397TIP3    H131132   5.943   8.039   1.094 -0.2613  0.8578 -0.0195
10397TIP3    H231133   5.886   8.042   1.234  0.3770 -1.0033  0.2911
10398TIP3   OH231134   8.403   0.380   1.062 -0.2220  0.1584  0.5633
10398TIP3    H131135   8.436   0.396   0.973  0.7975  1.6055  1.1939
10398TIP3    H231136   8.324   0.433   1.067 -0.2419  0.1298  0.5524
10399TIP3   OH231137   2.442   3.404   6.261  0.2168 -0.3748  0.1736
10399TIP3    H131138   2.409   3.410   6.171 -0.1100  0.7821  0.3576
10399TIP3    H231139   2.369   3.436   6.315  0.6471 -0.4506  0.8036
10400TIP3   OH231140   8.454   4.009   5.049 -0.2100  0.1895 -1.0339
10400TIP3    H131141   8.376   3.961   5.020 -1.2013  0.4579  1.1102
10400TIP3    H231142   8.465   3.985   5.140  0.1340  2.9045 -0.3014
10401TIP3   OH231143   1.261   3.387   6.055 -0.0841  0.0678 -0.1066
10401TIP3    H131144   1.290   3.350   6.139  0.4322 -0.2275 -0.4206
10401TIP3    H231145   1.284   3.479   6.061 -2.8961  0.7540  1.3843
10402TIP3   OH231146   1.033   4.107   5.502  0.0015 -0.1295  0.7853
10402TIP3    H131147   0.998   4.163   5.432 -1.6935 -1.2516  0.6871
10402TIP3    H231148   1.091   4.046   5.457 -1.5705 -1.2516  0.2295
10403TIP3   OH231149   4.623   7.796   1.266  0.0949  0.0178 -0.1070
10403TIP3    H131150   4.593   7.847   1.341 -2.3076 -1.1055 -0.2597
10403TIP3    H231151   4.687   7.734   1.302 -1.0579 -0.5271  1.0202
10404TIP3   OH231152   3.153   6.523   0.859  0.2552 -0.6695  0.2717
10404TIP3    H131153   3.159   6.610   0.899  0.5446 -0.2779 -0.6072
10404TIP3    H231154   3.223   6.522   0.793  1.4716 -2.2376  1.5241
10405TIP3   OH231155   1.661   2.234   4.956 -0.5292 -0.4814  0.5938
10405TIP3    H131156   1.609   2.218   5.035  1.0321 -1.9521  1.3691
10405TIP3    H231157   1.670   2.148   4.916  3.3905 -0.7574  1.8576
10406TIP3   OH231158   2.664   3.649   1.188  0.4747 -0.6306  0.5388
10406TIP3    H131159   2.600   3.705   1.143  0.9165 -0.0829  0.5806
10406TIP3    H231160   2.640   3.654   1.280 -1.7905 -3.5117  0.1681
10407TIP3   OH231161   6.651   5.722   0.928 -0.1424  0.3171  0.1148
10407TIP3    H131162   6.576   5.675   0.892 -0.3218  1.0917 -0.5495
10407TIP3    H231163   6.697   5.756   0.851  0.2565  0.7997  0.5613
10408TIP3   OH231164   6.802   1.626   0.531 -0.5495  0.2822 -0.3845
10408TIP3    H131165   6.890   1.596   0.509  0.3286  3.4239 -1.4308
10408TIP3    H231166   6.747   1.594   0.459 -0.1614 -1.0203 -0.1243
10409TIP3   OH231167   3.766   7.494   0.111 -0.1152 -0.6722  0.1678
10409TIP3    H131168   3.824   7.465   0.041 -0.4610  0.3817 -0.5538
10409TIP3    H231169   3.825   7.510   0.185  0.8333  2.4581 -1.1750
10410TIP3   OH231170   2.855   2.451   5.724 -0.1782 -0.0655  0.1468
10410TIP3    H131171   2.790   2.419   5.787 -1.3577  0.5519 -0.7333
10410TIP3    H231172   2.837   2.401   5.644 -0.0821  0.6554 -0.3280
10411TIP3   OH231173   7.848   0.338   1.675 -0.0977  0.0120  0.3403
10411TIP3    H131174   7.805   0.421   1.654  0.1500 -0.1030 -0.6326
10411TIP3    H231175   7.790   0.297   1.740 -0.7326  0.4910  0.0784
10412TIP3   OH231176   7.659   0.649   0.127 -0.0228  0.2834 -0.5982
10412TIP3    H131177   7.656   0.651   0.031  0.3952  0.0652 -0.6202
10412TIP3    H231178   7.638   0.738   0.154 -1.3448  0.0464 -0.8502
10413TIP3   OH231179   4.187   7.317   2.632  0.1299  0.4648  0.5935
10413TIP3    H131180   4.233   7.401   2.627 -1.0853  1.1040 -0.0570
10413TIP3    H231181   4.216   7.269   2.554 -1.6855  1.6108 -0.8544
10414TIP3   OH231182   0.061   0.436   0.376  0.5198  0.0136  0.0466
10414TIP3    H131183   0.124   0.432   0.448 -1.0521 -1.2276  1.4111
10414TIP3    H231184   0.085   0.514   0.327  3.2191 -0.5313  0.4187
10415TIP3   OH231185   3.841   2.931   6.152 -0.6283 -0.3959 -0.5423
10415TIP3    H131186   3.924   2.979   6.157  0.0410 -1.6151  0.3274
10415TIP3    H231187   3.785   2.974   6.216 -0.1640 -0.5276 -0.0432
10416TIP3   OH231188   3.281   4.073   6.151 -0.3232  0.5731  0.4883
10416TIP3    H131189   3.360   4.030   6.118 -0.8583 -0.5427  0.6315
10416TIP3    H231190   3.313   4.132   6.220  0.2198 -1.1958  1.7933
10417TIP3   OH231191   5.544   5.587   0.964  0.2687 -0.1289 -0.2812
10417TIP3    H131192   5.492   5.667   0.969  0.8753  0.2986 -0.7680
10417TIP3    H231193   5.483   5.520   0.935 -0.1846  0.2104 -0.1088
10418TIP3   OH231194   3.389   5.070   5.434  0.1865 -0.7177 -0.5207
10418TIP3    H131195   3.403   5.147   5.378  0.9649 -1.4882 -1.3983
10418TIP3    H231196   3.449   5.004   5.400  1.2002 -0.9686  1.7073
10419TIP3   OH231197   3.403   7.215   0.875  0.1767  0.5294 -0.2351
10419TIP3    H131198   3.326   7.167   0.842 -0.1735 -0.3791  1.7946
10419TIP3    H231199   3.391   7.304   0.843 -0.9342  0.0414 -1.2407
10420TIP3   OH231200   6.108   6.087   0.368  0.0747  0.3698  0.2977
10420TIP3    H131201   6.176   6.061   0.430  1.5580  1.8965 -0.6576
10420TIP3    H231202   6.122   6.030   0.293  0.0712  0.4257  0.2545
10421TIP3   OH231203   1.808   2.013   0.038  0.0064 -0.1046  0.2262
10421TIP3    H131204   1.873   2.070   0.080  2.1647 -2.3127 -0.0359
10421TIP3    H231205   1.808   2.040  -0.053 -0.5592  0.8989  0.5108
10422TIP3   OH231206   4.890   4.048   7.005  0.0077 -0.2640  0.2825
10422TIP3    H131207   4.860   4.102   6.931  0.5267 -0.8346 -0.3526
10422TIP3    H231208   4.897   4.110   7.078  0.2368  0.4559 -0.3409
10423TIP3   OH231209   8.174   5.947   0.817  0.3327  0.0486  0.0724
10423TIP3    H131210   8.139   5.883   0.755 -2.4225 -0.9840  2.5946
10423TIP3    H231211   8.097   5.993   0.851  1.8806  1.4313  1.8405
10424TIP3   OH231212   5.075   3.584   6.238  0.7666  0.2244 -0.2161
10424TIP3    H131213   5.099   3.601   6.329 -1.6934 -1.3801  0.7791
10424TIP3    H231214   5.141   3.521   6.208  0.8116 -0.2622  0.8669
10425TIP3   OH231215   3.779   0.899   6.026 -0.0508 -0.5975  0.1746
10425TIP3    H131216   3.721   0.933   5.958 -0.2136  0.8924  1.0348
10425TIP3    H231217   3.725   0.901   6.106  1.1466  0.6888  0.9606
10426TIP3   OH231218   4.530   2.229   5.727 -0.2040 -0.0827  0.9959
10426TIP3    H131219   4.607   2.281   5.703 -0.6699  0.8320  1.4961
10426TIP3    H231220   4.480   2.221   5.646 -0.3917  0.6757  1.0404
10427TIP3   OH231221   7.633   5.771   0.428  0.2250 -0.4184  0.7131
10427TIP3    H131222   7.649   5.808   0.342  0.2977  0.4444  1.0915
10427TIP3    H231223   7.685   5.691   0.430  0.9824  0.0654  0.3099
10428TIP3   OH231224   2.001   3.830   4.958  0.6767 -0.6311  0.1970
10428TIP3    H131225   2.075   3.829   4.897  0.6240 -0.2702  0.1261
10428TIP3    H231226   2.037   3.866   5.040  0.5323 -0.2517  0.0973
10429TIP3   OH231227   6.087   7.711   0.790 -0.6662  0.0463  0.2316
10429TIP3    H131228   6.041   7.731   0.708  0.7783  0.8023 -0.4003
10429TIP3    H231229   6.072   7.617   0.802 -0.9973 -0.0501 -0.8297
10430TIP3   OH231230   3.421   3.755   6.581  0.3725 -0.0292 -0.9386
10430TIP3    H131231   3.342   3.807   6.569  0.7997  0.9248  0.2715
10430TIP3    H231232   3.485   3.816   6.618  0.9376 -1.3726  0.3491
10431TIP3   OH231233   8.370   0.008   0.552  0.3888  0.3509  0.0398
10431TIP3    H131234   8.339   0.098   0.554 -0.3521  0.0848  0.7417
10431TIP3    H231235   8.459   0.012   0.585  1.5135  1.2678 -2.9618
10432TIP3   OH231236   3.800   5.703   6.630 -0.1380 -0.2364 -0.2572
10432TIP3    H131237   3.875   5.717   6.687 -0.2512 -0.0643 -0.1506
10432TIP3    H231238   3.749   5.783   6.638 -1.3029 -1.0910  1.1197
10433TIP3   OH231239   2.087   1.186   3.728 -0.5379 -0.5222  0.4971
10433TIP3    H131240   2.175   1.150   3.716 -0.1371 -0.0080  1.8426
10433TIP3    H231241   2.037   1.114   3.766 -0.2802 -0.3040  1.2443
10434TIP3   OH231242   4.710   2.414   5.647  0.4382 -0.1628  0.0002
10434TIP3    H131243   4.714   2.510   5.650 -0.4500 -0.0993 -0.7009
10434TIP3    H231244   4.796   2.386   5.679  0.4687  0.8499  0.8482
10435TIP3   OH231245   5.235   6.211   0.902  0.3488  0.2973 -0.1768
10435TIP3    H131246   5.200   6.128   0.935  0.9197  0.2204  0.2362
10435TIP3    H231247   5.290   6.244   0.973  2.7895 -0.6020 -1.6337
10436TIP3   OH231248   3.370   3.105   6.541  0.2371 -0.3882  0.0411
10436TIP3    H131249   3.280   3.137   6.543 -0.5575 -2.5263 -0.7129
10436TIP3    H231250   3.385   3.067   6.627  0.0528 -1.0354 -0.2143
10437TIP3   OH231251   7.698   7.691   0.552 -0.0210 -0.4742 -0.3999
10437TIP3    H131252   7.711   7.632   0.627 -0.1729  0.3933  0.3170
10437TIP3    H231253   7.776   7.677   0.497  0.0314 -1.2049 -0.1479
10438TIP3   OH231254   1.215   0.116   1.002  0.0963  0.2782  1.1335
10438TIP3    H131255   1.247   0.026   1.014 -0.7118  0.1241  2.1531
10438TIP3    H231256   1.197   0.147   1.090  0.9135  1.6595  0.8226
10439TIP3   OH231257   3.762   3.596   6.262 -0.2626 -0.1563 -0.4944
10439TIP3    H131258   3.842   3.648   6.261 -0.1096 -0.3955 -0.6902
10439TIP3    H231259   3.732   3.599   6.353  0.5478 -0.9488 -0.1930
10440TIP3   OH231260   4.063   1.503   5.247 -0.0287  0.0124 -0.4658
10440TIP3    H131261   3.984   1.470   5.291  1.2910 -1.0409  1.1802
10440TIP3    H231262   4.034   1.523   5.158 -2.1990 -0.1778  0.1693
10441TIP3   OH231263   5.227   7.435   0.550  0.0689  0.0739 -0.3124
10441TIP3    H131264   5.318   7.444   0.522  0.3480 -0.5271  0.3828
10441TIP3    H231265   5.183   7.512   0.514  0.8607  0.3966 -0.6048
10442TIP3   OH231266   7.009   7.645   0.585 -0.5500 -0.1193  0.1204
10442TIP3    H131267   7.102   7.636   0.563 -0.0978  0.7631  1.6248
10442TIP3    H231268   6.968   7.673   0.504  0.5447 -0.2200 -0.4792
10443TIP3   OH231269   5.701   2.603   6.807  0.2845  0.4913 -0.7982
10443TIP3    H131270   5.659   2.574   6.888  0.6319  0.5025 -0.6126
10443TIP3    H231271   5.683   2.696   6.802  2.2711  0.9955  0.5054
10444TIP3   OH231272   2.959   3.105   5.659  0.3995  0.2387  0.6900
10444TIP3    H131273   3.007   3.038   5.706  1.9129  0.7278 -0.1199
10444TIP3    H231274   2.932   3.063   5.578 -0.0740  0.1245  0.9063
10445TIP3   OH231275   3.185   3.767   6.011 -0.6697 -0.7897 -0.3077
10445TIP3    H131276   3.187   3.851   6.057  2.4277 -1.2167  0.4517
10445TIP3    H231277   3.156   3.788   5.922  0.0963  1.0573 -0.1294
10446TIP3   OH231278   3.728   4.386   5.814  0.1231 -0.0652 -0.0954
10446TIP3    H131279   3.653   4.417   5.763  1.7527  2.1153 -1.2645
10446TIP3    H231280   3.696   4.381   5.904 -1.4205  0.7863 -0.5813
10447TIP3   OH231281   6.022   7.435   2.145  0.2496 -0.0091 -0.1128
10447TIP3    H131282   6.093   7.421   2.209  0.3299 -1.7902 -0.5569
10447TIP3    H231283   6.022   7.355   2.092 -1.5844  0.3184 -0.6276
10448TIP3   OH231284   1.746   1.965   5.240  0.0705  0.6374 -1.1747
10448TIP3    H131285   1.790   2.050   5.246 -0.3849  0.7694  0.7090
10448TIP3    H231286   1.664   1.977   5.288 -0.7502 -0.4118 -2.2716
10449TIP3   OH231287   7.891   1.585   2.213 -0.6579  0.2870  0.0832
10449TIP3    H131288   7.944   1.509   2.186 -1.0343  0.0070  0.1301
10449TIP3    H231289   7.915   1.654   2.151 -0.7103 -0.0277 -0.2896
10450TIP3   OH231290   4.945   2.356   4.177  0.7229  0.1697 -0.3021
10450TIP3    H131291   4.976   2.327   4.263 -1.5673  0.1928  0.5669
10450TIP3    H231292   4.986   2.296   4.115  0.3138 -1.5281  1.0398
10451TIP3   OH231293   3.102   3.230   6.937 -0.0997  0.5117 -0.3371
10451TIP3    H131294   3.123   3.187   6.855 -0.5852  1.2966 -0.8863
10451TIP3    H231295   3.119   3.323   6.920 -0.2547  0.6849  0.4299
10452TIP3   OH231296   1.466   2.199   6.956  0.2306 -0.1779  0.5136
10452TIP3    H131297   1.473   2.226   7.048  1.2254 -3.1076  1.3741
10452TIP3    H231298   1.471   2.103   6.959 -0.9318 -0.3995 -2.5112
10453TIP3   OH231299   3.065   2.421   6.469  0.0842  0.0578  0.2206
10453TIP3    H131300   2.976   2.452   6.480 -0.0936 -0.5430  0.4891
10453TIP3    H231301   3.072   2.345   6.527  0.3307 -0.7510 -0.8511
10454TIP3   OH231302   3.066   3.494   6.604 -0.2745 -0.4330  0.0140
10454TIP3    H131303   3.104   3.409   6.582  1.7111  0.2993  0.5149
10454TIP3    H231304   2.998   3.508   6.538 -0.4556 -2.2971 -0.2084
10455TIP3   OH231305   6.727   8.032   0.248  0.5921 -0.3192 -0.4797
10455TIP3    H131306   6.666   8.088   0.198 -1.6467  0.2531  2.7493
10455TIP3    H231307   6.791   8.093   0.285  0.7503 -0.4272 -0.5758
10456TIP3   OH231308   5.240   6.631   0.298 -0.4698 -0.0334 -0.2848
10456TIP3    H131309   5.246   6.638   0.393 -0.5599  2.4868 -0.4363
10456TIP3    H231310   5.331   6.633   0.268 -0.4669 -0.2676 -0.2936
10457TIP3   OH231311   6.493   0.621   6.262  0.2234 -0.0448 -0.2858
10457TIP3    H131312   6.517   0.680   6.191  1.1960  0.7054  0.6527
10457TIP3    H231313   6.546   0.649   6.336  0.3118 -1.7597  0.3329
10458TIP3   OH231314   4.891   6.404   0.778 -0.4410 -0.7049 -0.4715
10458TIP3    H131315   4.878   6.348   0.701  1.9962 -1.1862 -0.5794
10458TIP3    H231316   4.978   6.441   0.766 -1.6589  2.5116  0.0199
10459TIP3   OH231317   6.548   4.014   6.994 -0.2217  0.2320 -0.5543
10459TIP3    H131318   6.460   4.039   7.021  0.0386  0.5903 -0.0306
10459TIP3    H231319   6.536   3.971   6.909 -0.8702  0.5130 -0.6053
10460TIP3   OH231320   5.753   6.492   0.341  0.2964  0.0211  0.2354
10460TIP3    H131321   5.672   6.524   0.380  1.1096  3.0391 -0.3833
10460TIP3    H231322   5.809   6.472   0.416 -0.8182 -1.5734  0.6558
10461TIP3   OH231323   3.607   1.653   4.692 -0.3117 -0.3695  0.3011
10461TIP3    H131324   3.637   1.675   4.780  1.7038 -1.0820 -0.1861
10461TIP3    H231325   3.656   1.574   4.668  1.5349  1.5387 -2.6445
10462TIP3   OH231326   6.561   8.002   0.996  0.1938  0.2978  0.0616
10462TIP3    H131327   6.480   7.987   0.947 -0.6732  1.6104  1.0514
10462TIP3    H231328   6.562   8.097   1.011  2.9871  0.6248 -1.7527
10463TIP3   OH231329   1.271   0.555   0.530  0.5460  0.0908  0.1251
10463TIP3    H131330   1.313   0.595   0.606 -0.3098  0.2451  0.5320
10463TIP3    H231331   1.311   0.597   0.455  0.0604  1.3282  0.5370
10464TIP3   OH231332   3.189   2.560   6.978  0.5565 -0.1898  0.0427
10464TIP3    H131333   3.230   2.474   6.967  2.7466  0.9818 -1.1204
10464TIP3    H231334   3.150   2.579   6.892 -2.8795 -1.4806  1.2491
10465TIP3   OH231335   8.085   1.413   1.148 -0.2803  0.2164 -0.0973
10465TIP3    H131336   8.108   1.321   1.141 -3.3434 -0.5039 -1.5930
10465TIP3    H231337   8.119   1.440   1.234  0.6093 -2.2971  0.3665
10466TIP3   OH231338   2.867   3.826   6.243 -0.9053  0.4899 -0.0780
10466TIP3    H131339   2.896   3.735   6.228  0.5867  1.1477 -1.3081
10466TIP3    H231340   2.919   3.878   6.181 -2.4190  2.0861 -0.0282
10467TIP3   OH231341   4.505   3.480   5.990 -0.2330  0.5832 -0.2361
10467TIP3    H131342   4.521   3.412   5.926  1.0208  0.8564 -0.2214
10467TIP3    H231343   4.580   3.539   5.983 -0.0784  0.6276  1.4572
10468TIP3   OH231344   3.361   1.492   6.934  0.8822 -0.2660  0.1022
10468TIP3    H131345   3.420   1.417   6.926  0.6508 -0.7918  2.9499
10468TIP3    H231346   3.371   1.521   7.024  1.0339  3.2490 -0.9970
10469TIP3   OH231347   3.903   4.142   6.442 -0.4282 -0.0045 -0.2318
10469TIP3    H131348   3.892   4.047   6.444 -1.1713  0.0648 -0.7653
10469TIP3    H231349   3.998   4.155   6.442 -0.3134 -0.6639  2.5185
10470TIP3   OH231350   5.428   6.485   1.084  0.2127 -0.3705  0.0393
10470TIP3    H131351   5.491   6.554   1.109  1.3074 -0.1828 -2.9509
10470TIP3    H231352   5.407   6.441   1.166  2.3528  1.1751  1.5000
10471TIP3   OH231353   3.476   2.988   6.303  0.1109 -0.1969 -0.3229
10471TIP3    H131354   3.490   2.899   6.336 -0.5779 -0.3406 -0.4162
10471TIP3    H231355   3.421   3.030   6.370 -0.0848 -0.0399 -0.5824
10472TIP3   OH231356   3.906   0.431   6.782  0.3573 -0.6381  0.1660
10472TIP3    H131357   3.920   0.345   6.822 -0.4254 -0.7135  0.2969
10472TIP3    H231358   3.822   0.460   6.818 -0.2193 -0.5810 -1.2052
10473TIP3   OH231359   4.062   5.157   6.504 -0.4001  0.4076  0.2576
10473TIP3    H131360   4.056   5.125   6.594  0.9353  1.4480  0.7414
10473TIP3    H231361   4.032   5.084   6.450  0.6544 -0.9321  1.4356
10474TIP3   OH231362   2.223   3.885   4.433  0.1379 -0.0294 -0.4711
10474TIP3    H131363   2.307   3.846   4.409 -0.5757 -1.6996 -0.3581
10474TIP3    H231364   2.224   3.886   4.529 -0.1644 -0.5281 -0.4584
10475TIP3   OH231365   4.562   4.228   5.573  0.0186  0.4578 -0.0069
10475TIP3    H131366   4.525   4.169   5.508 -0.2945 -0.9410  1.3986
10475TIP3    H231367   4.641   4.183   5.604 -0.3630  0.6589  1.2680
10476TIP3   OH231368   1.811   2.405   6.597  0.0312  0.6103  0.5606
10476TIP3    H131369   1.760   2.485   6.583 -0.0625  1.1183  3.5057
10476TIP3    H231370   1.745   2.338   6.614  0.1903  0.3053 -0.0098
10477TIP3   OH231371   3.112   3.598   5.560 -0.0597  0.3954 -0.8891
10477TIP3    H131372   3.135   3.595   5.653 -0.3368  0.4245 -0.8206
10477TIP3    H231373   3.018   3.613   5.559 -0.3822 -1.5353 -1.1609
10478TIP3   OH231374   5.000   2.299   6.720  0.2053 -0.8314  0.7038
10478TIP3    H131375   4.927   2.270   6.666 -1.7882 -0.3787  3.0558
10478TIP3    H231376   5.042   2.218   6.749  0.5494 -1.0954 -0.4895
10479TIP3   OH231377   3.914   2.234   5.104 -0.1060  0.3644  0.1825
10479TIP3    H131378   3.855   2.260   5.176  0.6736 -2.9669  2.1205
10479TIP3    H231379   3.861   2.174   5.051  1.0660 -1.5309  1.1341
10480TIP3   OH231380   5.516   5.140   3.281  0.2431 -0.4031  0.0674
10480TIP3    H131381   5.432   5.167   3.319 -0.5273 -0.1727 -1.7787
10480TIP3    H231382   5.558   5.221   3.255 -0.3151 -0.6844 -1.7967
10481TIP3   OH231383   0.319   0.533   0.557  0.1944 -0.1866  0.3082
10481TIP3    H131384   0.292   0.501   0.644 -0.1411 -0.3952  0.1306
10481TIP3    H231385   0.375   0.608   0.575 -2.2571  1.6317  0.6735
10482TIP3   OH231386   4.369   4.949   2.926  0.1096  0.2865 -0.0281
10482TIP3    H131387   4.274   4.956   2.918  0.2030  3.8908  1.2382
10482TIP3    H231388   4.389   4.988   3.011  2.5584 -2.4482  0.7416
10483TIP3   OH231389   3.078   2.519   5.140 -0.6345  0.5443 -0.2116
10483TIP3    H131390   3.059   2.598   5.090 -1.2617  0.2207 -0.4873
10483TIP3    H231391   3.000   2.465   5.130  0.3479 -0.7030 -1.1825
10484TIP3   OH231392   3.043   3.786   7.014 -0.1646  0.1663 -0.9284
10484TIP3    H131393   3.030   3.764   6.922 -4.4935 -0.9753 -0.1592
10484TIP3    H231394   3.129   3.749   7.036  0.7490  0.0989 -4.3462
10485TIP3   OH231395   2.730   4.845   6.279  0.2817  0.5030 -0.4662
10485TIP3    H131396   2.791   4.909   6.317  0.3572  0.3987 -0.4122
10485TIP3    H231397   2.710   4.880   6.192  0.6604  0.3796 -0.6025
10486TIP3   OH231398   3.299   7.341   0.594  0.3738 -0.4721  1.0357
10486TIP3    H131399   3.273   7.390   0.516 -0.3952  0.2710  1.7557
10486TIP3    H231400   3.216   7.308   0.629  0.5959  0.2406  2.2377
10487TIP3   OH231401   2.228   4.249   6.580  0.3425 -0.5219  0.2647
10487TIP3    H131402   2.233   4.222   6.489  0.5459  0.4283 -0.0104
10487TIP3    H231403   2.286   4.325   6.586 -1.6853  1.0638  0.5749
10488TIP3   OH231404   3.117   1.891   6.986 -0.0270  0.7485 -0.5432
10488TIP3    H131405   3.059   1.849   6.923 -1.1811  0.2092  0.8525
10488TIP3    H231406   3.077   1.976   7.003 -1.7886 -0.5479  2.2159
10489TIP3   OH231407   6.573   7.300   1.549  0.1358  0.3428 -0.1217
10489TIP3    H131408   6.631   7.274   1.477 -1.1611  0.3031 -1.1714
10489TIP3    H231409   6.555   7.393   1.533 -2.2050 -0.2689 -1.3540
10490TIP3   OH231410   7.225   0.551   1.897 -0.4181  0.0643 -0.2686
10490TIP3    H131411   7.206   0.619   1.961  2.9605  2.3839 -1.6047
10490TIP3    H231412   7.308   0.513   1.926 -1.8006 -2.9364 -0.0451
10491TIP3   OH231413   6.457   6.598   0.361  0.4057 -0.1305 -0.0943
10491TIP3    H131414   6.521   6.655   0.404 -0.0210  0.2705  0.0141
10491TIP3    H231415   6.430   6.647   0.283 -0.3696  0.0628  0.2906
10492TIP3   OH231416   5.265   6.877   0.636  0.1111 -0.8288  0.6790
10492TIP3    H131417   5.170   6.883   0.652 -0.2981 -1.5962 -1.3412
10492TIP3    H231418   5.292   6.968   0.621 -0.4950 -0.7246  0.2123
10493TIP3   OH231419   6.686   7.479   0.962 -0.2708  0.1904  0.3155
10493TIP3    H131420   6.704   7.516   0.875 -1.0455 -2.6279 -1.1133
10493TIP3    H231421   6.641   7.549   1.009  1.5839  2.3155 -0.9833
10494TIP3   OH231422   4.511   2.092   5.188 -0.5356  0.0389 -0.3988
10494TIP3    H131423   4.540   2.016   5.238 -0.5543 -0.6884 -1.4594
10494TIP3    H231424   4.416   2.096   5.202 -0.5816 -0.3316 -0.5911
10495TIP3   OH231425   5.454   4.613   1.138  0.3348 -0.4170 -0.1767
10495TIP3    H131426   5.388   4.603   1.069  0.1575 -0.9024  0.0674
10495TIP3    H231427   5.501   4.530   1.138  1.6327  0.2853 -1.0617
10496TIP3   OH231428   4.561   3.381   6.769 -0.2772 -0.9397  0.4529
10496TIP3    H131429   4.553   3.473   6.743 -0.0473 -1.1024 -0.1972
10496TIP3    H231430   4.475   3.359   6.803 -0.5786 -0.7146 -0.1503
10497TIP3   OH231431   0.820   0.049   0.633  0.2838  0.2756  0.2729
10497TIP3    H131432   0.902   0.082   0.670  0.1107  0.2561  0.6775
10497TIP3    H231433   0.838  -0.042   0.611  0.3973  0.2986  0.2691
10498TIP3   OH231434   4.892   1.519   6.092 -0.3430  0.5214 -0.0108
10498TIP3    H131435   4.975   1.548   6.130 -0.2675 -0.6763  0.7415
10498TIP3    H231436   4.917   1.481   6.008  0.2641 -2.5696  1.5027
10499TIP3   OH231437   7.791   0.222   0.113  0.1596 -0.3325  0.2347
10499TIP3    H131438   7.859   0.250   0.052  1.5552 -1.2405  1.3551
10499TIP3    H231439   7.749   0.148   0.069  0.6338 -0.4788  0.0239
10500TIP3   OH231440   5.617   5.802   1.484  0.5018 -0.1686  0.1737
10500TIP3    H131441   5.627   5.745   1.561 -2.8836 -0.1562  0.6994
10500TIP3    H231442   5.571   5.879   1.517 -0.6114  0.0198 -1.7357
10501TIP3   OH231443   5.592   4.869   6.812  0.0850  0.2195 -0.4508
10501TIP3    H131444   5.611   4.777   6.797  1.8493  0.4700  0.1487
10501TIP3    H231445   5.508   4.883   6.768  0.0337 -1.5473 -0.9693
10502TIP3   OH231446   3.269   5.017   5.857 -0.1202 -0.0999 -0.3708
10502TIP3    H131447   3.296   4.947   5.798 -1.9969 -0.2399 -1.1086
10502TIP3    H231448   3.267   5.095   5.803 -1.1592 -0.0982 -0.3530
10503TIP3   OH231449   8.529   1.025   1.423  0.0055  0.0774  0.0801
10503TIP3    H131450   8.449   1.074   1.404  0.7050  1.9758  1.9000
10503TIP3    H231451   8.508   0.975   1.502 -0.1369 -1.2772 -0.7930
10504TIP3   OH231452   5.821   6.649   1.001  0.1489  0.1384 -0.2194
10504TIP3    H131453   5.766   6.672   1.076 -0.9548 -1.8302 -0.3910
10504TIP3    H231454   5.891   6.597   1.038  1.2234  1.5744 -0.1828
10505TIP3   OH231455   4.769   3.988   6.704  0.1700 -0.0290 -0.4159
10505TIP3    H131456   4.674   3.992   6.715  0.1394  0.4381 -0.8387
10505TIP3    H231457   4.787   4.047   6.630  0.5757 -1.5212 -1.5353
10506TIP3   OH231458   2.748   3.943   6.940  0.0712 -0.4112  0.1492
10506TIP3    H131459   2.813   3.975   7.002 -0.3219  1.1547 -0.2286
10506TIP3    H231460   2.778   3.855   6.916  1.3535 -0.1891  0.9425
10507TIP3   OH231461   5.649   7.230   0.306 -0.4332 -0.2820 -0.2386
10507TIP3    H131462   5.579   7.294   0.317 -0.0004 -0.1226  1.7635
10507TIP3    H231463   5.725   7.283   0.280  0.0918  0.1360  2.0455
10508TIP3   OH231464   1.079   1.668   0.214 -0.1288 -0.1894  0.3607
10508TIP3    H131465   1.130   1.632   0.287  1.0269 -0.4760 -0.5755
10508TIP3    H231466   1.123   1.750   0.192 -1.2954  0.6028  0.8631
10509TIP3   OH231467   2.602   1.828   6.808 -0.0716  0.3365  0.1598
10509TIP3    H131468   2.673   1.763   6.804  0.8937  1.2776  1.5765
10509TIP3    H231469   2.646   1.912   6.796 -1.0566  0.8807  0.3286
10510TIP3   OH231470   2.566   4.334   5.516 -0.2690 -0.0190  0.7061
10510TIP3    H131471   2.616   4.367   5.442  0.0176  2.5401  1.9809
10510TIP3    H231472   2.504   4.272   5.478  1.0621 -0.0875 -1.4219
10511TIP3   OH231473   3.521   3.986   6.705 -0.2692  0.4116 -0.6626
10511TIP3    H131474   3.541   3.991   6.799 -1.2890 -1.9566 -0.2768
10511TIP3    H231475   3.453   4.052   6.691 -0.2014  0.6888  0.2977
10512TIP3   OH231476   7.717   0.389   1.065  0.4660  0.1295  0.5437
10512TIP3    H131477   7.792   0.421   1.016  0.8956 -1.8145 -0.1352
10512TIP3    H231478   7.641   0.415   1.013  0.6094  2.7001  1.5819
10513TIP3   OH231479   5.102   2.572   6.646 -0.0336  0.1437 -0.1112
10513TIP3    H131480   5.072   2.482   6.657  1.9627 -0.6093 -0.5380
10513TIP3    H231481   5.109   2.583   6.551  1.4880  0.1245 -0.0112
10514TIP3   OH231482   1.281   3.685   6.160 -0.3484 -0.1869 -0.4603
10514TIP3    H131483   1.189   3.677   6.133 -1.6630  1.3064  3.2668
10514TIP3    H231484   1.302   3.777   6.145  0.6497 -0.5829 -1.5500
10515TIP3   OH231485   6.183   7.052   0.485 -0.2524 -0.6851  0.2403
10515TIP3    H131486   6.167   7.062   0.391  1.4955 -1.0316 -0.1309
10515TIP3    H231487   6.161   6.961   0.504  0.6660 -0.9902 -0.1287
10516TIP3   OH231488   2.769   5.957   5.531 -0.1916  0.5399 -0.1428
10516TIP3    H131489   2.850   5.912   5.555 -0.4201  0.4933  0.5485
10516TIP3    H231490   2.787   6.049   5.549 -0.8972  0.3331  1.7383
10517TIP3   OH231491   4.693   7.746   3.278 -0.0754  0.6000 -1.0079
10517TIP3    H131492   4.738   7.661   3.281  1.3112  1.3183 -1.2402
10517TIP3    H231493   4.632   7.738   3.206 -1.4177 -0.9196  0.2605
10518TIP3   OH231494   5.423   3.791   6.496  0.0328  0.0242 -0.1316
10518TIP3    H131495   5.374   3.838   6.429  0.5885 -1.2959 -1.4859
10518TIP3    H231496   5.490   3.853   6.525 -0.1341  0.5557 -0.8787
10519TIP3   OH231497   2.279   5.287   6.608 -0.2336 -0.0145  0.1983
10519TIP3    H131498   2.219   5.219   6.638  0.8628 -0.7360  0.7894
10519TIP3    H231499   2.282   5.350   6.680  1.1973 -0.9618  0.9961
10520TIP3   OH231500   4.597   6.963   0.065  0.3330  0.0309  0.7620
10520TIP3    H131501   4.645   7.045   0.054 -0.1405  0.3162  0.7992
10520TIP3    H231502   4.658   6.895   0.034  0.6843  0.4045  0.6286
10521TIP3   OH231503   3.549   3.732   5.596  0.1185 -0.4531 -0.5716
10521TIP3    H131504   3.456   3.714   5.580  0.3112 -1.6967 -0.3637
10521TIP3    H231505   3.551   3.822   5.629 -1.2072 -1.0700  1.2687
10522TIP3   OH231506   1.489   3.413   5.583  0.3053 -0.9239  0.6015
10522TIP3    H131507   1.455   3.394   5.495 -0.1011  0.6028  0.4044
10522TIP3    H231508   1.411   3.411   5.639 -0.2241  2.7155  0.1278
10523TIP3   OH231509   7.381   6.817   0.501 -0.3947  0.3729  0.1118
10523TIP3    H131510   7.345   6.839   0.587 -0.6586 -3.3629  1.0321
10523TIP3    H231511   7.320   6.857   0.439 -1.0931  1.7502  1.6385
10524TIP3   OH231512   6.966   2.054   7.012  0.0283 -0.0402 -0.2427
10524TIP3    H131513   6.976   2.102   6.930  0.6942  0.7044  0.2691
10524TIP3    H231514   6.895   2.099   7.058 -1.1930 -1.2216 -0.9463
10525TIP3   OH231515   3.828   1.212   6.459  0.4328 -0.4402  0.0170
10525TIP3    H131516   3.738   1.205   6.426  0.0637  0.3049  0.8446
10525TIP3    H231517   3.881   1.223   6.380 -0.5308  2.2358 -0.3264
10526TIP3   OH231518   3.473   2.959   6.755  0.8196  0.0736 -0.0599
10526TIP3    H131519   3.556   2.912   6.767  1.1904 -0.3283 -3.5712
10526TIP3    H231520   3.406   2.898   6.787  1.5800 -1.3064 -1.0409
10527TIP3   OH231521   5.689   6.993   2.035 -0.6186  0.3016 -0.3989
10527TIP3    H131522   5.782   7.008   2.055 -0.9987  1.3952  0.6000
10527TIP3    H231523   5.681   6.897   2.032  0.4457  0.1860 -0.0146
10528TIP3   OH231524   6.084   5.078   0.873 -0.3692 -0.1769 -0.6808
10528TIP3    H131525   6.041   5.024   0.807 -1.2445 -0.2257 -0.0757
10528TIP3    H231526   6.136   5.016   0.925 -0.6190 -0.3017 -0.5804
10529TIP3   OH231527   4.332   4.666   6.115  0.3807 -0.1811 -0.6795
10529TIP3    H131528   4.416   4.692   6.078 -0.1626  1.0784 -1.0808
10529TIP3    H231529   4.350   4.586   6.163  1.7546 -0.0658 -0.9844
10530TIP3   OH231530   1.055   2.858   6.547 -0.1783  0.0215 -0.1809
10530TIP3    H131531   1.054   2.762   6.543 -0.5288  0.0660 -1.3973
10530TIP3    H231532   1.119   2.879   6.615  0.9158 -1.0448 -0.8727
10531TIP3   OH231533   4.614   3.146   6.568  0.6103  0.1713 -0.1862
10531TIP3    H131534   4.535   3.197   6.587 -0.4406 -1.1391 -0.9692
10531TIP3    H231535   4.682   3.213   6.552 -0.4135  1.3087  0.1588
10532TIP3   OH231536   4.746   3.691   5.927 -0.1379  0.2321  0.0004
10532TIP3    H131537   4.774   3.636   6.000 -0.9648 -0.3805 -0.1351
10532TIP3    H231538   4.819   3.688   5.866 -0.5165 -1.4557 -0.4097
10533TIP3   OH231539   3.939   7.376   1.200 -0.0155  0.1074  0.1372
10533TIP3    H131540   3.928   7.470   1.182 -0.6335 -0.1662 -0.9729
10533TIP3    H231541   4.024   7.355   1.162 -0.5885 -0.1179 -1.0337
10534TIP3   OH231542   1.168   2.593   4.669  0.0084  0.0389 -0.2215
10534TIP3    H131543   1.193   2.608   4.577  1.2177 -1.3083 -0.1280
10534TIP3    H231544   1.155   2.681   4.705  0.0393  0.5962 -1.5392
10535TIP3   OH231545   3.551   4.621   6.826 -0.5644 -0.0548  0.2113
10535TIP3    H131546   3.552   4.605   6.732 -0.7678  1.5360 -0.0697
10535TIP3    H231547   3.629   4.575   6.859 -0.3394 -0.3805 -0.7555
10536TIP3   OH231548   2.760   5.982   0.635 -0.2728 -0.2225 -0.0905
10536TIP3    H131549   2.815   6.033   0.695 -0.2281  1.2688 -1.3802
10536TIP3    H231550   2.677   5.971   0.681 -0.3778  1.2651  0.0797
10537TIP3   OH231551   2.675   3.337   6.753  0.4491  0.5294 -0.1369
10537TIP3    H131552   2.693   3.336   6.847  0.4708 -0.3300 -0.1400
10537TIP3    H231553   2.662   3.245   6.731  2.4012  0.5171 -1.3539
10538TIP3   OH231554   2.187   4.982   6.051  0.0090  0.4217  0.6170
10538TIP3    H131555   2.130   5.042   6.099 -0.9380 -0.0894  0.1504
10538TIP3    H231556   2.264   4.973   6.106 -0.5448  0.7914  1.4591
10539TIP3   OH231557   5.050   7.845   1.747  0.0108  0.0376 -0.8116
10539TIP3    H131558   5.071   7.889   1.829 -1.4646  0.5686 -0.7190
10539TIP3    H231559   5.077   7.906   1.679 -1.6478  0.9359 -0.6865
10540TIP3   OH231560   2.056   2.707   5.014 -0.0321 -0.1982 -0.1733
10540TIP3    H131561   2.025   2.732   5.101  0.3411  0.7472 -0.3088
10540TIP3    H231562   1.978   2.673   4.970 -0.4966  0.5073  0.0952
10541TIP3   OH231563   8.050   7.263   0.271 -0.0772 -0.2077 -0.1665
10541TIP3    H131564   7.997   7.305   0.204  0.9434 -0.7235 -1.3203
10541TIP3    H231565   7.986   7.228   0.334 -0.9574  1.9564  0.1641
10542TIP3   OH231566   4.054   3.806   4.025  0.6043  0.1427 -0.5646
10542TIP3    H131567   4.025   3.722   4.060  0.2510 -0.0979 -1.4074
10542TIP3    H231568   4.124   3.834   4.084  1.5160 -1.2946 -0.9255
10543TIP3   OH231569   4.702   6.671   2.752  0.3977  0.4572 -0.5065
10543TIP3    H131570   4.738   6.744   2.803  0.1039  0.7700 -0.7436
10543TIP3    H231571   4.626   6.642   2.803  1.0959 -0.3434  0.1069
10544TIP3   OH231572   5.062   7.430   0.299  0.3625 -0.2456 -0.3759
10544TIP3    H131573   5.136   7.439   0.239 -0.3831  1.3320 -1.0883
10544TIP3    H231574   4.988   7.407   0.242 -0.1030  0.1190  0.0755
10545TIP3   OH231575   8.316   7.970   1.784  0.4421 -0.3565  0.0705
10545TIP3    H131576   8.292   7.878   1.772 -0.6215  0.1802 -2.2410
10545TIP3    H231577   8.233   8.014   1.803  0.4784  0.5432 -1.7464
10546TIP3   OH231578   4.132   2.030   5.601 -0.0291 -0.0880  0.0556
10546TIP3    H131579   4.111   1.994   5.688  0.6818 -0.7744 -0.0550
10546TIP3    H231580   4.146   2.123   5.616 -2.3353  0.2574  0.2794
10547TIP3   OH231581   5.449   2.432   6.083  0.0968 -0.4667  0.5316
10547TIP3    H131582   5.514   2.383   6.133 -0.5816 -0.8737  1.0202
10547TIP3    H231583   5.364   2.395   6.111 -0.4316  1.1184  1.0612
10548TIP3   OH231584   4.884   5.172   0.698 -0.2921  0.4837 -0.1452
10548TIP3    H131585   4.925   5.176   0.612 -0.4486  0.3919 -0.2254
10548TIP3    H231586   4.842   5.086   0.700 -0.5471  0.6098 -0.0950
10549TIP3   OH231587   5.409   6.242   0.478 -0.2064 -0.6700  0.3352
10549TIP3    H131588   5.465   6.267   0.551 -1.4688  1.9637  0.4594
10549TIP3    H231589   5.469   6.204   0.414  1.5379  0.8268  1.0237
10550TIP3   OH231590   5.496   4.781   1.864 -0.2124 -0.1499 -0.0588
10550TIP3    H131591   5.587   4.804   1.881 -1.0296  3.4198 -0.2831
10550TIP3    H231592   5.497   4.738   1.778  1.1236  0.6345 -0.4404
10551TIP3   OH231593   0.907   3.806   4.125 -0.3325 -0.4949  0.2441
10551TIP3    H131594   0.995   3.810   4.088  0.6276 -0.6719  2.4763
10551TIP3    H231595   0.850   3.793   4.049  1.4486  0.6858 -1.3392
10552TIP3   OH231596   6.394   6.888   0.602 -0.1602 -0.5133  0.0658
10552TIP3    H131597   6.337   6.934   0.663  0.1750  0.4888 -0.3567
10552TIP3    H231598   6.335   6.851   0.536 -0.3417  0.3413 -0.2532
10553TIP3   OH231599   4.592   2.916   5.782  0.2715  0.3133 -0.2952
10553TIP3    H131600   4.498   2.903   5.792  0.1456  0.6524 -1.0487
10553TIP3    H231601   4.629   2.887   5.866 -0.7682  2.9134  1.1456
10554TIP3   OH231602   6.221   5.714   1.600  0.1105 -0.0109 -0.1384
10554TIP3    H131603   6.271   5.708   1.518  0.6364  2.0311 -0.0007
10554TIP3    H231604   6.160   5.786   1.585  0.8235  0.9678  1.5875
10555TIP3   OH231605   4.901   4.911   2.794 -0.0675 -0.2546 -0.0669
10555TIP3    H131606   4.974   4.856   2.765  0.3660 -0.1520  0.8109
10555TIP3    H231607   4.943   4.992   2.823 -0.2809 -1.0208  2.5461
10556TIP3   OH231608   2.152   3.921   6.479 -0.0951 -0.5217  0.1217
10556TIP3    H131609   2.163   3.975   6.557 -0.7778  1.3203 -1.0085
10556TIP3    H231610   2.223   3.949   6.421 -0.8725 -0.3171 -0.7465
10557TIP3   OH231611   3.821   5.722   6.049 -0.2354 -0.1838  0.3756
10557TIP3    H131612   3.809   5.634   6.085  2.0195 -0.2901  0.9426
10557TIP3    H231613   3.845   5.776   6.124  0.7803  0.3954 -0.3544
10558TIP3   OH231614   6.767   7.750   1.465 -0.0533 -0.1247 -0.1981
10558TIP3    H131615   6.740   7.825   1.517 -1.3551  0.8143 -2.1371
10558TIP3    H231616   6.691   7.693   1.462  0.4868 -0.8732  0.1440
10559TIP3   OH231617   4.374   2.219   6.803  0.1049 -0.1366  0.1002
10559TIP3    H131618   4.397   2.127   6.812  0.8949  0.0814  0.4363
10559TIP3    H231619   4.417   2.261   6.878 -0.8924  0.3892  0.3857
10560TIP3   OH231620   6.592   6.170   0.281  0.6682 -0.2232 -0.0213
10560TIP3    H131621   6.575   6.101   0.345  0.2996 -0.3649 -0.2735
10560TIP3    H231622   6.645   6.234   0.329  1.0763 -0.7157  0.1860
10561TIP3   OH231623   4.892   4.465   0.834  0.5880 -0.6672  0.2083
10561TIP3    H131624   4.858   4.554   0.830  2.0245 -0.1581 -1.4034
10561TIP3    H231625   4.940   4.461   0.917  1.6201  0.4825 -0.3212
10562TIP3   OH231626   5.895   6.108   1.186  0.0438  0.7344  0.7016
10562TIP3    H131627   5.982   6.110   1.225 -0.0349  0.7588  0.8784
10562TIP3    H231628   5.891   6.024   1.141  1.2846  2.0266 -1.9138
10563TIP3   OH231629   0.288   5.631   1.211 -0.2338  0.5028  0.3679
10563TIP3    H131630   0.365   5.594   1.168 -0.5856  1.3104 -0.9805
10563TIP3    H231631   0.324   5.698   1.270  0.1053  0.9702 -0.3556
10564TIP3   OH231632   5.760   6.229   2.217  0.5525 -0.3578  0.2448
10564TIP3    H131633   5.821   6.284   2.266  2.0454 -0.8790 -0.9920
10564TIP3    H231634   5.750   6.150   2.270 -0.6409  0.5551  1.4227
10565TIP3   OH231635   0.993   0.421   1.746  0.5329  0.1001  0.1757
10565TIP3    H131636   1.085   0.396   1.739  0.3304 -0.2866 -1.1222
10565TIP3    H231637   0.992   0.492   1.811  1.5224 -1.0581  1.4645
10566TIP3   OH231638   4.177   5.911   1.642  0.2062  0.0645  0.1922
10566TIP3    H131639   4.103   5.877   1.591  0.4786 -0.3736  0.0846
10566TIP3    H231640   4.168   6.006   1.636  0.0661  0.0182 -0.4370
10567TIP3   OH231641   2.055   2.582   6.257 -0.5960  0.2701 -0.4049
10567TIP3    H131642   2.008   2.656   6.295 -1.6516  0.2598 -1.6608
10567TIP3    H231643   2.146   2.596   6.282 -0.7964  1.9686 -0.6114
10568TIP3   OH231644   8.410   5.820   5.901 -0.4430 -0.2942  0.2119
10568TIP3    H131645   8.382   5.864   5.822  0.8315  1.1657  0.5581
10568TIP3    H231646   8.396   5.883   5.971 -1.7374 -1.6310  1.2031
10569TIP3   OH231647   1.219   3.626   5.441  0.0606  0.7363 -0.0233
10569TIP3    H131648   1.227   3.534   5.415 -0.0364  0.6884  0.1214
10569TIP3    H231649   1.191   3.623   5.532 -0.3831  0.9092 -0.1528
10570TIP3   OH231650   0.984   0.662   0.210 -0.3342  0.1828  0.1270
10570TIP3    H131651   0.910   0.723   0.209 -0.0825  0.4775 -0.4496
10570TIP3    H231652   0.951   0.585   0.257 -0.1654  1.3540  2.2412
10571TIP3   OH231653   1.122   0.563   1.464 -0.3579 -0.1582  0.3995
10571TIP3    H131654   1.059   0.521   1.406 -2.0726  2.2663  0.3970
10571TIP3    H231655   1.107   0.657   1.450  1.4006  0.4495  2.4191
10572TIP3   OH231656   4.551   3.849   5.808  0.0647 -0.7659  0.1775
10572TIP3    H131657   4.595   3.773   5.846  1.6072  0.2507  0.4787
10572TIP3    H231658   4.473   3.862   5.862  1.7749  0.1224  2.4807
10573TIP3   OH231659   8.156   7.615   2.385 -0.0729 -0.0712  0.1439
10573TIP3    H131660   8.206   7.596   2.305  2.2761  1.3887  1.2062
10573TIP3    H231661   8.214   7.588   2.456 -2.4319 -2.0375  1.4092
10574TIP3   OH231662   4.608   1.882   5.382 -0.1677 -0.1125  0.3077
10574TIP3    H131663   4.642   1.800   5.346  0.6188 -0.2233  1.2415
10574TIP3    H231664   4.545   1.855   5.449  0.4541  0.0221  0.9594
10575TIP3   OH231665   4.809   3.806   6.409  0.2658 -0.6207 -0.7168
10575TIP3    H131666   4.740   3.759   6.456  0.5154  0.6998  1.0514
10575TIP3    H231667   4.890   3.768   6.443  0.4487  0.2820 -0.1293
10576TIP3   OH231668   3.707   3.799   4.849 -0.0111 -0.2151  0.1134
10576TIP3    H131669   3.663   3.878   4.880 -0.9484 -1.0859  1.0456
10576TIP3    H231670   3.642   3.729   4.860 -0.5489 -0.5553 -4.1170
10577TIP3   OH231671   6.544   2.856   6.344  0.1773  0.6210 -0.7714
10577TIP3    H131672   6.471   2.815   6.391  0.1184  3.4162  1.7704
10577TIP3    H231673   6.503   2.926   6.293  1.0314  2.3694  0.8653
10578TIP3   OH231674   7.334   8.071   0.524 -0.0669 -0.0966 -0.5119
10578TIP3    H131675   7.337   8.107   0.612  0.0384  1.4847 -1.1522
10578TIP3    H231676   7.425   8.077   0.493 -0.3526  0.6164 -1.2206
10579TIP3   OH231677   4.019   4.331   6.673  0.2716  0.9050 -0.0744
10579TIP3    H131678   4.043   4.324   6.765  1.1341  0.0880 -0.3608
10579TIP3    H231679   4.079   4.273   6.627 -0.1568  1.2979 -1.1591
10580TIP3   OH231680   6.975   5.222   1.179 -0.0038 -0.0268  0.0137
10580TIP3    H131681   6.941   5.281   1.246  1.0447  1.3161 -0.5968
10580TIP3    H231682   6.900   5.200   1.125 -0.4595  0.5284  0.4244
10581TIP3   OH231683   1.319   3.652   6.659 -0.0069 -0.0900 -0.1858
10581TIP3    H131684   1.275   3.711   6.720 -1.0334 -1.0056 -0.0283
10581TIP3    H231685   1.411   3.679   6.661 -0.5076  1.6456 -0.3019
10582TIP3   OH231686   0.025   8.084   1.104  0.0514 -0.1189  0.0358
10582TIP3    H131687  -0.010   8.128   1.182  1.2574 -1.7586  1.5377
10582TIP3    H231688   0.116   8.065   1.126  0.1664 -1.3961 -1.4579
10583TIP3   OH231689   6.494   6.803   1.656  0.2867  0.1771  0.3636
10583TIP3    H131690   6.541   6.812   1.573 -0.5340 -0.0324 -0.1314
10583TIP3    H231691   6.458   6.889   1.673 -2.1658 -0.5175 -1.1012
10584TIP3   OH231692   5.705   7.021   0.113  0.0877  0.2517  0.0329
10584TIP3    H131693   5.645   7.074   0.165 -0.2314 -2.2306  2.2956
10584TIP3    H231694   5.648   6.977   0.050 -0.1971 -0.4946  0.8051
10585TIP3   OH231695   4.725   6.496   1.823 -0.0432 -0.2582  0.1217
10585TIP3    H131696   4.727   6.518   1.729 -0.8172  0.0464  0.1773
10585TIP3    H231697   4.780   6.563   1.864  0.1837 -0.3099 -0.0926
10586TIP3   OH231698   5.175   2.909   6.978  0.5635  0.4681 -0.3965
10586TIP3    H131699   5.221   2.838   6.935  0.7008 -0.4496  1.2474
10586TIP3    H231700   5.133   2.957   6.907  1.2525 -0.6922 -1.5907
10587TIP3   OH231701   6.674   6.988   0.691  0.8304  0.0679  0.6852
10587TIP3    H131702   6.718   7.016   0.611  1.7680 -1.8140  0.5222
10587TIP3    H231703   6.582   6.977   0.666  0.8359  1.0134  0.2611
10588TIP3   OH231704   4.999   7.223   0.470  0.0507 -0.4360  0.2897
10588TIP3    H131705   5.012   7.310   0.433  2.2748 -0.5717  0.6504
10588TIP3    H231706   4.931   7.234   0.535 -0.5622  0.7776 -0.5387
10589TIP3   OH231707   6.898   3.754   1.187  0.1560  0.0566  0.5069
10589TIP3    H131708   6.958   3.826   1.166  0.3177 -0.5900 -1.3181
10589TIP3    H231709   6.912   3.738   1.281  0.4485  2.0806  0.8266
10590TIP3   OH231710   8.284   5.410   0.686 -0.6022 -0.3499 -0.1667
10590TIP3    H131711   8.300   5.328   0.733 -2.2849  0.7553  2.4720
10590TIP3    H231712   8.367   5.458   0.693 -1.0277  0.0920  2.3928
10591TIP3   OH231713   4.702   6.907   0.614  0.5993 -1.0111  0.0194
10591TIP3    H131714   4.674   6.937   0.528 -0.3011  2.5635  1.4817
10591TIP3    H231715   4.622   6.872   0.654  0.6027 -0.8718  0.1455
10592TIP3   OH231716   7.432   4.807   1.261  0.2369  0.8867 -0.2086
10592TIP3    H131717   7.340   4.818   1.239  0.6659  1.5624 -1.7155
10592TIP3    H231718   7.472   4.891   1.242  1.2938  0.3880 -0.2280
10593TIP3   OH231719   6.303   4.771   0.932  0.8725 -0.0020  0.0639
10593TIP3    H131720   6.265   4.750   1.017  0.4945 -0.6490 -0.2627
10593TIP3    H231721   6.397   4.769   0.947  0.8326 -1.1759  0.2267
10594TIP3   OH231722   4.213   2.908   4.660 -0.2820  0.2940 -0.1528
10594TIP3    H131723   4.303   2.923   4.689 -0.2172  0.0683 -0.2329
10594TIP3    H231724   4.175   2.996   4.652 -0.2149  0.3684  0.3302
10595TIP3   OH231725   4.901   5.279   2.202 -0.4300 -0.7136 -0.4797
10595TIP3    H131726   4.968   5.263   2.136 -0.4346 -0.8762 -0.4434
10595TIP3    H231727   4.826   5.227   2.173  0.8913 -4.0767  1.8583
10596TIP3   OH231728   3.566   1.712   6.356  0.0120  0.0077 -0.1848
10596TIP3    H131729   3.522   1.749   6.433  1.3038  1.4430 -0.1068
10596TIP3    H231730   3.495   1.674   6.305 -1.2848  1.8201  0.1909
10597TIP3   OH231731   8.512   1.054   0.859  0.4565 -0.1875  0.8126
10597TIP3    H131732   8.601   1.050   0.894  0.9066 -0.7197 -0.3321
10597TIP3    H231733   8.523   1.089   0.770 -0.4357 -0.5101  0.5667
10598TIP3   OH231734   3.905   3.989   6.752  0.0488 -0.1043  0.1167
10598TIP3    H131735   3.855   4.060   6.793  1.8716  1.0833  0.3458
10598TIP3    H231736   3.978   4.033   6.709  1.0186 -1.8271 -0.0369
10599TIP3   OH231737   4.474   4.453   6.210  0.4768  0.0466 -0.1554
10599TIP3    H131738   4.531   4.441   6.134  0.2367  0.5326 -0.4140
10599TIP3    H231739   4.440   4.366   6.229  0.8037 -0.1321 -0.3982
10600TIP3   OH231740   7.302   1.496   1.240 -0.8466 -0.5324  0.0643
10600TIP3    H131741   7.251   1.567   1.279  0.9241  0.0805  1.3745
10600TIP3    H231742   7.305   1.428   1.308 -0.5539 -0.8667 -0.2784
10601TIP3   OH231743   5.619   5.276   0.841 -0.2382 -0.1166  0.1951
10601TIP3    H131744   5.647   5.312   0.925  0.4963 -0.4274  0.0823
10601TIP3    H231745   5.523   5.283   0.843 -0.1149  1.8260  0.1834
10602TIP3   OH231746   2.232   1.771   1.601  0.5686  0.2383  0.2041
10602TIP3    H131747   2.150   1.813   1.576  1.7256  2.2275 -0.3891
10602TIP3    H231748   2.242   1.699   1.539  0.1754  1.1546 -0.9612
10603TIP3   OH231749   3.761   4.389   6.603 -0.0135 -0.4590  0.0354
10603TIP3    H131750   3.773   4.381   6.508  0.1064  1.9903 -0.1710
10603TIP3    H231751   3.844   4.358   6.639  0.4157 -0.1928 -0.7032
10604TIP3   OH231752   1.586   0.843   0.661  0.0352  0.4593  0.4893
10604TIP3    H131753   1.509   0.900   0.663 -1.1147 -1.0218  0.1552
10604TIP3    H231754   1.558   0.764   0.706  1.7190  0.2915  1.2763
10605TIP3   OH231755   8.572   1.687   0.505  0.7862  0.1998 -0.3767
10605TIP3    H131756   8.491   1.692   0.556  2.1184  0.1599  1.7449
10605TIP3    H231757   8.618   1.768   0.525  0.9225  0.6287 -2.2669
10606TIP3   OH231758   7.816   0.558   3.313 -0.7497 -0.4911 -0.0490
10606TIP3    H131759   7.862   0.609   3.381  0.9781 -0.0495 -1.5208
10606TIP3    H231760   7.827   0.467   3.339  0.3951 -0.3489 -0.0347
10607TIP3   OH231761   3.332   4.193   6.699  0.5897 -0.0179 -0.2300
10607TIP3    H131762   3.351   4.260   6.633  0.5831  0.3445  0.1398
10607TIP3    H231763   3.260   4.229   6.750 -1.0147 -1.3171 -1.5195
10608TIP3   OH231764   6.490   6.480   0.045 -0.7461 -0.5196 -0.2133
10608TIP3    H131765   6.483   6.394   0.087  1.8286 -0.6606 -0.0304
10608TIP3    H231766   6.500   6.461  -0.048  1.6424 -0.5162  0.0177
10609TIP3   OH231767   4.018   3.533   6.991 -0.1022 -0.3956 -0.4771
10609TIP3    H131768   4.098   3.562   6.949  0.1337 -0.2490  0.0777
10609TIP3    H231769   3.965   3.612   7.002  0.1614 -0.3076  0.2035
10610TIP3   OH231770   4.448   0.636   5.750 -0.3406  0.6477  0.5483
10610TIP3    H131771   4.385   0.676   5.810  0.8830 -0.3925  2.6103
10610TIP3    H231772   4.466   0.703   5.685 -0.0149  2.6560  2.6575
10611TIP3   OH231773   4.698   0.955   6.942 -0.3747 -0.0709  0.0457
10611TIP3    H131774   4.628   0.905   6.899 -2.4773  1.8382  1.1930
10611TIP3    H231775   4.709   1.033   6.888  0.4566 -0.0467  0.2357
10612TIP3   OH231776   5.912   1.587   5.870 -0.5194  0.2109  0.2653
10612TIP3    H131777   5.968   1.611   5.944  3.4753 -0.7926 -2.2586
10612TIP3    H231778   5.891   1.495   5.885  0.2846  0.0103  0.1869
10613TIP3   OH231779   6.697   5.459   0.224  0.1005 -0.0840 -0.0279
10613TIP3    H131780   6.667   5.459   0.315  0.2935 -2.4161  0.0634
10613TIP3    H231781   6.679   5.548   0.193 -1.6931  0.2037  1.7146
10614TIP3   OH231782   7.417   6.632   1.912  0.0817  0.6349  0.0438
10614TIP3    H131783   7.356   6.683   1.965 -1.1558  0.1526 -0.9205
10614TIP3    H231784   7.389   6.542   1.923  0.5493  0.4216 -0.4989
10615TIP3   OH231785   6.882   6.894   0.349  0.0018 -0.3349  0.4966
10615TIP3    H131786   6.930   6.946   0.413 -0.9797  0.7376  0.3839
10615TIP3    H231787   6.826   6.957   0.303 -0.4586 -1.3281 -0.3454
10616TIP3   OH231788   4.014   3.640   6.159  0.4988 -0.0599 -0.6323
10616TIP3    H131789   4.093   3.589   6.179 -0.1631 -0.7661  0.1917
10616TIP3    H231790   3.961   3.583   6.105  0.9195  0.7351 -1.9090
10617TIP3   OH231791   4.685   3.474   6.380 -0.4396 -0.2705  0.3608
10617TIP3    H131792   4.649   3.544   6.433 -1.1457 -0.6785  0.4282
10617TIP3    H231793   4.611   3.443   6.327  0.4276  0.6907 -1.4853
10618TIP3   OH231794   8.334   4.272   6.719  0.1722  0.1533 -0.2357
10618TIP3    H131795   8.301   4.348   6.672  1.4687 -0.0756 -1.5388
10618TIP3    H231796   8.294   4.196   6.676 -3.1088  0.1293  2.6328
10619TIP3   OH231797   3.353   0.659   4.577 -0.3671 -0.5168 -0.5081
10619TIP3    H131798   3.286   0.728   4.579 -0.9493 -1.1007  0.2925
10619TIP3    H231799   3.311   0.587   4.530  0.2118 -0.3636 -1.2710
10620TIP3   OH231800   4.530   2.450   5.391 -0.0618 -0.1271  0.3995
10620TIP3    H131801   4.473   2.385   5.431  0.5004 -1.4278 -0.8401
10620TIP3    H231802   4.552   2.413   5.305  1.2255  1.1500  0.1475
10621TIP3   OH231803   6.537   2.647   5.455 -1.0192 -0.0914 -0.2503
10621TIP3    H131804   6.447   2.621   5.438 -0.9711  0.4215 -1.3366
10621TIP3    H231805   6.537   2.743   5.447 -1.1375  0.2697  3.3838
10622TIP3   OH231806   2.938   5.078   5.855  0.5546 -0.0512  0.3304
10622TIP3    H131807   2.897   4.998   5.821 -3.0094  1.2363  1.3851
10622TIP3    H231808   2.964   5.126   5.776 -1.3016 -0.2739 -0.4478
10623TIP3   OH231809   5.514   5.666   1.990  0.2800  0.1912  1.0419
10623TIP3    H131810   5.420   5.670   2.006  0.5446 -0.4795  2.7865
10623TIP3    H231811   5.533   5.748   1.943 -1.6231 -0.9589 -1.8647
10624TIP3   OH231812   4.704   5.868   1.744 -0.6033 -0.4923  0.5134
10624TIP3    H131813   4.702   5.952   1.697 -0.5567 -1.2825 -0.9272
10624TIP3    H231814   4.617   5.831   1.732 -0.2830 -1.1582  0.1982
10625TIP3   OH231815   6.451   6.756   2.030 -0.0658  0.0289  0.0421
10625TIP3    H131816   6.382   6.690   2.027  0.8884 -0.9831 -0.3486
10625TIP3    H231817   6.532   6.705   2.025  0.6905  1.2459 -0.3164
10626TIP3   OH231818   6.934   5.546   2.888 -0.5005  0.0070  0.4238
10626TIP3    H131819   6.859   5.591   2.927 -1.1336 -1.0757  0.4982
10626TIP3    H231820   6.917   5.453   2.905  1.0800 -0.2240  0.8301
10627TIP3   OH231821   5.532   7.942   1.359 -0.3657  0.3537  0.3150
10627TIP3    H131822   5.525   8.001   1.434  3.1176 -0.1719  1.1324
10627TIP3    H231823   5.564   7.998   1.288  0.4387 -0.0185  0.3835
10628TIP3   OH231824   6.322   2.971   6.556 -0.4012  0.1747  0.2152
10628TIP3    H131825   6.368   2.958   6.639  0.5929 -0.5457 -0.4381
10628TIP3    H231826   6.332   2.888   6.510  0.2154  1.0128 -1.1857
10629TIP3   OH231827   6.585   3.195   5.447  0.2619  0.0030 -0.0750
10629TIP3    H131828   6.646   3.228   5.511  0.4822 -1.2325  0.3762
10629TIP3    H231829   6.501   3.235   5.470  0.2697 -0.6875  1.1904
10630TIP3   OH231830   6.629   7.207   1.005  0.3929 -0.5740  0.4773
10630TIP3    H131831   6.582   7.204   1.088 -0.9996  0.4202 -0.2622
10630TIP3    H231832   6.622   7.298   0.976  0.0059 -1.1108 -1.1956
10631TIP3   OH231833   6.473   3.546   4.637 -0.0849 -0.2206 -0.2161
10631TIP3    H131834   6.517   3.555   4.552  1.3117  0.3149  0.5488
10631TIP3    H231835   6.388   3.588   4.624  0.0647 -0.2524 -1.3858
10632TIP3   OH231836   5.022   3.868   5.579  0.2196 -0.2626 -0.4709
10632TIP3    H131837   5.072   3.947   5.599 -0.5591  0.2298 -0.4283
10632TIP3    H231838   5.083   3.811   5.533  0.7108  0.4720 -0.7315
10633TIP3   OH231839   4.028   2.370   4.460  0.0038 -0.1311  0.2023
10633TIP3    H131840   3.957   2.427   4.488 -0.3453 -1.6379  2.5426
10633TIP3    H231841   4.097   2.429   4.432 -2.0320  1.3658 -1.8615
10634TIP3   OH231842   4.053   1.505   5.933  0.7225  0.0127 -0.3040
10634TIP3    H131843   4.051   1.574   6.000  2.8179  0.7256 -0.9532
10634TIP3    H231844   3.964   1.506   5.896 -0.0166  0.6301  1.4268
10635TIP3   OH231845   5.343   2.055   6.274  0.6975 -0.0156  0.2078
10635TIP3    H131846   5.351   2.023   6.184  1.5110 -0.4464  0.4296
10635TIP3    H231847   5.390   2.138   6.275  0.6529  0.0098  0.2308
10636TIP3   OH231848   4.112   2.568   5.540  0.2581 -0.5857 -0.8029
10636TIP3    H131849   4.141   2.627   5.470 -1.0274 -0.0179 -0.8762
10636TIP3    H231850   4.062   2.624   5.600  0.2593 -1.3165 -0.1110
10637TIP3   OH231851   6.186   2.824   6.249 -0.1903 -0.0414 -0.4985
10637TIP3    H131852   6.243   2.830   6.173 -1.6030 -1.0923 -1.6837
10637TIP3    H231853   6.173   2.730   6.261 -1.2630  0.1727  0.0379
10638TIP3   OH231854   8.372   6.861   0.658  0.0907  0.9537 -0.2155
10638TIP3    H131855   8.316   6.784   0.669  0.8354  0.2898 -1.0531
10638TIP3    H231856   8.328   6.930   0.709 -1.7424  0.5687 -1.2307
10639TIP3   OH231857   2.836   2.565   6.071  0.4500  0.0973  0.1717
10639TIP3    H131858   2.746   2.532   6.082  0.7918 -0.2809  1.9949
10639TIP3    H231859   2.887   2.488   6.046  0.2620  0.3221 -0.9148
10640TIP3   OH231860   4.944   2.416   6.199 -0.1904 -0.2145 -0.2341
10640TIP3    H131861   4.897   2.350   6.250 -1.3082  0.5786 -0.2425
10640TIP3    H231862   4.911   2.406   6.110 -1.4351  1.3318  0.0445
10641TIP3   OH231863   2.739   4.223   5.739 -0.2647 -0.7356 -0.6076
10641TIP3    H131864   2.824   4.263   5.722  0.7155 -1.7487  1.7592
10641TIP3    H231865   2.682   4.258   5.670  1.4920  1.6711 -0.8941
10642TIP3   OH231866   8.069   7.743   0.062 -0.0879 -0.5060  0.7078
10642TIP3    H131867   8.025   7.781   0.138 -0.6458  0.5711 -0.1410
10642TIP3    H231868   7.999   7.702   0.011  0.1284 -0.2632  0.2092
10643TIP3   OH231869   6.430   1.667   6.420 -0.3045  0.0662  0.5598
10643TIP3    H131870   6.510   1.625   6.388  1.6632  1.3153  3.6039
10643TIP3    H231871   6.419   1.744   6.364 -0.2159 -0.9140 -0.8122
10644TIP3   OH231872   0.253   3.726   0.238  0.5346 -0.2512  0.2797
10644TIP3    H131873   0.178   3.726   0.178  0.8047 -2.5012 -0.0750
10644TIP3    H231874   0.217   3.762   0.320 -1.1575 -1.9708  0.3386
10645TIP3   OH231875   5.113   3.642   4.303 -0.6340  0.0624  0.0616
10645TIP3    H131876   5.101   3.547   4.298 -0.2575  0.0067  0.1931
10645TIP3    H231877   5.043   3.672   4.361 -1.0921 -0.0647 -0.4166
10646TIP3   OH231878   1.219   7.293   0.109  0.8142  0.5070  0.1212
10646TIP3    H131879   1.244   7.253   0.192  2.7783  1.1869 -0.1050
10646TIP3    H231880   1.283   7.258   0.046  0.7102  1.6789 -0.6496
10647TIP3   OH231881   7.575   5.179   0.131 -0.1921  0.1227 -0.0743
10647TIP3    H131882   7.579   5.144   0.042 -1.0564  0.5933 -0.3061
10647TIP3    H231883   7.646   5.134   0.177  0.9754  0.6788 -1.2770
10648TIP3   OH231884   2.579   7.314   6.004  0.0083  0.1207  0.2481
10648TIP3    H131885   2.675   7.314   5.997  0.0528 -1.7635  0.6959
10648TIP3    H231886   2.552   7.395   5.960  1.7360  0.1098 -0.8793
10649TIP3   OH231887   4.916   2.528   5.826 -0.1585 -0.1554  0.4351
10649TIP3    H131888   4.855   2.467   5.868 -0.9350 -0.3141 -0.9249
10649TIP3    H231889   5.002   2.488   5.839 -0.2619  0.2996  2.7569
10650TIP3   OH231890   5.542   2.537   5.280  0.6936  0.3671 -0.0897
10650TIP3    H131891   5.612   2.602   5.283  0.4658  0.5751  1.0998
10650TIP3    H231892   5.587   2.454   5.263  1.0913  0.6900 -0.6079
10651TIP3   OH231893   1.918   7.448   0.861 -0.1148  0.2062  0.2077
10651TIP3    H131894   1.877   7.361   0.852 -0.0319  0.3190 -1.4250
10651TIP3    H231895   1.845   7.509   0.856  0.1465  0.3820 -2.2044
10652TIP3   OH231896   2.705   0.602   1.027 -0.1937 -0.1684  0.0506
10652TIP3    H131897   2.752   0.541   1.083 -0.8199 -0.4567  0.2734
10652TIP3    H231898   2.613   0.576   1.036 -0.4906  1.0015  0.3759
10653TIP3   OH231899   7.272   7.683   0.928  0.4283 -0.0699  0.0943
10653TIP3    H131900   7.197   7.645   0.972  0.6008  0.8570  1.2007
10653TIP3    H231901   7.248   7.683   0.835 -1.0829  0.5923  0.4845
10654TIP3   OH231902   5.113   2.098   6.007 -0.1414 -0.4897  0.1079
10654TIP3    H131903   5.182   2.083   5.943 -0.4555 -0.4299 -0.2474
10654TIP3    H231904   5.038   2.126   5.955 -0.1033  0.5489  0.5868
10655TIP3   OH231905   5.524   1.780   6.255 -0.1237 -0.0516  0.0950
10655TIP3    H131906   5.539   1.875   6.257 -0.7617  0.0490  0.2595
10655TIP3    H231907   5.545   1.750   6.343 -1.0752  0.1239  0.3915
10656TIP3   OH231908   4.848   2.375   5.391 -0.3892 -0.4008 -0.6154
10656TIP3    H131909   4.862   2.283   5.414 -0.4172 -0.5792 -1.3190
10656TIP3    H231910   4.778   2.404   5.450 -0.0876 -0.7077 -0.0990
10657TIP3   OH231911   6.362   1.080   5.499 -0.6080  0.3058 -0.2230
10657TIP3    H131912   6.296   1.147   5.513 -1.2222 -0.1321 -1.0080
10657TIP3    H231913   6.317   0.997   5.516 -0.0339  0.0538  0.0880
10658TIP3   OH231914   7.736   2.402   6.427 -0.3203  0.1624  0.2338
10658TIP3    H131915   7.708   2.365   6.343  0.0261 -0.8187  0.5400
10658TIP3    H231916   7.726   2.330   6.490 -1.5708  1.1966  1.2450
10659TIP3   OH231917   5.261   0.551   6.112  0.5894 -0.0138  0.1188
10659TIP3    H131918   5.322   0.560   6.038  1.0203 -1.3483  0.2996
10659TIP3    H231919   5.317   0.554   6.190  0.1191  1.5523  0.4172
10660TIP3   OH231920   0.406   6.018   1.237  0.2150 -0.2035  0.3676
10660TIP3    H131921   0.343   5.971   1.183  0.1772 -1.0888  1.1842
10660TIP3    H231922   0.431   5.956   1.305  0.6678  0.7244  1.0584
10661TIP3   OH231923   2.531   2.293   4.917 -0.2760 -0.0901  0.2321
10661TIP3    H131924   2.621   2.290   4.884 -0.1482  0.6903  0.4938
10661TIP3    H231925   2.533   2.241   4.997 -0.1990 -0.5856 -0.0928
10662TIP3   OH231926   4.864   3.035   5.972  0.6891 -0.1051 -0.2050
10662TIP3    H131927   4.854   3.041   6.067 -1.6201  0.7861 -0.4426
10662TIP3    H231928   4.828   2.949   5.949  1.6755 -0.5107 -0.2218
10663TIP3   OH231929   4.445   4.924   6.594 -0.0231  0.0800 -0.2405
10663TIP3    H131930   4.429   4.861   6.523  0.9648  0.0445 -0.4300
10663TIP3    H231931   4.501   4.877   6.656  3.3485  1.8157 -1.8945
10664TIP3   OH231932   3.028   0.364   0.805  0.2860 -0.0689 -0.3717
10664TIP3    H131933   2.996   0.287   0.853 -1.7573  1.2209  0.3780
10664TIP3    H231934   3.053   0.330   0.719 -0.7531 -1.5536 -0.1045
10665TIP3   OH231935   6.260   3.781   6.536  0.0239  0.2143  0.1836
10665TIP3    H131936   6.190   3.736   6.584 -0.3038  0.8459  0.3019
10665TIP3    H231937   6.314   3.710   6.501  0.2222 -0.2627  1.4222
10666TIP3   OH231938   4.741   2.968   6.224 -0.0425 -0.6510 -0.3372
10666TIP3    H131939   4.661   2.990   6.176  0.3999  3.1460  0.5107
10666TIP3    H231940   4.710   2.933   6.308 -0.7780 -1.5259 -0.9579
10667TIP3   OH231941   5.824   3.316   6.103  0.4903  0.4996  0.5394
10667TIP3    H131942   5.745   3.263   6.112  1.4174 -1.1085 -0.5939
10667TIP3    H231943   5.825   3.371   6.182 -1.3548  0.0129  0.9178
10668TIP3   OH231944   4.295   3.211   6.326  0.0088 -0.2864 -0.2413
10668TIP3    H131945   4.332   3.300   6.320 -0.5849 -0.0828 -0.8767
10668TIP3    H231946   4.319   3.170   6.243 -1.8723  0.1077 -1.0011
10669TIP3   OH231947   3.318   1.060   0.927  0.5589 -0.4891  0.0766
10669TIP3    H131948   3.381   1.016   0.871  0.9972 -0.4163  0.5065
10669TIP3    H231949   3.345   1.037   1.016 -1.3292 -2.2915  0.2244
10670TIP3   OH231950   2.289   0.489   0.898  0.2364  0.1931 -0.4846
10670TIP3    H131951   2.344   0.490   0.819 -0.4110  1.2489 -0.9342
10670TIP3    H231952   2.351   0.502   0.970  0.5877  1.3689 -0.9867
10671TIP3   OH231953   3.345   4.529   4.582  0.0330  0.1794 -0.3434
10671TIP3    H131954   3.438   4.529   4.605 -0.2490  0.1537  0.8388
10671TIP3    H231955   3.301   4.493   4.660 -1.0493  1.1089 -0.5114
10672TIP3   OH231956   5.126   2.686   5.964 -0.0068 -0.3464  0.1365
10672TIP3    H131957   5.136   2.610   5.907  1.3591 -0.7760  0.9535
10672TIP3    H231958   5.091   2.754   5.906  1.3943 -0.7778 -1.2356
10673TIP3   OH231959   4.082   1.758   6.183  0.6914 -0.3832  0.5512
10673TIP3    H131960   4.161   1.753   6.129 -0.1141 -1.2564 -0.5707
10673TIP3    H231961   4.079   1.849   6.212  1.6832 -0.1420 -0.0599
10674TIP3   OH231962   1.891   7.410   2.508 -0.1220 -0.5516 -0.3893
10674TIP3    H131963   1.881   7.492   2.556 -1.6779 -0.7988 -0.2775
10674TIP3    H231964   1.843   7.424   2.426 -2.5839 -2.2280  0.7227
10675TIP3   OH231965   6.001   3.188   6.407 -0.0920  0.0616 -0.1293
10675TIP3    H131966   6.059   3.195   6.484  0.2298  2.1149 -0.5397
10675TIP3    H231967   5.973   3.096   6.407  1.6217 -0.4930  1.2012
10676TIP3   OH231968   7.385   0.763   5.987  0.0217  0.4114 -0.2115
10676TIP3    H131969   7.358   0.675   5.961  0.9060 -0.9271  3.2352
10676TIP3    H231970   7.453   0.786   5.923 -0.9373 -0.9737 -1.7623
10677TIP3   OH231971   4.212   6.485   6.963  0.4564 -0.3735  0.0873
10677TIP3    H131972   4.190   6.578   6.956  1.6721  0.0646  1.7350
10677TIP3    H231973   4.288   6.483   7.021  0.3412 -2.4144  0.1983
10678TIP3   OH231974   5.068   0.890   4.553 -0.0264  0.3176  0.0172
10678TIP3    H131975   5.025   0.947   4.617 -0.4849  0.4231 -0.3844
10678TIP3    H231976   5.023   0.806   4.561  1.0007 -0.1527  0.9819
10679TIP3   OH231977   3.298   1.219   1.759  0.0102 -0.4376 -0.4888
10679TIP3    H131978   3.239   1.220   1.834 -1.1135 -1.2382 -1.3341
10679TIP3    H231979   3.240   1.218   1.683  1.1148 -0.7376 -1.3515
10680TIP3   OH231980   7.715   6.401   0.463  0.0891 -0.2283 -0.0739
10680TIP3    H131981   7.646   6.465   0.447 -0.3387 -1.0035 -1.4114
10680TIP3    H231982   7.778   6.447   0.518 -0.7689  0.9651 -0.0678
10681TIP3   OH231983   4.386   2.698   6.577 -0.0838 -0.1269  0.1075
10681TIP3    H131984   4.330   2.774   6.590 -2.0206 -1.2854 -1.2527
10681TIP3    H231985   4.326   2.628   6.550  2.0492 -1.3037 -1.7600
10682TIP3   OH231986   8.465   7.192   0.130 -0.3424  0.4731 -0.4437
10682TIP3    H131987   8.419   7.121   0.084 -1.0324  0.7460 -0.1901
10682TIP3    H231988   8.483   7.257   0.061  0.3315  0.0327 -0.6842
10683TIP3   OH231989   7.811   6.103   0.620 -0.4481 -0.1190  0.5520
10683TIP3    H131990   7.742   6.153   0.577  0.6931  2.1758  1.2926
10683TIP3    H231991   7.890   6.123   0.570  0.3314  0.1845  1.8767
10684TIP3   OH231992   0.466   4.207   1.069  0.2898  1.1664 -0.0736
10684TIP3    H131993   0.465   4.197   0.974  1.6056  0.4499 -0.0262
10684TIP3    H231994   0.403   4.143   1.100 -1.1180  2.3121 -0.5297
10685TIP3   OH231995   2.702   1.097   2.069  0.7841  0.3504 -0.1923
10685TIP3    H131996   2.654   1.018   2.095  0.1443  0.2009 -1.7725
10685TIP3    H231997   2.687   1.159   2.141 -1.5356  0.2013 -0.5215
10686TIP3   OH231998   5.775   5.688   0.857 -0.3853  0.1240 -0.0816
10686TIP3    H131999   5.731   5.712   0.776 -0.6113 -0.4391 -0.1259
10686TIP3    H232000   5.715   5.627   0.900  0.7179 -1.3236 -0.5507
10687TIP3   OH232001   5.150   1.551   6.446  0.1905  0.3577  0.2107
10687TIP3    H132002   5.163   1.615   6.516 -0.9182  1.1563 -0.2923
10687TIP3    H232003   5.169   1.466   6.486  1.8666  1.0077  0.8339
10688TIP3   OH232004   4.115   4.055   4.731  0.1708  0.4331 -0.0480
10688TIP3    H132005   4.048   3.994   4.699  1.1382  0.2893 -1.8352
10688TIP3    H232006   4.075   4.141   4.719 -0.4363  0.2574  0.6653
10689TIP3   OH232007   5.074   1.857   5.631  0.0254 -0.3127  0.6051
10689TIP3    H132008   5.098   1.836   5.541 -0.7446  1.7054 -0.1031
10689TIP3    H232009   5.024   1.781   5.661 -1.6278 -0.0619 -1.4329
10690TIP3   OH232010   2.363   0.420   0.438 -0.9290  0.0151  0.0974
10690TIP3    H132011   2.292   0.404   0.376 -0.8999  0.5104 -0.0699
10690TIP3    H232012   2.356   0.350   0.502 -1.6102  0.0959  0.1104
10691TIP3   OH232013   5.681   1.837   4.803  0.1640  0.6559 -0.2392
10691TIP3    H132014   5.738   1.897   4.755  0.4444  1.7279  1.4051
10691TIP3    H232015   5.736   1.762   4.823  0.8819  1.4706  0.9069
10692TIP3   OH232016   6.750   3.449   5.116  0.1662  0.3977  0.5652
10692TIP3    H132017   6.776   3.491   5.198  1.0645 -2.3124  1.7127
10692TIP3    H232018   6.744   3.356   5.137 -0.8489 -0.2024 -2.1423
10693TIP3   OH232019   3.107   1.402   4.848 -0.4646 -0.0182  0.5595
10693TIP3    H132020   3.073   1.313   4.850 -1.7604  0.4103 -1.2031
10693TIP3    H232021   3.029   1.457   4.850  0.2716  1.0582  0.1225
10694TIP3   OH232022   3.335   2.806   6.946  0.0538  0.2378 -0.3946
10694TIP3    H132023   3.258   2.859   6.968 -0.9958 -1.5484  0.4044
10694TIP3    H232024   3.299   2.720   6.923  1.5326  0.5091 -4.0001
10695TIP3   OH232025   7.223   1.887   6.732 -0.0112  0.6155  0.1091
10695TIP3    H132026   7.259   1.940   6.803 -0.2464  2.1555 -0.8954
10695TIP3    H232027   7.151   1.839   6.772  0.6672  0.4841  1.2041
10696TIP3   OH232028   0.052   6.934   0.138 -0.2116 -0.3325  0.0357
10696TIP3    H132029   0.053   6.848   0.180  0.5735 -0.5295 -0.3720
10696TIP3    H232030  -0.040   6.957   0.133 -0.4330 -1.1708  0.1158
10697TIP3   OH232031   5.902   5.898   0.398 -0.0450  0.2225 -0.0605
10697TIP3    H132032   5.909   5.958   0.472  0.9982  1.3274 -1.0267
10697TIP3    H232033   5.954   5.940   0.329 -2.4698  0.1385 -2.0207
10698TIP3   OH232034   5.283   4.716   5.704  0.1276  0.2611 -0.4105
10698TIP3    H132035   5.265   4.788   5.765  0.3223 -0.4422  0.4857
10698TIP3    H232036   5.257   4.637   5.751 -1.7039 -0.1535 -2.0350
10699TIP3   OH232037   4.489   3.875   6.352 -0.0236  0.8501  0.6194
10699TIP3    H132038   4.567   3.876   6.297 -0.4022 -0.4330  0.0385
10699TIP3    H232039   4.517   3.833   6.433 -0.0502  0.6287  0.5134
10700TIP3   OH232040   4.745   4.620   5.747 -0.2121 -0.5511  0.1073
10700TIP3    H132041   4.713   4.657   5.829  0.7550 -0.1600  0.3073
10700TIP3    H232042   4.666   4.607   5.694 -0.6204  1.1969  0.2812
10701TIP3   OH232043   4.140   1.940   5.114  0.2077 -0.2780 -0.3519
10701TIP3    H132044   4.161   1.847   5.120  1.1547  0.0792  2.3471
10701TIP3    H232045   4.075   1.954   5.182 -0.2099  0.9843 -0.9961
10702TIP3   OH232046   1.315   1.843   0.685 -0.1724 -0.8204  0.3255
10702TIP3    H132047   1.266   1.780   0.632 -0.3628 -1.0901  0.8234
10702TIP3    H232048   1.407   1.820   0.670 -0.1821 -0.1710 -0.7844
10703TIP3   OH232049   7.360   6.381   1.973 -0.8831  0.4503 -0.5264
10703TIP3    H132050   7.386   6.312   1.911 -1.6900  1.0337 -1.5222
10703TIP3    H232051   7.271   6.357   1.998 -1.3505  1.4161 -1.2672
10704TIP3   OH232052   6.632   2.399   5.491  0.0884 -0.1325 -0.1175
10704TIP3    H132053   6.616   2.398   5.585 -1.1892  0.2627 -0.3158
10704TIP3    H232054   6.618   2.490   5.465  0.5412 -0.2180 -0.6630
10705TIP3   OH232055   6.613   5.713   2.223 -0.2196 -0.0176  0.2108
10705TIP3    H132056   6.667   5.683   2.295  1.5801  1.4174 -0.4877
10705TIP3    H232057   6.629   5.808   2.219 -0.6339  0.0000 -1.7584
10706TIP3   OH232058   0.811   6.527   0.115  0.2044  0.5882 -0.1244
10706TIP3    H132059   0.730   6.549   0.159  0.9273  1.6335  0.7043
10706TIP3    H232060   0.879   6.572   0.165  1.6133 -2.4938  0.8691
10707TIP3   OH232061   5.433   4.795   3.380 -0.0727 -0.3494  0.1682
10707TIP3    H132062   5.499   4.792   3.311  0.8427 -3.6411  1.0597
10707TIP3    H232063   5.358   4.839   3.341  2.0505  2.0103 -1.3956
10708TIP3   OH232064   4.252   4.903   5.949  0.1648 -0.0330 -0.9325
10708TIP3    H132065   4.172   4.908   6.002  1.7321 -1.9297  1.7144
10708TIP3    H232066   4.265   4.993   5.917 -0.9280  1.1667  1.7896
10709TIP3   OH232067   5.259   2.428   5.213 -0.0855  0.1707 -0.1071
10709TIP3    H132068   5.293   2.453   5.299  0.3342  1.1760 -0.5599
10709TIP3    H232069   5.164   2.422   5.226  0.0960 -0.9600  0.7364
10710TIP3   OH232070   3.587   0.479   0.338  0.0128 -0.1406 -0.3558
10710TIP3    H132071   3.646   0.479   0.413  0.2485 -1.8583 -0.5350
10710TIP3    H232072   3.499   0.484   0.376  0.1685 -0.0563 -0.0085
10711TIP3   OH232073   5.978   3.604   5.300  0.1991  0.1421 -0.0977
10711TIP3    H132074   5.951   3.662   5.228 -0.8647 -0.7214 -0.4078
10711TIP3    H232075   6.002   3.522   5.257  1.3054  0.2017  0.3809
10712TIP3   OH232076   7.353   7.253   0.043 -0.3109  0.5648  0.7730
10712TIP3    H132077   7.368   7.279   0.134  2.8325  1.1242  0.1738
10712TIP3    H232078   7.431   7.283  -0.003 -1.3162 -0.7656 -1.9070
10713TIP3   OH232079   5.921   2.367   4.342  0.6033 -0.5487  0.4939
10713TIP3    H132080   5.842   2.348   4.393  0.0272  0.0213 -0.1829
10713TIP3    H232081   5.981   2.295   4.364 -0.4273 -1.4811  0.3131
10714TIP3   OH232082   3.649   0.859   6.420 -0.0814 -0.4222 -0.1874
10714TIP3    H132083   3.628   0.891   6.332  0.9234  2.3641  0.5503
10714TIP3    H232084   3.581   0.794   6.438 -1.1722  0.0384 -2.4485
10715TIP3   OH232085   5.858   4.355   6.049  0.7171 -0.9184  0.3399
10715TIP3    H132086   5.773   4.326   6.018  0.1862 -0.7126  1.5806
10715TIP3    H232087   5.921   4.311   5.992 -0.2494 -0.0159 -1.4451
10716TIP3   OH232088   7.397   2.197   6.255  0.1155 -0.5915 -0.3532
10716TIP3    H132089   7.380   2.220   6.347 -1.0384 -2.6900 -0.0170
10716TIP3    H232090   7.342   2.121   6.239 -0.9495  0.7186 -3.2908
10717TIP3   OH232091   6.607   2.765   5.838 -0.4937 -0.3127 -0.5177
10717TIP3    H132092   6.552   2.787   5.914 -1.0122  1.3521 -1.3486
10717TIP3    H232093   6.587   2.834   5.774  0.3401 -1.4025 -1.9603
10718TIP3   OH232094   5.182   2.468   5.495 -0.6755  0.2209  0.3579
10718TIP3    H132095   5.252   2.534   5.497 -0.6989  0.4067 -2.7268
10718TIP3    H232096   5.102   2.520   5.484 -0.7392 -0.2588 -1.6057
10719TIP3   OH232097   7.434   0.791   4.990 -0.2756  0.0351 -0.7032
10719TIP3    H132098   7.380   0.852   4.939 -0.2238  1.1226  0.5272
10719TIP3    H232099   7.375   0.718   5.009 -0.9972  0.7146 -0.3079
10720TIP3   OH232100   3.780   2.813   6.658  0.1998 -0.5775 -0.1330
10720TIP3    H132101   3.723   2.741   6.629  0.2863 -0.3959 -0.7698
10720TIP3    H232102   3.831   2.776   6.730 -1.2905 -0.5071  0.9935
10721TIP3   OH232103   3.476   2.529   5.314 -0.0123  0.1533  0.1131
10721TIP3    H132104   3.485   2.604   5.373 -0.1931  1.3539 -1.3633
10721TIP3    H232105   3.494   2.453   5.369  1.8857  1.3804  1.2199
10722TIP3   OH232106   6.133   3.178   6.673 -0.5324 -0.2113 -0.2119
10722TIP3    H132107   6.178   3.196   6.755  0.0010 -1.2118 -0.2804
10722TIP3    H232108   6.058   3.124   6.699 -0.0962 -0.9268 -0.4370
10723TIP3   OH232109   8.023  -0.014   0.038 -0.0689 -0.3468 -0.0970
10723TIP3    H132110   8.070   0.036  -0.028  1.8928 -1.0815  0.7205
10723TIP3    H232111   7.930   0.000   0.017  0.5032 -0.5559 -2.9850
10724TIP3   OH232112   5.985   4.123   6.573 -0.1707  0.1736 -0.0850
10724TIP3    H132113   6.003   4.035   6.542 -0.0246 -0.1490  0.8805
10724TIP3    H232114   5.951   4.169   6.497 -0.0946 -0.6698 -0.6369
10725TIP3   OH232115   4.143   2.324   4.974 -0.4285 -0.6445  0.0905
10725TIP3    H132116   4.058   2.311   5.018 -1.2162  0.9474 -0.9339
10725TIP3    H232117   4.148   2.251   4.912 -0.1571 -1.8363  1.4655
10726TIP3   OH232118   5.629   3.340   6.953  0.5755 -0.5461  0.3853
10726TIP3    H132119   5.667   3.417   6.995 -1.0224  0.6675 -0.3609
10726TIP3    H232120   5.692   3.315   6.886  0.2979  1.1463 -0.5163
10727TIP3   OH232121   5.294   2.804   4.194 -0.5710  0.2166 -0.0613
10727TIP3    H132122   5.236   2.863   4.242  0.0345  1.0685 -0.3589
10727TIP3    H232123   5.277   2.824   4.102 -1.1266 -0.8271 -0.1971
10728TIP3   OH232124   7.645   7.284   0.075 -0.5503 -0.0332 -0.1618
10728TIP3    H132125   7.621   7.214   0.135  0.3553  0.3986  0.7333
10728TIP3    H232126   7.737   7.266   0.053 -0.1391  1.1623  0.5226
10729TIP3   OH232127   4.418   4.363   5.776 -0.3617 -0.6864  0.1405
10729TIP3    H132128   4.472   4.406   5.710  0.4869 -1.0081  0.6043
10729TIP3    H232129   4.407   4.273   5.743 -0.8296 -0.5507 -0.0767
10730TIP3   OH232130   6.171   7.732   0.135 -0.5636  0.4514  0.4292
10730TIP3    H132131   6.109   7.660   0.130 -1.4488  1.1717  0.9985
10730TIP3    H232132   6.154   7.773   0.220  2.1198 -0.6371  1.5427
10731TIP3   OH232133   5.941   2.904   6.421 -0.3545  0.1804  0.0573
10731TIP3    H132134   6.010   2.861   6.371 -0.8870 -0.4938 -0.1061
10731TIP3    H232135   5.885   2.833   6.450 -0.4814  0.6390  0.9590
10732TIP3   OH232136   3.974   1.204   6.246 -0.0729  0.0800 -0.3133
10732TIP3    H132137   3.932   1.224   6.163 -0.4445 -0.4947 -0.2612
10732TIP3    H232138   3.974   1.109   6.251 -0.1100  0.1164  0.3772
10733TIP3   OH232139   5.032   3.173   5.803  0.4840  0.2635  0.0070
10733TIP3    H132140   4.971   3.114   5.848  0.6012 -0.1429 -0.3601
10733TIP3    H232141   4.993   3.259   5.812  0.3573  0.1492  0.6380
10734TIP3   OH232142   5.735   2.753   6.533 -0.1077 -0.0515 -0.0663
10734TIP3    H132143   5.705   2.671   6.495 -0.2475  0.2603 -0.6348
10734TIP3    H232144   5.656   2.792   6.570  0.2310 -0.8979  1.5759
10735TIP3   OH232145   5.082   4.529   6.013 -0.0134 -0.3827 -0.1026
10735TIP3    H132146   5.154   4.549   6.072  1.5613  0.8033 -2.3470
10735TIP3    H232147   5.026   4.469   6.063  2.9338 -2.0148  1.3711
10736TIP3   OH232148   5.222   4.071   5.561  0.2871  0.2143  0.2906
10736TIP3    H132149   5.240   4.001   5.498 -0.8445  0.6247 -0.4968
10736TIP3    H232150   5.192   4.144   5.507  1.4281  1.3044  1.1094
10737TIP3   OH232151   4.774   2.277   4.705 -0.0167  0.3196  0.0449
10737TIP3    H132152   4.866   2.305   4.704 -0.2240  1.0316  0.6232
10737TIP3    H232153   4.745   2.285   4.615  0.2860  0.7895 -0.0116
10738TIP3   OH232154   0.999   5.292   0.256  0.1529  0.4121  0.2340
10738TIP3    H132155   0.938   5.237   0.206  0.1264 -0.5354  1.2764
10738TIP3    H232156   0.999   5.376   0.210  1.6520 -1.0220 -2.5271
10739TIP3   OH232157   6.213   0.232   6.851  0.3486 -0.0720  0.4374
10739TIP3    H132158   6.228   0.324   6.875 -2.5360  0.8803 -1.0995
10739TIP3    H232159   6.234   0.183   6.930  0.1132  2.0804  1.8987
10740TIP3   OH232160   5.380   2.725   6.060  0.1253 -0.4604  0.6291
10740TIP3    H132161   5.367   2.637   6.025 -1.1085  0.1640 -0.5423
10740TIP3    H232162   5.299   2.771   6.038  1.5527  1.5468 -0.6099
10741TIP3   OH232163   0.204   6.499   0.449  0.0757  0.2360 -0.2703
10741TIP3    H132164   0.233   6.408   0.449 -0.6771 -0.0242  0.9844
10741TIP3    H232165   0.252   6.539   0.522 -1.4648  0.1876  0.8114
10742TIP3   OH232166   7.545   0.192   5.559 -0.3983 -0.0110 -0.1004
10742TIP3    H132167   7.485   0.126   5.524  0.9521 -1.1585 -0.2639
10742TIP3    H232168   7.591   0.148   5.629  2.4093 -0.0921 -1.9295
10743TIP3   OH232169   6.328   0.092   6.291  0.1121  0.2574  0.4810
10743TIP3    H132170   6.352   0.054   6.206  0.7032 -1.0913  1.2364
10743TIP3    H232171   6.406   0.141   6.318  0.3330 -0.2353  0.7506
10744TIP3   OH232172   3.911   2.534   5.199 -0.1037  0.3639  0.7708
10744TIP3    H132173   3.888   2.476   5.271  0.8215  0.7669  1.4005
10744TIP3    H232174   3.829   2.579   5.177 -0.2955  0.5332  1.8346
10745TIP3   OH232175   4.867   7.683   0.156 -0.0668  0.2373  0.0174
10745TIP3    H132176   4.887   7.596   0.123  1.1957 -0.2796  2.0005
10745TIP3    H232177   4.930   7.741   0.112 -1.0669  0.2048 -1.4784
10746TIP3   OH232178   8.533   6.391   0.236 -0.4237 -0.5462  0.3952
10746TIP3    H132179   8.466   6.457   0.221  1.1412  1.0355  0.2511
10746TIP3    H232180   8.522   6.367   0.328 -0.7323  0.2256  0.5655
10747TIP3   OH232181   4.706   4.259   4.651 -0.8504 -0.3754 -0.0486
10747TIP3    H132182   4.653   4.338   4.639 -0.2395 -0.0676 -0.7789
10747TIP3    H232183   4.785   4.275   4.599 -0.6508 -1.4015 -0.0737
10748TIP3   OH232184   2.667   4.096   5.978  0.9626  0.4107  0.1427
10748TIP3    H132185   2.663   4.004   5.953 -0.3989  0.3489  0.5289
10748TIP3    H232186   2.686   4.143   5.897  1.4459 -0.1897 -0.0914
10749TIP3   OH232187   0.912   1.917   0.934  0.0145  0.1750 -0.7743
10749TIP3    H132188   0.889   2.002   0.896 -1.5413  0.7575  1.3961
10749TIP3    H232189   0.828   1.874   0.949  0.7409 -1.1230 -0.4295
10750TIP3   OH232190   8.521   7.562   1.174 -0.6029  0.2819  0.0005
10750TIP3    H132191   8.480   7.508   1.240  0.2530  0.8659  1.0227
10750TIP3    H232192   8.449   7.592   1.118 -1.3263 -0.1700  0.6932
10751TIP3   OH232193   5.578   4.745   4.942 -0.1274  0.2224  0.1641
10751TIP3    H132194   5.557   4.710   5.029 -0.3009 -0.6213 -0.2141
10751TIP3    H232195   5.668   4.717   4.926 -0.7541 -1.3558 -0.7636
10752TIP3   OH232196   6.313   1.434   5.886 -0.3493 -0.0356 -0.8906
10752TIP3    H132197   6.246   1.424   5.953  2.4773 -2.1536  1.7493
10752TIP3    H232198   6.360   1.513   5.910  0.1378 -0.3288 -0.8836
10753TIP3   OH232199   5.388   3.714   4.962 -0.1200  0.1779  0.4575
10753TIP3    H132200   5.404   3.633   4.913 -2.1531 -0.0446  0.0966
10753TIP3    H232201   5.430   3.782   4.909 -0.2494 -0.3683 -0.3632
10754TIP3   OH232202   7.607   7.867   0.067  0.3547  0.3173  0.4116
10754TIP3    H132203   7.530   7.849   0.013  1.3165 -2.2117 -0.1899
10754TIP3    H232204   7.658   7.930   0.017 -0.5958  0.8592  0.1212
10755TIP3   OH232205   3.483   4.222   3.823 -0.5368  0.1293  0.4206
10755TIP3    H132206   3.472   4.188   3.912 -0.0787 -2.2216 -0.3920
10755TIP3    H232207   3.418   4.174   3.771  1.7360 -1.2904 -1.1809
10756TIP3   OH232208   0.608   0.813   0.404 -0.5922 -0.5263  0.3514
10756TIP3    H132209   0.518   0.833   0.376  0.0034  0.3999 -0.9157
10756TIP3    H232210   0.639   0.749   0.340 -0.4145 -1.0108  0.9166
10757TIP3   OH232211   6.080   0.849   6.824  0.0421 -0.0484  0.3522
10757TIP3    H132212   6.035   0.933   6.828  4.1239  2.4351 -2.8458
10757TIP3    H232213   6.120   0.840   6.911 -1.7998  0.4271  1.2822
10758TIP3   OH232214   6.668   1.737   5.958  0.1448 -0.6119  0.1344
10758TIP3    H132215   6.741   1.682   5.928 -0.4496 -0.7730 -1.0078
10758TIP3    H232216   6.602   1.675   5.989 -0.2287 -0.5232 -0.4783
10759TIP3   OH232217   6.278   3.153   5.968 -0.5419  0.2969  0.1218
10759TIP3    H132218   6.215   3.224   5.960 -1.2379 -0.3060  0.2049
10759TIP3    H232219   6.235   3.077   5.927 -0.3917 -0.4283  1.2777
10760TIP3   OH232220   3.182   2.857   6.045 -0.0195 -0.5946  0.8059
10760TIP3    H132221   3.187   2.808   5.962 -0.0745 -0.4244  0.7022
10760TIP3    H232222   3.262   2.908   6.047 -0.1530 -0.3805  0.7202
10761TIP3   OH232223   6.808   2.912   6.259 -0.1151 -0.9832 -0.0814
10761TIP3    H132224   6.815   2.850   6.186  0.4684 -1.4477  0.3636
10761TIP3    H232225   6.723   2.892   6.299 -0.7067 -0.3234 -0.9928
10762TIP3   OH232226   4.971   2.968   5.081 -0.0824 -0.4156 -0.4551
10762TIP3    H132227   4.940   2.995   5.167 -1.9490 -1.7450 -0.6712
10762TIP3    H232228   5.035   2.900   5.098  1.5039  1.1365 -0.0594
10763TIP3   OH232229   4.841   3.329   6.751  0.5072 -0.5516 -0.1265
10763TIP3    H132230   4.842   3.238   6.782 -0.2980 -0.5366 -0.0464
10763TIP3    H232231   4.765   3.368   6.794 -0.5064 -0.4784 -1.9376
10764TIP3   OH232232   5.955   2.656   4.586 -0.0571 -0.2825 -0.0039
10764TIP3    H132233   5.862   2.674   4.570 -0.5648 -1.6547  1.3440
10764TIP3    H232234   5.956   2.571   4.629  1.6886  0.5743  1.7208
10765TIP3   OH232235   7.343   6.439   1.325 -0.0698 -0.1917 -0.0502
10765TIP3    H132236   7.248   6.452   1.331 -0.0321 -0.2952  0.8980
10765TIP3    H232237   7.354   6.371   1.259 -0.6297  0.1545 -0.5019
10766TIP3   OH232238   8.522   5.705   1.389 -0.4232  0.4693  0.5176
10766TIP3    H132239   8.535   5.753   1.307 -2.3605  1.4206  0.7355
10766TIP3    H232240   8.597   5.728   1.442  0.5413  0.3281 -0.7541
10767TIP3   OH232241   6.057   2.737   6.998  0.0242 -0.1547 -0.1798
10767TIP3    H132242   6.062   2.809   7.061 -1.7373 -0.5245  0.4096
10767TIP3    H232243   5.988   2.764   6.937 -2.5626 -2.5158  1.6102
10768TIP3   OH232244   0.402   5.268   0.762 -0.2193  0.5430 -0.6412
10768TIP3    H132245   0.484   5.225   0.786  0.1559  1.0847 -0.9142
10768TIP3    H232246   0.337   5.231   0.821  0.5786  1.4836  0.8664
10769TIP3   OH232247   0.570   6.810   0.539 -0.1085  0.1709  0.6908
10769TIP3    H132248   0.556   6.901   0.566  1.7845  1.0252 -1.0614
10769TIP3    H232249   0.502   6.795   0.473 -0.7729  0.1403  1.3818
10770TIP3   OH232250   4.567   2.964   6.782  0.4029  0.4396 -0.0198
10770TIP3    H132251   4.653   2.926   6.803 -0.1117 -0.3976  0.6051
10770TIP3    H232252   4.587   3.040   6.727  1.4414 -1.5116 -2.4581
10771TIP3   OH232253   3.652   3.575   5.799  0.1925 -0.3044  0.2791
10771TIP3    H132254   3.597   3.626   5.740 -0.3718 -1.7117 -0.4444
10771TIP3    H232255   3.591   3.516   5.843  1.2133 -2.5013 -1.1771
10772TIP3   OH232256   4.860   3.024   6.741  0.2513  0.1570  0.2048
10772TIP3    H132257   4.869   2.932   6.767 -0.0809  0.3501  1.0223
10772TIP3    H232258   4.949   3.052   6.719  0.3752 -0.3165  0.1004
10773TIP3   OH232259   6.496   0.347   6.012  0.2192 -0.5157  0.3643
10773TIP3    H132260   6.404   0.369   6.000  0.0546 -1.8814 -1.0228
10773TIP3    H232261   6.544   0.421   5.974 -0.3108 -0.5756 -0.4143
10774TIP3   OH232262   0.053   0.759   0.453  0.0478 -0.2318  0.2069
10774TIP3    H132263  -0.039   0.737   0.469 -0.5766  0.5298 -2.0494
10774TIP3    H232264   0.081   0.807   0.531 -1.2763 -1.0517  1.1938
10775TIP3   OH232265   3.406   0.043   0.575  0.4737 -0.3325  0.0521
10775TIP3    H132266   3.453   0.057   0.493 -0.0792  1.4528  0.0349
10775TIP3    H232267   3.341  -0.025   0.554 -1.2852  1.8265 -1.6483
10776TIP3   OH232268   0.383   4.716   1.863  0.1659 -0.5188  0.0339
10776TIP3    H132269   0.351   4.691   1.949  0.2078 -0.1310  0.1618
10776TIP3    H232270   0.308   4.704   1.804  0.9327 -3.6423 -0.4143
10777TIP3   OH232271   6.139   2.051   6.460 -0.0521 -0.6799  0.1018
10777TIP3    H132272   6.111   2.140   6.439  0.4423 -0.4608  0.3781
10777TIP3    H232273   6.169   2.016   6.376  0.3532 -0.3721  0.1182
10778TIP3   OH232274   4.441   1.464   5.259 -0.3722 -0.2179  0.1981
10778TIP3    H132275   4.511   1.529   5.256  0.0854 -0.7458 -1.0941
10778TIP3    H232276   4.379   1.498   5.323  0.5789  0.7562  0.6188
10779TIP3   OH232277   4.008   4.427   5.986  0.0531 -0.5547  0.5256
10779TIP3    H132278   3.942   4.358   5.988 -0.7503  0.1831 -0.1217
10779TIP3    H232279   3.957   4.508   5.995  0.9991 -0.0574  1.4898
10780TIP3   OH232280   6.671   6.254   1.000 -0.0345 -0.0817  0.2592
10780TIP3    H132281   6.584   6.273   1.036 -0.1297  0.0052 -0.0104
10780TIP3    H232282   6.687   6.163   1.022 -0.4305 -0.2584 -0.1621
10781TIP3   OH232283   4.765   3.925   4.758  0.0142 -0.4808  0.4799
10781TIP3    H132284   4.745   3.999   4.816 -0.1692  0.1577 -0.3869
10781TIP3    H232285   4.794   3.856   4.817  1.0931  0.5895  1.2334
10782TIP3   OH232286   7.210   5.211   3.436 -0.2737  0.1144 -0.4101
10782TIP3    H132287   7.171   5.236   3.520 -0.7184  0.4583 -0.7164
10782TIP3    H232288   7.164   5.265   3.371 -1.4398 -1.7167 -1.1271
10783TIP3   OH232289   2.245   1.269   1.193 -0.3924  0.1843 -0.1550
10783TIP3    H132290   2.280   1.266   1.282 -0.1557  0.3023 -0.2429
10783TIP3    H232291   2.186   1.194   1.187 -2.0549  1.3841  0.7987
10784TIP3   OH232292   7.389   3.597   6.378  0.6022  0.4774 -0.8853
10784TIP3    H132293   7.481   3.621   6.394  0.7757  1.0159 -2.5135
10784TIP3    H232294   7.356   3.667   6.321 -0.7125  0.0836 -0.6229
10785TIP3   OH232295   1.133   4.331   0.738 -0.2266  0.1267  0.4209
10785TIP3    H132296   1.114   4.284   0.819 -0.4799 -1.2009 -0.3957
10785TIP3    H232297   1.196   4.275   0.691  0.2309  1.0725 -0.1104
10786TIP3   OH232298   1.787   5.372   0.113 -0.1617  0.1888  0.5750
10786TIP3    H132299   1.808   5.313   0.185  2.1786  0.5579  0.2040
10786TIP3    H232300   1.758   5.314   0.042  2.4780 -0.5963  0.0887
10787TIP3   OH232301   5.103   2.765   4.482 -0.3664 -0.0764  0.3427
10787TIP3    H132302   5.020   2.763   4.530 -0.3080  1.7596  0.5759
10787TIP3    H232303   5.107   2.681   4.437 -1.6387 -0.7968  1.5262
10788TIP3   OH232304   7.060   2.280   4.447  0.0212 -0.3433 -0.0343
10788TIP3    H132305   6.996   2.326   4.393  0.1383  0.8931  0.8436
10788TIP3    H232306   7.060   2.190   4.414 -1.4012 -0.1017 -0.7184
10789TIP3   OH232307   5.541   3.133   5.693  0.4259 -0.2729  0.1145
10789TIP3    H132308   5.552   3.077   5.770  1.4360 -0.9082 -0.4706
10789TIP3    H232309   5.627   3.174   5.681  0.4161 -0.5358 -0.9415
10790TIP3   OH232310   6.403   4.469   4.153  0.1023  0.7590  0.6238
10790TIP3    H132311   6.350   4.545   4.126  0.6387  0.8014 -0.3119
10790TIP3    H232312   6.389   4.464   4.248 -1.4678  0.8576  0.4194
10791TIP3   OH232313   7.674   1.914   4.699  0.4836 -0.0941 -0.0112
10791TIP3    H132314   7.746   1.947   4.645  0.4945 -0.4102 -0.1892
10791TIP3    H232315   7.712   1.908   4.787  0.5287  0.2115 -0.0103
10792TIP3   OH232316   5.548   5.262   0.490  0.2764 -0.5176  0.5596
10792TIP3    H132317   5.626   5.291   0.537 -0.0700  2.3081 -0.4740
10792TIP3    H232318   5.520   5.339   0.440 -4.0710 -0.8865  2.1415
10793TIP3   OH232319   1.102   3.267   6.504 -0.4175 -0.2712 -0.0519
10793TIP3    H132320   1.120   3.196   6.566  1.2566 -0.3305 -0.5593
10793TIP3    H232321   1.009   3.258   6.484 -0.3192 -2.1011  0.1767
10794TIP3   OH232322   0.978   6.727   0.207 -0.1036  0.0726  0.3441
10794TIP3    H132323   1.061   6.771   0.186  0.5909 -1.0908  0.6341
10794TIP3    H232324   0.917   6.799   0.225  1.4633  0.9257  2.5407
10795TIP3   OH232325   7.190   1.172   5.710 -0.3669  0.5752  0.8664
10795TIP3    H132326   7.103   1.136   5.730 -0.6855  0.3887 -0.7260
10795TIP3    H232327   7.236   1.099   5.668 -0.0022  1.1381  0.2800
10796TIP3   OH232328   0.024   4.964   0.047  0.4206 -0.0057  0.1904
10796TIP3    H132329   0.070   4.926  -0.028  0.0302 -0.4477  0.1724
10796TIP3    H232330  -0.018   5.042   0.012 -0.6853 -0.8250 -0.3131
10797TIP3   OH232331   5.324   1.459   6.235 -0.1287  0.4785  0.1658
10797TIP3    H132332   5.246   1.441   6.288 -0.3034 -1.2307 -0.6447
10797TIP3    H232333   5.361   1.372   6.216  1.3146  1.2067 -0.4464
10798TIP3   OH232334   0.908   7.309   0.420  0.2253  0.5023  0.1557
10798TIP3    H132335   0.910   7.364   0.498  2.7268 -0.6016  0.9248
10798TIP3    H232336   0.904   7.220   0.454  2.2791 -0.0217 -0.9295
10799TIP3   OH232337   7.474   5.425   0.224  0.1593 -0.1759  0.0001
10799TIP3    H132338   7.517   5.351   0.180 -0.6293 -0.0907 -0.9315
10799TIP3    H232339   7.545   5.468   0.272  0.6561 -1.4645  0.4547
10800TIP3   OH232340   7.922   0.476   5.796 -0.3584  0.6144 -0.3139
10800TIP3    H132341   7.888   0.407   5.854 -0.2022  2.7227  2.4175
10800TIP3    H232342   7.857   0.483   5.726 -1.3796 -0.9542  0.4565
10801TIP3   OH232343   6.343   3.256   5.630  0.7776 -0.0243  0.6763
10801TIP3    H132344   6.315   3.342   5.597 -0.4992 -0.8176 -0.3220
10801TIP3    H232345   6.284   3.238   5.703  0.9209 -0.1395  0.7623
10802TIP3   OH232346   0.043   6.313  -0.017 -0.1531  0.5163 -0.0540
10802TIP3    H132347   0.050   6.401  -0.056 -0.8636  0.4517 -0.3292
10802TIP3    H232348   0.042   6.329   0.077 -0.5462  0.8307 -0.1079
10803TIP3   OH232349   4.041   2.823   6.333 -0.3393 -0.7368 -0.7953
10803TIP3    H132350   3.950   2.806   6.359 -0.5798 -2.1065 -2.4093
10803TIP3    H232351   4.047   2.918   6.329 -1.8151 -0.6370 -1.0249
10804TIP3   OH232352   8.169   6.631   0.592 -0.9127  1.1347 -0.1295
10804TIP3    H132353   8.087   6.583   0.602 -1.0841  1.3102 -0.6803
10804TIP3    H232354   8.181   6.639   0.497 -0.3808  1.3205 -0.0512
10805TIP3   OH232355   4.828   1.432   6.690 -0.2160  0.3596 -0.1839
10805TIP3    H132356   4.754   1.472   6.644  0.6763  2.5097  0.1735
10805TIP3    H232357   4.880   1.506   6.720  0.7008 -1.0736  1.8679
10806TIP3   OH232358   5.629   5.981   0.611 -0.2135 -0.5859 -0.5425
10806TIP3    H132359   5.612   5.992   0.517 -0.2740 -1.2373 -0.6060
10806TIP3    H232360   5.546   6.005   0.653  0.3668  1.5405 -0.5359
10807TIP3   OH232361   5.224   4.138   6.668  0.1595 -0.2831  0.0801
10807TIP3    H132362   5.186   4.050   6.674  0.5981 -0.6168 -1.7815
10807TIP3    H232363   5.281   4.144   6.745  0.0802 -1.6082  0.2606
10808TIP3   OH232364   5.426   7.395   0.297 -0.0490 -0.0356  0.0851
10808TIP3    H132365   5.369   7.321   0.275 -0.7343  0.1947  1.0468
10808TIP3    H232366   5.371   7.472   0.282 -0.2492  0.1555  1.7644
10809TIP3   OH232367   1.993   0.639   0.483 -0.0312 -0.2073 -0.3563
10809TIP3    H132368   1.921   0.609   0.428  0.0934  0.0279 -0.6420
10809TIP3    H232369   1.958   0.635   0.572 -1.0137  1.6827 -0.6410
10810TIP3   OH232370   4.513   3.728   6.932 -0.0117  0.4711  0.3408
10810TIP3    H132371   4.461   3.672   6.988 -0.5104  1.5540  0.9755
10810TIP3    H232372   4.517   3.682   6.848  1.2175 -1.4374  1.3994
10811TIP3   OH232373   4.716   0.346   0.022 -0.5985 -0.0172 -0.2850
10811TIP3    H132374   4.668   0.331   0.103 -0.0291 -0.2377  0.0183
10811TIP3    H232375   4.650   0.373  -0.041 -1.3189 -1.6055 -0.2257
10812TIP3   OH232376   5.166   4.703   6.867 -0.0746  0.4522 -0.1142
10812TIP3    H132377   5.120   4.678   6.787 -0.1803  1.4035 -0.3495
10812TIP3    H232378   5.232   4.766   6.839  0.2203  0.4129  0.4737
10813TIP3   OH232379   5.913   2.778   6.778  0.4897 -0.3574  0.1508
10813TIP3    H132380   5.851   2.719   6.735 -0.3460  0.9257 -0.4115
10813TIP3    H232381   5.985   2.786   6.715  1.7991 -2.7036  1.2451
10814TIP3   OH232382   2.752   4.842   5.396  0.0855  0.0959  0.0221
10814TIP3    H132383   2.729   4.849   5.303 -0.4284 -0.5388  0.1009
10814TIP3    H232384   2.717   4.923   5.434 -0.9512 -0.2978 -0.0827
10815TIP3   OH232385   1.282   0.880   0.544 -0.3893  0.6794  0.5460
10815TIP3    H132386   1.224   0.818   0.589  0.9131 -1.5494 -0.7530
10815TIP3    H232387   1.235   0.902   0.464  0.4633 -1.0825 -0.4786
10816TIP3   OH232388   1.943   1.268   0.081 -0.1860  0.1614  1.2324
10816TIP3    H132389   1.931   1.346   0.027 -0.7385  0.0269  1.1592
10816TIP3    H232390   1.856   1.230   0.088 -0.3575  0.8638  3.2692
10817TIP3   OH232391   3.115   5.551   5.460 -0.3024  0.1946 -0.3390
10817TIP3    H132392   3.036   5.589   5.500 -0.3247  2.9879 -2.8479
10817TIP3    H232393   3.187   5.586   5.512 -0.6167 -0.8460  0.8058
10818TIP3   OH232394   4.979   4.965   6.700  0.4636 -0.1541 -0.4221
10818TIP3    H132395   4.930   5.045   6.684  0.8528 -0.1269 -1.4702
10818TIP3    H232396   5.036   4.986   6.774 -1.9079 -0.5423  1.5888
10819TIP3   OH232397   2.216   0.172   0.422 -0.3137 -0.0271  0.5824
10819TIP3    H132398   2.159   0.199   0.494 -1.1419 -1.1906  0.3789
10819TIP3    H232399   2.272   0.104   0.461 -0.1420 -0.0099  0.3676
10820TIP3   OH232400   5.531   2.954   5.921 -0.1709 -0.1456  0.6560
10820TIP3    H132401   5.552   2.877   5.869  1.6338 -0.7455  2.2081
10820TIP3    H232402   5.480   2.920   5.995  0.2492  0.1799  1.1049
10821TIP3   OH232403   6.836   2.091   5.752  0.1765  0.1240 -0.0622
10821TIP3    H132404   6.849   2.161   5.688 -1.3152  1.4711  1.0549
10821TIP3    H232405   6.748   2.059   5.735 -0.8089  1.4924  2.1926
10822TIP3   OH232406   6.007   3.161   4.693  0.3718  0.0656  0.4823
10822TIP3    H132407   6.041   3.072   4.701  2.1251  0.7629  0.8770
10822TIP3    H232408   5.916   3.154   4.723 -0.1727 -1.9980 -1.5511
10823TIP3   OH232409   5.269   0.884   6.019 -0.0375 -0.0321 -0.1251
10823TIP3    H132410   5.300   0.898   5.929  0.2809 -1.5799 -0.2669
10823TIP3    H232411   5.349   0.871   6.070 -0.1932  1.2856  0.4752
10824TIP3   OH232412   7.134   1.163   6.922  0.5277 -0.7649 -0.0405
10824TIP3    H132413   7.041   1.152   6.941  0.4453 -0.9689 -0.5577
10824TIP3    H232414   7.160   1.080   6.882  1.2491 -1.2127  1.3193
10825TIP3   OH232415   3.084   1.680   6.282 -0.1008 -0.4423 -0.4240
10825TIP3    H132416   3.116   1.766   6.256 -0.7969  0.0028  0.1510
10825TIP3    H232417   3.011   1.699   6.342 -1.1496 -1.4163 -1.3638
10826TIP3   OH232418   2.641   4.017   6.361  0.3058 -0.4591  0.0202
10826TIP3    H132419   2.701   3.945   6.338  1.3018  0.6920 -1.0800
10826TIP3    H232420   2.672   4.091   6.308 -1.6618  0.3539 -0.0125
10827TIP3   OH232421   6.432   5.563   0.634  0.1193 -0.1859  0.3905
10827TIP3    H132422   6.448   5.553   0.727 -3.2191  0.8384  1.1687
10827TIP3    H232423   6.348   5.520   0.619  0.4383 -0.0571 -2.0837
10828TIP3   OH232424   4.123   2.314   6.622 -0.2661  0.0956  0.0596
10828TIP3    H132425   4.187   2.263   6.673 -0.3618 -0.1043 -0.0240
10828TIP3    H232426   4.048   2.324   6.681 -0.3356 -0.0484 -0.0042
10829TIP3   OH232427   4.308   1.403   5.891 -0.6795  0.5107 -0.1907
10829TIP3    H132428   4.285   1.399   5.798 -1.9494  1.7100  0.0631
10829TIP3    H232429   4.241   1.459   5.930 -0.9279 -1.0455  1.6975
10830TIP3   OH232430   3.009   4.807   6.203  0.3413 -0.1433  0.3176
10830TIP3    H132431   3.036   4.717   6.225 -0.3158 -0.5837 -0.6242
10830TIP3    H232432   2.968   4.840   6.283 -0.5724 -1.1489  0.2759
10831TIP3   OH232433   6.618   0.909   5.855 -0.7325  0.8829  0.2025
10831TIP3    H132434   6.703   0.948   5.836 -0.8119  0.6891 -0.5776
10831TIP3    H232435   6.572   0.909   5.771 -1.5006  0.9738  0.6156
10832TIP3   OH232436   7.659   5.961   0.198 -0.1604  0.7450 -0.5828
10832TIP3    H132437   7.640   6.040   0.249 -1.4752  0.5454 -0.7600
10832TIP3    H232438   7.736   5.985   0.146  1.2867  0.9316  1.5322
10833TIP3   OH232439   5.445   2.961   6.254 -0.7899  1.0650 -0.2574
10833TIP3    H132440   5.351   2.957   6.236 -0.8053 -1.0358  0.1121
10833TIP3    H232441   5.467   2.873   6.284  1.1396  1.7651  0.4823
10834TIP3   OH232442   5.451   3.656   6.248  0.1628  0.5031 -0.2930
10834TIP3    H132443   5.462   3.676   6.341 -0.2830 -1.0167  0.0927
10834TIP3    H232444   5.363   3.688   6.227 -0.7065 -1.3544  0.4236
10835TIP3   OH232445   0.412   4.155   1.817  0.0429  0.2874 -0.4583
10835TIP3    H132446   0.378   4.241   1.793  1.0328  1.2190  1.3713
10835TIP3    H232447   0.355   4.126   1.888 -0.7750 -0.9313 -1.5924
10836TIP3   OH232448   4.466   2.623   5.860 -0.4812  0.5883 -0.1422
10836TIP3    H132449   4.533   2.648   5.924 -1.4082  1.0013  0.6810
10836TIP3    H232450   4.417   2.704   5.845 -0.4110  0.4433 -1.2294
10837TIP3   OH232451   3.594   5.141   5.685  0.1587  0.8847  0.9503
10837TIP3    H132452   3.667   5.079   5.691 -0.4165  0.2145  1.1143
10837TIP3    H232453   3.544   5.111   5.609  0.2609  1.5705  0.6126
10838TIP3   OH232454   0.088   4.471   0.184  0.1990  0.6223  0.3896
10838TIP3    H132455   0.158   4.501   0.125  1.1807  0.4360  1.4460
10838TIP3    H232456   0.033   4.548   0.196  1.0109  1.1677  0.6648
10839TIP3   OH232457   1.018   5.556   0.198 -0.2372  0.2517  0.1060
10839TIP3    H132458   0.962   5.623   0.237  0.2791 -0.1730  1.5959
10839TIP3    H232459   1.078   5.605   0.141  0.8680  1.1803  2.0317
10840TIP3   OH232460   6.222   2.306   6.038  0.4009 -1.1824  0.1717
10840TIP3    H132461   6.289   2.259   6.087  1.0360  0.1776  0.6541
10840TIP3    H232462   6.246   2.398   6.048 -0.7839 -0.7583 -0.7751
10841TIP3   OH232463   2.319   7.978   0.704 -0.2397 -0.6401  0.5063
10841TIP3    H132464   2.367   7.901   0.735 -0.7130 -1.5695 -1.0304
10841TIP3    H232465   2.227   7.958   0.723 -0.3647 -0.4693  0.0823
10842TIP3   OH232466   6.123   3.354   4.211 -0.3263 -0.9228 -0.2349
10842TIP3    H132467   6.169   3.352   4.295  0.4716  1.2374 -0.6052
10842TIP3    H232468   6.033   3.328   4.233 -0.3075  0.2867  1.4122
10843TIP3   OH232469   5.457   4.018   6.053 -0.5218 -0.1007 -0.3524
10843TIP3    H132470   5.376   3.979   6.018 -0.7588 -1.2837  1.4741
10843TIP3    H232471   5.513   3.943   6.074  2.2855  0.7193 -4.2335
10844TIP3   OH232472   8.499   7.548   0.728 -0.8082 -0.3961 -0.4511
10844TIP3    H132473   8.530   7.637   0.745 -1.7432 -0.0580 -0.4419
10844TIP3    H232474   8.482   7.546   0.634 -1.7426 -0.2427 -0.2897
10845TIP3   OH232475   6.213   2.690   5.012  0.2938 -0.5601  0.5898
10845TIP3    H132476   6.223   2.784   4.998  0.3634 -0.6808 -0.2163
10845TIP3    H232477   6.298   2.653   4.988  0.0795 -0.8892  0.3357
10846TIP3   OH232478   4.732   3.988   5.954  0.3235  0.0445 -0.0018
10846TIP3    H132479   4.786   3.996   5.875  1.1236 -0.2026  0.5231
10846TIP3    H232480   4.656   3.937   5.925 -0.0153  1.0520 -0.9322
10847TIP3   OH232481   8.300   4.834   4.946  0.2577  0.0570  0.3502
10847TIP3    H132482   8.280   4.757   4.893 -0.6062 -0.0643  0.8495
10847TIP3    H232483   8.378   4.872   4.904 -0.0800 -0.3554 -0.6670
10848TIP3   OH232484   8.251   3.256   5.220 -0.5759 -0.1172 -0.1460
10848TIP3    H132485   8.166   3.233   5.259 -1.9891 -0.2737 -3.2014
10848TIP3    H232486   8.291   3.172   5.200 -0.5403 -0.0139 -0.4989
10849TIP3   OH232487   8.156   2.501   5.863 -0.1631  0.0096 -0.5218
10849TIP3    H132488   8.132   2.437   5.931  1.5668 -0.5922 -0.4564
10849TIP3    H232489   8.132   2.585   5.901 -2.1102 -0.5620 -0.4484
10850TIP3   OH232490   7.143   4.186   5.336  0.2456  0.6204 -0.4574
10850TIP3    H132491   7.224   4.232   5.314 -0.0449  1.4927  0.2365
10850TIP3    H232492   7.095   4.179   5.253  0.4576  1.2610 -0.6374
10851TIP3   OH232493   5.558   2.123   6.892  0.3527  0.2152  0.1960
10851TIP3    H132494   5.626   2.158   6.949  0.6658 -1.1328  0.6707
10851TIP3    H232495   5.488   2.188   6.896 -0.2701 -0.5540  3.3606
10852TIP3   OH232496   0.335   4.266   6.090 -0.1839  0.1013  0.0581
10852TIP3    H132497   0.303   4.345   6.134  1.4042  0.7691  0.0096
10852TIP3    H232498   0.341   4.290   5.998 -0.7693 -0.4286 -0.1226
10853TIP3   OH232499   6.291   2.000   6.990 -0.6380 -0.3593 -0.2443
10853TIP3    H132500   6.226   2.019   6.922 -2.3847 -2.2546  0.8371
10853TIP3    H232501   6.291   2.076   7.047 -2.0602 -0.4075 -0.1663
10854TIP3   OH232502   4.453   0.908   5.929  0.1418  0.0822  0.1062
10854TIP3    H132503   4.382   0.844   5.933  0.7074 -0.5548  0.0561
10854TIP3    H232504   4.424   0.980   5.985 -0.7525  0.0414 -0.2904
10855TIP3   OH232505   0.956   4.557   5.379 -0.0874 -0.8338 -0.1787
10855TIP3    H132506   1.033   4.551   5.435 -0.3994 -1.3320  0.1990
10855TIP3    H232507   0.991   4.547   5.290  0.2826 -1.0328 -0.0130
10856TIP3   OH232508   7.602   1.166   4.318  0.0859  0.0380  0.1196
10856TIP3    H132509   7.674   1.109   4.291 -0.2054 -0.2247 -0.1178
10856TIP3    H232510   7.644   1.238   4.364  0.3486 -1.2351  1.9532
10857TIP3   OH232511   1.056   7.984   0.079  0.2569 -0.7075  0.6080
10857TIP3    H132512   0.977   8.010   0.032 -0.8460  0.4590  3.0581
10857TIP3    H232513   1.128   8.011   0.021 -1.0580  1.3403 -0.1284
10858TIP3   OH232514   6.306   3.060   4.352 -0.0585  0.2127 -0.3613
10858TIP3    H132515   6.304   3.021   4.439  4.6143 -0.0893 -0.2864
10858TIP3    H232516   6.306   2.986   4.292 -2.6560  0.4135 -0.6914
10859TIP3   OH232517   1.840   6.017   0.023 -0.1431 -0.0184 -0.8254
10859TIP3    H132518   1.759   6.040  -0.021 -0.9193  1.2971  1.2526
10859TIP3    H232519   1.813   5.969   0.101  1.1797 -1.4713 -1.2073
10860TIP3   OH232520   6.045   4.800   5.038 -0.1254  0.4223  0.0539
10860TIP3    H132521   6.045   4.839   5.125  2.4138  0.1936  0.2077
10860TIP3    H232522   5.998   4.863   4.983 -2.8744 -0.0435  1.8056
10861TIP3   OH232523   7.764   2.709   4.453 -0.0014  0.4409 -0.1403
10861TIP3    H132524   7.677   2.749   4.463 -1.0776 -2.3098  2.3350
10861TIP3    H232525   7.756   2.656   4.373 -1.1564 -0.9892  0.8822
10862TIP3   OH232526   5.815   3.506   6.677  0.5734 -0.3334  0.3371
10862TIP3    H132527   5.742   3.567   6.684  0.2683 -0.4354 -1.6609
10862TIP3    H232528   5.890   3.560   6.652  0.7978 -0.4885  0.6585
10863TIP3   OH232529   8.317   7.780   0.243 -0.3992 -0.1472  0.0815
10863TIP3    H132530   8.347   7.708   0.188 -1.0383 -0.5963  0.3180
10863TIP3    H232531   8.224   7.790   0.221 -0.4232  0.3038  0.3814
10864TIP3   OH232532   8.127   1.700   5.759  0.2543  0.3795  0.8011
10864TIP3    H132533   8.063   1.734   5.821 -0.0330  1.7106 -0.1959
10864TIP3    H232534   8.192   1.656   5.813 -0.1526  1.2494  2.0179
10865TIP3   OH232535   6.741   1.945   6.138 -0.1653 -0.4266  0.3829
10865TIP3    H132536   6.706   1.942   6.227 -0.3982  0.1407  0.3095
10865TIP3    H232537   6.705   1.867   6.095  0.4725 -1.0608  0.9774
10866TIP3   OH232538   6.691   2.273   4.869  0.2106  0.1940 -0.2054
10866TIP3    H132539   6.701   2.332   4.794 -1.7656  0.1868 -0.4921
10866TIP3    H232540   6.711   2.328   4.945  0.1629  0.7607 -0.5957
10867TIP3   OH232541   0.029   4.245   6.684 -0.2388  0.2233  0.1863
10867TIP3    H132542  -0.066   4.257   6.686 -0.1998  0.3715  1.5217
10867TIP3    H232543   0.063   4.329   6.653 -0.4679  0.6346  1.0391
10868TIP3   OH232544   5.853   1.453   0.575  0.2061  0.1596 -0.5873
10868TIP3    H132545   5.888   1.526   0.626 -1.8771  0.0321  1.0852
10868TIP3    H232546   5.881   1.471   0.485  0.4403  2.5739 -0.0716
10869TIP3   OH232547   7.909   3.711   5.030 -0.6069  0.2178 -0.4166
10869TIP3    H132548   8.004   3.701   5.026 -0.7923 -1.9073  0.2998
10869TIP3    H232549   7.880   3.648   5.096 -2.6650 -0.2206 -1.6804
10870TIP3   OH232550   7.525   3.144   4.744 -0.3940  0.5106 -0.0557
10870TIP3    H132551   7.597   3.129   4.806  1.1472  0.9764 -1.6668
10870TIP3    H232552   7.465   3.071   4.758  1.9115 -1.6068 -0.7220
10871TIP3   OH232553   8.112   5.596   5.018  0.2482 -0.0842  0.0735
10871TIP3    H132554   8.122   5.522   4.958  0.5404 -2.2816  2.7006
10871TIP3    H232555   8.140   5.561   5.103 -0.2361  2.8832  1.5020
10872TIP3   OH232556   0.090   3.305   4.711  0.8841  0.4025 -0.2925
10872TIP3    H132557   0.155   3.245   4.673  0.1351 -0.3400 -0.4054
10872TIP3    H232558   0.060   3.357   4.637  0.1428 -0.3800 -0.5528
10873TIP3   OH232559   8.244   1.937   5.779  0.3595 -0.4752 -0.0271
10873TIP3    H132560   8.280   2.009   5.727 -1.8915  0.9983  0.3911
10873TIP3    H232561   8.214   1.873   5.715  0.9458 -0.3422 -0.4381
10874TIP3   OH232562   4.304   4.847   5.274  0.1795  0.2661  0.5526
10874TIP3    H132563   4.399   4.836   5.279 -0.0409 -1.7539  0.8376
10874TIP3    H232564   4.273   4.827   5.363 -0.5045  0.8638  0.4481
10875TIP3   OH232565   7.541   3.920   5.546  0.4280 -0.6825 -0.1344
10875TIP3    H132566   7.493   3.868   5.481  0.6501 -1.6075  0.4321
10875TIP3    H232567   7.483   3.923   5.622  0.1940  0.3488 -0.3521
10876TIP3   OH232568   6.929   3.902   6.352 -0.2644  0.9508 -0.0621
10876TIP3    H132569   6.977   3.822   6.334 -1.8148  0.2583 -1.1724
10876TIP3    H232570   6.843   3.873   6.384 -0.8921  2.1472 -0.6056
10877TIP3   OH232571   6.569   4.273   5.044  0.3775 -0.1150 -0.2441
10877TIP3    H132572   6.544   4.309   5.129  1.2661  0.2423 -0.1317
10877TIP3    H232573   6.568   4.348   4.985  1.6094 -0.0101 -0.1452
10878TIP3   OH232574   4.961   5.303   5.273 -0.3345 -0.4336  0.2685
10878TIP3    H132575   4.959   5.207   5.266 -2.3268 -0.5945  2.4368
10878TIP3    H232576   4.924   5.334   5.191  0.6045 -1.4860 -0.5798
10879TIP3   OH232577   0.620   2.354   5.819 -0.6242 -0.2998  0.1318
10879TIP3    H132578   0.547   2.381   5.762  1.8890  2.2382 -2.0293
10879TIP3    H232579   0.659   2.436   5.848  2.2457 -1.5845  0.0792
10880TIP3   OH232580   0.888   5.533   0.732  0.2787 -0.0439  0.0723
10880TIP3    H132581   0.969   5.489   0.759 -1.2071 -3.1232 -0.2608
10880TIP3    H232582   0.878   5.510   0.640 -0.6503  0.8408 -0.0498
10881TIP3   OH232583   7.941   2.972   4.346 -0.7498  0.6131  0.0422
10881TIP3    H132584   8.011   3.000   4.406 -0.1690  0.1936 -0.4389
10881TIP3    H232585   7.870   2.946   4.404 -0.6936  1.5125  0.5295
10882TIP3   OH232586   7.278   3.394   6.537  0.5850 -0.6503 -0.1461
10882TIP3    H132587   7.278   3.400   6.633 -1.2838  1.4532 -0.2103
10882TIP3    H232588   7.340   3.462   6.509  1.0438 -1.1852 -0.4211
10883TIP3   OH232589   0.221   3.151   6.665  0.2136  0.7805  0.6516
10883TIP3    H132590   0.188   3.224   6.717 -0.0791  0.3541  1.0649
10883TIP3    H232591   0.283   3.191   6.604  3.2491  0.8462  3.6113
10884TIP3   OH232592   7.034   2.395   3.931 -0.6220 -0.7166  0.8169
10884TIP3    H132593   7.084   2.350   3.863  0.6640  0.5805  0.8916
10884TIP3    H232594   6.985   2.463   3.885 -1.3087 -1.1354  0.9230
10885TIP3   OH232595   6.468   2.523   5.011 -0.0909  0.0008 -0.0047
10885TIP3    H132596   6.492   2.467   5.085 -0.1082 -0.1209 -0.0920
10885TIP3    H232597   6.548   2.533   4.961 -0.1644 -0.1989 -0.1582
10886TIP3   OH232598   6.136   2.091   6.742 -0.1268 -0.0029 -0.3437
10886TIP3    H132599   6.152   2.048   6.658 -0.3231 -0.5899 -0.0839
10886TIP3    H232600   6.044   2.116   6.740 -0.9473 -2.7343  0.9021
10887TIP3   OH232601   1.714   4.889   5.531  0.3282 -0.4601 -0.0721
10887TIP3    H132602   1.622   4.881   5.558  0.6380  1.3972  1.6642
10887TIP3    H232603   1.740   4.976   5.562  2.6476 -0.9271 -0.6476
10888TIP3   OH232604   7.140   6.960   4.969  0.2201 -0.3030 -0.3325
10888TIP3    H132605   7.179   6.976   5.055 -1.2724 -0.4396  0.3688
10888TIP3    H232606   7.151   7.042   4.922 -0.2440  0.2331  0.4865
10889TIP3   OH232607   5.440   3.371   6.572  0.2973 -0.5762  0.0810
10889TIP3    H132608   5.491   3.349   6.495 -0.8442 -3.3943  0.0772
10889TIP3    H232609   5.349   3.371   6.541 -0.1699 -1.7447  1.4110
10890TIP3   OH232610   6.483   1.592   6.061 -0.1895  0.1330 -0.3637
10890TIP3    H132611   6.502   1.543   6.141 -0.9213  2.0134  1.0237
10890TIP3    H232612   6.444   1.674   6.092  0.2074  1.2300 -2.6288
10891TIP3   OH232613   8.311   2.680   3.802  0.1116  0.2334  0.1966
10891TIP3    H132614   8.363   2.733   3.863  2.7450 -1.0116 -0.8711
10891TIP3    H232615   8.274   2.611   3.857 -0.2147  0.9699  0.9268
10892TIP3   OH232616   0.682   4.302   5.159  0.0133  0.0283  0.3002
10892TIP3    H132617   0.770   4.339   5.145 -0.1193  0.8909  1.6258
10892TIP3    H232618   0.622   4.370   5.127 -0.1825 -0.3970 -0.2416
10893TIP3   OH232619   0.451   1.499   6.747  0.4444  0.2787  0.6049
10893TIP3    H132620   0.417   1.410   6.755  3.7605 -1.1569 -0.5264
10893TIP3    H232621   0.458   1.513   6.652  0.5390  1.5305  0.7858
10894TIP3   OH232622   7.843   4.406   6.216 -0.5692  0.4174 -0.4740
10894TIP3    H132623   7.872   4.417   6.126  0.2759  3.3504  0.1164
10894TIP3    H232624   7.916   4.362   6.259 -1.2524 -1.6287 -1.3373
10895TIP3   OH232625   0.616   7.488   0.498 -0.2911 -0.5823  0.6985
10895TIP3    H132626   0.614   7.415   0.560 -3.0931 -0.3875  0.8746
10895TIP3    H232627   0.525   7.500   0.471  0.4490  1.3685 -1.0882
10896TIP3   OH232628   1.418   3.462   0.488 -0.0031  0.3336 -0.0602
10896TIP3    H132629   1.452   3.389   0.540  0.8446 -0.3741 -1.5564
10896TIP3    H232630   1.350   3.502   0.543  0.8756 -0.3618  1.5842
10897TIP3   OH232631   7.424   2.364   4.983  0.0540  0.2330  0.4574
10897TIP3    H132632   7.389   2.452   4.972  1.9344  1.4035  3.2612
10897TIP3    H232633   7.489   2.355   4.913 -1.5167  0.2777 -1.0486
10898TIP3   OH232634   6.041   2.225   5.804 -0.4012  0.3002 -0.1358
10898TIP3    H132635   6.107   2.225   5.873 -0.7570 -0.9207  0.2159
10898TIP3    H232636   6.072   2.290   5.741  1.0598 -0.1484  0.1044
10899TIP3   OH232637   1.552   6.523   0.388  0.0725  0.7089  0.1418
10899TIP3    H132638   1.504   6.452   0.344  1.4410  1.7941 -3.2874
10899TIP3    H232639   1.613   6.478   0.446 -0.7004 -0.8537 -0.2127
10900TIP3   OH232640   5.262   3.617   5.179 -0.1711  0.2887  0.0714
10900TIP3    H132641   5.334   3.620   5.242  0.1358  1.3754 -0.3119
10900TIP3    H232642   5.304   3.631   5.094 -0.5048 -1.7715 -0.4504
10901TIP3   OH232643   7.091   3.492   5.719  0.1402 -0.6219 -0.0249
10901TIP3    H132644   7.036   3.422   5.755 -1.5228  0.4436 -0.4421
10901TIP3    H232645   7.064   3.497   5.627  0.4169  0.4053 -0.0503
10902TIP3   OH232646   0.401   5.750   5.652 -0.1644  0.4137  0.1044
10902TIP3    H132647   0.406   5.739   5.747  0.5333  1.4124  0.1841
10902TIP3    H232648   0.358   5.834   5.640  0.4345  0.6408 -0.4652
10903TIP3   OH232649   0.791   1.990   6.099  0.3336  0.3376  0.4844
10903TIP3    H132650   0.733   2.045   6.047  1.7676  1.3969 -0.0205
10903TIP3    H232651   0.807   1.914   6.043 -0.2103  0.2463  0.4464
10904TIP3   OH232652   7.154   2.848   5.686 -0.2721 -0.6540 -0.0507
10904TIP3    H132653   7.152   2.781   5.754  0.1407  1.6128  2.2636
10904TIP3    H232654   7.173   2.929   5.732 -2.1860  1.3378 -2.5756
10905TIP3   OH232655   5.692   2.524   4.093  0.0056 -0.4149  0.0782
10905TIP3    H132656   5.638   2.483   4.026 -1.8143  0.1568  1.1425
10905TIP3    H232657   5.628   2.561   4.155  1.6286  0.6359  1.1464
10906TIP3   OH232658   6.941   3.298   2.452 -0.1890 -0.0590 -0.0987
10906TIP3    H132659   6.922   3.364   2.518 -1.7692 -2.1328  1.5552
10906TIP3    H232660   7.033   3.275   2.467 -0.4345 -0.2494  1.1630
10907TIP3   OH232661   7.827   2.622   5.693 -0.2704  0.0472 -0.3609
10907TIP3    H132662   7.921   2.638   5.684 -0.7126  1.6154 -2.6058
10907TIP3    H232663   7.787   2.708   5.681 -2.0069 -0.6152  0.5462
10908TIP3   OH232664   5.636   1.194   4.624  0.2666 -0.2210  0.0516
10908TIP3    H132665   5.570   1.182   4.556 -1.0272  1.4686  0.9917
10908TIP3    H232666   5.651   1.288   4.627  0.8379 -0.3512  1.6244
10909TIP3   OH232667   5.915   3.725   6.992 -0.4330 -0.3928 -0.5807
10909TIP3    H132668   5.969   3.801   7.013  0.1455 -0.9258 -0.1500
10909TIP3    H232669   5.849   3.760   6.931 -0.1221  0.4327 -0.4586
10910TIP3   OH232670   2.731   7.869   0.211  0.5477 -0.0567  0.0772
10910TIP3    H132671   2.750   7.805   0.143 -0.1797 -1.2648  1.0034
10910TIP3    H232672   2.792   7.941   0.193 -0.4956  0.2241 -2.6358
10911TIP3   OH232673   6.222   3.609   5.015  0.0516  0.0891 -0.3300
10911TIP3    H132674   6.262   3.687   5.054  0.9387 -1.3588  1.7654
10911TIP3    H232675   6.296   3.553   4.993 -0.6506 -1.2150  0.5301
10912TIP3   OH232676   8.311   2.919   4.865 -0.0291  0.2677 -0.2296
10912TIP3    H132677   8.269   2.950   4.946 -0.5714 -0.2677 -0.2995
10912TIP3    H232678   8.244   2.865   4.823 -0.7969  2.8842 -2.5175
10913TIP3   OH232679   0.682   2.737   6.492  0.7135 -0.3202 -0.4481
10913TIP3    H132680   0.716   2.684   6.420  1.3219  0.0882 -0.4637
10913TIP3    H232681   0.734   2.710   6.568 -1.0276 -1.9413  0.2047
10914TIP3   OH232682   5.336   1.841   5.796 -0.8846 -0.4792  0.2254
10914TIP3    H132683   5.255   1.791   5.787 -1.6477  1.1459 -2.3629
10914TIP3    H232684   5.403   1.785   5.757 -0.9834 -1.2743  1.1881
10915TIP3   OH232685   5.780   3.570   5.833  0.5556  0.3137 -0.3366
10915TIP3    H132686   5.712   3.632   5.805  0.9943  0.7451 -0.4617
10915TIP3    H232687   5.767   3.562   5.928  1.0608  1.2963 -0.1766
10916TIP3   OH232688   7.812   4.720   6.886 -0.0801 -0.7967  0.3594
10916TIP3    H132689   7.819   4.690   6.976 -2.1974  0.1767  0.8858
10916TIP3    H232690   7.738   4.672   6.850 -0.1382 -0.1343 -0.4170
10917TIP3   OH232691   3.984   3.902   6.103  0.0335 -0.2661 -0.0169
10917TIP3    H132692   4.041   3.838   6.145  2.3840  0.6540 -1.7229
10917TIP3    H232693   3.924   3.848   6.050  0.5257 -1.1706  0.3271
10918TIP3   OH232694   0.156   3.141   1.422  0.0688  0.8092 -0.3660
10918TIP3    H132695   0.064   3.141   1.396  0.3834 -1.5575 -1.6660
10918TIP3    H232696   0.156   3.171   1.512 -2.3235 -1.9884  0.6271
10919TIP3   OH232697   7.503   1.915   6.619 -0.9889  0.3828  0.1226
10919TIP3    H132698   7.441   1.899   6.690 -0.6875  0.9448  0.5143
10919TIP3    H232699   7.516   2.010   6.619 -0.1155  0.2652  0.0552
10920TIP3   OH232700   8.173   1.944   6.266 -0.2706  0.3958 -0.4919
10920TIP3    H132701   8.192   1.921   6.357  1.1572 -0.6251 -1.0309
10920TIP3    H232702   8.143   2.035   6.271 -1.3300 -0.0080  1.1212
10921TIP3   OH232703   2.101   1.653   4.377  0.0206 -0.2042 -0.1479
10921TIP3    H132704   2.092   1.585   4.444  0.6488  0.5550  0.7184
10921TIP3    H232705   2.144   1.608   4.304  0.5934 -0.7096  0.4816
10922TIP3   OH232706   5.807   5.403   5.770 -0.1100  0.6502  0.1390
10922TIP3    H132707   5.852   5.330   5.813  0.0328  0.8786  0.3717
10922TIP3    H232708   5.737   5.361   5.720 -0.9837  0.4719  1.4823
10923TIP3   OH232709   5.365   5.327   5.340  0.8624 -0.1021  0.2950
10923TIP3    H132710   5.306   5.257   5.314 -0.0325  0.6187  0.3799
10923TIP3    H232711   5.419   5.343   5.262 -0.1516  0.3568 -0.3215
10924TIP3   OH232712   6.543   1.369   6.849 -0.1009 -0.0350  0.5440
10924TIP3    H132713   6.636   1.387   6.868 -0.4321  2.4406 -0.0593
10924TIP3    H232714   6.495   1.420   6.915 -1.0443 -1.3972  0.9243
10925TIP3   OH232715   4.701   2.341   4.444  0.5155 -0.0539  0.0119
10925TIP3    H132716   4.620   2.370   4.401  2.7320  1.6417 -3.2470
10925TIP3    H232717   4.721   2.258   4.402 -0.7634 -1.7201  2.5759
10926TIP3   OH232718   5.724   0.943   5.583 -0.2295 -0.5206  0.0045
10926TIP3    H132719   5.692   0.921   5.671  1.9977 -0.1457  0.9322
10926TIP3    H232720   5.778   1.020   5.596  0.7292 -0.9185 -1.5999
10927TIP3   OH232721   6.962   1.639   2.901 -0.4442 -0.0879  0.2271
10927TIP3    H132722   7.015   1.560   2.885 -1.3136 -0.5088 -0.6037
10927TIP3    H232723   6.965   1.651   2.996  1.1531 -0.1029  0.1991
10928TIP3   OH232724   7.230   1.955   6.183  0.6322  0.1869  0.3370
10928TIP3    H132725   7.150   1.982   6.139  0.4908  0.0583  0.5142
10928TIP3    H232726   7.203   1.937   6.273  1.4560  3.3822  1.2863
10929TIP3   OH232727   7.637   3.175   3.542 -0.1448  0.5135 -0.6060
10929TIP3    H132728   7.674   3.245   3.597  0.2668  0.9881 -1.4739
10929TIP3    H232729   7.610   3.219   3.462 -0.3866 -0.2376 -0.9439
10930TIP3   OH232730   5.863   4.938   3.454 -0.0279 -0.0037 -0.7708
10930TIP3    H132731   5.852   4.928   3.360 -1.8859 -0.7761 -0.4991
10930TIP3    H232732   5.800   5.006   3.479 -0.1306 -0.3704  0.0139
10931TIP3   OH232733   7.804   3.207   6.496 -0.7185  0.2653  0.5642
10931TIP3    H132734   7.716   3.238   6.521 -0.7426  1.2613 -0.6852
10931TIP3    H232735   7.856   3.287   6.488  0.4480 -0.3546  1.7752
10932TIP3   OH232736   7.477   5.783   6.155 -0.3315 -0.1729  0.3419
10932TIP3    H132737   7.421   5.706   6.161  0.9229 -1.2344 -1.0285
10932TIP3    H232738   7.563   5.752   6.182  0.1195  0.8097  0.0670
10933TIP3   OH232739   7.103   4.434   5.478 -0.4021 -0.5106 -0.3247
10933TIP3    H132740   7.130   4.350   5.441 -1.7693  0.2719 -3.2266
10933TIP3    H232741   7.182   4.466   5.522  0.4701 -2.7764 -0.1572
10934TIP3   OH232742   0.085   1.899   5.413 -0.1605  0.1571 -0.1972
10934TIP3    H132743   0.091   1.931   5.503  1.6823 -0.4971 -0.0518
10934TIP3    H232744   0.087   1.978   5.359  2.6571  0.4268  0.2223
10935TIP3   OH232745   6.885   3.497   4.624 -0.7100 -0.7344  0.2642
10935TIP3    H132746   6.875   3.520   4.716 -0.8874  1.4592 -0.2796
10935TIP3    H232747   6.924   3.574   4.584  0.7154 -2.1837 -1.2537
10936TIP3   OH232748   6.414   3.974   3.610  0.1478 -0.3755 -0.0070
10936TIP3    H132749   6.418   3.946   3.701 -1.5241  0.2711  0.2849
10936TIP3    H232750   6.435   3.895   3.559  0.6650 -0.8344  0.9171
10937TIP3   OH232751   8.527   4.326   6.031  0.5730  0.0761  0.3135
10937TIP3    H132752   8.440   4.318   5.991  0.4363  1.8555  0.1852
10937TIP3    H232753   8.508   4.347   6.123  0.8573  1.0385  0.1574
10938TIP3   OH232754   4.980   4.653   6.683 -0.0605  0.4753  0.2498
10938TIP3    H132755   4.903   4.636   6.628 -0.7025  0.4988  1.1339
10938TIP3    H232756   4.944   4.686   6.765  0.9180  0.9011  0.5179
10939TIP3   OH232757   6.057   3.642   6.693  0.2921  0.3123  0.3149
10939TIP3    H132758   6.055   3.725   6.740  1.7640  0.4044  0.2430
10939TIP3    H232759   6.039   3.576   6.759  0.7847  0.5676  0.7087
10940TIP3   OH232760   0.242   3.901   5.162 -0.0532 -0.1056 -0.3207
10940TIP3    H132761   0.330   3.879   5.193  0.0895  0.3859 -0.3604
10940TIP3    H232762   0.206   3.818   5.130  0.7758 -0.1298 -1.2282
10941TIP3   OH232763   5.044   2.647   6.354 -0.1512  0.1048  0.7273
10941TIP3    H132764   5.096   2.712   6.306  1.7719 -0.0803  2.4740
10941TIP3    H232765   5.041   2.571   6.295  1.4864  0.1598  0.5338
10942TIP3   OH232766   7.061   4.752   5.695 -0.0474  0.1851  0.3857
10942TIP3    H132767   7.058   4.846   5.716 -1.0725  0.0588  0.8300
10942TIP3    H232768   7.151   4.727   5.714 -0.0424  0.8534  1.3143
10943TIP3   OH232769   0.968   6.003   1.487  0.1567  0.0304 -0.1843
10943TIP3    H132770   1.021   5.939   1.535 -2.8652 -2.8722 -0.5384
10943TIP3    H232771   0.994   5.991   1.396  1.0848  0.7944 -0.0241
10944TIP3   OH232772   6.800   5.311   4.342 -0.0620  0.4081  0.4937
10944TIP3    H132773   6.816   5.222   4.371  0.0403  1.3553  3.4740
10944TIP3    H232774   6.876   5.333   4.288  0.3242 -0.9831  0.4680
10945TIP3   OH232775   3.935   5.757   4.352  0.1684 -0.0674  0.1076
10945TIP3    H132776   3.856   5.727   4.397 -0.2108  0.4402 -0.2025
10945TIP3    H232777   3.903   5.822   4.289  0.9623  0.9067  0.6999
10946TIP3   OH232778   6.420   1.842   5.044  0.2468  0.1964 -0.0072
10946TIP3    H132779   6.334   1.883   5.056 -0.8490 -2.4151  1.5524
10946TIP3    H232780   6.421   1.815   4.952 -1.6497 -1.9153  0.5454
10947TIP3   OH232781   6.021   5.460   4.278  0.1553  0.2731 -0.3168
10947TIP3    H132782   6.050   5.382   4.230  0.7241  1.9514 -2.8174
10947TIP3    H232783   5.926   5.452   4.281  0.2144 -0.5467 -0.4709
10948TIP3   OH232784   6.356   1.519   5.139 -0.4206  0.1532 -0.4311
10948TIP3    H132785   6.342   1.579   5.212 -1.0498  1.4677 -1.6199
10948TIP3    H232786   6.270   1.512   5.097 -0.2457 -1.2244 -0.5739
10949TIP3   OH232787   7.968   3.023   5.492 -0.4379 -0.9808 -0.6995
10949TIP3    H132788   7.883   2.999   5.455  0.7422 -2.1101 -2.7468
10949TIP3    H232789   7.988   2.951   5.552 -0.5306 -1.1463 -0.8664
10950TIP3   OH232790   6.855   1.563   6.047  0.0094 -0.3783 -0.8711
10950TIP3    H132791   6.937   1.605   6.020  1.7227 -2.2694  1.2893
10950TIP3    H232792   6.845   1.490   5.986 -0.8075  0.6568 -1.9979
10951TIP3   OH232793   8.494   4.147   4.257 -0.9051  0.1840 -0.1733
10951TIP3    H132794   8.438   4.216   4.294 -0.0126 -0.1155  1.8404
10951TIP3    H232795   8.475   4.070   4.311  2.0370  0.2989  1.1746
10952TIP3   OH232796   6.903   2.702   5.020 -0.8354  0.1562  0.0052
10952TIP3    H132797   6.850   2.773   4.984  1.5000  1.6098 -0.6408
10952TIP3    H232798   6.913   2.640   4.948 -0.6551  0.4418 -0.2122
10953TIP3   OH232799   5.360   7.570   6.734  0.2904 -0.1158 -0.4456
10953TIP3    H132800   5.349   7.586   6.828  1.5414 -0.7981 -0.1733
10953TIP3    H232801   5.417   7.642   6.705  2.0932 -1.3978 -0.1413
10954TIP3   OH232802   6.549   1.583   4.286  0.3502 -0.3460  0.0001
10954TIP3    H132803   6.511   1.558   4.202  0.2960 -0.6364  0.1094
10954TIP3    H232804   6.625   1.636   4.264 -0.8597  1.3548 -0.2172
10955TIP3   OH232805   8.498   3.791   4.758  0.0827  0.3732 -0.2171
10955TIP3    H132806   8.577   3.749   4.791  0.6332  2.1851  0.8777
10955TIP3    H232807   8.444   3.805   4.835 -0.1187  1.5701 -0.5537
10956TIP3   OH232808   8.029   2.176   5.061 -0.2072 -0.1402 -0.1239
10956TIP3    H132809   8.117   2.192   5.027  0.1803 -1.1655  0.3811
10956TIP3    H232810   7.980   2.255   5.038  0.2368 -0.4944 -2.4381
10957TIP3   OH232811   5.458   3.579   5.366  0.5470 -0.1328 -0.0685
10957TIP3    H132812   5.466   3.520   5.441 -0.3977  0.8131  0.7958
10957TIP3    H232813   5.547   3.614   5.354  1.0900 -1.6139 -0.5256
10958TIP3   OH232814   6.285   0.298   0.234  0.2327  0.6299  0.0340
10958TIP3    H132815   6.207   0.269   0.187 -0.7436 -0.2197  2.0670
10958TIP3    H232816   6.352   0.233   0.213 -0.1577  0.3215 -0.2570
10959TIP3   OH232817   7.729   4.084   5.453 -0.5515 -0.0807  0.2344
10959TIP3    H132818   7.701   4.158   5.399 -1.5539 -0.6903 -0.0902
10959TIP3    H232819   7.650   4.032   5.465 -0.8407  1.0621  3.9452
10960TIP3   OH232820   5.954   4.889   3.689  0.0172  0.3000 -0.4659
10960TIP3    H132821   5.937   4.906   3.597 -0.1324  1.4986 -0.2272
10960TIP3    H232822   6.032   4.834   3.689 -1.5358 -2.0142 -1.4077
10961TIP3   OH232823   6.752   4.962   6.432 -0.8096 -0.6268 -0.0876
10961TIP3    H132824   6.735   4.876   6.396  2.4872 -2.3983  2.3187
10961TIP3    H232825   6.703   4.963   6.515  0.0130 -0.5979  0.4005
10962TIP3   OH232826   6.077   2.541   5.476  0.1091  0.0399 -0.1119
10962TIP3    H132827   6.008   2.476   5.462 -0.3764 -0.0557  2.5574
10962TIP3    H232828   6.136   2.501   5.539  1.1638  1.2095 -0.3319
10963TIP3   OH232829   3.743   6.628   5.441  0.3381 -0.1763  0.4840
10963TIP3    H132830   3.735   6.533   5.450 -1.8291 -0.1223 -0.4404
10963TIP3    H232831   3.686   6.649   5.367  1.4495  1.7476  0.1607
10964TIP3   OH232832   6.051   6.320   6.261  0.0354 -0.0228  0.0446
10964TIP3    H132833   5.965   6.280   6.246 -0.4971  1.3510 -0.6083
10964TIP3    H232834   6.085   6.276   6.339 -1.7830  0.2816  1.0265
10965TIP3   OH232835   7.810   2.761   6.102  0.1124 -0.3848 -0.2191
10965TIP3    H132836   7.772   2.755   6.189  1.5740  1.0532  0.5525
10965TIP3    H232837   7.768   2.838   6.062 -0.4225 -0.9332 -0.7190
10966TIP3   OH232838   6.478   3.792   5.439  0.4035 -0.1815  0.3486
10966TIP3    H132839   6.390   3.754   5.441  0.4991 -0.6209 -2.2396
10966TIP3    H232840   6.466   3.878   5.397  0.8183  0.9653  2.4847
10967TIP3   OH232841   3.902   0.108   1.596  0.0100  0.4195  0.2917
10967TIP3    H132842   3.908   0.202   1.610  0.5068  0.6892 -1.6552
10967TIP3    H232843   3.852   0.076   1.671 -1.6989  2.4733  0.0604
10968TIP3   OH232844   7.296   5.556   4.745  0.1913  0.7331 -0.1055
10968TIP3    H132845   7.388   5.539   4.765 -0.1570  0.0091  0.9702
10968TIP3    H232846   7.277   5.500   4.670  0.4676  0.3792  0.0848
10969TIP3   OH232847   7.452   2.235   6.638 -0.6380  0.2446 -0.0796
10969TIP3    H132848   7.437   2.306   6.700  0.1971 -0.6030  1.1130
10969TIP3    H232849   7.364   2.209   6.611 -1.0821 -0.2555  1.7773
10970TIP3   OH232850   1.431   3.192   0.194 -0.0667 -0.0514  0.1472
10970TIP3    H132851   1.514   3.233   0.169 -0.6726  0.9740 -0.2144
10970TIP3    H232852   1.449   3.098   0.191  0.9979  0.1554 -0.2060
10971TIP3   OH232853   7.144   3.148   5.243  0.3386  0.6673 -0.1937
10971TIP3    H132854   7.099   3.112   5.320  1.5907 -0.3301  0.0789
10971TIP3    H232855   7.081   3.139   5.172 -0.5370  0.8653  0.5453
10972TIP3   OH232856   7.043   3.047   5.473  0.4160  0.6558 -0.2035
10972TIP3    H132857   6.979   3.002   5.419  0.1293  1.6716 -0.7319
10972TIP3    H232858   7.039   3.003   5.558 -0.0144 -0.1508 -0.6437
10973TIP3   OH232859   8.265   1.777   4.904 -0.4401 -0.6237  0.6550
10973TIP3    H132860   8.173   1.800   4.918 -0.3531 -0.4649  0.9651
10973TIP3    H232861   8.263   1.709   4.836 -0.7426 -0.1817  0.2155
10974TIP3   OH232862   1.237   5.623   0.024 -0.0317 -0.1488  0.0151
10974TIP3    H132863   1.315   5.568   0.031  0.5237  0.5103 -0.8955
10974TIP3    H232864   1.254   5.697   0.083 -1.5506 -1.8247  2.6287
10975TIP3   OH232865   6.822   3.948   5.739 -0.1296  0.2110  0.6660
10975TIP3    H132866   6.746   3.898   5.710 -0.6100  0.2748  1.8108
10975TIP3    H232867   6.888   3.932   5.671 -1.2016  0.2629 -0.3923
10976TIP3   OH232868   7.393   1.551   5.864 -0.6266 -0.6320  0.0365
10976TIP3    H132869   7.455   1.560   5.791  0.2656 -2.1641  0.5763
10976TIP3    H232870   7.415   1.622   5.924  0.3438 -0.9128  0.0191
10977TIP3   OH232871   5.688   3.510   5.069  0.2360 -0.2038 -0.2562
10977TIP3    H132872   5.766   3.455   5.076  1.1045  1.3035  2.7973
10977TIP3    H232873   5.713   3.579   5.007 -0.0898 -1.9149 -2.3582
10978TIP3   OH232874   7.173   2.292   6.029  0.2078 -0.1127 -0.0392
10978TIP3    H132875   7.135   2.372   6.066 -0.3626 -0.2938 -0.2181
10978TIP3    H232876   7.169   2.305   5.934  1.1056  0.0963 -0.0464
10979TIP3   OH232877   8.047   2.610   1.984  0.4345 -0.0625  0.3556
10979TIP3    H132878   8.000   2.688   1.954  1.3935 -0.7845 -3.2945
10979TIP3    H232879   7.997   2.579   2.059 -1.9350  2.1285 -0.2488
10980TIP3   OH232880   2.334   7.664   6.891  0.0684  0.2087  0.1307
10980TIP3    H132881   2.364   7.736   6.946 -0.6173  0.9698 -0.4766
10980TIP3    H232882   2.239   7.673   6.889  0.0947  0.4092 -1.4301
10981TIP3   OH232883   8.077   2.741   5.989 -0.2191 -0.3284  0.2696
10981TIP3    H132884   8.094   2.835   5.998 -1.0461 -0.1572  0.0514
10981TIP3    H232885   7.985   2.731   6.014  0.1189 -1.2079  1.1693
10982TIP3   OH232886   6.325   4.945   6.182 -0.2193  0.2773 -0.7336
10982TIP3    H132887   6.272   5.022   6.163  0.8152  0.6974 -2.0408
10982TIP3    H232888   6.415   4.971   6.160  0.2678 -1.0121 -0.3475
10983TIP3   OH232889   0.482   1.804   5.144  0.0964  0.3740 -0.2132
10983TIP3    H132890   0.436   1.746   5.084  0.6530 -0.9035  0.5815
10983TIP3    H232891   0.480   1.759   5.228 -1.7298  2.7135  1.0456
10984TIP3   OH232892   8.361   2.908   5.717 -0.6431 -0.4584  0.8261
10984TIP3    H132893   8.346   2.968   5.644 -1.0452  1.3612  2.3638
10984TIP3    H232894   8.450   2.875   5.703  0.1040  1.5455  0.6447
10985TIP3   OH232895   6.528   3.874   5.048  0.4071 -0.2289  0.0355
10985TIP3    H132896   6.440   3.884   5.084  0.9444 -1.7454  1.8975
10985TIP3    H232897   6.520   3.806   4.982 -0.1108  0.7651 -0.9313
10986TIP3   OH232898   7.681   0.644   4.959  0.1169 -0.4517 -0.5228
10986TIP3    H132899   7.602   0.698   4.962  0.2223 -0.2336 -1.4823
10986TIP3    H232900   7.649   0.556   4.939  0.1808 -0.1837 -1.8862
10987TIP3   OH232901   0.369   3.446   5.822  0.2306  0.2562 -0.3499
10987TIP3    H132902   0.343   3.417   5.909  0.4422  1.9722  0.2940
10987TIP3    H232903   0.364   3.541   5.825 -0.7822  0.3087 -2.5429
10988TIP3   OH232904   0.239   3.796   6.246 -0.5251  0.1430 -0.3237
10988TIP3    H132905   0.251   3.828   6.156 -2.5512 -0.8032 -0.9622
10988TIP3    H232906   0.247   3.874   6.300  0.0818  0.8346 -1.3838
10989TIP3   OH232907   4.312   7.841   5.517  0.0152  0.0851 -0.7651
10989TIP3    H132908   4.272   7.757   5.539  0.7047  0.0090  0.2292
10989TIP3    H232909   4.385   7.850   5.578  0.7344  0.8177 -1.7090
10990TIP3   OH232910   1.362   5.231   2.454  0.0809  0.1767 -0.4340
10990TIP3    H132911   1.453   5.261   2.445  0.6419 -1.6019 -0.8401
10990TIP3    H232912   1.363   5.140   2.424 -1.4208 -0.5103  1.4741
10991TIP3   OH232913   1.253   3.862   2.055 -0.7870  0.2341 -0.0022
10991TIP3    H132914   1.237   3.768   2.065  0.5475  0.0297  0.2378
10991TIP3    H232915   1.345   3.868   2.031 -0.1389  1.6390  2.6759
10992TIP3   OH232916   3.685   6.119   2.105 -0.6360 -0.0886  0.8031
10992TIP3    H132917   3.659   6.176   2.033  0.4795 -1.0763 -0.4027
10992TIP3    H232918   3.781   6.123   2.104 -0.5198 -2.4206  0.3359
10993TIP3   OH232919   6.947   5.768   4.657  0.0815 -0.2385  0.4501
10993TIP3    H132920   6.947   5.688   4.605 -1.3647  1.3334 -2.0720
10993TIP3    H232921   6.930   5.739   4.746  0.0818 -2.7710 -0.3385
10994TIP3   OH232922   6.951   3.956   5.971 -0.2669 -0.1826  0.3392
10994TIP3    H132923   6.902   4.000   5.902 -0.6409 -1.2684 -0.1020
10994TIP3    H232924   6.941   3.863   5.952 -1.7447 -0.5667  2.8051
10995TIP3   OH232925   3.410   0.519   1.172 -0.4833  0.1234  0.6814
10995TIP3    H132926   3.332   0.575   1.181  0.0216  1.7061 -3.4944
10995TIP3    H232927   3.375   0.433   1.151 -1.1694  0.3676  0.7883
10996TIP3   OH232928   6.773   0.959   6.461 -0.3618 -0.0276  0.0481
10996TIP3    H132929   6.823   0.928   6.537  2.4567  1.4550 -1.0887
10996TIP3    H232930   6.727   1.036   6.493 -0.7490 -0.5440  0.7461
10997TIP3   OH232931   1.872   4.013   5.461 -0.3020 -0.2643 -0.0548
10997TIP3    H132932   1.859   3.956   5.385 -1.4233  0.1156 -0.1553
10997TIP3    H232933   1.911   3.956   5.527  0.7124 -0.5882 -0.9225
10998TIP3   OH232934   7.666   1.588   5.643  0.2967 -0.5370 -0.6044
10998TIP3    H132935   7.648   1.668   5.594  0.9096  0.6664  1.1107
10998TIP3    H232936   7.753   1.561   5.613 -0.4754 -1.3610 -2.1985
10999TIP3   OH232937   8.279   5.383   6.226  0.1488  0.6120 -0.0221
10999TIP3    H132938   8.249   5.306   6.177  1.3702  0.6138 -0.8104
10999TIP3    H232939   8.220   5.388   6.301 -0.1281 -0.9334 -0.1087
11000TIP3   OH232940   2.570   7.134   0.011  0.4290  0.6795  0.3991
11000TIP3    H132941   2.486   7.089   0.008  0.7118  0.2133 -0.4296
11000TIP3    H232942   2.618   7.090   0.081  0.2520  0.4771  0.3962
11001TIP3   OH232943   6.014   4.949   5.557  0.3849  0.1831 -0.2262
11001TIP3    H132944   5.948   4.902   5.608  1.4979 -1.2828 -0.0748
11001TIP3    H232945   6.097   4.928   5.601  1.3124 -0.6611 -2.3062
11002TIP3   OH232946   8.539   1.451   5.227  0.4616  0.1997  0.4244
11002TIP3    H132947   8.464   1.473   5.171  1.3259 -0.7155 -1.1225
11002TIP3    H232948   8.503   1.391   5.292 -0.7121  1.8436  1.3271
11003TIP3   OH232949   6.155   5.219   5.788  0.1944 -0.1022 -0.2427
11003TIP3    H132950   6.059   5.221   5.785  0.2420  1.8435 -1.5888
11003TIP3    H232951   6.180   5.159   5.717 -0.0315 -1.7441  1.0351
11004TIP3   OH232952   8.472   3.633   4.537 -0.2397 -0.0459 -0.0819
11004TIP3    H132953   8.419   3.675   4.470  2.0103  0.4823 -1.5936
11004TIP3    H232954   8.468   3.691   4.612 -0.5466  0.7540 -0.7152
11005TIP3   OH232955   7.837   2.374   5.042  0.1512 -0.3757 -0.3622
11005TIP3    H132956   7.778   2.370   5.117  0.4417  2.0905  0.0521
11005TIP3    H232957   7.782   2.406   4.970  0.1138 -1.7239 -0.9296
11006TIP3   OH232958   0.642   4.891   5.473 -0.2850 -0.0723  0.1532
11006TIP3    H132959   0.556   4.870   5.511  0.1234 -0.4374  0.8936
11006TIP3    H232960   0.681   4.806   5.454  1.5666 -0.0762  3.5781
11007TIP3   OH232961   6.036   1.854   5.294  0.8139 -0.2738  0.2624
11007TIP3    H132962   6.072   1.879   5.209  1.2219  0.1591  0.5585
11007TIP3    H232963   5.984   1.930   5.321  0.0801 -0.7027  0.0628
11008TIP3   OH232964   4.813   3.730   6.792 -0.2973 -0.3244 -0.0572
11008TIP3    H132965   4.806   3.824   6.777 -1.9571 -0.3501  0.4989
11008TIP3    H232966   4.745   3.691   6.738  1.0206 -1.3131 -1.0514
11009TIP3   OH232967   5.901   3.067   6.788 -0.4528 -0.4120  0.1189
11009TIP3    H132968   5.837   3.129   6.754 -0.5313 -0.8768 -0.5742
11009TIP3    H232969   5.854   2.984   6.794  0.1068 -0.7787 -0.4982
11010TIP3   OH232970   7.754   2.565   4.165  0.3397  0.5896  0.2065
11010TIP3    H132971   7.659   2.553   4.169  0.4680 -1.0652 -1.1545
11010TIP3    H232972   7.766   2.643   4.111 -0.1960 -0.6904 -1.8081
11011TIP3   OH232973   7.735   1.355   4.469 -0.1369  0.1028  0.6088
11011TIP3    H132974   7.822   1.391   4.449 -0.4398  1.5845  1.9365
11011TIP3    H232975   7.688   1.426   4.512 -2.9039  0.1559 -2.3121
11012TIP3   OH232976   7.274   3.404   5.230  0.7773 -0.4453  0.0931
11012TIP3    H132977   7.362   3.391   5.264  0.5550 -0.4189  0.6783
11012TIP3    H232978   7.231   3.320   5.241  0.3899 -0.1619  0.8134
11013TIP3   OH232979   5.812   0.896   0.464 -0.4633  0.3154  0.3989
11013TIP3    H132980   5.748   0.863   0.527 -1.6787  0.3980 -0.7841
11013TIP3    H232981   5.831   0.986   0.494 -1.3243  0.4925  0.4158
11014TIP3   OH232982   1.029   7.074   0.564  0.2888  0.0764  0.3330
11014TIP3    H132983   1.111   7.055   0.519  0.4450  1.2005  0.1185
11014TIP3    H232984   1.053   7.131   0.637 -0.2060 -0.1792  0.7027
11015TIP3   OH232985   0.852   1.093   6.566  0.2522  0.2507 -0.2948
11015TIP3    H132986   0.926   1.151   6.548 -0.0508  0.6483 -0.2682
11015TIP3    H232987   0.843   1.041   6.486  0.6556  0.0946 -0.2398
11016TIP3   OH232988   0.351   2.803   5.292  0.3072  0.3484  0.9177
11016TIP3    H132989   0.288   2.806   5.363 -0.0624  2.0540  0.5327
11016TIP3    H232990   0.308   2.847   5.219  0.8100 -1.0595 -0.2700
11017TIP3   OH232991   6.085   0.977   5.277 -0.5285 -0.5552 -0.2326
11017TIP3    H132992   6.043   1.046   5.328 -0.2380 -0.6277  0.1082
11017TIP3    H232993   6.141   1.024   5.215  0.7727 -0.5087  0.9610
11018TIP3   OH232994   1.513   6.912   0.171 -0.0121  0.2359 -0.7693
11018TIP3    H132995   1.548   6.910   0.082 -0.0548  1.4478 -0.8244
11018TIP3    H232996   1.493   7.004   0.186  1.8443  0.3286  1.2287
11019TIP3   OH232997   5.353   5.666   0.090  0.1102  0.4805 -0.2285
11019TIP3    H132998   5.421   5.600   0.081  0.1507  0.4111  0.5836
11019TIP3    H232999   5.272   5.619   0.070  0.0605  0.0013  1.0680
11020TIP3   OH233000   6.692   1.645   5.176 -0.0210 -0.5837  0.2524
11020TIP3    H133001   6.745   1.572   5.207  2.5365  0.7792 -0.7773
11020TIP3    H233002   6.653   1.614   5.094  1.9180 -0.4558 -0.7445
11021TIP3   OH233003   6.737   1.009   6.833  0.3719  0.3315 -0.5061
11021TIP3    H133004   6.721   1.037   6.743  1.9077 -2.0798 -1.5814
11021TIP3    H233005   6.790   1.078   6.871  2.6320 -0.1984 -2.5633
11022TIP3   OH233006   5.881   6.534   3.830  0.1442 -0.7108 -0.5474
11022TIP3    H133007   5.973   6.551   3.809  0.6361 -0.6369  1.5787
11022TIP3    H233008   5.874   6.439   3.834  0.3085 -0.6981  0.0519
11023TIP3   OH233009   8.295   4.999   1.354 -0.3135  0.5755 -0.3619
11023TIP3    H133010   8.303   4.971   1.263 -0.6600  0.1945 -0.2742
11023TIP3    H233011   8.310   5.094   1.351 -0.9795  0.6711 -0.9104
11024TIP3   OH233012   1.280   0.468   1.689 -0.1892 -0.1894  0.2301
11024TIP3    H133013   1.345   0.538   1.690 -0.5683  0.1436  2.0752
11024TIP3    H233014   1.228   0.485   1.610  2.1121 -0.6216 -1.4266
11025TIP3   OH233015   5.897   2.347   5.417 -0.2792  0.8202  0.5111
11025TIP3    H133016   5.830   2.332   5.484 -0.0805  0.5513  0.6491
11025TIP3    H233017   5.886   2.276   5.355  0.1250  0.5619  0.7330
11026TIP3   OH233018   5.677   5.602   5.983  0.1921 -0.0030 -0.4682
11026TIP3    H133019   5.666   5.508   5.998 -0.4205  0.3145  1.1450
11026TIP3    H233020   5.589   5.638   5.996  0.5695  0.8937 -0.3854
11027TIP3   OH233021   3.911   0.498   0.208  0.0330 -0.5431 -0.5421
11027TIP3    H133022   3.829   0.456   0.180  0.1082 -1.3603  0.4360
11027TIP3    H233023   3.931   0.457   0.292  2.1074 -1.2340 -1.3649
11028TIP3   OH233024   1.070   2.042   5.020 -0.1752 -0.0078 -0.1211
11028TIP3    H133025   1.065   2.016   4.929 -0.9548  0.3954 -0.2040
11028TIP3    H233026   1.006   2.113   5.028  1.0216  1.0369  0.3683
11029TIP3   OH233027   4.382   3.268   5.801 -0.5500 -0.3446  0.5597
11029TIP3    H133028   4.326   3.239   5.729 -0.9234  0.4705  0.5175
11029TIP3    H233029   4.463   3.217   5.791 -0.6771 -0.3789 -0.3091
11030TIP3   OH233030   2.692   1.518   0.790  0.0881  0.1880  0.4035
11030TIP3    H133031   2.763   1.582   0.798 -0.3834  0.7775  0.0153
11030TIP3    H233032   2.615   1.571   0.768  0.2637 -0.7848 -2.7633
11031TIP3   OH233033   5.286   4.702   5.347 -0.1699 -0.6174 -0.4125
11031TIP3    H133034   5.358   4.766   5.344  1.0711 -2.0070 -0.6010
11031TIP3    H233035   5.310   4.636   5.282 -0.4912 -2.2953  1.1434
11032TIP3   OH233036   8.145   4.447   6.629  0.0657 -0.3182  0.4351
11032TIP3    H133037   8.056   4.453   6.665 -0.8117 -0.3385 -1.6748
11032TIP3    H233038   8.148   4.515   6.561  1.6231 -0.4028  0.4139
11033TIP3   OH233039   6.695   3.123   6.044  0.4351  0.0788 -0.3409
11033TIP3    H133040   6.772   3.177   6.029  1.4672 -0.8792  1.4253
11033TIP3    H233041   6.729   3.035   6.056 -0.9503 -0.4019  0.2195
11034TIP3   OH233042   1.061   0.567   2.574  0.1847  0.0749  0.8803
11034TIP3    H133043   1.135   0.511   2.593  0.2104  0.6655  2.5791
11034TIP3    H233044   1.004   0.514   2.518  2.0180 -0.2602 -0.7033
11035TIP3   OH233045   2.770   6.289   0.103 -0.0484 -0.1525 -0.1450
11035TIP3    H133046   2.742   6.337   0.026 -0.2792 -0.3593 -0.1924
11035TIP3    H233047   2.864   6.301   0.107 -0.3078  1.7505  0.8230
11036TIP3   OH233048   6.793   3.461   5.971 -0.1630  0.5254 -0.4407
11036TIP3    H133049   6.777   3.487   6.062  0.9113  0.1329 -0.1284
11036TIP3    H233050   6.713   3.415   5.945 -0.3737  0.4037  0.3997
11037TIP3   OH233051   6.199   1.182   6.861  0.3079  0.3034  0.1153
11037TIP3    H133052   6.251   1.102   6.872  1.4777  0.9549 -0.4943
11037TIP3    H233053   6.120   1.153   6.815  0.6250 -0.5370  0.0818
11038TIP3   OH233054   2.205   7.591   1.183  0.4543 -0.0268  0.3397
11038TIP3    H133055   2.164   7.574   1.098  1.2206  0.3426 -0.1014
11038TIP3    H233056   2.161   7.530   1.243  0.7954 -1.1829 -0.5634
11039TIP3   OH233057   0.513   1.693   4.623  0.0736  0.3476 -0.4371
11039TIP3    H133058   0.509   1.615   4.568 -0.4059 -0.0801  0.2113
11039TIP3    H233059   0.422   1.711   4.646  0.2243  0.8509 -0.2239
11040TIP3   OH233060   0.200   4.120   4.857 -0.6642 -0.1478 -0.2073
11040TIP3    H133061   0.196   4.210   4.890 -1.9190 -1.0388  2.2356
11040TIP3    H233062   0.231   4.068   4.931 -0.8432 -1.8572 -1.2844
11041TIP3   OH233063   5.159   1.966   6.462 -0.5622 -0.0663 -0.4186
11041TIP3    H133064   5.247   1.981   6.426  0.0582 -3.5160 -0.4285
11041TIP3    H233065   5.108   1.933   6.388 -1.2249 -0.3908  0.1860
11042TIP3   OH233066   0.011   7.129   0.370 -0.3676 -0.4940  0.2136
11042TIP3    H133067   0.101   7.154   0.350  0.4087 -1.6014  2.1306
11042TIP3    H233068  -0.038   7.148   0.290  1.3144  1.3360 -0.4083
11043TIP3   OH233069   8.384   3.001   5.974 -0.0899 -0.3020  0.4365
11043TIP3    H133070   8.372   2.943   5.899  0.7971  0.7268 -0.5304
11043TIP3    H233071   8.476   3.028   5.968 -0.2615  0.5045  1.3788
11044TIP3   OH233072   7.282   1.690   5.256 -0.3747  0.9927 -0.5749
11044TIP3    H133073   7.291   1.718   5.347 -0.5517  2.2255 -0.9362
11044TIP3    H233074   7.228   1.757   5.215 -1.0998 -0.0645 -1.3579
11045TIP3   OH233075   4.980   2.147   5.033 -0.1303  0.2827 -0.3206
11045TIP3    H133076   5.032   2.219   4.999  1.2497 -0.2861  0.5239
11045TIP3    H233077   4.906   2.188   5.076  1.1523  1.2507  1.0071
11046TIP3   OH233078   0.561   4.125   0.073  0.2008 -0.0365 -0.2590
11046TIP3    H133079   0.524   4.205   0.110 -0.3071 -0.7931  0.9171
11046TIP3    H233080   0.640   4.108   0.126 -0.4442 -1.0422  0.4144
11047TIP3   OH233081   4.373   1.083   5.287 -0.2137 -0.1893  0.2774
11047TIP3    H133082   4.360   1.123   5.201 -0.3993 -2.6934 -0.9059
11047TIP3    H233083   4.467   1.081   5.299 -0.1745 -0.2177 -0.0416
11048TIP3   OH233084   5.425   1.800   5.320 -0.0460  0.1401 -0.5215
11048TIP3    H133085   5.465   1.753   5.247  1.2989  0.6884 -0.1664
11048TIP3    H233086   5.374   1.734   5.367  1.5486 -0.9003 -0.2068
11049TIP3   OH233087   8.419   2.659   4.799  0.0018  0.2986 -0.6269
11049TIP3    H133088   8.327   2.646   4.819  0.2749  1.1205  1.2805
11049TIP3    H233089   8.433   2.754   4.809  1.2132  0.0750 -0.0785
11050TIP3   OH233090   5.820   1.616   4.903 -0.4935 -0.3373  0.3013
11050TIP3    H133091   5.763   1.542   4.925 -0.7025 -0.3478 -0.2925
11050TIP3    H233092   5.868   1.633   4.984 -1.5814 -0.1040  0.9041
11051TIP3   OH233093   6.882   2.137   5.214 -0.2905  0.4182  0.0458
11051TIP3    H133094   6.853   2.096   5.132  0.0856 -0.7409  0.4801
11051TIP3    H233095   6.943   2.206   5.186  0.3150 -0.3828 -0.6218
11052TIP3   OH233096   6.314   5.126   4.919  0.3523  1.3065 -0.0406
11052TIP3    H133097   6.344   5.084   5.000 -2.9827 -0.0489  0.5700
11052TIP3    H233098   6.302   5.218   4.942  1.5636  1.3704  0.3688
11053TIP3   OH233099   6.775   1.302   5.881 -0.1890  0.4535  0.2642
11053TIP3    H133100   6.848   1.252   5.844 -0.8398 -1.4646  1.4838
11053TIP3    H233101   6.706   1.296   5.815  0.7275  2.2965 -0.9055
11054TIP3   OH233102   0.480   2.875   4.700 -0.0818 -0.0677 -0.0528
11054TIP3    H133103   0.420   2.802   4.685 -1.2067  0.7132  0.5623
11054TIP3    H233104   0.457   2.908   4.787  0.8403  0.6243 -0.0575
11055TIP3   OH233105   7.999   4.221   5.851  0.5240 -0.4063  0.0075
11055TIP3    H133106   8.025   4.162   5.922  0.3871 -0.5249 -0.0412
11055TIP3    H233107   7.936   4.281   5.891  0.6896 -0.2714  0.0653
11056TIP3   OH233108   6.915   4.370   4.458 -0.2964  0.1133 -0.0451
11056TIP3    H133109   6.882   4.346   4.544  0.2309  0.3916  0.2327
11056TIP3    H233110   6.954   4.457   4.470  1.6550 -0.7366 -0.0919
11057TIP3   OH233111   7.791   2.394   3.774  0.0592 -0.1370 -0.5357
11057TIP3    H133112   7.716   2.446   3.743 -0.8986 -0.8058  0.5698
11057TIP3    H233113   7.827   2.353   3.696 -0.1223  0.9718 -1.2141
11058TIP3   OH233114   7.775   2.784   3.996 -0.5927 -0.1668  0.1242
11058TIP3    H133115   7.695   2.830   3.968 -0.5335  0.1322  0.4536
11058TIP3    H233116   7.842   2.852   4.000 -0.0466 -0.5982 -1.2255
11059TIP3   OH233117   8.061   4.798   4.557 -0.0932  0.0010 -0.1539
11059TIP3    H133118   8.005   4.826   4.485 -1.5377  1.2750  1.4126
11059TIP3    H233119   8.150   4.816   4.527 -0.4858 -2.0568 -2.6771
11060TIP3   OH233120   8.334   3.801   5.578 -0.0978  0.0998  0.0066
11060TIP3    H133121   8.334   3.893   5.553  1.4784  0.0178 -0.3046
11060TIP3    H233122   8.423   3.783   5.607 -0.0937 -1.6025 -0.9752
11061TIP3   OH233123   0.198   3.618   5.188 -0.0976 -0.4422  0.3112
11061TIP3    H133124   0.155   3.557   5.128 -1.1328  0.3151  0.2766
11061TIP3    H233125   0.292   3.609   5.168 -0.2215 -2.2654  0.5492
11062TIP3   OH233126   0.106   2.830   5.422 -0.4057 -0.0837  0.1255
11062TIP3    H133127   0.023   2.849   5.378 -1.1446  1.0521  1.9470
11062TIP3    H233128   0.084   2.763   5.486  0.1864 -0.0854  0.3270
11063TIP3   OH233129   0.585   4.609   5.733  0.2288 -0.0421 -0.1072
11063TIP3    H133130   0.501   4.611   5.779 -0.4155 -0.1306 -1.2571
11063TIP3    H233131   0.619   4.698   5.741 -0.3725  0.2123 -0.3631
11064TIP3   OH233132   7.965   4.189   4.820  0.4187  0.3339  0.3181
11064TIP3    H133133   8.056   4.184   4.789 -0.3207 -0.1320 -1.8669
11064TIP3    H233134   7.956   4.115   4.879  0.7131 -1.2308 -1.5563
11065TIP3   OH233135   8.399   2.954   6.782 -0.3318  0.1721  0.3692
11065TIP3    H133136   8.386   3.011   6.706 -1.3867  0.3385  0.6675
11065TIP3    H233137   8.426   3.014   6.852  0.4335  0.0457  0.1900
11066TIP3   OH233138   2.017   4.399   5.928  0.0318  0.1063 -0.1373
11066TIP3    H133139   2.076   4.474   5.924 -0.1343  0.2264 -0.3511
11066TIP3    H233140   2.074   4.323   5.943 -0.0451  0.6450  3.3220
11067TIP3   OH233141   2.243   3.119   6.027 -0.2847  0.0626  0.2130
11067TIP3    H133142   2.163   3.169   6.042 -0.6176  0.2811 -2.1104
11067TIP3    H233143   2.218   3.052   5.964  1.1066 -0.6137  0.3500
11068TIP3   OH233144   1.593   2.608   6.104 -0.2702  0.1227 -0.7061
11068TIP3    H133145   1.611   2.528   6.153 -0.0367  0.4560 -0.2459
11068TIP3    H233146   1.503   2.631   6.128  0.1463  0.7723  0.2582
11069TIP3   OH233147   8.423   2.230   5.883 -0.0278 -0.3895  0.7362
11069TIP3    H133148   8.380   2.151   5.915  1.0596 -0.9437  0.8699
11069TIP3    H233149   8.404   2.231   5.789  2.7319 -2.6610  0.0714
11070TIP3   OH233150   7.035   3.865   5.575  0.1013 -0.3187 -0.3719
11070TIP3    H133151   7.057   3.826   5.490  0.6599  0.2862 -0.5102
11070TIP3    H233152   7.096   3.938   5.584  0.2784 -0.5969  0.7148
11071TIP3   OH233153   8.374   2.144   4.336 -0.0819 -0.3922 -0.2442
11071TIP3    H133154   8.379   2.238   4.319  0.8917 -0.6776 -1.6944
11071TIP3    H233155   8.464   2.120   4.360 -0.4221 -0.8751  0.5441
11072TIP3   OH233156   1.394   3.987   3.520 -0.3379  0.0388 -0.4529
11072TIP3    H133157   1.398   3.909   3.576 -1.8750  0.7105  0.6370
11072TIP3    H233158   1.436   4.056   3.571 -0.3346  0.2805 -0.7779
11073TIP3   OH233159   7.897   4.752   5.186 -0.6233  0.1497  0.1050
11073TIP3    H133160   7.844   4.739   5.107  1.6419 -0.3447 -1.3929
11073TIP3    H233161   7.981   4.711   5.165 -0.0821 -0.2636  2.9114
11074TIP3   OH233162   0.893   0.472   5.949 -0.1158 -0.0104  0.4074
11074TIP3    H133163   0.827   0.541   5.946  0.7750  0.8623  0.6901
11074TIP3    H233164   0.949   0.489   5.873  1.5963  1.1090  1.8751
11075TIP3   OH233165   6.248   3.543   5.637  0.2750  0.2430  0.0522
11075TIP3    H133166   6.181   3.595   5.681  0.3362  0.8647 -0.5777
11075TIP3    H233167   6.307   3.608   5.599  0.0882 -0.2784 -1.1390
11076TIP3   OH233168   8.275   4.242   5.854  0.0682  0.3476 -0.0467
11076TIP3    H133169   8.318   4.295   5.787 -0.8060  1.4581  0.2601
11076TIP3    H233170   8.183   4.240   5.828 -0.2853  0.8040  1.1233
11077TIP3   OH233171   2.272   3.728   5.538  0.5238 -0.1577 -0.1767
11077TIP3    H133172   2.238   3.767   5.458 -0.0609 -0.4332 -0.0634
11077TIP3    H233173   2.264   3.634   5.524 -0.0404 -0.1965  0.4079
11078TIP3   OH233174   0.781   5.515   4.305 -0.5143 -0.3067 -0.0336
11078TIP3    H133175   0.730   5.567   4.367  2.3625 -0.2938  2.3996
11078TIP3    H233176   0.869   5.551   4.309  0.5095 -2.4862 -1.6651
11079TIP3   OH233177   3.064   7.938   0.017 -0.4163 -0.4201 -0.2382
11079TIP3    H133178   3.017   8.021   0.008 -0.9703 -0.9463 -2.7275
11079TIP3    H233179   3.069   7.922   0.111 -3.2692  0.7772  0.1504
11080TIP3   OH233180   0.215   3.058   5.408  0.0894 -0.2700  0.1685
11080TIP3    H133181   0.240   3.032   5.319  1.0187 -1.5745  0.8041
11080TIP3    H233182   0.166   2.983   5.442 -0.1159  0.1567  0.8246
11081TIP3   OH233183   5.393   8.095   6.081 -0.1304 -0.3572 -0.5601
11081TIP3    H133184   5.459   8.079   6.013  2.4596  0.5108  1.6680
11081TIP3    H233185   5.357   8.008   6.100  1.0885 -1.0050 -1.1044
11082TIP3   OH233186   8.189   4.984   4.312  0.5252  0.0710  0.3567
11082TIP3    H133187   8.227   5.072   4.319  1.3611 -0.2135 -0.5889
11082TIP3    H233188   8.104   4.999   4.269  0.1494  0.5417  1.2367
11083TIP3   OH233189   6.943   3.918   6.659  0.2357  0.4020  0.3629
11083TIP3    H133190   6.908   3.854   6.720  0.8030 -0.2071  0.0542
11083TIP3    H233191   6.997   3.867   6.599 -0.3275  1.0025 -0.6534
11084TIP3   OH233192   0.446   5.529   3.837  0.5376  0.5238  0.2400
11084TIP3    H133193   0.360   5.503   3.803  1.0601  1.4445 -1.9155
11084TIP3    H233194   0.462   5.471   3.911 -1.2585 -0.7021 -0.3096
11085TIP3   OH233195   5.731   2.011   0.007 -0.3806 -0.1277 -0.2299
11085TIP3    H133196   5.739   2.055   0.091 -0.6515 -0.3485 -0.0873
11085TIP3    H233197   5.643   1.975   0.006 -0.9922  1.3495 -1.3380
11086TIP3   OH233198   7.548   4.795   2.342 -0.4051 -0.3018 -0.1960
11086TIP3    H133199   7.527   4.784   2.435 -2.0832 -2.0158 -0.7367
11086TIP3    H233200   7.632   4.841   2.342 -1.4790  1.7998  2.1288
11087TIP3   OH233201   7.642   4.299   4.837  0.0082 -0.3428  0.3603
11087TIP3    H133202   7.735   4.318   4.846  0.1840 -0.9154 -0.2068
11087TIP3    H233203   7.623   4.235   4.906 -0.4672  1.4286  1.9223
11088TIP3   OH233204   6.887   4.726   5.912  0.2748 -0.3085  0.1111
11088TIP3    H133205   6.946   4.744   5.986  0.3219  1.1226 -0.2544
11088TIP3    H233206   6.945   4.718   5.837  0.1002 -0.0592 -0.0526
11089TIP3   OH233207   0.124   2.384   6.261 -0.4812  0.3171  0.0731
11089TIP3    H133208   0.065   2.338   6.321  0.4671 -1.3974 -0.2639
11089TIP3    H233209   0.089   2.366   6.174  1.1085 -1.6740 -0.2137
11090TIP3   OH233210   0.158   4.956   6.388  0.2193  0.6207  0.2399
11090TIP3    H133211   0.065   4.958   6.365  0.1966  0.0404  0.2763
11090TIP3    H233212   0.184   5.048   6.389 -0.4650  0.8131  0.6913
11091TIP3   OH233213   8.179   2.642   4.924 -0.0481 -0.1625 -0.1064
11091TIP3    H133214   8.138   2.591   4.994 -0.2687 -0.4222 -0.4235
11091TIP3    H233215   8.106   2.688   4.882 -0.3531 -2.5035 -2.2280
11092TIP3   OH233216   7.411   3.463   4.427 -0.2369  0.0493  0.0781
11092TIP3    H133217   7.425   3.444   4.520 -1.8447  0.1549  0.3617
11092TIP3    H233218   7.422   3.379   4.384  0.8591  0.0637  0.3256
11093TIP3   OH233219   8.087   3.966   5.748  0.0557  0.0108  0.4752
11093TIP3    H133220   8.081   3.961   5.653 -0.2099 -1.5431  0.5654
11093TIP3    H233221   8.050   4.051   5.770  0.8381  0.7159 -0.8680
11094TIP3   OH233222   2.479   5.750   0.375  0.1723 -0.3391  0.0772
11094TIP3    H133223   2.482   5.677   0.313 -0.2224 -1.6410  1.5689
11094TIP3    H233224   2.534   5.722   0.448  1.1587  1.4472  0.0635
11095TIP3   OH233225   8.603   3.015   4.759  0.4001 -0.4184  0.3840
11095TIP3    H133226   8.533   2.957   4.730  1.2081 -1.2054 -0.0113
11095TIP3    H233227   8.658   3.027   4.681 -0.4285  1.8583  0.1181
11096TIP3   OH233228   8.015   4.089   3.221 -0.7562 -0.0411 -0.3513
11096TIP3    H133229   7.987   4.050   3.139  1.9575 -1.8519 -0.4683
11096TIP3    H233230   8.007   4.018   3.285 -0.1674  0.5492  0.3783
11097TIP3   OH233231   6.343   4.205   4.853 -0.3546 -0.2569 -0.1855
11097TIP3    H133232   6.395   4.234   4.928  1.1021 -0.5822 -1.0490
11097TIP3    H233233   6.287   4.279   4.833  0.0549  0.2520  0.5064
11098TIP3   OH233234   8.201   2.216   2.963  0.2189 -0.5012  0.3874
11098TIP3    H133235   8.286   2.240   2.926  0.0084  1.2683  0.9964
11098TIP3    H233236   8.137   2.265   2.910 -0.3766 -1.2938  0.3673
11099TIP3   OH233237   5.963   3.621   3.992  0.4573  0.1501  0.5119
11099TIP3    H133238   5.909   3.693   3.957  0.0067 -0.7398 -0.6688
11099TIP3    H233239   5.951   3.626   4.086  0.1421  1.4114  0.4203
11100TIP3   OH233240   8.102   1.526   6.451  1.1448 -0.4069 -0.3454
11100TIP3    H133241   8.053   1.582   6.391 -0.4107 -0.9489  0.3826
11100TIP3    H233242   8.182   1.575   6.469 -1.5575  3.2349  2.8073
11101TIP3   OH233243   8.452   4.273   6.307  0.6333 -0.0977  0.0034
11101TIP3    H133244   8.440   4.312   6.394 -0.5015 -0.1720 -0.1226
11101TIP3    H233245   8.372   4.223   6.291  1.3361 -1.0594 -0.5819
11102TIP3   OH233246   6.675   3.177   3.947 -0.1965  0.0777 -0.1359
11102TIP3    H133247   6.747   3.163   4.008  0.3253  2.8013 -0.0712
11102TIP3    H233248   6.675   3.099   3.891  1.2218 -1.0615  1.4176
11103TIP3   OH233249   0.573   4.633   6.148  0.5317 -0.3841 -0.2533
11103TIP3    H133250   0.661   4.649   6.115  0.4840 -2.2798 -1.4442
11103TIP3    H233251   0.552   4.709   6.202  1.8724  1.3347 -2.0793
11104TIP3   OH233252   1.580   4.178   3.661  0.1520 -0.1804 -0.3573
11104TIP3    H133253   1.657   4.122   3.648  0.3400  0.2828 -1.2259
11104TIP3    H233254   1.564   4.174   3.755  1.5546  0.1386 -0.0943
11105TIP3   OH233255   7.888   1.728   4.860 -0.3513 -0.0792  0.3213
11105TIP3    H133256   7.879   1.818   4.892  1.0447  0.1302  0.1578
11105TIP3    H233257   7.801   1.690   4.872 -0.5447  0.8004  1.9086
11106TIP3   OH233258   5.566   3.394   6.315  0.3756  0.2157  0.1987
11106TIP3    H133259   5.539   3.469   6.262 -0.6322  0.3087  0.8423
11106TIP3    H233260   5.658   3.411   6.334 -0.1544  1.9078  1.3793
11107TIP3   OH233261   7.594   3.656   4.618 -0.0524  0.2608 -0.1433
11107TIP3    H133262   7.670   3.610   4.582 -0.0319 -0.5726  0.9523
11107TIP3    H233263   7.540   3.588   4.657  0.7235  1.2748  2.8970
11108TIP3   OH233264   8.122   3.003   5.067  0.1910  0.0682 -0.0317
11108TIP3    H133265   8.067   2.925   5.073  1.1923 -1.0366 -3.7372
11108TIP3    H233266   8.062   3.073   5.043 -0.5573  0.2543  2.3004
11109TIP3   OH233267   8.153   2.802   6.858 -0.2848 -0.4896  0.0554
11109TIP3    H133268   8.243   2.834   6.862  0.0168 -1.0870 -1.3907
11109TIP3    H233269   8.102   2.878   6.831  0.1274 -0.6923 -1.3358
11110TIP3   OH233270   8.509   4.220   4.880 -0.4310  0.1480  0.0376
11110TIP3    H133271   8.592   4.261   4.904 -1.7306  0.7661  3.7221
11110TIP3    H233272   8.491   4.157   4.951 -2.4207 -1.0136 -1.4183
11111TIP3   OH233273   7.876   2.651   4.850 -0.2654  0.0186  0.3536
11111TIP3    H133274   7.926   2.647   4.768  0.4110  0.8491  0.7127
11111TIP3    H233275   7.815   2.578   4.845  0.3772 -0.4642 -0.5011
11112TIP3   OH233276   6.254   3.958   4.783  0.2436  0.2326 -0.2508
11112TIP3    H133277   6.311   3.942   4.708 -1.2128  1.0530 -1.5660
11112TIP3    H233278   6.287   4.039   4.821  1.8014 -0.8684  0.8161
11113TIP3   OH233279   7.368   5.022   2.304  0.1317 -0.3340 -0.1724
11113TIP3    H133280   7.425   4.945   2.297 -0.0137 -0.3663 -1.1407
11113TIP3    H233281   7.427   5.097   2.292 -0.0197 -0.3676 -1.1973
11114TIP3   OH233282   2.488   7.770   0.810  0.0084 -0.6164  0.4088
11114TIP3    H133283   2.520   7.708   0.875  1.0617  0.6211  1.0924
11114TIP3    H233284   2.498   7.856   0.851 -1.5866  0.0144 -0.4559
11115TIP3   OH233285   8.412   3.466   3.548  0.1460  0.4732 -0.4467
11115TIP3    H133286   8.497   3.451   3.508 -1.0459  0.0193 -2.8932
11115TIP3    H233287   8.402   3.561   3.549  0.4353  0.5058 -0.6509
11116TIP3   OH233288   7.872   2.455   4.571 -0.0493 -0.0662 -0.4903
11116TIP3    H133289   7.821   2.394   4.519 -0.3277 -0.1255 -0.1525
11116TIP3    H233290   7.894   2.526   4.511 -1.5608  0.5462 -0.3491
11117TIP3   OH233291   5.424   2.331   1.167  0.3581  0.1082  0.0485
11117TIP3    H133292   5.453   2.386   1.094  0.2028  1.0623  0.7018
11117TIP3    H233293   5.504   2.313   1.217  0.4799 -0.6191 -0.3951
11118TIP3   OH233294   7.124   4.281   2.429  0.1660  0.2543  0.5368
11118TIP3    H133295   7.081   4.367   2.433  1.0630  0.6847  1.1911
11118TIP3    H233296   7.154   4.265   2.519  1.8741  0.2215 -0.0201
11119TIP3   OH233297   6.910   3.547   4.904  0.2229 -0.4481 -0.7592
11119TIP3    H133298   6.848   3.510   4.968 -1.5756  1.1176 -1.5593
11119TIP3    H233299   6.996   3.532   4.943 -0.7811 -0.5933  1.4828
11120TIP3   OH233300   0.566   4.133   5.343 -0.1611 -0.0120  0.5157
11120TIP3    H133301   0.607   4.170   5.265 -0.3588  0.1000  0.4657
11120TIP3    H233302   0.478   4.171   5.344  0.1373  0.6648  1.2716
11121TIP3   OH233303   1.376   5.302   5.792 -0.0603  0.3167  0.2166
11121TIP3    H133304   1.309   5.253   5.744 -0.8227 -0.4109  1.9812
11121TIP3    H233305   1.435   5.335   5.724 -1.4311 -0.2010 -1.2550
11122TIP3   OH233306   0.656   5.150   5.397 -0.0233 -0.3343  0.7211
11122TIP3    H133307   0.651   5.062   5.435  1.2254  0.1568  2.0709
11122TIP3    H233308   0.649   5.209   5.472 -3.8520  0.8485 -0.4247
11123TIP3   OH233309   8.140   3.700   5.747  0.2242 -0.2676 -0.1999
11123TIP3    H133310   8.076   3.766   5.772 -0.4452 -0.7744 -0.5594
11123TIP3    H233311   8.204   3.748   5.695  1.5456  0.7627  2.2892
11124TIP3   OH233312   6.860   4.045   4.258  0.2530 -0.2638  1.2868
11124TIP3    H133313   6.895   4.058   4.346  3.1395 -1.8429  0.4550
11124TIP3    H233314   6.925   3.990   4.214 -2.6755 -2.2575 -0.8216
11125TIP3   OH233315   8.529   1.647   4.655  0.0741  0.0361  0.1856
11125TIP3    H133316   8.567   1.701   4.724  0.2783  0.8753 -0.5705
11125TIP3    H233317   8.516   1.561   4.696 -0.9306  0.8499  1.6076
11126TIP3   OH233318   6.185   0.155   5.368 -0.3211 -0.0816  0.2854
11126TIP3    H133319   6.260   0.210   5.390  0.6255 -0.7108 -1.3360
11126TIP3    H233320   6.215   0.101   5.296 -1.8710 -1.3857  0.5958
11127TIP3   OH233321   7.298   3.347   5.844 -0.1745 -0.0128  0.4209
11127TIP3    H133322   7.260   3.330   5.931 -2.0160 -2.2245 -0.7712
11127TIP3    H233323   7.265   3.434   5.821 -0.3809  0.2293  1.5675
11128TIP3   OH233324   6.587   2.471   5.749  0.1523  0.8552 -0.1262
11128TIP3    H133325   6.541   2.553   5.764  0.5546  0.8675  1.1554
11128TIP3    H233326   6.661   2.474   5.810  0.0515 -0.5364  0.0810
11129TIP3   OH233327   5.235   0.370   1.103  0.6938  0.0145  0.0418
11129TIP3    H133328   5.269   0.371   1.013  3.2448 -0.8820  0.9405
11129TIP3    H233329   5.199   0.283   1.114 -0.3272  0.3810 -0.3457
11130TIP3   OH233330   8.189   3.521   2.629 -0.2851 -0.1580 -0.1497
11130TIP3    H133331   8.259   3.484   2.682  0.4919  0.9850 -0.3321
11130TIP3    H233332   8.222   3.516   2.539  0.1966  1.6748 -0.1057
11131TIP3   OH233333   6.934   3.261   6.179  0.5063  0.1948 -0.0621
11131TIP3    H133334   6.870   3.210   6.229  2.1086 -1.7912  0.0731
11131TIP3    H233335   7.018   3.241   6.222  1.2539  2.5503 -0.3620
11132TIP3   OH233336   7.159   3.629   3.775  0.0993  0.2808  0.1114
11132TIP3    H133337   7.231   3.642   3.837  0.2960 -1.2974  0.2350
11132TIP3    H233338   7.195   3.654   3.690  0.6393 -0.0607  0.2433
11133TIP3   OH233339   7.958   1.616   4.138  0.8380  0.4734  0.1866
11133TIP3    H133340   7.945   1.637   4.230 -0.3935  2.3735 -0.3888
11133TIP3    H233341   7.872   1.585   4.108  0.9488  0.8834 -0.5686
11134TIP3   OH233342   7.137   4.711   5.179 -0.6767  0.0008 -0.6728
11134TIP3    H133343   7.208   4.742   5.234 -1.0537  1.1346 -0.8063
11134TIP3    H233344   7.125   4.619   5.204 -1.4261  0.7189  1.7502
11135TIP3   OH233345   0.013   0.031   4.771 -0.0319  0.1003  0.4398
11135TIP3    H133346  -0.037  -0.004   4.845 -0.6596 -0.6371 -0.3284
11135TIP3    H233347   0.068   0.099   4.810  0.8221 -1.3784  1.8503
11136TIP3   OH233348   8.285   5.729   3.748  0.2498  0.0077 -0.8896
11136TIP3    H133349   8.307   5.750   3.657 -0.6798  0.5790 -0.9914
11136TIP3    H233350   8.346   5.660   3.773  0.2501 -0.4206 -2.0718
11137TIP3   OH233351   1.023   3.406   5.631  0.5610  0.2502 -0.1669
11137TIP3    H133352   1.094   3.397   5.567  0.2990  0.0454 -0.4321
11137TIP3    H233353   1.065   3.444   5.708  0.8368  0.7002 -0.5325
11138TIP3   OH233354   0.252   2.637   4.323 -0.0454  0.1058  0.1383
11138TIP3    H133355   0.297   2.561   4.285  1.0960  0.0583  1.5632
11138TIP3    H233356   0.282   2.711   4.271  2.4539  0.2062  1.6744
11139TIP3   OH233357   7.973   3.511   5.604 -0.0025 -0.2801  0.0042
11139TIP3    H133358   7.883   3.544   5.598 -0.4100 -1.2824  0.4552
11139TIP3    H233359   8.021   3.580   5.651 -0.9882 -0.6110  1.5404
11140TIP3   OH233360   2.421   6.028   0.419  0.0070 -0.1588 -0.2211
11140TIP3    H133361   2.468   5.946   0.436  0.0651  0.4353  2.7375
11140TIP3    H233362   2.329   6.006   0.434 -0.2030 -0.1836 -1.5028
11141TIP3   OH233363   5.834   4.746   5.649 -0.0768 -0.0903 -0.5714
11141TIP3    H133364   5.864   4.728   5.738  0.0583  0.7035 -0.4564
11141TIP3    H233365   5.740   4.728   5.651 -0.1201  0.1761 -0.2058
11142TIP3   OH233366   8.280   3.404   4.560  0.0360 -0.2056  0.3517
11142TIP3    H133367   8.363   3.443   4.531  0.1201 -0.0049  0.8582
11142TIP3    H233368   8.306   3.324   4.606 -0.1051 -0.6017 -0.2570
11143TIP3   OH233369   0.747   1.482   6.665 -0.7416  0.4819 -0.2743
11143TIP3    H133370   0.740   1.570   6.702  0.5770  0.7564 -0.6769
11143TIP3    H233371   0.671   1.475   6.607  0.0950  2.0190 -1.6004
11144TIP3   OH233372   7.675   3.572   3.566 -0.2409 -0.1792  0.2071
11144TIP3    H133373   7.736   3.638   3.533 -0.7361  0.0718 -0.2166
11144TIP3    H233374   7.659   3.515   3.491 -0.1032 -0.5650  0.4716
11145TIP3   OH233375   0.647   3.503   5.417  0.3032  0.0714 -0.1633
11145TIP3    H133376   0.632   3.461   5.501  0.3901 -1.2714 -0.8138
11145TIP3    H233377   0.638   3.597   5.435  0.5190 -0.1966  1.3690
11146TIP3   OH233378   6.822   0.624   0.051 -0.3714  0.3768  0.3554
11146TIP3    H133379   6.899   0.680   0.046  1.1079 -1.6271  0.2372
11146TIP3    H233380   6.797   0.609  -0.040  0.7997 -1.2410  0.2830
11147TIP3   OH233381   0.979   4.530   3.852  0.0370 -0.2968  0.5644
11147TIP3    H133382   1.006   4.610   3.806 -0.7871 -0.1799  0.2935
11147TIP3    H233383   0.988   4.552   3.945 -0.8090  0.3222  0.4986
11148TIP3   OH233384   8.136   6.987   3.939 -0.4420 -0.3021 -0.0203
11148TIP3    H133385   8.136   6.960   4.031 -1.0052  1.4887  0.5310
11148TIP3    H233386   8.132   6.906   3.890  0.8049 -1.3280  1.5268
11149TIP3   OH233387   8.037   4.090   6.706 -1.0976  0.3889  0.3685
11149TIP3    H133388   8.052   3.996   6.702 -0.4354  0.5382 -0.8804
11149TIP3    H233389   8.036   4.110   6.800  1.0051 -0.5202  0.6177
11150TIP3   OH233390   5.841   5.388   6.234 -0.4964  0.9378 -0.2615
11150TIP3    H133391   5.805   5.474   6.257  1.8823  1.5890  1.3197
11150TIP3    H233392   5.869   5.397   6.143  0.1252  2.0146  0.0224
11151TIP3   OH233393   0.178   1.934   4.165  0.0845  1.1235  0.0143
11151TIP3    H133394   0.089   1.932   4.131  0.0973 -0.2663  0.0490
11151TIP3    H233395   0.194   2.027   4.185 -1.7341  1.2367  1.0374
11152TIP3   OH233396   1.176   2.806   4.819  0.1680  0.0889 -0.1339
11152TIP3    H133397   1.217   2.836   4.900 -2.7827 -1.3474  1.9846
11152TIP3    H233398   1.089   2.847   4.820 -0.5118 -1.2386 -1.7565
11153TIP3   OH233399   7.758   0.913   5.693 -0.1092 -0.2434 -0.2252
11153TIP3    H133400   7.810   0.857   5.635 -1.6191 -2.2332  0.2643
11153TIP3    H233401   7.757   0.866   5.777 -2.3878 -0.1133 -0.1386
11154TIP3   OH233402   5.588   2.180   5.232 -0.1800 -0.0969  0.0043
11154TIP3    H133403   5.603   2.170   5.138 -0.4395 -1.5320  0.1060
11154TIP3    H233404   5.493   2.179   5.242 -0.1275 -2.3590  0.5093
11155TIP3   OH233405   0.161   1.211   4.402 -0.1630  0.0932 -0.4987
11155TIP3    H133406   0.167   1.213   4.497  1.1061  0.3546 -0.5699
11155TIP3    H233407   0.192   1.297   4.374 -0.2821 -0.0701 -1.1557
11156TIP3   OH233408   1.271   3.574   2.021  0.4304  0.3658 -0.5001
11156TIP3    H133409   1.296   3.493   1.976 -1.3329  0.0091 -0.8578
11156TIP3    H233410   1.188   3.600   1.980  0.2096  1.5439  0.6563
11157TIP3   OH233411   7.914   2.062   3.798 -0.4431  0.8461 -0.1170
11157TIP3    H133412   7.832   2.087   3.842  1.2891  1.4209  2.9266
11157TIP3    H233413   7.914   1.966   3.801 -1.0303  0.8376 -0.2344
11158TIP3   OH233414   0.303   4.275   5.054 -0.0005 -0.7700  0.1857
11158TIP3    H133415   0.275   4.280   5.145 -1.2727 -0.8686 -0.1883
11158TIP3    H233416   0.291   4.364   5.020  0.5259 -0.7193  0.1326
11159TIP3   OH233417   8.009   4.751   6.683 -0.0590 -0.2477  0.1942
11159TIP3    H133418   8.072   4.694   6.728  1.0433  0.8733  0.0945
11159TIP3    H233419   7.933   4.752   6.741 -0.0228 -1.6616  0.2904
11160TIP3   OH233420   0.766   4.846   4.405 -0.4616 -0.2564  0.8390
11160TIP3    H133421   0.828   4.845   4.478 -0.0740 -0.5203  0.5061
11160TIP3    H233422   0.768   4.757   4.371  1.2275  0.4493 -1.0601
11161TIP3   OH233423   6.875   3.683   6.845 -0.0745 -0.4995 -0.3222
11161TIP3    H133424   6.793   3.699   6.799 -0.5783  0.0761  0.7443
11161TIP3    H233425   6.857   3.606   6.900  0.1309 -0.4485 -0.1812
11162TIP3   OH233426   5.547   0.578   0.616 -0.3039  0.5489 -0.1461
11162TIP3    H133427   5.565   0.669   0.639  1.2171  0.4509 -0.9082
11162TIP3    H233428   5.566   0.573   0.523  2.2172 -1.1680  0.4220
11163TIP3   OH233429   8.445   4.900   3.505  0.4462 -0.1804  0.0070
11163TIP3    H133430   8.500   4.857   3.570  2.7069  0.9822 -1.0858
11163TIP3    H233431   8.464   4.993   3.515 -1.4992  0.2779 -0.2725
11164TIP3   OH233432   8.130   4.248   5.578 -0.4378 -0.0502 -0.0970
11164TIP3    H133433   8.066   4.236   5.648 -0.5148 -1.0974 -0.3432
11164TIP3    H233434   8.078   4.271   5.501 -0.5551 -1.2561 -0.3849
11165TIP3   OH233435   8.041   5.191   5.349  0.0944 -0.1356  0.5371
11165TIP3    H133436   8.080   5.124   5.293  0.8872  0.2438  0.6241
11165TIP3    H233437   8.023   5.264   5.290 -0.5090 -0.3142  0.4953
11166TIP3   OH233438   2.598   5.056   5.594  0.0902  0.2477  0.2764
11166TIP3    H133439   2.519   5.064   5.541  0.1269 -1.7578 -0.1216
11166TIP3    H233440   2.645   5.139   5.581 -1.2510  0.8876 -0.5858
11167TIP3   OH233441  -0.006   3.797   5.672  0.4328 -0.5137 -0.4210
11167TIP3    H133442   0.007   3.863   5.605 -0.8873  0.8171  0.5949
11167TIP3    H233443   0.042   3.829   5.748  0.0678 -0.8848 -0.0260
11168TIP3   OH233444   6.203   0.587   1.492 -0.0820 -0.7894  0.2474
11168TIP3    H133445   6.214   0.673   1.533 -2.3219  0.0282 -0.7634
11168TIP3    H233446   6.210   0.605   1.398 -2.9847 -1.2819 -0.0967
11169TIP3   OH233447   8.142   2.807   4.252 -0.2450  0.7866  0.9883
11169TIP3    H133448   8.051   2.837   4.255 -0.8219 -0.8131  0.3158
11169TIP3    H233449   8.152   2.751   4.329 -0.0909  0.2812  0.6072
11170TIP3   OH233450   8.347   2.382   6.920 -0.4264  0.4779 -0.3339
11170TIP3    H133451   8.348   2.429   6.837 -2.7655  0.3507 -0.4577
11170TIP3    H233452   8.292   2.435   6.977 -1.2156 -0.9056  0.2315
11171TIP3   OH233453   6.619   4.618   5.299  0.7543  0.3922 -0.0098
11171TIP3    H133454   6.647   4.606   5.208 -2.1697 -1.5503 -0.7145
11171TIP3    H233455   6.587   4.708   5.302  3.0883  1.2730 -0.2314
11172TIP3   OH233456   0.453   1.181   3.970 -0.8709  0.0687 -0.0147
11172TIP3    H133457   0.484   1.138   3.890 -0.9440  1.2384 -0.6789
11172TIP3    H233458   0.359   1.193   3.956 -0.6084  1.7505 -0.4642
11173TIP3   OH233459   0.713   1.835   4.812 -0.1171 -0.4713  0.3525
11173TIP3    H133460   0.671   1.804   4.731  0.1873 -0.1971  0.0927
11173TIP3    H233461   0.645   1.887   4.855  0.1113  0.3970 -0.3155
11174TIP3   OH233462   4.832   7.845   5.453  0.1400  0.7083 -0.0354
11174TIP3    H133463   4.805   7.800   5.533 -2.5047  0.1577 -1.1586
11174TIP3    H233464   4.844   7.774   5.389 -2.3399  1.4097 -1.3465
11175TIP3   OH233465   3.617   6.713   0.040  0.2112 -0.4823  0.3281
11175TIP3    H133466   3.629   6.619   0.051 -0.2466 -0.5652  0.1490
11175TIP3    H233467   3.552   6.737   0.106  0.0836 -0.3530  0.1574
11176TIP3   OH233468   6.551   2.971   5.636  0.6161 -0.1909  0.3349
11176TIP3    H133469   6.546   2.924   5.552  2.3639  0.0192  0.1103
11176TIP3    H233470   6.476   3.031   5.634  0.4481 -0.4311 -0.9274
11177TIP3   OH233471   2.062   3.528   5.834 -0.0436 -0.2900 -0.2943
11177TIP3    H133472   2.032   3.610   5.794 -1.0469  0.2040  1.4304
11177TIP3    H233473   2.083   3.551   5.924 -0.0852 -1.8833  0.1440
11178TIP3   OH233474   0.079   5.798   5.987 -0.4101  0.0141 -0.0335
11178TIP3    H133475  -0.013   5.781   5.968 -0.3419  0.1880 -0.5196
11178TIP3    H233476   0.102   5.872   5.931  0.4340 -0.9670 -0.9884
11179TIP3   OH233477   5.525   2.258   1.882 -0.5119 -0.6883 -0.0489
11179TIP3    H133478   5.500   2.223   1.967 -2.6891 -0.3661 -0.5036
11179TIP3    H233479   5.441   2.278   1.839  0.5122 -1.5576 -2.5645
11180TIP3   OH233480   5.950   7.566   0.112 -0.3642 -0.0016 -0.1220
11180TIP3    H133481   5.925   7.475   0.131 -0.8308  0.2803  0.6657
11180TIP3    H233482   5.965   7.568   0.018 -0.5618 -0.8536 -0.1739
11181TIP3   OH233483   1.996   7.777   0.154  0.2781 -0.7705  0.1659
11181TIP3    H133484   2.031   7.719   0.222  1.7221  0.3170  0.3839
11181TIP3    H233485   2.060   7.772   0.084 -1.1456 -1.7911 -1.0837
11182TIP3   OH233486   5.647   1.902   2.114  0.0162  0.2763 -0.3198
11182TIP3    H133487   5.572   1.842   2.114  0.1987  0.0465  0.0176
11182TIP3    H233488   5.660   1.924   2.206  0.8470 -0.2993 -0.2990
11183TIP3   OH233489   8.285   0.089   0.000 -0.7773 -0.7775 -0.3839
11183TIP3    H133490   8.331   0.030  -0.059 -0.6302  0.1424 -1.2043
11183TIP3    H233491   8.324   0.073   0.086 -0.8311 -1.9540 -0.5702
11184TIP3   OH233492   4.749   1.089   1.159 -0.1895  0.0133  0.0011
11184TIP3    H133493   4.678   1.025   1.164 -0.5868  0.5282  1.1548
11184TIP3    H233494   4.723   1.148   1.089 -0.8760  0.1575  0.3711
11185TIP3   OH233495   3.838   2.814   4.637  0.2146  0.1244  0.1114
11185TIP3    H133496   3.850   2.909   4.635  1.8773 -0.0862 -0.4169
11185TIP3    H233497   3.773   2.800   4.706  0.5765  1.5765  0.7735
11186TIP3   OH233498   0.542   4.543   6.411 -0.2526 -0.0556  0.5453
11186TIP3    H133499   0.621   4.589   6.440  0.3497 -1.4595  1.1848
11186TIP3    H233500   0.545   4.549   6.316  0.5740 -0.0074  0.5686
11187TIP3   OH233501   4.861   1.034   0.871  0.2723 -0.2590  0.7381
11187TIP3    H133502   4.866   0.939   0.873  2.2384 -0.2486 -1.2147
11187TIP3    H233503   4.781   1.053   0.823  0.8234 -0.9727 -0.4944
11188TIP3   OH233504   4.927   1.285   1.565 -0.0523 -0.7234 -0.0431
11188TIP3    H133505   5.007   1.249   1.528 -0.2941 -0.8695 -0.4296
11188TIP3    H233506   4.858   1.224   1.537 -0.1520 -1.1757  1.1631
11189TIP3   OH233507   5.666   0.294   1.335  0.3271 -0.0098  0.1125
11189TIP3    H133508   5.693   0.234   1.406  3.5833 -0.0210 -1.0327
11189TIP3    H233509   5.654   0.237   1.259 -0.4383  0.3259 -0.0186
11190TIP3   OH233510   1.163   5.035   6.198  0.2298 -0.1957 -0.1775
11190TIP3    H133511   1.217   5.088   6.139 -0.6160 -0.0366 -0.8129
11190TIP3    H233512   1.113   5.100   6.249 -0.0182 -0.3586 -0.2143
11191TIP3   OH233513   8.111   2.303   1.494  0.1087 -0.1220 -0.4357
11191TIP3    H133514   8.196   2.346   1.505 -0.0697  0.1909 -0.2718
11191TIP3    H233515   8.086   2.278   1.583 -0.1880  0.1992 -0.4286
11192TIP3   OH233516   3.605   0.462   2.567 -0.6019  0.4407  0.0033
11192TIP3    H133517   3.682   0.518   2.571 -0.7854  0.8055 -1.3368
11192TIP3    H233518   3.594   0.443   2.474 -0.6357 -1.7060  0.4115
11193TIP3   OH233519   6.587   0.782   0.053  0.0844 -0.0693  0.9041
11193TIP3    H133520   6.645   0.707   0.043  0.3396  0.3699 -1.1852
11193TIP3    H233521   6.608   0.838  -0.021 -1.3304  1.2363  1.4688
11194TIP3   OH233522   1.727   6.795   0.598 -0.0665  0.1834 -0.0061
11194TIP3    H133523   1.772   6.735   0.658  0.6483  1.1771  0.4667
11194TIP3    H233524   1.659   6.836   0.651 -0.4134 -0.0429 -0.2736
11195TIP3   OH233525   8.163   0.196   3.531 -0.1993 -0.1773 -0.0069
11195TIP3    H133526   8.144   0.284   3.498 -0.5072  0.0687  0.8236
11195TIP3    H233527   8.078   0.153   3.536 -0.0126 -0.6457 -0.7384
11196TIP3   OH233528   0.771   4.085   6.709  0.2851 -0.2420  0.3912
11196TIP3    H133529   0.678   4.107   6.719 -0.1281 -1.9151  0.4010
11196TIP3    H233530   0.790   4.026   6.782  0.8534 -1.4270 -0.7017
11197TIP3   OH233531   8.462   5.468   6.820 -0.4053  0.0665 -0.1756
11197TIP3    H133532   8.473   5.373   6.814 -1.6371 -0.1527  0.7055
11197TIP3    H233533   8.406   5.491   6.746 -0.3779  0.0552 -0.1993
11198TIP3   OH233534   7.727   0.126   2.810  0.3734 -0.0910 -0.6282
11198TIP3    H133535   7.821   0.144   2.810  0.7097 -1.7945 -0.6455
11198TIP3    H233536   7.702   0.126   2.718  0.8285 -2.0184 -0.7534
11199TIP3   OH233537   3.222   5.809   1.544 -0.5526  0.3233  0.1220
11199TIP3    H133538   3.277   5.858   1.606 -0.7313  2.0990 -1.0986
11199TIP3    H233539   3.284   5.777   1.478 -0.2798 -2.0293  1.4364
11200TIP3   OH233540   2.576   7.114   1.037 -0.5901  0.1366 -0.4428
11200TIP3    H133541   2.631   7.051   0.989  0.4863  0.2318  0.6398
11200TIP3    H233542   2.617   7.199   1.021 -1.4625  0.4447 -1.0798
11201TIP3   OH233543   0.746   4.854   5.779  0.0084 -0.3206  0.0847
11201TIP3    H133544   0.800   4.872   5.702 -0.2501 -0.6956 -0.1871
11201TIP3    H233545   0.712   4.940   5.805 -2.8227 -0.5782 -2.4035
11202TIP3   OH233546   0.061   0.814   1.694  0.2283 -0.2462 -0.3878
11202TIP3    H133547  -0.006   0.798   1.627 -0.1446 -1.9179  0.3746
11202TIP3    H233548   0.070   0.731   1.739  3.1981 -0.1770 -0.7979
11203TIP3   OH233549   0.136   3.627   4.799 -0.3645 -0.2196  0.2493
11203TIP3    H133550   0.155   3.609   4.706  0.6736  0.6736  0.2767
11203TIP3    H233551   0.136   3.541   4.840  1.2570 -0.4571 -0.2126
11204TIP3   OH233552   5.295   1.135   0.922 -0.0619  0.8703 -0.1272
11204TIP3    H133553   5.348   1.211   0.948 -0.0738  0.6255  0.6168
11204TIP3    H233554   5.295   1.078   0.999  0.5674 -0.2367 -0.9315
11205TIP3   OH233555   8.183   3.240   6.787  0.1814 -0.6116  0.4194
11205TIP3    H133556   8.212   3.295   6.860 -2.3530 -0.3053  1.2566
11205TIP3    H233557   8.119   3.180   6.826  0.1574 -1.6848 -1.2060
11206TIP3   OH233558   7.233   0.126   1.528  0.6458 -0.2128 -0.0931
11206TIP3    H133559   7.264   0.092   1.444 -0.0939  0.7982 -0.7969
11206TIP3    H233560   7.279   0.074   1.594  1.4392 -0.8384 -1.1230
11207TIP3   OH233561   2.270   5.485   6.790 -0.2380 -0.6748  0.4161
11207TIP3    H133562   2.283   5.564   6.738  1.3086 -1.1367  0.0604
11207TIP3    H233563   2.194   5.504   6.846 -0.9132  0.4222 -0.8537
11208TIP3   OH233564   7.081   0.187   0.328  0.0236  0.3830  0.8767
11208TIP3    H133565   7.124   0.102   0.338 -2.1192 -1.0199 -1.1879
11208TIP3    H233566   7.127   0.229   0.255 -1.1766 -0.5215 -0.4139
11209TIP3   OH233567   3.877   0.623   1.389 -0.2273 -0.5871  0.0135
11209TIP3    H133568   3.801   0.609   1.333  0.4811  0.2045 -1.1925
11209TIP3    H233569   3.879   0.718   1.402  1.7907 -0.3345 -1.8043
11210TIP3   OH233570   2.531   8.073   1.593 -0.3238  0.1466 -0.2286
11210TIP3    H133571   2.567   8.157   1.622  1.4869 -0.5492 -0.4023
11210TIP3    H233572   2.605   8.012   1.600 -1.3721 -1.2193 -1.0044
11211TIP3   OH233573   0.272   4.053   6.340  0.2836 -0.0907  0.0333
11211TIP3    H133574   0.298   4.143   6.320 -1.9770  0.7612  0.7672
11211TIP3    H233575   0.230   4.059   6.426  0.6008 -1.9370  0.3340
11212TIP3   OH233576   1.084   3.954   5.799 -0.7274 -0.2792  0.7374
11212TIP3    H133577   1.033   4.021   5.753 -1.3483 -1.8756 -0.9530
11212TIP3    H233578   1.153   4.003   5.843 -1.4748  1.5343 -0.0564
11213TIP3   OH233579   5.089   2.331   1.020  0.2953 -0.4745  0.2872
11213TIP3    H133580   5.128   2.353   0.935 -0.6441  1.1607  0.2609
11213TIP3    H233581   5.107   2.407   1.075 -0.7912 -0.7108  0.9736
11214TIP3   OH233582   8.425   3.880   6.831  0.3853  0.2676  0.4318
11214TIP3    H133583   8.383   3.909   6.751 -0.5477 -0.9712  0.4622
11214TIP3    H233584   8.420   3.955   6.890  1.1140  1.2005 -0.6601
11215TIP3   OH233585   6.769   2.170   0.827  0.8906 -0.3879  0.0616
11215TIP3    H133586   6.700   2.107   0.847  0.9605  0.0616  1.8906
11215TIP3    H233587   6.806   2.192   0.913 -0.0997  3.1880 -0.3336
11216TIP3   OH233588   2.335   5.092   5.440  0.3724 -0.4414 -0.2978
11216TIP3    H133589   2.297   5.026   5.381  1.5169 -0.1471 -1.3843
11216TIP3    H233590   2.312   5.176   5.400 -1.6241 -0.1250  1.4226
11217TIP3   OH233591   0.723   4.244   6.317  0.1359 -0.2670  0.5433
11217TIP3    H133592   0.637   4.256   6.358 -0.1706 -2.1813  0.4925
11217TIP3    H233593   0.785   4.241   6.390 -0.0106 -0.2809  0.6669
11218TIP3   OH233594   1.730   6.288   2.003 -0.0819  0.0749 -0.4244
11218TIP3    H133595   1.715   6.363   2.060  0.8740 -0.6742  0.8536
11218TIP3    H233596   1.721   6.212   2.061 -0.0813 -0.7564 -1.4947
11219TIP3   OH233597   7.717   3.663   5.673 -0.0902 -0.5187 -0.2885
11219TIP3    H133598   7.645   3.638   5.731 -1.4676  1.7570 -0.9151
11219TIP3    H233599   7.724   3.758   5.684  1.7373 -0.4883 -1.4892
11220TIP3   OH233600   2.578   4.647   6.424  0.2123 -0.0289 -0.1049
11220TIP3    H133601   2.608   4.727   6.382 -0.4941  0.7747  0.8995
11220TIP3    H233602   2.567   4.585   6.352  0.5999  0.8246 -0.9069
11221TIP3   OH233603   0.940   5.657   6.679  0.0140 -0.2640  0.4830
11221TIP3    H133604   0.884   5.597   6.630 -0.3138 -0.2859  0.8826
11221TIP3    H233605   0.988   5.706   6.612  0.6479 -1.3217  0.1546
11222TIP3   OH233606   6.760   0.423   0.972 -0.1285 -0.4495  0.5149
11222TIP3    H133607   6.755   0.379   0.887 -0.6294 -1.5320  1.0794
11222TIP3    H233608   6.673   0.460   0.986  0.2350  0.5587  0.1308
11223TIP3   OH233609   3.687   5.076   6.624  0.3820 -0.0829 -0.1210
11223TIP3    H133610   3.686   4.997   6.570 -2.2713 -1.4663  1.8575
11223TIP3    H233611   3.598   5.110   6.618  0.5931  0.8420  1.8000
11224TIP3   OH233612   5.862   2.716   0.122 -0.2156  0.1575 -0.2209
11224TIP3    H133613   5.876   2.655   0.050  2.7428 -1.8780  1.9508
11224TIP3    H233614   5.787   2.681   0.170  0.2394 -0.6770 -0.1144
11225TIP3   OH233615   7.274   0.766   0.504  0.2761  0.5820  1.0204
11225TIP3    H133616   7.300   0.852   0.471 -1.2956  1.0161  0.8689
11225TIP3    H233617   7.357   0.720   0.519  1.0887  0.9286 -2.0350
11226TIP3   OH233618   6.415   0.172   1.452 -0.0244 -0.0496 -0.1844
11226TIP3    H133619   6.357   0.219   1.393 -0.6633 -0.6033 -0.0034
11226TIP3    H233620   6.397   0.210   1.538  0.1485  0.0305 -0.1829
11227TIP3   OH233621   7.229   0.044   0.672  0.1875 -0.2381  0.1447
11227TIP3    H133622   7.147   0.030   0.718 -0.4871 -1.4835 -1.3855
11227TIP3    H233623   7.295   0.000   0.726 -0.3933 -0.5759  0.5859
11228TIP3   OH233624   5.684   7.762   1.480  0.4072  0.1486 -0.0119
11228TIP3    H133625   5.713   7.711   1.405 -1.1471  0.0673 -0.5708
11228TIP3    H233626   5.625   7.827   1.444 -0.1293  0.2941  1.1026
11229TIP3   OH233627   4.142   0.531   1.070 -0.0192  0.0693 -0.1757
11229TIP3    H133628   4.181   0.512   0.985 -0.4844  1.0530 -0.6106
11229TIP3    H233629   4.103   0.617   1.060 -1.3535 -0.4375  0.6002
11230TIP3   OH233630   4.887   7.146   0.222 -0.1150  0.4946 -0.0484
11230TIP3    H133631   4.921   7.176   0.306 -2.3838 -0.0332  1.0875
11230TIP3    H233632   4.897   7.051   0.224  1.3288  0.6027 -1.0792
11231TIP3   OH233633   1.330   2.901   6.958 -0.3911 -0.2103  0.2758
11231TIP3    H133634   1.247   2.948   6.961  0.2757  0.9895  0.3393
11231TIP3    H233635   1.395   2.965   6.988  0.7593 -0.6472 -1.1856
11232TIP3   OH233636   5.855   0.363   2.375 -0.5114 -0.4839 -0.5221
11232TIP3    H133637   5.793   0.323   2.314 -0.3651 -0.4869 -0.6704
11232TIP3    H233638   5.928   0.300   2.379 -0.5724 -0.5375 -0.2571
11233TIP3   OH233639   6.024   0.848  -0.014 -0.1167 -0.0084  0.6927
11233TIP3    H133640   5.993   0.826   0.074 -2.2316  0.1850  0.0306
11233TIP3    H233641   5.985   0.934  -0.032  0.3237 -0.0307 -0.4335
11234TIP3   OH233642   8.394   5.363   5.015 -0.8945  0.5724 -0.5168
11234TIP3    H133643   8.466   5.307   4.984  0.9862  2.1222  0.9453
11234TIP3    H233644   8.315   5.313   4.995  0.6498 -1.8071 -0.8989
11235TIP3   OH233645   7.676   0.874   0.281 -0.0841  0.0557  0.2530
11235TIP3    H133646   7.694   0.943   0.345  0.1011  0.6282 -0.4185
11235TIP3    H233647   7.731   0.895   0.206  0.0753 -0.8985  0.0944
11236TIP3   OH233648   4.383   7.211   0.958  0.1154 -0.0355 -0.2343
11236TIP3    H133649   4.455   7.154   0.982  0.4045 -0.1969 -1.4331
11236TIP3    H233650   4.405   7.242   0.870 -2.2903 -1.7861 -1.5107
11237TIP3   OH233651   3.341   7.827   2.252  0.3103 -0.5130  0.4992
11237TIP3    H133652   3.254   7.829   2.292  0.3049 -0.6420  0.4944
11237TIP3    H233653   3.326   7.854   2.161  0.3033 -0.3462  0.5502
11238TIP3   OH233654   6.189   1.564   2.049 -0.0847 -0.6254 -0.1292
11238TIP3    H133655   6.157   1.634   2.106  2.0241 -0.1012  0.4723
11238TIP3    H233656   6.254   1.607   1.993 -0.0815 -1.7380 -0.9942
11239TIP3   OH233657   2.492   8.141   0.540 -0.8272 -0.4702 -0.1564
11239TIP3    H133658   2.521   8.075   0.478  1.0388  0.2945 -0.1220
11239TIP3    H233659   2.413   8.103   0.580 -0.5002 -2.1170 -1.0315
11240TIP3   OH233660   0.758   3.740   5.936 -0.4404  0.3742 -0.0602
11240TIP3    H133661   0.783   3.832   5.947 -0.6742  0.4796 -0.4109
11240TIP3    H233662   0.686   3.742   5.874  0.0254 -0.1086 -0.6172
11241TIP3   OH233663   4.639   1.275   0.991 -0.3094 -0.3086 -0.4934
11241TIP3    H133664   4.647   1.276   0.896  2.3715  1.9190 -0.3078
11241TIP3    H233665   4.629   1.367   1.015 -2.6213 -0.9785  1.3026
11242TIP3   OH233666   5.198   6.813   0.103 -0.1902 -0.2492 -0.1367
11242TIP3    H133667   5.227   6.747   0.165 -1.2578  0.1089  0.7733
11242TIP3    H233668   5.119   6.851   0.143 -0.4740  0.5045 -1.3560
11243TIP3   OH233669   5.851   0.164   0.664 -0.2543  0.2518  0.3252
11243TIP3    H133670   5.762   0.130   0.660 -0.1828  0.2078 -1.7992
11243TIP3    H233671   5.842   0.256   0.640  0.2217  0.3265  0.4320
11244TIP3   OH233672   1.581   3.635   6.320 -0.2682 -0.8520  0.3090
11244TIP3    H133673   1.676   3.646   6.317 -0.3101 -0.6573 -0.6374
11244TIP3    H233674   1.546   3.720   6.293 -0.7617 -0.2476  2.7079
11245TIP3   OH233675   4.360   1.518   1.129 -0.0698  0.2851  0.6304
11245TIP3    H133676   4.372   1.427   1.158  1.5699  0.1312 -0.4537
11245TIP3    H233677   4.448   1.556   1.131 -0.7773  1.9405  1.3208
11246TIP3   OH233678   0.063   3.106   6.434  0.2057  0.2156 -1.0750
11246TIP3    H133679   0.089   3.145   6.517  0.5609  2.6668 -2.3004
11246TIP3    H233680  -0.020   3.148   6.411 -0.2900 -1.0131 -1.5827
11247TIP3   OH233681   8.103   1.549   0.448 -0.6579 -0.1594 -0.6396
11247TIP3    H133682   8.092   1.546   0.543 -0.9174  2.4872 -0.5445
11247TIP3    H233683   8.198   1.554   0.435 -0.7291  2.8188 -0.3373
11248TIP3   OH233684   5.273   0.626   0.234 -0.0262  0.1110 -0.0106
11248TIP3    H133685   5.277   0.656   0.325 -1.0582  1.2598 -0.3258
11248TIP3    H233686   5.184   0.593   0.224  0.3062 -0.6718 -0.4033
11249TIP3   OH233687   1.337   4.023   5.916 -0.2036  0.1756 -0.6692
11249TIP3    H133688   1.386   3.957   5.868  0.9116  0.9205 -0.5806
11249TIP3    H233689   1.382   4.105   5.896 -0.4196  0.6498  0.7317
11250TIP3   OH233690   3.634   7.571   0.965  0.8710  0.2631 -0.7681
11250TIP3    H133691   3.540   7.583   0.980  1.0458  0.0359  0.5026
11250TIP3    H233692   3.654   7.486   1.004  1.9584  1.1224  0.5788
11251TIP3   OH233693   7.037   0.341   0.785 -0.1920 -0.8601  0.4186
11251TIP3    H133694   6.988   0.271   0.827 -1.7026 -0.3512 -0.4855
11251TIP3    H233695   7.011   0.337   0.693 -2.0893  2.3620  0.7606
11252TIP3   OH233696   0.318   4.972   6.633 -0.0129 -0.0263  0.2831
11252TIP3    H133697   0.291   4.983   6.542 -0.3190 -1.0029  0.2414
11252TIP3    H233698   0.354   4.883   6.636 -2.3187 -0.9677  1.6484
11253TIP3   OH233699   6.922   1.608   1.059 -0.2244 -0.4322  0.2045
11253TIP3    H133700   6.864   1.677   1.027 -0.1745 -1.1726 -1.5318
11253TIP3    H233701   7.006   1.627   1.017  0.5245  0.0233  1.8703
11254TIP3   OH233702   2.278   5.620   5.931 -0.1256 -0.0752 -0.5163
11254TIP3    H133703   2.288   5.548   5.993  0.6956  0.5429  0.0834
11254TIP3    H233704   2.280   5.579   5.845 -1.3615 -0.9488 -0.1452
11255TIP3   OH233705   4.497   2.384   1.293 -0.4651 -0.2952 -0.4034
11255TIP3    H133706   4.439   2.388   1.217 -0.7926  0.4757 -0.1140
11255TIP3    H233707   4.585   2.394   1.256 -0.5853 -0.4088 -0.7285
11256TIP3   OH233708   7.076   0.768   1.133 -0.3324  0.2944  0.2667
11256TIP3    H133709   7.036   0.822   1.066 -1.9585 -1.0615  0.1022
11256TIP3    H233710   7.046   0.679   1.113  1.2011 -0.4771  1.3063
11257TIP3   OH233711   0.540   3.847   5.185  0.0619  0.2314 -0.1880
11257TIP3    H133712   0.607   3.870   5.249 -1.4600 -0.9573  1.8685
11257TIP3    H233713   0.517   3.930   5.145  0.5559  1.0919  1.2688
11258TIP3   OH233714   7.097   2.000   0.189 -0.1790  0.4591 -0.4729
11258TIP3    H133715   7.033   1.993   0.260 -0.9259 -0.1724 -1.1940
11258TIP3    H233716   7.044   2.022   0.112  0.4631 -0.1694 -1.0992
11259TIP3   OH233717   4.594   2.775   0.941  0.1879  0.3048 -0.0980
11259TIP3    H133718   4.523   2.716   0.916  0.6868 -0.4721  0.2862
11259TIP3    H233719   4.639   2.728   1.012  0.5517  1.1767  0.2494
11260TIP3   OH233720   7.121   0.436   1.509 -0.0789  0.2305  0.3143
11260TIP3    H133721   7.087   0.426   1.420 -1.3725 -0.0231  0.8314
11260TIP3    H233722   7.201   0.384   1.511 -0.3537 -0.2186 -0.5281
11261TIP3   OH233723   4.325   8.017   0.372  0.3037 -0.0810 -0.0009
11261TIP3    H133724   4.328   8.055   0.460  0.8211 -2.0906  0.8837
11261TIP3    H233725   4.372   7.933   0.381  1.7508  0.4121 -2.5489
11262TIP3   OH233726   4.429   1.255   1.159 -0.1938  0.5502  0.4574
11262TIP3    H133727   4.367   1.190   1.125 -0.4386  0.8824  0.2604
11262TIP3    H233728   4.515   1.214   1.147 -0.2865  0.5979 -0.4327
11263TIP3   OH233729   0.504   6.454   6.824  0.0308  0.7670 -0.7938
11263TIP3    H133730   0.507   6.368   6.867  1.8181  0.9063 -0.5892
11263TIP3    H233731   0.582   6.455   6.768  1.0566  2.9677  0.6207
11264TIP3   OH233732   5.986   0.546   0.155  0.1531 -0.3541 -0.1932
11264TIP3    H133733   5.980   0.450   0.156  0.1172 -0.4173 -2.9742
11264TIP3    H233734   6.079   0.564   0.161  0.0935 -0.5012  1.5087
11265TIP3   OH233735   2.115   5.522   5.502  0.3528  0.0585  0.3219
11265TIP3    H133736   2.046   5.463   5.530 -0.2040 -0.2506 -1.6247
11265TIP3    H233737   2.178   5.522   5.574  0.1625 -2.6011  0.5391
11266TIP3   OH233738   7.413   2.170   5.927 -0.1033  0.0138 -0.0641
11266TIP3    H133739   7.420   2.251   5.877 -3.0315 -0.4198 -1.2674
11266TIP3    H233740   7.349   2.188   5.996  0.7931 -0.6603  0.9778
11267TIP3   OH233741   0.478   3.914   6.942  0.9106 -1.0947  0.2958
11267TIP3    H133742   0.490   3.853   6.869  1.4622  0.3205 -0.8521
11267TIP3    H233743   0.388   3.901   6.970  0.9275 -2.2023 -0.1419
11268TIP3   OH233744   8.252   3.158   6.544 -0.0517  0.6398  0.1768
11268TIP3    H133745   8.332   3.207   6.526 -1.3360  2.4145 -0.8636
11268TIP3    H233746   8.219   3.195   6.625  0.7973 -0.9264  1.2577
11269TIP3   OH233747   0.637   7.998   1.282 -0.5874  0.1962 -0.1168
11269TIP3    H133748   0.563   7.978   1.338 -0.4575 -0.5062 -0.1799
11269TIP3    H233749   0.695   8.052   1.335 -0.0794 -1.1337  0.7264
11270TIP3   OH233750   6.573   2.270   1.493 -0.3228 -0.6664 -0.0345
11270TIP3    H133751   6.490   2.223   1.492 -0.3321 -0.6659  0.4898
11270TIP3    H233752   6.549   2.362   1.479 -0.3927 -0.6931 -0.0913
11271TIP3   OH233753   7.721   5.399   4.929  0.4411 -0.3607 -0.1258
11271TIP3    H133754   7.740   5.489   4.901 -1.2745 -0.0377 -0.2609
11271TIP3    H233755   7.638   5.377   4.887 -0.8264 -0.8384  2.5125
11272TIP3   OH233756   4.244   1.476   1.415 -0.2882 -0.3444 -0.3510
11272TIP3    H133757   4.231   1.570   1.425 -1.8710 -0.6103  0.2146
11272TIP3    H233758   4.338   1.467   1.396  0.1209  1.2551  0.7732
11273TIP3   OH233759   6.361   2.192  -0.022 -0.2501 -0.0864 -0.6296
11273TIP3    H133760   6.378   2.155   0.064 -2.1193 -2.7371 -1.3190
11273TIP3    H233761   6.381   2.285  -0.013  0.1316 -0.4205  2.4881
11274TIP3   OH233762   6.789   1.968   0.604 -0.0902  0.3567  0.3529
11274TIP3    H133763   6.796   2.016   0.521  0.5755  0.3772  0.4216
11274TIP3    H233764   6.793   1.876   0.579 -2.0724  0.3036  0.1502
11275TIP3   OH233765   4.122   8.103   0.789 -0.3699  0.0277  0.3721
11275TIP3    H133766   4.078   8.136   0.867  0.9664 -0.4372  1.3244
11275TIP3    H233767   4.109   8.009   0.792 -1.0292  0.0844 -0.4196
11276TIP3   OH233768   7.542   0.646   2.221 -0.6377  0.1377  0.2759
11276TIP3    H133769   7.578   0.575   2.167 -2.5438  0.1366 -1.0561
11276TIP3    H233770   7.619   0.697   2.247  0.6018 -1.4668 -0.1129
11277TIP3   OH233771   2.050   4.652   5.657 -0.2681  0.0560 -0.2631
11277TIP3    H133772   2.026   4.712   5.586  0.2300 -1.4086 -1.6966
11277TIP3    H233773   2.106   4.587   5.616  0.1391 -0.7610  1.5176
11278TIP3   OH233774   6.172   0.882   1.494  0.2776 -0.0320 -0.3247
11278TIP3    H133775   6.141   0.867   1.405 -0.3923 -1.1403  0.0707
11278TIP3    H233776   6.267   0.878   1.488  0.2351 -0.0600 -1.0004
11279TIP3   OH233777   8.342   0.060   2.476 -0.6687 -0.0271  0.2286
11279TIP3    H133778   8.435   0.043   2.458 -0.8059  0.3373 -0.9056
11279TIP3    H233779   8.315  -0.011   2.533 -0.5289 -2.0932 -2.1734
11280TIP3   OH233780   6.847   0.198   1.711 -0.1661 -0.1393 -0.2048
11280TIP3    H133781   6.919   0.216   1.771 -0.9006  0.9447  0.3661
11280TIP3    H233782   6.815   0.111   1.737 -2.2009  1.3881  2.7873
11281TIP3   OH233783   4.049   1.760   1.634 -0.1977 -0.0637 -0.2486
11281TIP3    H133784   4.123   1.770   1.574  0.4445  1.0149  0.7114
11281TIP3    H233785   4.048   1.667   1.656  0.0663 -0.3189 -1.2791
11282TIP3   OH233786   2.663   6.760   0.285  0.2680 -0.6708 -0.1828
11282TIP3    H133787   2.734   6.727   0.229  0.4716 -2.0623  0.8532
11282TIP3    H233788   2.667   6.704   0.363  0.9358  2.1311  1.8864
11283TIP3   OH233789   3.110   3.740   6.754 -0.4088 -0.0211  0.0764
11283TIP3    H133790   3.166   3.807   6.714 -1.5334  0.5513 -0.5745
11283TIP3    H233791   3.103   3.672   6.687 -1.3868  0.4214 -0.2764
11284TIP3   OH233792   2.904   5.424   6.384 -0.1156 -0.3245 -0.0090
11284TIP3    H133793   2.832   5.379   6.428  1.4286 -2.8518 -0.0330
11284TIP3    H233794   2.922   5.500   6.440 -1.2593 -0.9348  1.2151
11285TIP3   OH233795   7.953   3.047   6.245 -0.3417  0.6314  0.3562
11285TIP3    H133796   7.999   2.982   6.297 -0.6345 -0.4244 -0.6803
11285TIP3    H233797   7.885   3.081   6.303 -0.1873  0.0126  0.9019
11286TIP3   OH233798   0.295   3.533   6.883  0.0400  0.4405  0.2424
11286TIP3    H133799   0.238   3.458   6.868  1.0142 -0.4844  1.0217
11286TIP3    H233800   0.271   3.597   6.816 -0.3166 -0.8491 -0.8603
11287TIP3   OH233801   8.187   3.663   6.471 -0.4099  0.0040  0.5077
11287TIP3    H133802   8.198   3.598   6.401 -1.9514  1.9964 -1.6886
11287TIP3    H233803   8.259   3.725   6.457 -0.4544  0.1642  0.9757
11288TIP3   OH233804   0.928   3.608   5.262  0.1167 -0.0826  0.0111
11288TIP3    H133805   0.893   3.520   5.245 -3.6758  1.0271  1.5245
11288TIP3    H233806   0.892   3.662   5.192 -0.4018  0.9224  1.0454
11289TIP3   OH233807   5.124   0.228   0.190  0.3982  0.5345 -0.0801
11289TIP3    H133808   5.135   0.256   0.281  1.5664 -0.7032  0.1653
11289TIP3    H233809   5.029   0.216   0.180  0.3509 -0.2691  1.2573
11290TIP3   OH233810   5.317   1.130   1.226 -0.0778  0.6897  0.5082
11290TIP3    H133811   5.238   1.106   1.274 -0.3186 -0.4482 -0.4137
11290TIP3    H233812   5.304   1.222   1.204 -0.6494  0.8112  1.3104
11291TIP3   OH233813   0.089   4.570   6.354  0.0004  0.0572 -0.1170
11291TIP3    H133814   0.175   4.541   6.322 -0.1739 -0.2259 -0.3307
11291TIP3    H233815   0.074   4.654   6.309 -1.1970 -1.3493 -2.4663
11292TIP3   OH233816   5.093   1.101   1.863  0.1285 -0.3470  0.1847
11292TIP3    H133817   5.112   1.188   1.827 -0.7045 -0.5501 -0.7648
11292TIP3    H233818   5.177   1.055   1.859  0.3290  0.0549 -0.3372
11293TIP3   OH233819   5.301   2.104   0.984 -0.0790  0.3092  0.2761
11293TIP3    H133820   5.249   2.158   0.925  0.2560  0.1514 -0.1586
11293TIP3    H233821   5.313   2.159   1.062 -1.0227  0.2941  0.4477
11294TIP3   OH233822   7.739   3.676   6.100  0.2535 -0.0870 -0.0098
11294TIP3    H133823   7.664   3.658   6.043 -0.3533  0.3964  0.6325
11294TIP3    H233824   7.766   3.765   6.077 -1.1977  0.8483  1.7822
11295TIP3   OH233825   0.117   3.165   1.964 -0.0788 -0.2454 -1.0012
11295TIP3    H133826   0.054   3.236   1.950  1.1643  0.4366 -3.4423
11295TIP3    H233827   0.139   3.172   2.057 -1.3286  1.4271 -0.7888
11296TIP3   OH233828   1.502   3.886   6.214 -0.1659  0.8576  0.3274
11296TIP3    H133829   1.412   3.917   6.202  0.8227  2.9562 -2.4416
11296TIP3    H233830   1.546   3.959   6.258  0.4883  0.4456  0.3591
11297TIP3   OH233831   8.303   2.536   5.370  0.1856  0.0498 -0.0699
11297TIP3    H133832   8.220   2.488   5.365  0.7415 -0.6617 -3.0717
11297TIP3    H233833   8.326   2.533   5.463 -3.5410  0.9692  0.9558
11298TIP3   OH233834   4.225   1.525   0.553  0.0921 -0.0788  0.0133
11298TIP3    H133835   4.308   1.537   0.507 -0.5895 -1.0529 -1.5282
11298TIP3    H233836   4.221   1.431   0.572 -0.5585 -0.0127  0.2397
11299TIP3   OH233837   7.176   5.297   6.131  0.1644  1.0430 -0.0603
11299TIP3    H133838   7.090   5.288   6.089  1.1314  0.4332 -1.9518
11299TIP3    H233839   7.167   5.374   6.186 -1.8943  0.4413  0.5035
11300TIP3   OH233840   7.740   2.699   1.385 -0.2381  0.6263  0.6964
11300TIP3    H133841   7.733   2.794   1.391 -0.7110  0.5454  1.5356
11300TIP3    H233842   7.650   2.668   1.379 -0.0697  0.2515 -0.0264
11301TIP3   OH233843   1.305   5.228   6.539 -0.4578  0.3809 -0.1189
11301TIP3    H133844   1.359   5.258   6.613 -2.0026 -0.1278  1.2341
11301TIP3    H233845   1.360   5.163   6.495  1.8316  3.1076 -1.4485
11302TIP3   OH233846   7.835   0.526   0.812  0.1947  0.1285  0.2306
11302TIP3    H133847   7.810   0.609   0.772  0.6871  1.5197  2.6892
11302TIP3    H233848   7.928   0.516   0.790  0.0362  0.0215 -0.3998
11303TIP3   OH233849   7.984   0.730   1.560 -0.4852  0.1827 -0.5431
11303TIP3    H133850   8.046   0.798   1.587 -1.1339  0.3624  0.5033
11303TIP3    H233851   8.016   0.702   1.474  1.1268  0.1589  0.0512
11304TIP3   OH233852   5.162   0.034  -0.025 -0.0823 -0.7627  0.0051
11304TIP3    H133853   5.224  -0.038  -0.030  2.2804  1.2372 -0.7732
11304TIP3    H233854   5.183   0.078   0.057 -1.6634 -1.0927  0.5971
11305TIP3   OH233855   4.253   7.000   0.898 -0.1836  0.0484  0.3300
11305TIP3    H133856   4.276   7.091   0.914 -0.7398 -0.3267  3.5245
11305TIP3    H233857   4.171   6.987   0.945 -0.1055 -2.1091 -0.0564
11306TIP3   OH233858   4.460   6.374   0.131  0.3011 -0.1764  0.7010
11306TIP3    H133859   4.550   6.402   0.113  0.2050 -0.8004 -0.7852
11306TIP3    H233860   4.443   6.405   0.220  1.2365  1.8590  0.1923
11307TIP3   OH233861   5.528   0.186   0.403  0.1802  0.1157 -0.3211
11307TIP3    H133862   5.444   0.158   0.437  0.2189 -1.5986 -1.5739
11307TIP3    H233863   5.593   0.140   0.456  0.2735 -0.6284 -1.0641
11308TIP3   OH233864   5.035   2.894   0.332  0.2172 -0.6566  0.4089
11308TIP3    H133865   4.999   2.895   0.244  0.2068 -0.3537  0.4163
11308TIP3    H233866   4.969   2.849   0.385 -0.5389  0.6186  0.5850
11309TIP3   OH233867   5.235   0.484   2.070 -0.5877 -0.0970  0.3418
11309TIP3    H133868   5.282   0.413   2.027 -0.8747  0.6760 -1.2760
11309TIP3    H233869   5.280   0.563   2.041 -2.3737  0.5980 -0.5545
11310TIP3   OH233870   7.779   0.746   2.295  0.2306 -0.3445 -0.8535
11310TIP3    H133871   7.871   0.750   2.269  0.3146  0.7228 -0.4129
11310TIP3    H233872   7.754   0.837   2.311 -0.5525 -0.7314  0.2236
11311TIP3   OH233873   7.550   4.573   6.094  0.0365  0.3658 -0.0602
11311TIP3    H133874   7.484   4.626   6.139 -0.7633  0.8150 -1.7535
11311TIP3    H233875   7.521   4.483   6.107 -0.9372  0.5643 -0.8330
11312TIP3   OH233876   4.376   6.540   1.726  0.1437 -0.1457  0.4164
11312TIP3    H133877   4.448   6.504   1.674  1.5037  1.5051  1.0920
11312TIP3    H233878   4.305   6.553   1.664  0.7316 -0.9665 -0.4433
11313TIP3   OH233879   4.886   0.433   1.531  0.6562 -0.1158  0.1115
11313TIP3    H133880   4.851   0.349   1.499  1.2837 -0.8411  1.3184
11313TIP3    H233881   4.980   0.428   1.513  0.5712  0.6724 -0.5601
11314TIP3   OH233882   0.207   6.260   5.688 -0.1737  0.2012 -0.3170
11314TIP3    H133883   0.267   6.213   5.630 -1.2916 -0.5736 -0.8623
11314TIP3    H233884   0.189   6.342   5.641  1.5636  1.0994  0.5110
11315TIP3   OH233885   7.103   1.357   3.188  0.3154  0.4753  0.1390
11315TIP3    H133886   7.054   1.275   3.179  1.6805 -0.2276 -1.1805
11315TIP3    H233887   7.173   1.336   3.250 -1.2009  1.5588  2.2563
11316TIP3   OH233888   5.263   2.347   0.790  0.0539  0.2740  0.0874
11316TIP3    H133889   5.236   2.292   0.717  1.3613  2.8188 -2.4399
11316TIP3    H233890   5.306   2.422   0.749 -0.3124  2.4483  3.4341
11317TIP3   OH233891   5.905   2.737   0.416 -0.1160  0.6684  0.2874
11317TIP3    H133892   5.848   2.810   0.441 -1.2177  0.3320 -1.1729
11317TIP3    H233893   5.891   2.727   0.322 -0.1796 -1.6017  0.5191
11318TIP3   OH233894   2.444   6.599   6.047 -0.0443  0.0585 -0.6494
11318TIP3    H133895   2.512   6.606   6.113  0.0675  0.4811 -0.8090
11318TIP3    H233896   2.462   6.670   5.985 -1.5207  1.1589  0.1386
11319TIP3   OH233897   2.119   4.513   6.705 -0.3404  0.0983 -0.2086
11319TIP3    H133898   2.084   4.586   6.655  0.7279  0.2449 -0.7522
11319TIP3    H233899   2.113   4.438   6.646  1.5592  0.4115 -0.8168
11320TIP3   OH233900   3.205   3.483   6.856 -0.0163  0.0268 -0.0544
11320TIP3    H133901   3.257   3.563   6.858  1.3762 -0.8474 -0.7547
11320TIP3    H233902   3.147   3.493   6.781  1.1396 -0.2162 -0.9956
11321TIP3   OH233903   7.470   1.576   1.007  0.0722 -0.1402  0.4611
11321TIP3    H133904   7.524   1.638   1.055 -2.1354  1.8059  0.5364
11321TIP3    H233905   7.414   1.536   1.073 -0.2763 -0.3148  0.0640
11322TIP3   OH233906   1.998   4.110   6.701  0.7442  0.0933 -0.2406
11322TIP3    H133907   1.950   4.180   6.746 -0.7578  0.7427 -2.7551
11322TIP3    H233908   2.076   4.153   6.666 -0.3042  0.6198 -2.0023
11323TIP3   OH233909   1.556   3.923   6.668 -0.1103  0.2446  0.3711
11323TIP3    H133910   1.571   3.993   6.731  2.3078  0.5401 -0.5011
11323TIP3    H233911   1.483   3.953   6.615  0.5333  1.8627  0.3744
11324TIP3   OH233912   7.740   2.049   1.271  0.2668  0.3190  0.5300
11324TIP3    H133913   7.710   2.137   1.245 -1.4134 -0.4154 -0.0980
11324TIP3    H233914   7.663   2.009   1.311  1.2325 -0.6256  1.4445
11325TIP3   OH233915   0.371   3.827   6.550 -0.0848 -0.4669  0.5230
11325TIP3    H133916   0.437   3.839   6.482  0.9168 -1.4098  1.3241
11325TIP3    H233917   0.312   3.903   6.540 -0.1033 -0.7401 -1.5447
11326TIP3   OH233918   6.892   1.167   1.481 -0.5262  0.2140 -0.0327
11326TIP3    H133919   6.837   1.091   1.462 -1.7599  0.6740  1.6114
11326TIP3    H233920   6.948   1.175   1.404 -1.4327 -1.4312 -0.8999
11327TIP3   OH233921   2.137   3.669   6.379  0.3241 -0.7166 -0.1441
11327TIP3    H133922   2.125   3.611   6.455 -1.1560  0.4089  0.4885
11327TIP3    H233923   2.140   3.757   6.415 -2.8155  0.0558 -1.5675
11328TIP3   OH233924   7.115   1.242   2.576 -0.5722 -0.3825 -0.8750
11328TIP3    H133925   7.188   1.280   2.527  0.0298  0.1088  0.4052
11328TIP3    H233926   7.145   1.155   2.601  0.5496  0.7555  1.8145
11329TIP3   OH233927   6.424   1.337   1.375  0.6625  0.0500 -0.5044
11329TIP3    H133928   6.347   1.393   1.388 -0.4319 -1.0212 -2.1264
11329TIP3    H233929   6.448   1.308   1.463  0.0961  1.5370  0.1593
11330TIP3   OH233930   5.059   7.840   0.038 -0.3253 -0.2703 -0.7129
11330TIP3    H133931   5.101   7.918   0.074 -0.1685 -1.2965  1.4144
11330TIP3    H233932   5.131   7.789   0.001 -0.5848  1.1707 -3.3106
11331TIP3   OH233933   6.207   0.195   0.467  0.3424 -0.0355 -0.0342
11331TIP3    H133934   6.236   0.239   0.387 -0.7943  0.4020 -0.2139
11331TIP3    H233935   6.177   0.265   0.524  0.6812 -0.3898  0.5821
11332TIP3   OH233936   3.740   4.011   6.208 -0.4597  0.4499  0.1642
11332TIP3    H133937   3.809   3.946   6.200  0.3111  1.0680  1.5577
11332TIP3    H233938   3.713   4.006   6.300 -1.0676  1.3998  0.0454
11333TIP3   OH233939   7.950   0.217   1.015  0.3238 -0.0037  0.2773
11333TIP3    H133940   7.857   0.230   1.039  0.4899  0.7451  0.5421
11333TIP3    H233941   7.984   0.161   1.085  0.6015  1.5114  1.3965
11334TIP3   OH233942   6.455   7.896   2.124  0.4625 -0.0707  0.1769
11334TIP3    H133943   6.547   7.875   2.110  0.5437 -0.8414  1.7229
11334TIP3    H233944   6.419   7.820   2.170 -0.7707  0.5202  0.2377
11335TIP3   OH233945   6.460   0.727   1.146 -0.5876 -0.0564  0.6660
11335TIP3    H133946   6.506   0.798   1.192  0.0374  0.0261 -0.0790
11335TIP3    H233947   6.385   0.770   1.104  0.8422  0.5280 -1.3652
11336TIP3   OH233948   0.410   2.588   5.994 -0.5608 -0.3597 -0.6643
11336TIP3    H133949   0.457   2.581   6.077 -0.7228 -1.0394 -0.6293
11336TIP3    H233950   0.465   2.645   5.940  0.3796 -1.2916 -0.6920
11337TIP3   OH233951   4.693   8.057   0.415 -0.3045 -0.3799  0.3238
11337TIP3    H133952   4.771   8.108   0.394 -0.5963  0.4264  1.1674
11337TIP3    H233953   4.624   8.123   0.425 -1.1049 -1.0851 -0.4721
11338TIP3   OH233954   1.367   4.218   6.283  0.0542 -0.5037  0.4074
11338TIP3    H133955   1.325   4.247   6.364  0.9476  1.2533  0.2573
11338TIP3    H233956   1.306   4.244   6.214 -0.1181 -0.8835  0.4117
11339TIP3   OH233957   6.985   3.710   4.506 -0.0802  0.2697  0.4399
11339TIP3    H133958   6.923   3.730   4.435  1.4086  1.0400 -0.6758
11339TIP3    H233959   7.021   3.795   4.531  0.7547 -0.2052  0.8637
11340TIP3   OH233960   4.393   7.929   1.093 -0.0088 -0.4448  0.3066
11340TIP3    H133961   4.348   8.002   1.050  2.7605  0.1230 -1.7706
11340TIP3    H233962   4.414   7.962   1.180 -0.3297  0.5875 -0.0020
11341TIP3   OH233963   7.917   6.309   6.866  0.3459  0.1273  0.0107
11341TIP3    H133964   7.854   6.273   6.928  0.4981 -1.2868 -0.6400
11341TIP3    H233965   7.879   6.291   6.780  2.3013 -2.0399 -0.4449
11342TIP3   OH233966   1.326   4.417   6.514 -0.5244 -0.7061 -0.2492
11342TIP3    H133967   1.250   4.457   6.471 -0.3938 -0.8350 -0.6053
11342TIP3    H233968   1.380   4.491   6.541  0.3192 -0.6417 -1.9973
11343TIP3   OH233969   8.520   0.197   2.178  0.1210  0.4578  0.3733
11343TIP3    H133970   8.522   0.102   2.189 -0.6757  0.5162  1.1257
11343TIP3    H233971   8.432   0.222   2.206  0.4011  1.4400  0.3836
11344TIP3   OH233972   3.071   5.895   6.839 -0.2853  0.1891  0.0070
11344TIP3    H133973   3.086   5.894   6.934  0.2684 -0.8842 -0.0875
11344TIP3    H233974   3.038   5.807   6.820  1.6734 -0.3135 -1.1304
11345TIP3   OH233975   0.112   3.829   5.940  0.1641 -0.2738 -0.4333
11345TIP3    H133976   0.051   3.782   5.998  0.9539 -0.5054  0.2197
11345TIP3    H233977   0.087   3.921   5.949  0.1110 -0.3358  0.0738
11346TIP3   OH233978   4.038   1.563   1.246 -0.2418  0.8215 -0.1836
11346TIP3    H133979   4.026   1.508   1.169  0.6097  1.7073 -0.9630
11346TIP3    H233980   4.104   1.517   1.298 -0.2025  0.6502 -0.3846
11347TIP3   OH233981   1.753   5.607   6.823 -0.7563 -0.0926 -0.1630
11347TIP3    H133982   1.683   5.613   6.757  0.4195  1.5297 -1.3055
11347TIP3    H233983   1.728   5.671   6.890 -0.5239  0.2679 -0.4203
11348TIP3   OH233984   4.484   1.391   2.432 -0.0191 -0.3356  0.4121
11348TIP3    H133985   4.542   1.315   2.423 -0.6967 -1.0754  2.1039
11348TIP3    H233986   4.404   1.356   2.469 -0.5170  1.1465  0.7830
11349TIP3   OH233987   7.747   1.529   5.169  0.1807 -0.0150  0.4440
11349TIP3    H133988   7.670   1.499   5.218  0.6563 -0.0359  1.1839
11349TIP3    H233989   7.819   1.524   5.232  1.2358 -2.2068 -0.8754
11350TIP3   OH233990   5.204   1.220   1.602  0.0186  0.1389  0.5350
11350TIP3    H133991   5.276   1.177   1.648  0.2821  1.3543  1.2819
11350TIP3    H233992   5.246   1.294   1.557 -0.9813  1.7788  2.2334
11351TIP3   OH233993   4.311   5.712   0.816  0.9319  0.0892 -0.3443
11351TIP3    H133994   4.272   5.737   0.732  1.4575  0.0508 -0.6051
11351TIP3    H233995   4.245   5.736   0.881  0.0800 -0.8670 -0.8495
11352TIP3   OH233996   4.311   6.007   6.522 -0.3954  0.6774 -0.2527
11352TIP3    H133997   4.293   5.987   6.614 -2.0812  0.2109 -0.6714
11352TIP3    H233998   4.248   5.954   6.473  0.4976  0.9160 -1.6790
11353TIP3   OH233999   8.187   0.921   1.336 -0.7426  0.4271 -0.3924
11353TIP3    H134000   8.181   0.957   1.425 -1.5498  0.2578 -0.3729
11353TIP3    H234001   8.207   0.829   1.349  1.2215  0.8274 -0.4403
11354TIP3   OH234002   4.434   0.107   1.002 -0.3855 -0.5462 -0.8053
11354TIP3    H134003   4.361   0.060   0.962 -1.1109  1.1583 -1.5393
11354TIP3    H234004   4.400   0.195   1.016  1.1788 -0.0436 -0.1080
11355TIP3   OH234005   7.518   0.321   0.666  0.0558 -0.0841 -0.4202
11355TIP3    H134006   7.605   0.332   0.704 -0.0591 -0.6514  0.0191
11355TIP3    H234007   7.533   0.313   0.572  0.4720 -0.1546 -0.3468
11356TIP3   OH234008   7.713   1.132   2.008  0.3388 -0.0918 -0.7042
11356TIP3    H134009   7.666   1.108   1.928 -1.3534 -0.6963  0.4280
11356TIP3    H234010   7.644   1.164   2.067  1.2080 -1.7095  1.2737
11357TIP3   OH234011   0.664   2.137   1.697  0.2927  0.6901  0.2157
11357TIP3    H134012   0.612   2.208   1.660  0.8884  1.0498  0.0607
11357TIP3    H234013   0.698   2.173   1.779  1.0117  0.7680 -0.1122
11358TIP3   OH234014   1.213   2.506   6.767 -0.0622  0.0298  0.1013
11358TIP3    H134015   1.278   2.502   6.837  0.4735  1.7575 -0.2569
11358TIP3    H234016   1.130   2.483   6.809  0.2094  1.2751  1.3547
11359TIP3   OH234017   0.158   0.334   5.907 -0.0217  0.3857 -0.0674
11359TIP3    H134018   0.233   0.363   5.959 -0.3314  0.6815  0.2167
11359TIP3    H234019   0.173   0.371   5.820  0.5696 -0.2279 -0.2250
11360TIP3   OH234020   5.706   0.318   0.102 -0.3701  0.1591  0.7016
11360TIP3    H134021   5.610   0.317   0.103 -0.4099  0.6059 -0.7969
11360TIP3    H234022   5.732   0.269   0.180 -1.8177  0.0648  1.1332
11361TIP3   OH234023   8.225   5.196   5.563  0.4463 -0.6938 -0.3493
11361TIP3    H134024   8.129   5.194   5.556  0.3041  4.3072 -1.8914
11361TIP3    H234025   8.256   5.178   5.474  0.9571 -1.5130 -0.0142
11362TIP3   OH234026   2.547   5.737   6.514 -0.0273  0.3688 -0.5005
11362TIP3    H134027   2.534   5.750   6.420 -0.4447 -1.1819 -0.6766
11362TIP3    H234028   2.459   5.736   6.551  0.0840 -0.0282 -0.2383
11363TIP3   OH234029   1.536   5.572   6.631 -0.1268  0.5242 -0.3333
11363TIP3    H134030   1.559   5.566   6.538 -0.3813  1.6893 -0.4822
11363TIP3    H234031   1.441   5.588   6.632  0.0854  1.8137  0.0785
11364TIP3   OH234032   2.024   5.308   6.465 -0.2722 -0.3713 -0.1662
11364TIP3    H134033   1.987   5.396   6.460  1.9159  0.5743 -0.6085
11364TIP3    H234034   2.096   5.316   6.528  0.0405 -1.8010 -0.3296
11365TIP3   OH234035   0.588   0.452   0.319 -0.0661 -0.1705 -0.0605
11365TIP3    H134036   0.652   0.473   0.387 -0.8474 -0.1388  0.6761
11365TIP3    H234037   0.626   0.377   0.272  0.0999 -0.7341  0.9584
11366TIP3   OH234038   2.661   5.412   6.553 -0.5401  0.2382  0.1304
11366TIP3    H134039   2.707   5.483   6.598 -1.1916  0.9822 -0.3656
11366TIP3    H234040   2.576   5.449   6.530 -1.1705 -0.9344  0.5190
11367TIP3   OH234041   4.129   8.103   1.204  0.4764  0.0909 -0.1114
11367TIP3    H134042   4.122   8.177   1.264  0.7647  0.6020 -0.6923
11367TIP3    H234043   4.121   8.026   1.259  3.3773  0.5088  0.9451
11368TIP3   OH234044   1.504   2.426   0.151 -0.4408 -0.7192 -0.0158
11368TIP3    H134045   1.473   2.500   0.204  1.1038  0.2364 -0.4311
11368TIP3    H234046   1.483   2.349   0.204 -1.2827  0.0700  0.8137
11369TIP3   OH234047   8.410   4.129   6.954  0.3374 -0.1962 -0.4739
11369TIP3    H134048   8.373   4.171   7.032  0.5026 -1.5564  0.3589
11369TIP3    H234049   8.389   4.188   6.882 -2.0981 -0.1843  0.2055
11370TIP3   OH234050   7.135   7.033   0.066  0.5828  0.2499 -0.0203
11370TIP3    H134051   7.204   7.088   0.030  0.7186  1.2796  1.7213
11370TIP3    H234052   7.063   7.040   0.003  0.8956  1.8112 -0.2166
11371TIP3   OH234053   2.037   5.987   6.021  0.1207  0.1607 -0.3301
11371TIP3    H134054   2.011   6.079   6.027 -2.0404 -0.2582 -2.6218
11371TIP3    H234055   2.132   5.989   6.011  0.0805  2.1352 -0.4403
11372TIP3   OH234056   3.895   4.631   5.729 -0.0518 -0.5890  0.0350
11372TIP3    H134057   3.948   4.552   5.737 -1.8362 -1.9378 -0.9705
11372TIP3    H234058   3.832   4.611   5.660 -1.1858  1.3396  0.4549
11373TIP3   OH234059   0.735   2.147   2.389  0.3926  0.2016  0.0296
11373TIP3    H134060   0.737   2.077   2.323 -0.4904 -0.1584  0.3722
11373TIP3    H234061   0.822   2.146   2.427  0.6247 -0.2099 -0.4946
11374TIP3   OH234062   6.797   0.262   0.226  0.3611  0.4306  0.3357
11374TIP3    H134063   6.892   0.259   0.220  0.4773  3.2424  0.0727
11374TIP3    H234064   6.772   0.177   0.261  2.9387 -0.4912 -0.0079
11375TIP3   OH234065   1.264   1.353   0.577 -0.2519 -0.1025 -0.2643
11375TIP3    H134066   1.292   1.272   0.534 -0.1073 -0.3549  0.3047
11375TIP3    H234067   1.177   1.333   0.611  0.9596 -1.0078  2.4719
11376TIP3   OH234068   1.395   3.956   5.330 -0.1518 -0.0657  0.4187
11376TIP3    H134069   1.307   3.931   5.358 -0.9733  2.4517  0.2181
11376TIP3    H234070   1.417   3.894   5.261 -1.9154 -0.5067  0.2264
11377TIP3   OH234071   2.466   4.838   5.161  0.0065  0.2227  0.1171
11377TIP3    H134072   2.373   4.835   5.186  0.3231  0.2501  1.3278
11377TIP3    H234073   2.470   4.789   5.079 -1.2386  1.0596 -0.4587
11378TIP3   OH234074   6.146   1.051   1.685 -0.5602 -0.7050 -0.1399
11378TIP3    H134075   6.207   1.125   1.679 -0.0756 -1.0136  0.9794
11378TIP3    H234076   6.166   0.997   1.609 -1.3212  0.6157 -1.3074
11379TIP3   OH234077   4.153   5.151   5.714 -0.2382  0.9144 -0.3210
11379TIP3    H134078   4.090   5.113   5.775  1.2365 -1.0789  0.0027
11379TIP3    H234079   4.163   5.086   5.645  1.0191  1.4513 -0.6715
11380TIP3   OH234080   5.513   7.504   0.574  0.5651 -0.2290 -0.4318
11380TIP3    H134081   5.569   7.429   0.596  0.3809 -0.6455 -1.3687
11380TIP3    H234082   5.558   7.546   0.500  0.5600  0.4632 -0.0446
11381TIP3   OH234083   0.167   3.455   0.231  0.1459 -0.5109  0.0099
11381TIP3    H134084   0.206   3.373   0.202  0.6122 -0.1077 -0.5149
11381TIP3    H234085   0.241   3.514   0.244 -0.0859 -0.5417  1.6017
11382TIP3   OH234086   4.572   4.500   4.654  0.3914  0.0129  0.4850
11382TIP3    H134087   4.560   4.593   4.670 -0.3899 -0.3138  1.9890
11382TIP3    H234088   4.487   4.461   4.676  0.3316 -0.9104 -1.3216
11383TIP3   OH234089   2.350   5.114   6.960  0.4289 -0.3031 -0.2201
11383TIP3    H134090   2.400   5.196   6.953 -0.1931  0.2439  1.4597
11383TIP3    H234091   2.416   5.045   6.950  0.7597  0.3614 -3.0217
11384TIP3   OH234092   4.138   1.266   5.361 -0.2764 -0.2560 -0.0525
11384TIP3    H134093   4.127   1.351   5.318 -2.1552 -0.1398  0.5904
11384TIP3    H234094   4.232   1.251   5.362  0.0605  1.7634 -0.2763
11385TIP3   OH234095   8.472   0.463   0.768 -0.9254  0.7552  0.2127
11385TIP3    H134096   8.414   0.485   0.695  0.7801  1.9842 -0.8168
11385TIP3    H234097   8.557   0.498   0.742 -0.0674  0.3491  2.3702
11386TIP3   OH234098   7.036   0.535   0.232  0.6751  0.5503 -0.2972
11386TIP3    H134099   6.979   0.512   0.159 -0.5106  0.1026  0.7580
11386TIP3    H234100   7.124   0.537   0.194 -0.1044  1.9837 -2.1142
11387TIP3   OH234101   3.961   4.054   5.769  0.3252 -0.0289 -0.3261
11387TIP3    H134102   3.928   3.968   5.794 -1.6331  0.4708 -1.0871
11387TIP3    H234103   3.949   4.108   5.847 -0.4236  0.0867 -0.5203
11388TIP3   OH234104   5.166   6.523   5.883  0.3437 -0.0454  0.0863
11388TIP3    H134105   5.103   6.525   5.810 -0.4842 -1.2741  0.7641
11388TIP3    H234106   5.249   6.499   5.842  0.5758  2.3997 -0.9459
11389TIP3   OH234107   2.910   3.069   6.486 -0.8566 -0.3763  0.5701
11389TIP3    H134108   2.907   3.082   6.391 -1.5541 -2.9423  0.1966
11389TIP3    H234109   2.819   3.072   6.513 -0.6625  0.2713  1.1564
11390TIP3   OH234110   3.389   5.127   5.007 -0.1679  0.1019  0.2822
11390TIP3    H134111   3.410   5.039   5.040 -0.1912 -0.3249 -0.8283
11390TIP3    H234112   3.389   5.182   5.086  2.8250 -0.3101  0.6529
11391TIP3   OH234113   2.168   7.044   6.912 -0.2473  0.2112  0.8048
11391TIP3    H134114   2.262   7.037   6.898 -0.2755  1.3439  0.0014
11391TIP3    H234115   2.158   7.116   6.974 -0.6698  1.2528 -0.4408
11392TIP3   OH234116   3.694   6.485   5.135 -0.3068  0.3220  0.6939
11392TIP3    H134117   3.609   6.441   5.132  0.3741 -0.9140 -1.2120
11392TIP3    H234118   3.672   6.578   5.137 -1.7170  0.0645 -0.9435
11393TIP3   OH234119   2.796   4.896   5.741 -0.1556 -0.5099  0.1142
11393TIP3    H134120   2.738   4.947   5.685  0.2760  1.2920  1.2515
11393TIP3    H234121   2.737   4.839   5.790 -0.8034 -0.0485 -0.1190
11394TIP3   OH234122   3.812   5.341   3.546 -1.1501  0.1318 -0.2548
11394TIP3    H134123   3.734   5.303   3.505 -0.1676 -1.2654 -0.8514
11394TIP3    H234124   3.799   5.325   3.640 -0.9235 -1.3859 -0.4674
11395TIP3   OH234125   1.108   5.549   6.875 -0.4480 -0.2954 -0.7257
11395TIP3    H134126   1.143   5.502   6.800 -1.2628  0.1569 -1.3852
11395TIP3    H234127   1.056   5.620   6.838 -0.5881  0.1319  0.2602
11396TIP3   OH234128   2.573   3.928   6.619  0.0672 -0.0873  0.6786
11396TIP3    H134129   2.593   3.974   6.538 -1.7921  0.5262  0.5632
11396TIP3    H234130   2.657   3.889   6.646  0.7870  0.0861 -1.2765
11397TIP3   OH234131   2.673   4.160   6.759 -0.1961 -0.0434  0.1554
11397TIP3    H134132   2.706   4.118   6.838  1.9385  0.3743 -0.4805
11397TIP3    H234133   2.644   4.087   6.704  1.1749 -0.5535  0.0811
11398TIP3   OH234134   1.958   5.554   6.603  0.5328 -0.0772  0.3942
11398TIP3    H134135   1.929   5.553   6.694 -0.5243  0.0477  0.0751
11398TIP3    H234136   2.030   5.616   6.601 -0.1010  0.6909  0.9691
11399TIP3   OH234137   3.079   5.094   6.117  0.5942 -0.0677  0.2610
11399TIP3    H134138   3.045   5.016   6.161  1.4294 -1.2947 -1.2058
11399TIP3    H234139   3.045   5.088   6.028  0.8862  1.1040  0.0606
11400TIP3   OH234140   1.641   4.983   6.632 -0.7442 -0.1890  0.0824
11400TIP3    H134141   1.695   5.058   6.608  0.0022 -1.4014 -2.1157
11400TIP3    H234142   1.552   5.009   6.608 -0.2244 -0.7492 -2.5416
11401TIP3   OH234143   5.781   1.805   0.274 -0.1217 -0.4202  0.4020
11401TIP3    H134144   5.687   1.822   0.276 -0.4073 -1.9811  0.9944
11401TIP3    H234145   5.790   1.730   0.215  0.7201 -0.4747  0.6027
11402TIP3   OH234146   1.334   1.699   0.958 -0.8143  0.2100 -0.2743
11402TIP3    H134147   1.320   1.733   0.870 -0.8087  1.8134  0.3196
11402TIP3    H234148   1.261   1.735   1.009  1.6877  3.2345  1.3976
11403TIP3   OH234149   2.990   3.559   5.873 -0.4543  0.1021 -0.2834
11403TIP3    H134150   3.042   3.530   5.948 -1.3173 -2.3062 -0.5875
11403TIP3    H234151   3.016   3.651   5.861  1.4033 -0.1367  1.5026
11404TIP3   OH234152   5.316   2.069   1.392 -0.3927  0.3833  0.3107
11404TIP3    H134153   5.280   2.146   1.348  0.3556  0.7606  0.3631
11404TIP3    H234154   5.268   1.996   1.353  0.0615  0.7334 -0.9333
11405TIP3   OH234155   8.020   0.919   0.294  0.5525 -0.2238  0.1174
11405TIP3    H134156   7.942   0.966   0.325  0.2728  0.5231 -1.6399
11405TIP3    H234157   7.993   0.881   0.210  1.2264 -2.3337  0.8204
11406TIP3   OH234158   2.133   3.769   6.791  0.1124 -0.3062  0.0531
11406TIP3    H134159   2.107   3.772   6.883  0.9018  0.8314  0.2504
11406TIP3    H234160   2.221   3.807   6.790 -0.6463  1.4661 -1.4426
11407TIP3   OH234161   3.948   6.306   5.644 -0.1155 -0.1517  0.1084
11407TIP3    H134162   3.934   6.345   5.557  0.6615 -0.0768  0.0188
11407TIP3    H234163   3.860   6.281   5.672 -0.4815  0.5920 -0.3421
11408TIP3   OH234164   1.227   5.671   6.568  0.4963  0.1519 -0.1813
11408TIP3    H134165   1.279   5.679   6.488 -0.8821  2.2032 -0.9101
11408TIP3    H234166   1.194   5.580   6.566  1.5383 -0.2064 -1.2633
11409TIP3   OH234167   2.753   7.459   5.711  0.0332 -0.0894 -0.4698
11409TIP3    H134168   2.723   7.548   5.731  1.5069  0.9402 -2.6584
11409TIP3    H234169   2.847   7.469   5.693  0.0271 -1.9246 -1.6590
11410TIP3   OH234170   2.980   6.255   6.106 -0.3912 -0.4470 -0.6992
11410TIP3    H134171   3.061   6.299   6.134 -0.7473  0.0758 -0.4903
11410TIP3    H234172   2.910   6.310   6.140 -0.8645 -1.8939  0.7344
11411TIP3   OH234173   3.306   6.030   6.808 -0.0639 -0.1498 -0.2385
11411TIP3    H134174   3.314   6.074   6.724  1.6436 -1.3883 -0.7545
11411TIP3    H234175   3.217   5.994   6.809 -0.0690 -0.1792 -1.5484
11412TIP3   OH234176   2.579   6.341   6.466 -0.2022  0.6230 -0.7210
11412TIP3    H134177   2.542   6.385   6.389  0.8167  1.4488 -0.7477
11412TIP3    H234178   2.544   6.390   6.541  1.8106  2.2024 -0.7821
11413TIP3   OH234179   8.200   2.276   0.047 -0.0809 -0.0949  0.2514
11413TIP3    H134180   8.227   2.366   0.067 -1.0037  0.1442  0.4274
11413TIP3    H234181   8.273   2.222   0.078  0.7196  0.6245 -0.3491
11414TIP3   OH234182   2.460   5.660   6.977 -0.1083 -0.0763 -0.0916
11414TIP3    H134183   2.430   5.743   6.939  1.1157  1.1972  1.6709
11414TIP3    H234184   2.552   5.655   6.953 -0.5612 -1.7829 -1.6169
11415TIP3   OH234185   3.593   5.904   6.628 -0.6201  0.4256 -0.0904
11415TIP3    H134186   3.551   5.907   6.542  0.6296  0.5583 -0.7047
11415TIP3    H234187   3.535   5.850   6.681 -1.2034  0.0190 -1.1322
11416TIP3   OH234188   3.868   3.393   5.893  0.0404  0.6147  0.5811
11416TIP3    H134189   3.800   3.456   5.869 -0.1564  0.4357  0.6703
11416TIP3    H234190   3.944   3.419   5.841 -0.2502  0.4995  0.0959
11417TIP3   OH234191   2.749   4.421   6.778  0.5933 -0.2733 -0.1648
11417TIP3    H134192   2.685   4.480   6.737  0.4322  0.0463  0.5365
11417TIP3    H234193   2.706   4.336   6.779 -0.1703  0.1133  1.0775
11418TIP3   OH234194   0.878   2.338   6.597 -0.3004 -0.4557 -0.0685
11418TIP3    H134195   0.961   2.290   6.596 -1.2610 -2.2943  2.3604
11418TIP3    H234196   0.815   2.276   6.561 -0.9240  0.3487 -0.3762
11419TIP3   OH234197   2.457   3.473   6.657 -0.1503 -0.3757  0.2735
11419TIP3    H134198   2.523   3.407   6.680  0.1367 -0.1199  0.1832
11419TIP3    H234199   2.492   3.516   6.579 -0.2130  0.0676  0.4910
11420TIP3   OH234200   0.725   1.442   0.836  0.0466  0.1446 -0.1851
11420TIP3    H134201   0.720   1.451   0.740 -0.7201 -1.0353 -0.2605
11420TIP3    H234202   0.806   1.488   0.860  1.6605 -1.8338 -1.6851
11421TIP3   OH234203   3.497   3.392   6.342 -0.4968  0.2964  0.5167
11421TIP3    H134204   3.439   3.464   6.315 -0.6801  1.3926  3.5490
11421TIP3    H234205   3.472   3.376   6.433  2.5977 -0.5818  1.2426
11422TIP3   OH234206   5.350   7.593   0.785  0.4244 -0.3964 -0.0509
11422TIP3    H134207   5.395   7.674   0.809 -1.1127  0.9601 -1.6290
11422TIP3    H234208   5.384   7.571   0.698 -0.1707 -0.6939 -0.2128
11423TIP3   OH234209   0.724   3.164   2.930 -0.3383  0.1723  0.1486
11423TIP3    H134210   0.714   3.259   2.930 -2.3544 -0.0050 -0.0691
11423TIP3    H234211   0.705   3.138   2.840 -1.5410 -0.5666  0.5941
11424TIP3   OH234212   4.047   4.978   4.853  0.3779  0.0205  0.0807
11424TIP3    H134213   4.074   5.063   4.888  2.5993 -0.6064 -0.0502
11424TIP3    H234214   4.058   4.917   4.925  1.2747 -0.5985 -0.5667
11425TIP3   OH234215   5.556   6.978   1.043  0.0372  0.0325 -0.0571
11425TIP3    H134216   5.517   6.926   0.973 -0.1022 -0.9031  0.6882
11425TIP3    H234217   5.481   7.014   1.091  0.1367  2.1606 -1.4408
11426TIP3   OH234218   1.584   1.958   0.188 -0.2613  0.3668  0.0281
11426TIP3    H134219   1.647   1.971   0.118  0.0979  2.4391  0.7125
11426TIP3    H234220   1.635   1.969   0.269 -0.7769 -1.4744  0.6327
11427TIP3   OH234221   3.351   4.437   5.155 -0.2626  0.1719 -0.0800
11427TIP3    H134222   3.430   4.447   5.101 -1.0266  0.5755 -1.1261
11427TIP3    H234223   3.286   4.494   5.115 -0.9737  0.1598  1.0271
11428TIP3   OH234224   6.979   7.818   1.734 -0.2880  0.5878 -0.5180
11428TIP3    H134225   6.937   7.734   1.715  1.9014 -0.3542 -1.3707
11428TIP3    H234226   6.931   7.882   1.680 -0.7149 -0.4290 -1.3561
11429TIP3   OH234227   1.514   4.752   4.871 -0.2014 -0.1923  0.3672
11429TIP3    H134228   1.512   4.701   4.953 -3.3744  2.1988  1.8745
11429TIP3    H234229   1.450   4.709   4.815 -0.7335  0.3770  0.5375
11430TIP3   OH234230   2.002   7.130   1.281  0.2609  0.3053 -0.7189
11430TIP3    H134231   2.032   7.048   1.320  2.1507  2.1874  1.9816
11430TIP3    H234232   2.017   7.119   1.187  1.3839 -2.0719 -0.2990
11431TIP3   OH234233   2.320   5.524   5.671 -0.2409 -0.4654 -0.1200
11431TIP3    H134234   2.322   5.429   5.665  2.4482 -0.4553 -0.1294
11431TIP3    H234235   2.413   5.550   5.674 -0.9534  1.9932  2.3605
11432TIP3   OH234236   6.418   1.417   0.649 -0.0691  0.5315  0.7642
11432TIP3    H134237   6.483   1.471   0.603 -0.3173 -0.7051 -1.0792
11432TIP3    H234238   6.406   1.462   0.733 -1.1893  4.0778 -1.1623
11433TIP3   OH234239   3.480   4.894   6.589  0.0534 -0.1346 -0.0125
11433TIP3    H134240   3.437   4.873   6.672  1.0057  0.5666  0.6612
11433TIP3    H234241   3.562   4.844   6.591  0.3639  0.3643 -0.2611
11434TIP3   OH234242   1.797   3.284   6.429  0.4754  0.7379 -0.2136
11434TIP3    H134243   1.855   3.279   6.353  1.8447 -1.1686  0.9206
11434TIP3    H234244   1.712   3.307   6.392  1.8872  3.4794 -1.9147
11435TIP3   OH234245   3.249   4.095   5.310 -0.2754  0.1967  0.8189
11435TIP3    H134246   3.179   4.154   5.338 -0.3434  0.5732 -0.1112
11435TIP3    H234247   3.319   4.108   5.374 -0.4282  1.0346  0.8263
11436TIP3   OH234248   3.738   5.207   5.224 -0.0432 -0.3032  0.2106
11436TIP3    H134249   3.734   5.112   5.209 -0.3703 -0.6110  2.1439
11436TIP3    H234250   3.828   5.231   5.201  0.2295 -1.1952  0.3385
11437TIP3   OH234251   0.645   4.951   6.437 -0.0426 -0.5185  0.1866
11437TIP3    H134252   0.568   4.922   6.388  1.4172 -2.6084 -0.9373
11437TIP3    H234253   0.665   5.037   6.399 -0.8574 -0.6723 -0.6157
11438TIP3   OH234254   4.827   7.293   6.530  0.1064 -0.0699  0.2699
11438TIP3    H134255   4.802   7.207   6.565  1.3567 -1.6806 -2.6253
11438TIP3    H234256   4.864   7.340   6.604  0.2335 -2.3705  1.6981
11439TIP3   OH234257   1.159   2.397   0.256 -0.2662 -0.3501 -0.4406
11439TIP3    H134258   1.123   2.359   0.175 -3.3172 -0.9930  1.1280
11439TIP3    H234259   1.126   2.339   0.326  1.5092  0.7469  1.3407
11440TIP3   OH234260   2.871   2.657   6.916  0.5327  0.2068  0.4618
11440TIP3    H134261   2.915   2.601   6.852  1.8637  1.6540  0.0830
11440TIP3    H234262   2.931   2.660   6.990 -0.4215 -0.4260  1.2716
11441TIP3   OH234263   2.566   3.665   6.492  0.1082  0.2742  0.2683
11441TIP3    H134264   2.551   3.744   6.542  1.5607  0.0737  1.0465
11441TIP3    H234265   2.571   3.694   6.401  1.8301  1.2768  0.6521
11442TIP3   OH234266   2.946   7.712   0.386  0.5265 -0.5542 -0.4035
11442TIP3    H134267   2.947   7.618   0.407  1.8406 -0.9775 -2.2078
11442TIP3    H234268   2.854   7.735   0.381  0.2000 -1.4363  1.4249
11443TIP3   OH234269   3.446   2.973   5.990 -0.2943 -0.2523  0.2288
11443TIP3    H134270   3.488   3.014   6.066 -1.2471  1.6930 -0.2471
11443TIP3    H234271   3.452   3.040   5.921 -1.4693 -1.1118 -0.7280
11444TIP3   OH234272   1.489   2.982   0.773  0.2129  0.0427 -0.0721
11444TIP3    H134273   1.452   2.973   0.685 -1.0935  1.5902  0.3024
11444TIP3    H234274   1.583   2.995   0.758  0.3971 -2.2386 -1.1083
11445TIP3   OH234275   1.335   4.879   5.916  0.0997  0.0691  0.2045
11445TIP3    H134276   1.374   4.964   5.935 -0.9198  0.1763  1.9215
11445TIP3    H234277   1.409   4.823   5.895  0.8619  1.1445 -0.0468
11446TIP3   OH234278   2.834   6.358   5.410  0.4634 -0.2339 -0.3602
11446TIP3    H134279   2.833   6.302   5.332  1.1041  1.0281 -1.2963
11446TIP3    H234280   2.912   6.330   5.458  0.0745 -1.0072 -0.1560
11447TIP3   OH234281   1.664   4.277   6.545  0.0568  0.1185  0.4725
11447TIP3    H134282   1.675   4.358   6.496 -1.3035  0.8632  1.3415
11447TIP3    H234283   1.691   4.300   6.634 -0.7704 -0.2420  0.8229
11448TIP3   OH234284   1.638   4.729   6.772  0.1782  0.4031  0.1989
11448TIP3    H134285   1.601   4.740   6.860 -2.2077 -1.6751 -0.5065
11448TIP3    H234286   1.684   4.811   6.755 -2.1062  2.1235  2.0787
11449TIP3   OH234287   1.211   6.680   6.394 -0.3589  0.1455  0.2136
11449TIP3    H134288   1.155   6.641   6.327 -1.6740  1.7671  0.3277
11449TIP3    H234289   1.273   6.611   6.417 -0.5956 -0.7944 -1.8624
11450TIP3   OH234290   0.749   1.003   0.766  0.9847 -0.1354 -0.7271
11450TIP3    H134291   0.788   1.090   0.777  1.1292 -0.5728  2.7805
11450TIP3    H234292   0.713   0.982   0.852  2.1217 -4.1151 -1.1135
11451TIP3   OH234293   4.614   2.688   6.091  0.1011  0.7104  0.5478
11451TIP3    H134294   4.536   2.734   6.123  0.9297  1.6023  1.2961
11451TIP3    H234295   4.644   2.637   6.167  0.6553  0.9141  0.4657
11452TIP3   OH234296   1.464   4.976   7.038 -0.0950  0.0422  0.0542
11452TIP3    H134297   1.375   4.954   7.011  0.2441  0.7164 -1.6812
11452TIP3    H234298   1.479   5.064   7.003  0.7500  0.5227  1.5738
11453TIP3   OH234299   4.857   7.648   5.238  0.0884  0.0212  0.1056
11453TIP3    H134300   4.940   7.638   5.191 -0.3971 -0.8421 -0.5964
11453TIP3    H234301   4.794   7.671   5.170 -0.5587 -0.9281  0.3802
11454TIP3   OH234302   1.121   6.167   6.296 -0.3385  0.1449 -0.1773
11454TIP3    H134303   1.186   6.234   6.275  0.5446 -0.8110 -0.5526
11454TIP3    H234304   1.097   6.185   6.387 -1.3836  2.0041 -0.8184
11455TIP3   OH234305   3.095   3.833   5.753 -0.6052 -0.3278 -0.5747
11455TIP3    H134306   3.117   3.851   5.662  1.0632  0.7944  0.0325
11455TIP3    H234307   3.038   3.905   5.778 -0.5620 -0.3040 -0.5456
11456TIP3   OH234308   1.784   5.198   6.559 -0.5743  0.4861 -0.4374
11456TIP3    H134309   1.874   5.193   6.528  0.0692 -0.4474  1.5401
11456TIP3    H234310   1.786   5.259   6.632 -1.6063  0.7208 -0.5994
11457TIP3   OH234311   2.103   5.175   6.773  0.5354  0.4086  0.0979
11457TIP3    H134312   2.156   5.219   6.840 -2.1939  1.7983  1.4072
11457TIP3    H234313   2.022   5.152   6.817 -0.2982 -0.9845 -2.0837
11458TIP3   OH234314   8.253   1.859   0.864 -0.7452  0.4389  0.3213
11458TIP3    H134315   8.165   1.821   0.859 -0.6799  0.1106  1.5128
11458TIP3    H234316   8.243   1.933   0.924 -0.0712 -0.0124  1.0047
11459TIP3   OH234317   2.794   6.363   6.253  0.0189 -0.5807  0.2726
11459TIP3    H134318   2.713   6.358   6.305 -0.5500 -0.7303 -0.6239
11459TIP3    H234319   2.848   6.427   6.300 -1.7000  1.5651 -0.6025
11460TIP3   OH234320   8.347   1.537   1.810 -0.1202  0.2514  0.5666
11460TIP3    H134321   8.307   1.453   1.833 -0.4686  0.7882  1.9448
11460TIP3    H234322   8.335   1.544   1.715 -2.6849  0.1124  0.8717
11461TIP3   OH234323   8.512   1.124   0.151  0.2727 -0.5449 -0.0237
11461TIP3    H134324   8.558   1.047   0.184  0.9242 -0.2148 -0.1390
11461TIP3    H234325   8.568   1.156   0.080  0.0248  0.0425  0.0436
11462TIP3   OH234326   2.996   4.832   5.256  0.3293  0.4683  0.0685
11462TIP3    H134327   2.997   4.918   5.215 -1.1904 -0.1262 -1.2624
11462TIP3    H234328   2.959   4.847   5.343 -0.3542  1.1015 -0.3277
11463TIP3   OH234329   1.417   6.336   5.844  0.2850 -0.1493 -0.6808
11463TIP3    H134330   1.426   6.298   5.756 -1.0755  0.5671 -1.1323
11463TIP3    H234331   1.357   6.277   5.889  0.7812 -0.3701 -0.2971
11464TIP3   OH234332   2.119   3.556   6.628 -0.2085  0.3756  0.2214
11464TIP3    H134333   2.194   3.504   6.655  0.1924  0.8175 -0.0371
11464TIP3    H234334   2.114   3.627   6.692  0.3663  1.0679 -0.4856
11465TIP3   OH234335   1.945   3.809   5.810 -0.4599  0.1175  0.1637
11465TIP3    H134336   1.886   3.867   5.858 -0.5331  0.5386 -0.4250
11465TIP3    H234337   2.033   3.840   5.831 -0.5056  0.5889 -0.3243
11466TIP3   OH234338   3.379   6.694   4.961  0.3048 -0.4527  0.6126
11466TIP3    H134339   3.332   6.647   5.030 -1.6676  1.3873  0.5934
11466TIP3    H234340   3.352   6.650   4.880  1.8739 -2.0073  0.9125
11467TIP3   OH234341   7.498   1.195   0.784  0.0513  0.4854  0.0847
11467TIP3    H134342   7.447   1.118   0.808 -0.8591  0.6138 -1.3919
11467TIP3    H234343   7.522   1.235   0.868  1.5686 -2.0483  0.9269
11468TIP3   OH234344   4.448   5.009   6.188  0.0553 -0.2438 -0.0882
11468TIP3    H134345   4.531   5.051   6.211 -1.2636  2.4703 -0.0683
11468TIP3    H234346   4.456   4.988   6.095  0.1568  1.4800 -0.4713
11469TIP3   OH234347   1.019   6.099   5.167 -0.1459  0.1543  0.3879
11469TIP3    H134348   0.973   6.040   5.227 -0.7691 -0.2768 -0.4964
11469TIP3    H234349   1.041   6.044   5.092  0.2720  0.7881  0.0385
11470TIP3   OH234350   3.436   5.711   6.719  0.0339 -0.1952 -0.0036
11470TIP3    H134351   3.494   5.704   6.795 -0.4080 -0.7821  0.2866
11470TIP3    H234352   3.360   5.657   6.742  0.0742 -0.7042 -1.0309
11471TIP3   OH234353   2.233   0.732   1.148 -0.7760  0.1167  0.1357
11471TIP3    H134354   2.282   0.650   1.144  2.2247  1.8082  0.9840
11471TIP3    H234355   2.254   0.777   1.066 -1.9880  0.3101 -0.0853
11472TIP3   OH234356   1.077   3.165   5.779  0.0050 -0.0478 -0.6894
11472TIP3    H134357   1.021   3.203   5.848 -0.6773 -0.9489 -0.7336
11472TIP3    H234358   1.064   3.223   5.704 -1.2657 -0.5161 -0.8514
11473TIP3   OH234359   2.189   4.030   5.119 -0.3165  0.4604 -0.2012
11473TIP3    H134360   2.214   4.029   5.027 -0.3024 -2.0803 -0.2050
11473TIP3    H234361   2.184   4.123   5.142  1.3557  1.0942 -2.2952
11474TIP3   OH234362   0.442   5.444   5.783  0.1708 -0.1027 -0.1949
11474TIP3    H134363   0.466   5.378   5.847  0.8719  0.2787 -0.0600
11474TIP3    H234364   0.470   5.527   5.822 -1.9757  0.4383  0.2695
11475TIP3   OH234365   2.335   6.095   6.048  0.2897 -0.1095 -0.1271
11475TIP3    H134366   2.396   6.130   6.113 -0.2650  0.1853  0.2336
11475TIP3    H234367   2.391   6.064   5.977  0.8315  0.7780 -0.0964
11476TIP3   OH234368   1.486   6.267   5.180 -0.0618  0.1278 -0.2950
11476TIP3    H134369   1.492   6.340   5.118  4.5638  0.5643  0.4704
11476TIP3    H234370   1.452   6.307   5.261 -0.4207  0.7981 -0.7749
11477TIP3   OH234371   2.169   7.042   5.337  0.1223  0.4732  0.1034
11477TIP3    H134372   2.155   6.965   5.283 -0.9660  0.6487  0.1245
11477TIP3    H234373   2.182   7.008   5.426 -0.7517  0.3283  0.1804
11478TIP3   OH234374   4.258   4.825   4.994  0.7312 -0.5369  0.4287
11478TIP3    H134375   4.297   4.891   4.936 -0.5425 -1.1787 -1.1932
11478TIP3    H234376   4.274   4.859   5.082  0.2382  1.8617 -0.3631
11479TIP3   OH234377   5.569   4.966   5.671 -0.4034 -0.1759  0.0682
11479TIP3    H134378   5.581   4.876   5.642 -1.8024 -0.4907  0.4659
11479TIP3    H234379   5.571   4.961   5.766  0.4958  0.3579  0.0879
11480TIP3   OH234380   6.613   0.071   0.379  0.3769  0.5487 -0.3223
11480TIP3    H134381   6.546   0.091   0.444  1.5116  1.0344  0.7143
11480TIP3    H234382   6.581   0.113   0.299 -0.6196  0.6540  0.1219
11481TIP3   OH234383   4.557   7.510   0.150  0.6435 -0.5698 -0.2786
11481TIP3    H134384   4.537   7.604   0.152 -1.8142 -1.0738  0.3395
11481TIP3    H234385   4.546   7.481   0.240 -0.5239 -1.8254 -0.8109
11482TIP3   OH234386   1.265   5.216   6.034 -0.2816 -0.4974 -0.1982
11482TIP3    H134387   1.319   5.238   5.958 -0.1918 -0.8900 -0.2510
11482TIP3    H234388   1.274   5.291   6.092 -1.0511  0.1902 -0.9517
11483TIP3   OH234389   3.700   4.274   5.392 -0.5049 -0.2183 -0.7103
11483TIP3    H134390   3.700   4.222   5.311  0.9698 -0.6400 -0.4520
11483TIP3    H234391   3.750   4.221   5.454  0.9230  1.4520 -0.4050
11484TIP3   OH234392   4.936   7.383   1.504  0.2888  0.0946  0.4373
11484TIP3    H134393   4.987   7.436   1.566  0.9072 -1.1421  1.0103
11484TIP3    H234394   5.002   7.329   1.460 -0.6001 -2.1808  1.8247
11485TIP3   OH234395   6.322   6.544   1.003  0.2432 -0.0792 -0.1039
11485TIP3    H134396   6.355   6.608   0.939 -0.8250  1.1464  0.5361
11485TIP3    H234397   6.240   6.512   0.965  0.2510 -0.2918  0.0600
11486TIP3   OH234398   6.618   0.104   0.804  0.1328  0.4886 -0.5894
11486TIP3    H134399   6.688   0.169   0.810 -0.7443  1.3769  0.2592
11486TIP3    H234400   6.655   0.025   0.842  1.2621  0.4322 -1.7565
11487TIP3   OH234401   2.763   5.181   6.042 -0.9174  0.3073 -0.2327
11487TIP3    H134402   2.831   5.175   5.975 -0.5353  0.4916  0.1371
11487TIP3    H234403   2.773   5.269   6.078 -1.5152  0.4229 -0.3494
11488TIP3   OH234404   3.418   5.084   6.831  0.0992 -0.5680 -0.0657
11488TIP3    H134405   3.471   5.161   6.814 -0.0623 -0.1307  1.3532
11488TIP3    H234406   3.329   5.116   6.837  0.1232 -0.7292  1.3378
11489TIP3   OH234407   1.489   0.414   0.163  0.1448 -0.6483  0.2455
11489TIP3    H134408   1.494   0.439   0.070  0.3718  1.8212  0.8961
11489TIP3    H234409   1.448   0.489   0.206 -1.0281 -2.2505  1.9883
11490TIP3   OH234410   8.374   0.787   0.528 -0.6397 -0.0347 -0.5110
11490TIP3    H134411   8.312   0.743   0.587  0.1773  0.3729  0.6885
11490TIP3    H234412   8.365   0.880   0.550  0.1592  0.0553 -0.5355
11491TIP3   OH234413   8.035   6.046   6.721  0.1243 -0.2420  0.2206
11491TIP3    H134414   8.121   6.088   6.714  0.3945 -0.1633  3.4149
11491TIP3    H234415   7.978   6.102   6.668  1.7912  0.3827 -0.9731
11492TIP3   OH234416   1.567   4.775   5.833 -0.2029  0.1485 -0.0151
11492TIP3    H134417   1.614   4.791   5.915  0.1580 -1.8428  0.1999
11492TIP3    H234418   1.608   4.696   5.798 -0.6007  0.7839 -1.9358
11493TIP3   OH234419   2.895   6.515   5.076  0.9769 -0.3053  0.7445
11493TIP3    H134420   2.919   6.423   5.088  0.6045 -0.5095 -0.0594
11493TIP3    H234421   2.847   6.538   5.156  1.8384 -0.5514  1.3398
11494TIP3   OH234422   2.855   6.049   7.013  0.0393  0.0626 -0.2384
11494TIP3    H134423   2.816   6.029   6.928 -2.0573 -1.7008  1.0927
11494TIP3    H234424   2.923   5.982   7.025  1.9806  1.7346 -1.5210
11495TIP3   OH234425   2.059   5.312   7.013 -0.1253 -0.4392 -0.2958
11495TIP3    H134426   2.033   5.399   6.982 -1.3290 -0.3315  0.9761
11495TIP3    H234427   2.147   5.324   7.048  0.0821  0.0598 -0.9731
11496TIP3   OH234428   1.499   6.363   6.940  0.1382 -0.2453 -0.0058
11496TIP3    H134429   1.445   6.305   6.887 -0.8746 -0.5802  1.3640
11496TIP3    H234430   1.486   6.450   6.903  0.3089 -0.6390 -0.9878
11497TIP3   OH234431   2.257   3.279   6.918  0.1985 -0.0739 -0.1984
11497TIP3    H134432   2.286   3.213   6.980  2.5054  1.9323  0.9682
11497TIP3    H234433   2.323   3.278   6.849  1.3804  2.3387  0.8448
11498TIP3   OH234434   2.434   4.033   5.734  0.0449  0.0644 -0.0786
11498TIP3    H134435   2.455   4.097   5.802  0.3814 -0.6193  0.4628
11498TIP3    H234436   2.513   3.980   5.726  0.5303  1.0286 -2.0090
11499TIP3   OH234437   3.593   5.610   6.949 -0.1079 -0.1691 -0.0525
11499TIP3    H134438   3.688   5.616   6.961  0.0155 -0.4192 -0.8731
11499TIP3    H234439   3.557   5.650   7.028  0.6767  0.2059  0.1262
11500TIP3   OH234440   2.412   2.777   4.652 -0.5551  0.5450 -0.2398
11500TIP3    H134441   2.371   2.771   4.566 -0.6368 -1.5897 -0.0743
11500TIP3    H234442   2.389   2.695   4.695  1.7810  0.4106  0.7977
11501TIP3   OH234443   6.420   7.439   0.675 -0.0671 -0.7909 -0.0830
11501TIP3    H134444   6.409   7.507   0.609  0.2700  1.0038  1.6680
11501TIP3    H234445   6.497   7.389   0.646  1.6543  1.5829  0.3132
11502TIP3   OH234446   3.442   4.413   6.554 -0.3131 -0.8527  0.3525
11502TIP3    H134447   3.521   4.454   6.590 -0.8095 -0.5223  1.0789
11502TIP3    H234448   3.383   4.486   6.537 -1.4949 -1.3073  2.3785
11503TIP3   OH234449   4.505   5.950   5.777 -0.0079 -0.1883 -0.3019
11503TIP3    H134450   4.528   6.012   5.709  0.2846 -0.9404 -0.8979
11503TIP3    H234451   4.557   5.872   5.757 -1.5327 -1.1698 -0.4605
11504TIP3   OH234452   4.906   3.573   5.407  0.3336 -0.1107 -0.5815
11504TIP3    H134453   4.910   3.663   5.440  1.8312 -0.3071 -0.1833
11504TIP3    H234454   4.894   3.520   5.486 -1.7872 -0.1940 -0.9330
11505TIP3   OH234455   2.424   1.247   0.618 -0.1267 -0.3411  0.0485
11505TIP3    H134456   2.368   1.318   0.585  0.9570  0.3612 -0.3054
11505TIP3    H234457   2.411   1.248   0.713 -0.9739 -0.4049 -0.0662
11506TIP3   OH234458   1.163   6.663   5.947 -0.3604  0.0136  0.0694
11506TIP3    H134459   1.089   6.659   5.887 -0.8759  0.2594  0.6916
11506TIP3    H234460   1.197   6.752   5.937 -0.1078 -0.1199 -0.2653
11507TIP3   OH234461   0.243   1.754   2.123 -0.1260 -0.5604 -0.3442
11507TIP3    H134462   0.292   1.810   2.062  0.5063 -0.2370  0.4497
11507TIP3    H234463   0.151   1.772   2.103  0.0665 -1.0365 -1.7257
11508TIP3   OH234464   2.209   6.530   6.171  0.5792 -0.5893  0.1063
11508TIP3    H134465   2.275   6.585   6.130 -0.9766  1.1466 -0.1425
11508TIP3    H234466   2.189   6.573   6.254  0.0422 -1.3022  0.3580
11509TIP3   OH234467   0.415   0.347   1.307  0.0468 -0.3039 -0.4009
11509TIP3    H134468   0.445   0.411   1.241 -0.3499  0.5624  0.2576
11509TIP3    H234469   0.329   0.319   1.275  1.0043 -1.8901 -1.6560
11510TIP3   OH234470   0.259   0.235   0.762  0.2103  0.1666  0.0806
11510TIP3    H134471   0.220   0.306   0.814  1.8111  1.2590 -0.1517
11510TIP3    H234472   0.353   0.250   0.768  0.4960 -0.7626 -1.6400
11511TIP3   OH234473   6.169   6.352   0.007  0.2267  0.2913 -0.4537
11511TIP3    H134474   6.233   6.312   0.067 -1.2622 -1.2910  0.1164
11511TIP3    H234475   6.084   6.336   0.048 -0.5827  2.1322 -1.3455
11512TIP3   OH234476   6.906   7.381   0.668  0.2787 -0.1127 -0.8283
11512TIP3    H134477   6.920   7.449   0.603  2.7188  0.1253 -0.0958
11512TIP3    H234478   6.876   7.427   0.746  2.2046  0.1974 -0.2428
11513TIP3   OH234479   0.235   1.662   1.510 -0.2580  0.0725 -0.1522
11513TIP3    H134480   0.317   1.614   1.504 -0.6798 -0.6769 -0.0315
11513TIP3    H234481   0.196   1.632   1.592 -0.3345  0.9323  0.1304
11514TIP3   OH234482   3.854   3.850   6.392  0.3066 -0.2393  0.0829
11514TIP3    H134483   3.936   3.820   6.432  1.3758  2.8785  0.3564
11514TIP3    H234484   3.785   3.808   6.443  1.7184 -1.5146  0.9647
11515TIP3   OH234485   8.145   5.848   5.329 -0.2681 -0.3485 -0.2800
11515TIP3    H134486   8.086   5.878   5.399 -1.0510 -0.5130 -0.8557
11515TIP3    H234487   8.202   5.785   5.371 -0.1796  0.1897  0.4065
11516TIP3   OH234488   6.651   1.275   1.227 -0.1467  0.0953 -0.4044
11516TIP3    H134489   6.700   1.316   1.298  1.7099 -0.1271 -1.5314
11516TIP3    H234490   6.559   1.293   1.248  0.4045  0.6611  1.6471
11517TIP3   OH234491   6.993   1.490   1.310  0.0489  0.1368 -0.0181
11517TIP3    H134492   6.965   1.541   1.233  0.7706  0.0655 -0.3322
11517TIP3    H234493   7.002   1.401   1.277 -2.1018 -0.3886  0.7409
11518TIP3   OH234494   2.237   1.022   0.454  0.2055 -0.1300  0.1547
11518TIP3    H134495   2.308   1.085   0.471 -0.4619  0.5287  0.5243
11518TIP3    H234496   2.263   0.978   0.373  0.9831  0.1954  0.2225
11519TIP3   OH234497   4.771   6.398   6.817  0.3060  0.0682 -0.4449
11519TIP3    H134498   4.736   6.425   6.902  1.0014  1.2586 -0.5230
11519TIP3    H234499   4.832   6.468   6.794  1.0860 -0.9019 -1.3213
11520TIP3   OH234500   3.222   4.504   6.037 -0.0574 -0.1903  0.2356
11520TIP3    H134501   3.258   4.505   6.125 -1.5123  0.6336  0.8380
11520TIP3    H234502   3.131   4.532   6.047  0.4640  2.5443 -1.8214
11521TIP3   OH234503   3.810   4.763   5.167 -0.2225  0.4705 -0.1869
11521TIP3    H134504   3.789   4.844   5.121 -0.2489 -0.7424 -2.3874
11521TIP3    H234505   3.744   4.757   5.236  0.7960  3.1457  1.0724
11522TIP3   OH234506   3.425   5.494   6.191 -0.1285  0.5433 -0.0860
11522TIP3    H134507   3.387   5.501   6.279  0.1674 -2.1664  0.2944
11522TIP3    H234508   3.350   5.498   6.132 -0.4597  0.9689  0.3557
11523TIP3   OH234509   4.675   5.018   6.850 -0.2569  0.0626 -0.4625
11523TIP3    H134510   4.640   4.930   6.860  0.2626  0.0705  1.5967
11523TIP3    H234511   4.732   5.031   6.926 -0.7576  2.3874 -0.4353
11524TIP3   OH234512   2.165   5.409   4.932  0.0300 -0.4508  0.1061
11524TIP3    H134513   2.176   5.340   4.867 -0.5507 -0.3041 -0.1462
11524TIP3    H234514   2.113   5.476   4.888  0.6693  0.1982  0.3136
11525TIP3   OH234515   2.658   7.466   6.657  0.1448  0.5336  0.0817
11525TIP3    H134516   2.732   7.517   6.690  0.2480  0.7640 -0.5013
11525TIP3    H234517   2.680   7.376   6.679  1.7438  0.3097 -2.1455
11526TIP3   OH234518   1.761   5.336   6.826  0.2505 -0.0817  0.4795
11526TIP3    H134519   1.708   5.300   6.897  0.4506 -0.8331  0.2531
11526TIP3    H234520   1.781   5.426   6.854 -0.2278 -0.1540  1.0616
11527TIP3   OH234521   3.466   5.267   5.221 -0.1580 -0.2230 -0.2780
11527TIP3    H134522   3.462   5.338   5.156 -4.5830  0.0167  0.1041
11527TIP3    H234523   3.556   5.235   5.216  0.5162  1.9597 -4.2052
11528TIP3   OH234524   4.785   7.190   0.689 -0.1970  0.0520  0.4923
11528TIP3    H134525   4.816   7.216   0.775  0.7381  0.0742  0.1577
11528TIP3    H234526   4.755   7.100   0.700  0.1348 -0.0224  0.7848
11529TIP3   OH234527   3.216   6.529   5.124  0.5056 -0.2723 -0.2123
11529TIP3    H134528   3.142   6.480   5.088  1.3075  0.4861 -3.0562
11529TIP3    H234529   3.186   6.559   5.209 -1.3931 -2.4305 -0.0521
11530TIP3   OH234530   7.778   0.629   0.382 -0.1521 -0.3017 -0.2232
11530TIP3    H134531   7.779   0.668   0.295  1.1702  0.4218  0.1065
11530TIP3    H234532   7.841   0.557   0.378  0.0388 -0.1602  0.1847
11531TIP3   OH234533   2.460   6.638   5.442  0.0043  0.1834  0.1954
11531TIP3    H134534   2.433   6.722   5.478 -0.5302 -0.8140  2.1435
11531TIP3    H234535   2.382   6.583   5.446  0.2572 -0.3312 -1.3695
11532TIP3   OH234536   4.782   4.785   5.211  0.1541  0.1643 -0.2161
11532TIP3    H134537   4.739   4.769   5.127 -1.0802  0.8425  0.2875
11532TIP3    H234538   4.712   4.781   5.276  1.0739 -0.1993  0.7767
11533TIP3   OH234539   0.400   1.109   0.194  0.3457  0.0891  0.3995
11533TIP3    H134540   0.407   1.175   0.263  0.1814  0.0078  0.4925
11533TIP3    H234541   0.356   1.035   0.235 -0.2132  0.2368  0.0650
11534TIP3   OH234542   3.931   6.829   5.281  0.0253 -0.4699 -0.3556
11534TIP3    H134543   3.976   6.865   5.358 -0.5525 -1.3874  0.4174
11534TIP3    H234544   3.859   6.778   5.317 -1.1704  0.3455 -1.5687
11535TIP3   OH234545   0.580   1.773   1.062  0.1836 -0.3747  0.2127
11535TIP3    H134546   0.620   1.760   1.148 -0.6181  1.0340  0.8164
11535TIP3    H234547   0.576   1.868   1.051 -1.3346 -0.5047 -0.6106
11536TIP3   OH234548   6.204   4.827   6.608  0.0977 -0.0667 -0.3686
11536TIP3    H134549   6.129   4.884   6.594 -0.4523 -0.5848  0.4453
11536TIP3    H234550   6.172   4.739   6.589  0.5846 -0.2526 -0.3441
11537TIP3   OH234551   5.495   5.433   6.741 -0.6105  0.6306  0.4369
11537TIP3    H134552   5.570   5.376   6.721 -2.2919 -2.0007  1.3701
11537TIP3    H234553   5.503   5.506   6.679  1.3504 -0.8632 -1.1330
11538TIP3   OH234554   6.213   7.994   0.648  0.2733 -0.5416 -0.0927
11538TIP3    H134555   6.222   8.042   0.730  2.1301 -2.7815  1.0794
11538TIP3    H234556   6.253   7.909   0.666  0.6631 -1.0932 -3.3166
11539TIP3   OH234557   1.651   3.770   6.915 -0.2239 -0.5175 -0.5643
11539TIP3    H134558   1.599   3.696   6.948 -1.0402  0.2504 -0.0985
11539TIP3    H234559   1.695   3.805   6.993 -2.1353  1.2840 -0.2393
11540TIP3   OH234560   0.502   0.780   1.189 -0.3891  0.0091 -0.0798
11540TIP3    H134561   0.408   0.797   1.185 -0.9615 -2.8806  0.1033
11540TIP3    H234562   0.524   0.786   1.282 -0.2023  1.4539 -0.1990
11541TIP3   OH234563   4.343   3.301   6.579  0.5096 -0.0138  0.2645
11541TIP3    H134564   4.330   3.232   6.644  4.8179 -1.2730 -0.0554
11541TIP3    H234565   4.320   3.260   6.496  1.2790 -0.5104  0.2900
11542TIP3   OH234566   2.498   2.621   5.576  0.0567  0.0519  0.4320
11542TIP3    H134567   2.558   2.607   5.503 -0.9836 -1.2784 -0.2136
11542TIP3    H234568   2.521   2.552   5.639  0.8153  1.0671  1.2689
11543TIP3   OH234569   3.399   5.632   5.091  0.2185  0.1306  0.2104
11543TIP3    H134570   3.362   5.552   5.052 -0.3649 -0.6028  2.1965
11543TIP3    H234571   3.418   5.689   5.016 -1.3373 -1.0349 -1.1081
11544TIP3   OH234572   5.825   7.745   1.219  0.0301  0.0601 -0.0917
11544TIP3    H134573   5.879   7.785   1.151  0.2633  1.0179  0.6447
11544TIP3    H234574   5.787   7.667   1.178 -1.4913  1.7589 -1.9863
11545TIP3   OH234575   5.462   1.089   1.648  0.2737 -0.0285 -0.7700
11545TIP3    H134576   5.524   1.162   1.639  1.7113 -1.1557 -0.1474
11545TIP3    H234577   5.489   1.045   1.729 -0.5236 -1.3060 -1.1957
11546TIP3   OH234578   3.092   6.136   6.408  0.0358  0.5177  0.2395
11546TIP3    H134579   3.023   6.071   6.421 -0.1183  0.0885 -2.5752
11546TIP3    H234580   3.152   6.122   6.482 -1.2890 -1.1252  1.0279
11547TIP3   OH234581   7.782   1.908   1.030  0.3167  0.0493  1.0464
11547TIP3    H134582   7.868   1.867   1.018 -0.7364 -2.4342  1.7093
11547TIP3    H234583   7.778   1.931   1.123 -0.0690 -0.6114  1.1938
11548TIP3   OH234584   7.664   0.399   0.464  0.1382 -0.3835 -0.6636
11548TIP3    H134585   7.683   0.487   0.431 -0.5380 -0.1643 -0.4796
11548TIP3    H234586   7.708   0.340   0.403  1.0335  0.0987 -0.4948
11549TIP3   OH234587   4.096   4.163   5.523  0.0199  0.0934  0.1528
11549TIP3    H134588   4.027   4.168   5.590  0.0556 -1.2581  0.3022
11549TIP3    H234589   4.176   4.184   5.570 -0.2029  1.1064  0.1004
11550TIP3   OH234590   5.936   0.654   0.563 -0.1037  0.5205 -0.1329
11550TIP3    H134591   5.887   0.729   0.532  1.2263  0.6963 -1.9289
11550TIP3    H234592   6.015   0.652   0.508  1.3362 -0.4240  1.8730
11551TIP3   OH234593   4.532   6.133   0.241  0.0824 -0.1463 -0.2446
11551TIP3    H134594   4.507   6.206   0.184 -1.3505 -0.3854  0.0570
11551TIP3    H234595   4.582   6.074   0.184  0.0114  0.3707 -0.8503
11552TIP3   OH234596   3.523   5.184   4.553  0.4852  0.2444  0.2836
11552TIP3    H134597   3.579   5.187   4.475 -1.0203 -1.4088 -0.9087
11552TIP3    H234598   3.475   5.266   4.551  2.1416  1.2517  0.7863
11553TIP3   OH234599   1.499   5.307   6.711 -0.0270  0.2356  0.1987
11553TIP3    H134600   1.505   5.401   6.692 -1.3860 -0.0298 -1.6618
11553TIP3    H234601   1.541   5.298   6.797  0.3275  2.5007  0.3148
11554TIP3   OH234602   3.550   5.358   4.832 -0.4006 -0.5681  0.1505
11554TIP3    H134603   3.488   5.300   4.876 -0.9338 -0.9588 -1.0939
11554TIP3    H234604   3.522   5.359   4.741  1.3212 -0.5910 -0.3958
11555TIP3   OH234605   1.955   4.476   5.283  0.4844  0.0054  0.6849
11555TIP3    H134606   1.956   4.527   5.203  0.5850  1.0731  1.3521
11555TIP3    H234607   1.923   4.389   5.257  0.0304  0.5008 -0.4077
11556TIP3   OH234608   7.027   3.192   0.289 -0.1832  0.2259  0.4336
11556TIP3    H134609   6.980   3.150   0.361  2.7912 -2.5760  0.8822
11556TIP3    H234610   7.085   3.124   0.256  2.9007  3.2286 -0.6419
11557TIP3   OH234611   0.904   5.654   5.817 -0.0515  0.7932 -0.2993
11557TIP3    H134612   0.944   5.694   5.739  1.3610 -2.9874 -1.6501
11557TIP3    H234613   0.975   5.606   5.858 -1.3028  1.0004  2.1852
11558TIP3   OH234614   2.359   2.796   6.568 -0.5353 -0.0275 -0.2038
11558TIP3    H134615   2.285   2.857   6.567  0.1326  0.8144  0.7757
11558TIP3    H234616   2.377   2.782   6.661 -0.2051 -1.1410 -0.4310
11559TIP3   OH234617   4.185   4.146   6.571 -0.6466  0.1389 -0.5430
11559TIP3    H134618   4.181   4.076   6.505 -2.8892 -0.8127  0.5642
11559TIP3    H234619   4.215   4.102   6.650  0.3990  0.9482 -0.4861
11560TIP3   OH234620   8.105   0.073   0.320 -0.4148  0.1197 -0.3331
11560TIP3    H134621   8.195   0.052   0.298 -0.4992  0.5881 -1.1605
11560TIP3    H234622   8.053   0.029   0.253 -0.7856  0.0018  0.0326
11561TIP3   OH234623   6.406   0.491   0.394 -0.0017  0.1423 -0.0198
11561TIP3    H134624   6.498   0.479   0.372 -0.2165  1.4355 -1.7860
11561TIP3    H234625   6.360   0.421   0.347  0.1019 -0.7937  1.2409
11562TIP3   OH234626   1.880   3.840   6.674 -0.6825  0.3323  0.0870
11562TIP3    H134627   1.917   3.891   6.602 -0.7489 -0.6884 -0.6816
11562TIP3    H234628   1.956   3.801   6.718 -0.7378 -0.6072 -0.6228
11563TIP3   OH234629   4.366   4.621   6.949 -0.1227  0.0504  0.0113
11563TIP3    H134630   4.405   4.583   6.871  0.2402  0.1079  0.1624
11563TIP3    H234631   4.388   4.714   6.945 -0.6304  0.1670 -0.1322
11564TIP3   OH234632   3.508   5.594   5.354  0.0899  0.0653  0.1317
11564TIP3    H134633   3.455   5.599   5.275 -0.3440 -1.2134  0.3336
11564TIP3    H234634   3.449   5.618   5.425  0.1989  0.1869  0.1818
11565TIP3   OH234635   2.915   4.646   6.822 -0.0040  0.2090 -0.2826
11565TIP3    H134636   2.858   4.707   6.775 -0.8321 -1.2249 -1.1465
11565TIP3    H234637   2.866   4.564   6.827  1.0317 -0.3635  1.0252
11566TIP3   OH234638   0.952   5.292   6.890  0.5636  0.1654 -0.4116
11566TIP3    H134639   0.938   5.387   6.880  1.6497  0.5366  1.4149
11566TIP3    H234640   0.946   5.277   6.985  0.7237 -1.5447 -0.6641
11567TIP3   OH234641   2.005   3.047   5.066  0.1282  0.0693  0.3240
11567TIP3    H134642   2.015   3.066   4.973 -2.7556  1.1816  0.2012
11567TIP3    H234643   1.988   3.132   5.107 -2.8791 -0.8801  1.2090
11568TIP3   OH234644   2.482   5.580   4.535 -0.1567 -0.7297 -0.7299
11568TIP3    H134645   2.440   5.515   4.478 -2.0234 -0.5610  0.4088
11568TIP3    H234646   2.409   5.620   4.583  1.2197  0.4194  0.4287
11569TIP3   OH234647   4.209   6.189   5.103 -0.1524 -0.4547 -0.0643
11569TIP3    H134648   4.298   6.170   5.075  0.3332 -0.1921  1.2681
11569TIP3    H234649   4.164   6.219   5.023  1.1310  0.0791 -0.5983
11570TIP3   OH234650   0.869   1.939   1.261  0.5090  1.0062  0.4602
11570TIP3    H134651   0.829   1.955   1.346 -0.6656  0.6336 -0.0162
11570TIP3    H234652   0.820   1.994   1.200  1.8962  1.9243  0.1445
11571TIP3   OH234653   3.271   3.996   6.959  0.2814  0.0146  0.3292
11571TIP3    H134654   3.200   3.932   6.947 -0.0035 -0.0152  2.0434
11571TIP3    H234655   3.242   4.073   6.910 -0.8894 -0.0374  0.9187
11572TIP3   OH234656   0.756   4.469   5.916  0.2979  0.2843  0.4170
11572TIP3    H134657   0.773   4.534   5.983 -1.7134 -1.1803  2.4321
11572TIP3    H234658   0.689   4.509   5.860 -0.7327  0.0750  1.4871
11573TIP3   OH234659   6.727   6.454   0.273  0.1818 -0.3357 -0.2226
11573TIP3    H134660   6.706   6.519   0.340 -0.0894 -0.7554  0.1051
11573TIP3    H234661   6.807   6.412   0.306 -0.4579 -1.1652  0.2974
11574TIP3   OH234662   0.839   1.191   0.186 -0.3574 -0.0906  0.1552
11574TIP3    H134663   0.867   1.145   0.264 -0.4668 -1.0039 -0.3377
11574TIP3    H234664   0.768   1.137   0.151 -0.1483  0.1863 -0.7012
11575TIP3   OH234665   2.306   5.327   4.617 -0.0413 -0.0306 -0.1084
11575TIP3    H134666   2.382   5.319   4.558 -0.0973 -0.8709 -0.0748
11575TIP3    H234667   2.232   5.340   4.559 -0.0863 -0.7869 -0.2267
11576TIP3   OH234668   3.410   6.440   5.911 -0.0285 -0.0788  0.2079
11576TIP3    H134669   3.369   6.383   5.846 -1.0435 -0.3297  1.0500
11576TIP3    H234670   3.391   6.529   5.880  0.5773 -0.2048 -0.5085
11577TIP3   OH234671   4.173   5.575   6.608  0.3826  0.1560 -0.0940
11577TIP3    H134672   4.125   5.548   6.530  0.7815 -1.0027  0.0418
11577TIP3    H234673   4.122   5.540   6.681  0.0864  1.1093  0.1640
11578TIP3   OH234674   4.982   3.260   4.902  0.0625 -0.3842 -0.1998
11578TIP3    H134675   4.978   3.167   4.926  0.3498 -0.0969  0.9798
11578TIP3    H234676   5.057   3.294   4.950 -0.1574  0.5111 -0.4769
11579TIP3   OH234677   2.008   6.398   6.431 -0.4095  0.2723 -0.0257
11579TIP3    H134678   2.037   6.475   6.382 -2.8101  0.0686 -1.8544
11579TIP3    H234679   2.020   6.421   6.523  0.3917  2.2044 -0.6022
11580TIP3   OH234680   3.566   5.113   5.975 -0.4586 -0.0320 -0.1307
11580TIP3    H134681   3.588   5.117   5.882  1.0439 -0.1885  0.2115
11580TIP3    H234682   3.487   5.167   5.983 -0.7083 -0.1762 -1.5221
11581TIP3   OH234683   2.988   6.018   5.991  0.0913  0.2901  0.0688
11581TIP3    H134684   3.047   6.018   5.916  2.4024  1.0288  1.8039
11581TIP3    H234685   2.976   6.111   6.012 -1.0199  0.1115  0.2473
11582TIP3   OH234686   4.807   4.366   4.938  0.4246  0.2652  0.6590
11582TIP3    H134687   4.822   4.309   4.862  0.9460 -0.2682  1.1527
11582TIP3    H234688   4.713   4.359   4.955  0.4636 -0.3650  0.6446
11583TIP3   OH234689   4.876   1.333   3.381  0.0469 -0.4413  0.5127
11583TIP3    H134690   4.919   1.249   3.368  0.7538 -0.1150  0.7032
11583TIP3    H234691   4.874   1.373   3.294 -1.0472 -1.0041  0.2673
11584TIP3   OH234692   6.566   5.980   4.229  0.3928  0.1606 -0.0420
11584TIP3    H134693   6.517   6.062   4.221  0.7546  0.4393  0.5644
11584TIP3    H234694   6.510   5.924   4.283  0.1148 -0.0206 -0.5140
11585TIP3   OH234695   1.427   1.788   0.005 -0.4846 -0.5776  0.1697
11585TIP3    H134696   1.497   1.810   0.065 -1.0863 -0.3077  0.7782
11585TIP3    H234697   1.428   1.693  -0.000  2.3666 -0.4741 -2.7557
11586TIP3   OH234698   3.682   6.687   6.172 -0.5325 -0.3397  0.5747
11586TIP3    H134699   3.661   6.707   6.081  0.2414  1.7574  0.8135
11586TIP3    H234700   3.669   6.593   6.180 -2.5070 -0.2643 -1.1877
11587TIP3   OH234701   2.055   5.260   5.130  0.0481  0.4540  0.0548
11587TIP3    H134702   2.101   5.309   5.062 -0.3980  1.4777  0.4847
11587TIP3    H234703   2.109   5.273   5.208 -0.4118  0.7802  0.3142
11588TIP3   OH234704   2.667   5.016   5.201  0.6013 -0.2471 -0.3207
11588TIP3    H134705   2.595   4.955   5.189 -0.2817  0.6510  0.3410
11588TIP3    H234706   2.629   5.102   5.183  1.8713  0.1140 -1.4117
11589TIP3   OH234707   5.081   3.444   5.625  0.4016 -0.0420 -0.4918
11589TIP3    H134708   5.004   3.397   5.594 -2.9736  2.3530  3.6409
11589TIP3    H234709   5.118   3.389   5.694 -0.2965  0.7894  0.5684
11590TIP3   OH234710   1.642   1.248   1.563  0.0105 -0.6079  0.0438
11590TIP3    H134711   1.548   1.242   1.583 -0.2855 -0.0734 -1.1579
11590TIP3    H234712   1.670   1.330   1.604 -0.0488 -0.7618  0.3945
11591TIP3   OH234713   2.491   5.219   6.276  0.0560  0.2897 -0.8269
11591TIP3    H134714   2.566   5.267   6.240  0.6495 -0.3802 -0.4869
11591TIP3    H234715   2.452   5.279   6.339  0.5728  0.4652 -0.6756
11592TIP3   OH234716   4.031   5.383   4.015 -0.1719  0.0041 -0.0540
11592TIP3    H134717   4.046   5.320   3.945  1.8227 -1.1414  1.3453
11592TIP3    H234718   4.061   5.467   3.980 -0.8455 -0.2073 -1.1601
11593TIP3   OH234719   4.229   3.933   6.395 -0.1555 -0.7062  0.3297
11593TIP3    H134720   4.310   3.889   6.371 -0.2796  0.0567 -1.5929
11593TIP3    H234721   4.162   3.864   6.393  0.2803 -1.1531  1.0239
11594TIP3   OH234722   4.794   5.956   6.361 -0.4802  0.2231  0.0059
11594TIP3    H134723   4.704   5.984   6.375  0.1496  1.9036  0.8714
11594TIP3    H234724   4.832   6.025   6.307  1.0432  0.9180  1.9389
11595TIP3   OH234725   3.803   4.821   6.489 -0.1291  0.3801 -0.0222
11595TIP3    H134726   3.809   4.805   6.394  0.2449 -0.9015  0.2160
11595TIP3    H234727   3.888   4.857   6.513  0.6847 -1.6996  0.2771
11596TIP3   OH234728   3.461   4.873   5.122 -0.0292  0.3054 -0.5092
11596TIP3    H134729   3.384   4.830   5.084  0.9344 -0.8782 -1.1425
11596TIP3    H234730   3.474   4.830   5.207  0.2955  0.0812 -0.6717
11597TIP3   OH234731   4.213   6.345   5.644 -0.2543 -0.0099 -0.4059
11597TIP3    H134732   4.257   6.294   5.713 -0.7943  2.5863  1.9742
11597TIP3    H234733   4.120   6.323   5.655 -0.6804  2.6187  1.7191
11598TIP3   OH234734   5.368   4.253   5.764  0.0777 -0.4180  0.4112
11598TIP3    H134735   5.364   4.169   5.718 -1.5748 -1.3922  2.2378
11598TIP3    H234736   5.284   4.294   5.746 -0.0763 -0.2406  1.4872
11599TIP3   OH234737   7.060   4.510   6.182  0.2049 -0.1293 -0.1098
11599TIP3    H134738   7.081   4.596   6.146 -3.0337  0.2931 -1.2024
11599TIP3    H234739   7.037   4.527   6.273 -1.2402  0.3559 -0.5374
11600TIP3   OH234740   5.500   6.784   4.437  0.6142  0.2079 -0.1834
11600TIP3    H134741   5.434   6.843   4.474  0.0090  0.9169 -2.3278
11600TIP3    H234742   5.487   6.702   4.485 -2.3732  0.0727 -1.0839
11601TIP3   OH234743   4.002   5.204   5.303  0.0821 -0.0147  0.0807
11601TIP3    H134744   3.951   5.175   5.379  0.2304  0.3795  0.3322
11601TIP3    H234745   4.083   5.154   5.308 -0.4567 -0.9728 -0.5694
11602TIP3   OH234746   3.272   0.480   0.834 -0.5107 -0.1104 -0.2341
11602TIP3    H134747   3.318   0.397   0.820 -1.0471 -0.0488 -2.5691
11602TIP3    H234748   3.180   0.455   0.844 -0.3319 -0.0085  1.7549
11603TIP3   OH234749   3.906   6.167   6.038  0.6444  0.1155 -0.2713
11603TIP3    H134750   3.855   6.090   6.063  0.1190 -0.6183 -3.3446
11603TIP3    H234751   3.974   6.133   5.980  1.1487  1.7781 -0.6759
11604TIP3   OH234752   6.793   4.138   6.260 -0.1756  0.3579 -0.0234
11604TIP3    H134753   6.856   4.193   6.214 -0.2815  1.5410  1.1921
11604TIP3    H234754   6.838   4.053   6.270  0.0081  0.2146 -1.8656
11605TIP3   OH234755   5.547   5.577   4.685  1.2049  0.7447 -0.0837
11605TIP3    H134756   5.627   5.536   4.651  2.4954  1.6960  1.7013
11605TIP3    H234757   5.577   5.627   4.761 -1.0116  1.6093  0.2455
11606TIP3   OH234758   4.571   4.813   4.669  0.2425  0.1292  0.2467
11606TIP3    H134759   4.484   4.791   4.638  0.1147  1.0606 -0.0573
11606TIP3    H234760   4.575   4.909   4.665  0.6591  0.1957  1.8976
11607TIP3   OH234761   3.518   3.206   6.126  0.2229  0.0489 -0.1194
11607TIP3    H134762   3.478   3.140   6.183  1.9279  0.4861  1.6120
11607TIP3    H234763   3.545   3.276   6.186  1.7817  0.6489 -1.4949
11608TIP3   OH234764   2.709   0.382   0.612  0.0623 -0.3999 -0.2207
11608TIP3    H134765   2.621   0.419   0.620  0.9449  1.5434  0.5751
11608TIP3    H234766   2.767   0.446   0.652  1.9968 -1.1575 -1.6981
11609TIP3   OH234767   2.415   5.075   4.925  0.3056 -0.6771 -0.0869
11609TIP3    H134768   2.475   5.124   4.981 -1.1688 -0.2672  1.1548
11609TIP3    H234769   2.460   4.992   4.908  1.5858 -0.0409  0.1232
11610TIP3   OH234770   3.483   4.989   4.018 -0.1410  0.0146 -0.1756
11610TIP3    H134771   3.497   4.991   4.113  4.5138 -0.1965 -0.7625
11610TIP3    H234772   3.499   5.078   3.990  0.0284 -0.2743 -0.9890
11611TIP3   OH234773   5.846   5.290   5.141  0.3122  0.4163 -0.6210
11611TIP3    H134774   5.801   5.226   5.086  1.7237 -1.3523  0.2577
11611TIP3    H234775   5.811   5.275   5.229 -1.0962  2.4791 -0.7818
11612TIP3   OH234776   3.768   6.182   4.213  0.2699  0.1855  0.6347
11612TIP3    H134777   3.763   6.238   4.136  2.7023  0.5412  0.6877
11612TIP3    H234778   3.724   6.231   4.282  1.9959  1.8931  0.5739
11613TIP3   OH234779   4.900   4.340   4.465 -0.0940 -0.3151  0.3134
11613TIP3    H134780   4.871   4.291   4.389 -0.8288 -1.1544  1.1281
11613TIP3    H234781   4.992   4.362   4.446 -0.0903 -1.0555 -0.5270
11614TIP3   OH234782   3.637   7.074   6.668 -0.1649 -0.1431  0.4143
11614TIP3    H134783   3.730   7.051   6.669 -0.2165 -0.3548  0.6672
11614TIP3    H234784   3.632   7.158   6.623  0.1179 -0.2687  0.1463
11615TIP3   OH234785   2.568   5.631   6.038 -0.1512  0.1873 -0.2428
11615TIP3    H134786   2.486   5.585   6.018 -1.0405  2.5170 -2.2396
11615TIP3    H234787   2.610   5.644   5.952  1.8971 -0.2058  0.6671
11616TIP3   OH234788   0.638   1.045   0.075  0.1157  0.0879  0.4194
11616TIP3    H134789   0.612   1.043  -0.017  2.2413  0.6580 -0.2197
11616TIP3    H234790   0.567   1.092   0.119 -0.2815  0.9649 -1.1244
11617TIP3   OH234791   7.531   3.734   5.859  0.0597 -0.5282 -0.2353
11617TIP3    H134792   7.540   3.826   5.882 -0.6885 -0.5739  0.2683
11617TIP3    H234793   7.446   3.729   5.815 -0.5520 -1.2165  1.0079
11618TIP3   OH234794   5.550   4.411   5.609 -0.0697  0.2682 -0.1796
11618TIP3    H134795   5.499   4.349   5.661 -0.1672 -0.8359 -1.5388
11618TIP3    H234796   5.641   4.390   5.628 -0.0939 -0.6570 -1.0055
11619TIP3   OH234797   4.571   4.317   5.026 -0.3483 -0.1808  0.2266
11619TIP3    H134798   4.582   4.366   5.108  1.6607  1.0233 -0.7317
11619TIP3    H234799   4.591   4.226   5.050  4.3459  0.7544  0.2762
11620TIP3   OH234800   2.003   4.049   6.980  0.1928  0.3900  0.0112
11620TIP3    H134801   1.926   4.028   7.033  0.4461  0.7868  0.5532
11620TIP3    H234802   1.977   4.032   6.890 -0.5167  0.4940  0.1955
11621TIP3   OH234803   4.499   4.335   3.716 -0.4176 -0.4867 -0.3868
11621TIP3    H134804   4.479   4.380   3.798  0.9791 -0.9502  0.2367
11621TIP3    H234805   4.418   4.338   3.666 -1.0015  0.6947  0.5946
11622TIP3   OH234806   6.563   5.629   5.329 -0.4545 -0.4483  0.0522
11622TIP3    H134807   6.468   5.633   5.336 -0.3357  1.3859  1.0541
11622TIP3    H234808   6.595   5.668   5.410  1.1666 -1.7088  0.0531
11623TIP3   OH234809   1.086   1.944   0.256  0.3988 -0.7773 -0.2894
11623TIP3    H134810   1.098   2.004   0.183  0.1864 -0.4932 -0.0926
11623TIP3    H234811   0.992   1.942   0.270  0.5513  0.5537  1.1193
11624TIP3   OH234812   3.493   5.366   5.800  0.4360 -0.2800  0.3519
11624TIP3    H134813   3.577   5.396   5.834  0.5564  1.1584 -1.1962
11624TIP3    H234814   3.513   5.283   5.756  1.0674  0.1682 -0.2003
11625TIP3   OH234815   8.569   0.717   2.112 -0.2917  0.5781 -0.1600
11625TIP3    H134816   8.509   0.788   2.089 -1.3568 -0.5717 -1.0336
11625TIP3    H234817   8.592   0.677   2.029 -0.3652 -0.6080  0.3793
11626TIP3   OH234818   4.049   4.613   4.419  0.6455  0.0173  0.4207
11626TIP3    H134819   4.099   4.533   4.400  0.3703 -0.0984  0.1743
11626TIP3    H234820   3.958   4.584   4.422  0.5497  0.3135  0.3885
11627TIP3   OH234821   4.522   6.544   5.239 -0.5000  0.4578 -0.0657
11627TIP3    H134822   4.527   6.608   5.309 -0.5674  0.9024 -0.4628
11627TIP3    H234823   4.474   6.588   5.169 -0.3095  0.0720 -0.4463
11628TIP3   OH234824   4.258   5.079   4.588 -0.0817  0.8288 -0.0926
11628TIP3    H134825   4.349   5.052   4.601  0.5050  1.8685 -1.8217
11628TIP3    H234826   4.247   5.154   4.645  0.2208  0.8240 -0.0239
11629TIP3   OH234827   4.940   4.249   5.498  0.0369  0.3197  0.5695
11629TIP3    H134828   4.994   4.249   5.420  1.4313 -0.8723  1.5135
11629TIP3    H234829   4.850   4.256   5.465  0.4568 -2.1899 -1.2530
11630TIP3   OH234830   4.219   3.953   6.794  0.1645 -0.5262 -0.1029
11630TIP3    H134831   4.215   3.984   6.884  0.7497  0.1439 -0.2965
11630TIP3    H234832   4.211   3.858   6.800  1.0722 -0.5558  0.7175
11631TIP3   OH234833   5.956   2.849   5.835 -0.0144  0.0452 -0.0272
11631TIP3    H134834   5.872   2.821   5.800 -0.4768 -0.9392  1.7753
11631TIP3    H234835   5.934   2.911   5.905  0.8233  0.9860 -0.5812
11632TIP3   OH234836   3.601   5.277   3.306 -0.0582 -0.1704  0.2152
11632TIP3    H134837   3.556   5.206   3.352  0.8428 -0.8830 -0.0025
11632TIP3    H234838   3.613   5.245   3.217 -0.3161  0.5567 -0.0901
11633TIP3   OH234839   5.709   3.710   5.331  0.7347 -0.2141  0.5148
11633TIP3    H134840   5.686   3.721   5.239  0.0379 -1.4662  0.5396
11633TIP3    H234841   5.800   3.679   5.329  0.7439 -0.1742  0.2623
11634TIP3   OH234842   0.284   0.043   1.521 -0.4511 -0.1955  0.0058
11634TIP3    H134843   0.270   0.098   1.444 -0.8307 -0.5844 -0.2090
11634TIP3    H234844   0.225  -0.032   1.507  0.6659 -1.0600 -0.1137
11635TIP3   OH234845   4.848   5.622   4.837 -0.0148 -0.0496 -0.0656
11635TIP3    H134846   4.768   5.591   4.880  1.8903 -3.6081  1.0919
11635TIP3    H234847   4.846   5.581   4.751  0.6132 -0.2449  0.0113
11636TIP3   OH234848   4.205   3.514   6.015  0.0700  0.3486  0.3141
11636TIP3    H134849   4.173   3.508   5.925  0.2114  0.5412  0.2489
11636TIP3    H234850   4.287   3.464   6.014 -0.1621 -0.0362  0.4478
11637TIP3   OH234851   7.562   1.957   5.526  0.5587  0.3362  0.0926
11637TIP3    H134852   7.517   2.038   5.550 -1.7015 -0.6747 -0.5600
11637TIP3    H234853   7.498   1.888   5.546  1.6922 -1.1273 -1.2019
11638TIP3   OH234854   4.730   5.130   4.076 -0.0240  0.3977 -0.5418
11638TIP3    H134855   4.698   5.067   4.012 -3.3233  0.6376  0.7569
11638TIP3    H234856   4.788   5.188   4.027  0.2986 -1.5415 -2.4966
11639TIP3   OH234857   3.431   4.342   5.412  0.1210 -0.0736 -0.1470
11639TIP3    H134858   3.396   4.379   5.331  0.6155  0.6307 -0.0495
11639TIP3    H234859   3.524   4.330   5.395  0.4873  1.3268  0.7488
11640TIP3   OH234860   3.982   3.930   5.439  0.2755 -0.0789  0.6025
11640TIP3    H134861   4.010   4.011   5.481  1.3054 -1.3352  2.4132
11640TIP3    H234862   4.040   3.921   5.363  2.0027 -0.4635  1.9192
11641TIP3   OH234863   3.158   2.900   4.989  0.0370 -0.3976 -0.1093
11641TIP3    H134864   3.213   2.878   5.064  1.3643  1.2084 -0.5864
11641TIP3    H234865   3.212   2.880   4.913  0.1835  1.6613 -0.5780
11642TIP3   OH234866   1.204   7.981   1.700 -0.7106 -0.1624 -0.1739
11642TIP3    H134867   1.209   8.074   1.675 -0.2044 -0.2110 -0.2583
11642TIP3    H234868   1.113   7.968   1.726 -1.2046 -0.0572 -1.8209
11643TIP3   OH234869   2.734   3.321   4.484  0.4427  0.0722 -0.2663
11643TIP3    H134870   2.705   3.296   4.571 -1.2786  0.2382 -0.7851
11643TIP3    H234871   2.728   3.417   4.483  4.6921  0.4698  0.8896
11644TIP3   OH234872   4.788   2.313   6.557 -0.5007 -0.0549  0.2809
11644TIP3    H134873   4.693   2.318   6.563 -0.5548 -0.0236 -0.5089
11644TIP3    H234874   4.819   2.400   6.585 -0.7905  0.4722 -0.9795
11645TIP3   OH234875   6.582   3.526   5.391  0.5306  0.0124 -0.0166
11645TIP3    H134876   6.607   3.481   5.471  2.6335 -1.3378 -1.3821
11645TIP3    H234877   6.580   3.618   5.415 -0.0947 -0.4712  1.8847
11646TIP3   OH234878   5.726   3.833   6.055  0.3978 -0.2719 -0.1024
11646TIP3    H134879   5.763   3.865   6.137 -0.8229  1.6627 -0.2874
11646TIP3    H234880   5.771   3.883   5.987 -0.1977 -0.2758 -0.5008
11647TIP3   OH234881   4.957   3.350   4.624 -0.5669  0.4491 -0.0863
11647TIP3    H134882   4.974   3.325   4.715  0.5607  1.0240 -0.1209
11647TIP3    H234883   4.977   3.271   4.574 -2.9720 -0.4414  0.2974
11648TIP3   OH234884   3.810   6.171   5.033 -0.1956 -0.5590 -0.3094
11648TIP3    H134885   3.763   6.186   4.951  1.1778  1.7216 -0.7044
11648TIP3    H234886   3.885   6.118   5.009  0.8262  1.0561 -0.7449
11649TIP3   OH234887   3.464   4.340   5.699 -0.4934 -0.1538  0.4521
11649TIP3    H134888   3.478   4.332   5.604 -0.6100  2.6428  0.1504
11649TIP3    H234889   3.394   4.278   5.718 -0.7826 -0.4260 -1.3907
11650TIP3   OH234890   4.404   4.196   6.218 -0.3272  0.6521  0.2320
11650TIP3    H134891   4.311   4.216   6.229 -0.7055 -1.2239  0.6332
11650TIP3    H234892   4.406   4.136   6.143  0.3104 -0.9938  1.5276
11651TIP3   OH234893   4.156   2.810   6.065 -0.0454 -0.0293  0.0712
11651TIP3    H134894   4.093   2.862   6.014  0.0252 -0.3505 -0.3515
11651TIP3    H234895   4.110   2.788   6.145 -0.1139  0.5999  0.2088
11652TIP3   OH234896   1.141   0.174  -0.001 -0.1786 -0.1263  0.3187
11652TIP3    H134897   1.052   0.152   0.024 -1.0327  0.4307 -2.1433
11652TIP3    H234898   1.150   0.267   0.020 -0.3345 -0.0795  0.1820
11653TIP3   OH234899   2.060   5.124   6.250  0.2897  0.3056  0.1316
11653TIP3    H134900   2.046   5.167   6.334 -0.2989 -0.5810  0.4946
11653TIP3    H234901   1.997   5.165   6.191  0.0754  0.2909  0.3512
11654TIP3   OH234902   4.928   4.727   7.016 -0.7667  0.0402 -0.2977
11654TIP3    H134903   4.838   4.696   7.015 -0.5241 -0.6628 -0.4954
11654TIP3    H234904   4.920   4.822   7.012 -1.4926 -0.0364 -0.8423
11655TIP3   OH234905   5.601   3.665   3.758  0.1143 -0.9772 -0.7905
11655TIP3    H134906   5.683   3.709   3.780 -0.5579  0.2759 -0.7369
11655TIP3    H234907   5.543   3.736   3.730 -1.6033 -1.5776  1.1265
11656TIP3   OH234908   6.083   5.972   6.215  0.0261 -0.3991 -0.0101
11656TIP3    H134909   6.166   5.938   6.249 -0.0887 -0.8931 -0.2202
11656TIP3    H234910   6.041   5.896   6.174 -1.4245 -0.6146  1.8186
11657TIP3   OH234911   4.868   4.911   5.544  0.2846  0.7804 -0.4077
11657TIP3    H134912   4.933   4.841   5.552 -0.8823 -0.3417 -0.5330
11657TIP3    H234913   4.845   4.933   5.635  1.3494  1.6883 -0.3427
11658TIP3   OH234914   3.642   4.620   6.564  0.1345 -0.5992  0.2682
11658TIP3    H134915   3.688   4.540   6.589 -0.6733 -1.1540  0.0354
11658TIP3    H234916   3.708   4.675   6.523  0.8972 -0.7680  1.2542
11659TIP3   OH234917   4.879   4.644   4.819  0.2403 -0.0137 -0.2858
11659TIP3    H134918   4.857   4.708   4.886 -1.5573  1.5966 -2.3574
11659TIP3    H234919   4.863   4.559   4.860  1.3697  0.8546  2.0360
11660TIP3   OH234920   5.634   5.282   6.403  0.0233 -0.8704  0.0070
11660TIP3    H134921   5.716   5.308   6.361 -0.3457 -0.7766 -0.6650
11660TIP3    H234922   5.566   5.320   6.348 -0.4650 -0.5390  0.8390
11661TIP3   OH234923   5.225   3.025   6.508 -0.0073 -0.4779  0.0389
11661TIP3    H134924   5.286   2.952   6.511  1.1790  0.4405 -1.0083
11661TIP3    H234925   5.162   3.002   6.439 -1.0016 -1.5272  1.2759
11662TIP3   OH234926   6.423   3.601   6.445  0.5738 -0.9342 -0.2322
11662TIP3    H134927   6.438   3.536   6.513 -1.3400 -1.3562 -0.1917
11662TIP3    H234928   6.381   3.553   6.374  0.1269  0.0383 -0.6364
11663TIP3   OH234929   4.502   4.113   4.793 -0.1816 -0.3614 -0.2632
11663TIP3    H134930   4.570   4.163   4.748  0.4680 -0.4668  0.5902
11663TIP3    H234931   4.492   4.034   4.740 -0.4495  0.1685 -1.0182
11664TIP3   OH234932   6.949   5.255   5.174  0.1997  0.0358 -0.6638
11664TIP3    H134933   6.935   5.321   5.107  3.4188  1.1729 -0.2816
11664TIP3    H234934   7.018   5.199   5.139  0.6198 -0.4695  0.9223
11665TIP3   OH234935   1.293   1.273   0.304 -0.1631  0.4007  0.0613
11665TIP3    H134936   1.357   1.343   0.319 -1.0437  1.1035  0.6133
11665TIP3    H234937   1.268   1.284   0.212  0.6716 -0.0204 -0.2216
11666TIP3   OH234938   3.974   2.934   5.457  0.1652 -0.6540  0.0908
11666TIP3    H134939   3.924   2.994   5.401 -0.0887 -0.6371  0.3343
11666TIP3    H234940   3.926   2.933   5.540  0.8897 -0.1852  0.5233
11667TIP3   OH234941   1.788   2.553   0.283  0.0602 -0.2521 -0.2699
11667TIP3    H134942   1.775   2.479   0.224  0.6465 -1.1149  0.6423
11667TIP3    H234943   1.784   2.514   0.371  1.9447  0.5140  0.1945
11668TIP3   OH234944   1.910   4.117   6.407  0.4003 -0.3240  0.1467
11668TIP3    H134945   1.818   4.123   6.380  0.2317 -0.0469  0.7784
11668TIP3    H234946   1.907   4.115   6.503  1.1049  0.5128  0.1907
11669TIP3   OH234947   3.902   3.025   6.489 -0.3069  0.7676  0.3369
11669TIP3    H134948   3.851   2.970   6.550  0.6639  1.1924  1.5591
11669TIP3    H234949   3.843   3.098   6.468 -0.9848  0.1401  0.0346
11670TIP3   OH234950   1.859   0.393   0.074  0.2295  0.0239 -0.5562
11670TIP3    H134951   1.815   0.468   0.114 -0.1218 -0.0696 -0.7628
11670TIP3    H234952   1.869   0.330   0.145  1.0691  0.5046 -0.2412
11671TIP3   OH234953   3.916   6.251   4.604  0.3803 -0.2485  0.7170
11671TIP3    H134954   3.987   6.291   4.555  0.0007  0.9822  1.1436
11671TIP3    H234955   3.930   6.157   4.595 -0.1369 -0.0571 -2.3700
11672TIP3   OH234956   3.336   7.544   5.973 -0.4225  0.3306  0.1048
11672TIP3    H134957   3.378   7.524   5.889 -1.8290 -0.7522 -0.3586
11672TIP3    H234958   3.246   7.513   5.962 -0.5354 -0.0651  2.1077
11673TIP3   OH234959   6.873   4.591   5.536 -0.0421 -0.0360  0.4002
11673TIP3    H134960   6.934   4.523   5.507 -0.1741 -0.8234  1.9221
11673TIP3    H234961   6.924   4.647   5.594 -0.0960  0.8453 -0.3693
11674TIP3   OH234962   4.205   5.632   5.245 -0.6067  0.6854 -0.4820
11674TIP3    H134963   4.266   5.662   5.177 -0.3498 -1.4197 -1.2028
11674TIP3    H234964   4.228   5.541   5.260 -1.1418  0.9223  1.9479
11675TIP3   OH234965   6.407   5.037   3.660 -0.5064 -0.5340  0.2010
11675TIP3    H134966   6.324   5.026   3.614  0.3271 -2.0403 -0.9570
11675TIP3    H234967   6.386   5.016   3.751 -1.4772 -0.5408 -0.0175
11676TIP3   OH234968   6.167   3.983   5.437  0.0024  0.1316 -0.0551
11676TIP3    H134969   6.130   4.015   5.354  1.7535  0.9225 -0.5342
11676TIP3    H234970   6.256   4.016   5.438  0.4787 -1.1739  1.4497
11677TIP3   OH234971   2.243   6.464   5.451 -0.0155 -0.4532  0.2408
11677TIP3    H134972   2.249   6.444   5.357 -0.7594  0.6411 -0.0456
11677TIP3    H234973   2.182   6.398   5.485  3.0150 -3.1631  0.6711
11678TIP3   OH234974   3.259   4.700   4.379  0.0472  0.1512  0.0728
11678TIP3    H134975   3.316   4.777   4.383 -1.3217  1.1919 -0.2505
11678TIP3    H234976   3.282   4.650   4.458  2.1867 -0.0269 -0.6110
11679TIP3   OH234977   3.708   5.968   5.189 -0.3346  0.1289 -0.2239
11679TIP3    H134978   3.752   6.044   5.152 -0.7197 -0.4314 -1.8943
11679TIP3    H234979   3.617   5.977   5.162 -1.6113  1.9239  4.2531
11680TIP3   OH234980   3.470   7.678   5.405 -0.6230 -0.2848 -0.3384
11680TIP3    H134981   3.552   7.704   5.363 -0.5412  1.3726  0.7643
11680TIP3    H234982   3.423   7.629   5.338  0.2841  0.7099 -1.7387
11681TIP3   OH234983   3.712   4.154   5.686 -0.3146  0.5585  0.0954
11681TIP3    H134984   3.785   4.103   5.721 -1.0525  0.4910  1.6028
11681TIP3    H234985   3.732   4.244   5.710 -0.8802  0.4986  0.8134
11682TIP3   OH234986   5.201   1.613   5.891  0.1141 -0.2299  0.1072
11682TIP3    H134987   5.290   1.596   5.919  0.0109 -0.8754  0.0371
11682TIP3    H234988   5.154   1.633   5.972  0.0253 -1.1857  0.2960
11683TIP3   OH234989   4.642   7.910   4.352 -0.7754  0.4001  0.2366
11683TIP3    H134990   4.694   7.949   4.423 -0.1594  1.1977 -0.6484
11683TIP3    H234991   4.555   7.899   4.390 -0.2596  0.0697  1.3802
11684TIP3   OH234992   4.977   3.059   6.357  0.5782 -0.0234  0.2885
11684TIP3    H134993   4.904   3.036   6.299 -0.6175  0.6555  1.4951
11684TIP3    H234994   4.937   3.112   6.426  2.1574  0.0299  1.1846
11685TIP3   OH234995   5.872   4.058   4.815 -0.1064  0.1521 -0.2015
11685TIP3    H134996   5.962   4.046   4.784  0.2037 -0.0161  0.7397
11685TIP3    H234997   5.818   4.053   4.736  0.6763 -0.1322 -0.7226
11686TIP3   OH234998   3.435   3.117   6.972 -0.0137 -0.2725 -0.2656
11686TIP3    H134999   3.458   3.044   6.914  0.4992 -1.3865  1.3269
11686TIP3    H235000   3.519   3.147   7.007 -0.4591 -0.5884  1.0791
11687TIP3   OH235001   3.871   4.957   4.385  0.4308 -0.3252 -0.0406
11687TIP3    H135002   3.937   4.980   4.451  0.4539 -0.5449  0.0129
11687TIP3    H235003   3.917   4.964   4.302  0.7251 -1.2028  0.0471
11688TIP3   OH235004   2.035   4.189   5.645  0.1857 -0.0674 -0.0162
11688TIP3    H135005   2.052   4.102   5.681 -0.4304  0.3853  1.4059
11688TIP3    H235006   2.114   4.210   5.595  0.4246 -1.3531 -0.2028
11689TIP3   OH235007   3.913   5.665   6.343 -0.0325 -0.4064 -0.0808
11689TIP3    H135008   3.868   5.678   6.427 -1.3823 -0.0054 -0.8519
11689TIP3    H235009   3.925   5.571   6.336 -1.2038 -0.5673 -0.0806
11690TIP3   OH235010   8.362   6.012   0.392  0.0419 -0.1677  0.1790
11690TIP3    H135011   8.311   6.050   0.321  0.6646 -2.3710 -1.4757
11690TIP3    H235012   8.453   6.030   0.369  0.3248 -2.2591 -0.4326
11691TIP3   OH235013   5.421   5.115   4.568  0.1495  0.0917 -0.8430
11691TIP3    H135014   5.504   5.124   4.616 -1.0718  0.0578  1.3199
11691TIP3    H235015   5.356   5.158   4.624 -2.0073 -3.2754 -0.6077
11692TIP3   OH235016   3.358   4.813   6.864  0.2074 -0.0220  0.2178
11692TIP3    H135017   3.430   4.749   6.867  0.2277  0.0539  1.3201
11692TIP3    H235018   3.402   4.897   6.854  0.2987  0.0837  1.5087
11693TIP3   OH235019   2.990   6.176   6.708  0.1623 -0.2668 -0.2542
11693TIP3    H135020   2.988   6.209   6.798 -0.8072 -1.0360  0.0082
11693TIP3    H235021   3.010   6.254   6.655 -0.3529  0.4004  0.5221
11694TIP3   OH235022   5.173   4.500   4.477 -0.1987  0.5724 -0.5131
11694TIP3    H135023   5.155   4.510   4.384  2.2080 -1.0638 -1.1929
11694TIP3    H235024   5.260   4.538   4.489 -0.0704 -0.1361  0.8750
11695TIP3   OH235025   5.368   7.246   5.453  0.0295  0.2335  0.3002
11695TIP3    H135026   5.365   7.222   5.546  1.1628  1.8366  0.7799
11695TIP3    H235027   5.287   7.294   5.438 -0.5549 -0.7641  0.2380
11696TIP3   OH235028   2.784   3.690   5.257 -0.5459 -0.1457 -0.1576
11696TIP3    H135029   2.823   3.682   5.170  0.9419  0.2371  0.4488
11696TIP3    H235030   2.741   3.606   5.272  1.5084 -1.2361 -0.1776
11697TIP3   OH235031   1.128   5.533   5.925 -0.2982  0.0620  0.6689
11697TIP3    H135032   1.218   5.545   5.896 -0.7499  1.3820 -0.2450
11697TIP3    H235033   1.121   5.585   6.006 -0.4399  0.5737  0.3294
11698TIP3   OH235034   3.313   5.067   3.470  0.0504  0.3916 -0.5681
11698TIP3    H135035   3.301   5.133   3.403 -0.6851 -0.2983 -1.1283
11698TIP3    H235036   3.358   5.112   3.542 -1.5024  1.7987 -0.4575
11699TIP3   OH235037   3.769   5.426   4.136  0.2167 -0.0463 -0.2780
11699TIP3    H135038   3.862   5.416   4.119  0.5979  1.3601  0.8422
11699TIP3    H235039   3.730   5.342   4.111  1.5563 -0.1255 -2.1761
11700TIP3   OH235040   3.297   4.694   5.461  0.0691  0.4972 -0.4098
11700TIP3    H135041   3.236   4.732   5.398 -0.2140  0.4540 -0.1646
11700TIP3    H235042   3.379   4.742   5.448 -0.0178  0.5508 -0.7422
11701TIP3   OH235043   7.755   7.838   1.071 -0.1391 -0.3271 -0.4932
11701TIP3    H135044   7.687   7.905   1.069  0.3115  0.1585  0.2414
11701TIP3    H235045   7.713   7.760   1.036 -0.4144  0.5668 -2.2546
11702TIP3   OH235046   5.876   7.954   2.614 -0.6514  0.2053 -0.0603
11702TIP3    H135047   5.965   7.931   2.587 -0.7824  0.0134 -0.3340
11702TIP3    H235048   5.888   8.001   2.696 -0.3650 -0.7920  0.4872
11703TIP3   OH235049   4.446   5.556   5.799 -0.3125 -0.4237  0.1320
11703TIP3    H135050   4.519   5.514   5.846 -0.9424 -0.5753  0.9899
11703TIP3    H235051   4.487   5.599   5.724  0.7975  0.3560  1.1798
11704TIP3   OH235052   1.680   3.203   0.943 -0.2241 -0.0476  0.1292
11704TIP3    H135053   1.630   3.126   0.968 -0.5122  0.2090  0.3541
11704TIP3    H235054   1.770   3.172   0.933 -0.3849 -0.4581 -0.0268
11705TIP3   OH235055   3.234   4.383   4.361 -0.3818 -0.8011 -0.2029
11705TIP3    H135056   3.269   4.310   4.413  0.9798  0.3677  0.5830
11705TIP3    H235057   3.255   4.460   4.413 -2.4573  0.1034 -0.6756
11706TIP3   OH235058   4.062   4.780   6.123 -0.0920 -0.0360 -0.1640
11706TIP3    H135059   4.136   4.722   6.107  0.0177  0.1529 -0.3482
11706TIP3    H235060   4.008   4.733   6.186 -2.0664 -2.1153 -3.2897
11707TIP3   OH235061   5.672   5.079   5.039  0.2092  0.0688 -0.3441
11707TIP3    H135062   5.681   5.059   5.133  0.1805  0.6292 -0.2234
11707TIP3    H235063   5.591   5.035   5.014  1.0508 -1.4707 -0.4887
11708TIP3   OH235064   5.023   3.330   6.087 -0.5708 -0.0373 -0.7321
11708TIP3    H135065   5.097   3.361   6.035 -0.3134  1.2766  0.3804
11708TIP3    H235066   5.059   3.258   6.140 -0.5841 -0.6920 -1.6006
11709TIP3   OH235067   6.425   8.057  -0.022  0.3530 -0.4351 -0.3168
11709TIP3    H135068   6.470   7.989   0.028  1.6664  0.7991  0.1939
11709TIP3    H235069   6.333   8.047   0.002  0.6566 -1.4548  0.4397
11710TIP3   OH235070   5.141   5.088   6.897  0.0589  0.3382  0.1214
11710TIP3    H135071   5.226   5.096   6.853 -1.1507  2.8950 -1.8662
11710TIP3    H235072   5.125   5.175   6.934 -1.3527 -0.3279  1.1197
11711TIP3   OH235073   7.916   3.865   4.480  0.3838  0.4573 -0.4005
11711TIP3    H135074   7.975   3.848   4.554 -0.9229  1.5860  0.9158
11711TIP3    H235075   7.888   3.956   4.491 -1.1115  0.1386 -1.3734
11712TIP3   OH235076   1.687   2.066   0.653 -0.1133 -0.4528  0.4698
11712TIP3    H135077   1.745   2.141   0.667  0.5622 -0.7587 -0.5949
11712TIP3    H235078   1.604   2.092   0.692 -0.5463  1.7571 -1.7785
11713TIP3   OH235079   2.192   3.092   1.202 -0.9219 -0.1185  0.4233
11713TIP3    H135080   2.252   3.032   1.245 -2.0952 -0.8676  1.0321
11713TIP3    H235081   2.114   3.094   1.258 -0.4696  2.8787  1.0564
11714TIP3   OH235082   4.371   4.069   5.990  0.0929  0.2264  0.2404
11714TIP3    H135083   4.351   4.120   5.912 -0.9203 -0.5971 -0.0539
11714TIP3    H235084   4.322   3.988   5.979  0.1353 -0.0062  1.6170
11715TIP3   OH235085   5.796   5.048   6.769 -0.4968  0.4630  0.4112
11715TIP3    H135086   5.731   4.978   6.765 -0.3074  0.3153 -0.1370
11715TIP3    H235087   5.750   5.126   6.738 -0.9333  0.7570  1.7614
11716TIP3   OH235088   6.981   4.041   3.499  0.1039  0.2416 -0.3091
11716TIP3    H135089   6.891   4.016   3.481  0.2793  0.4644 -1.5110
11716TIP3    H235090   7.034   3.987   3.440  0.6792  1.0607 -0.5556
11717TIP3   OH235091   3.604   2.075   6.766  0.0429 -0.2039 -0.1473
11717TIP3    H135092   3.600   2.009   6.836  1.9100  0.6201  0.7546
11717TIP3    H235093   3.680   2.049   6.714 -0.9622 -0.4395 -1.5268
11718TIP3   OH235094   2.922   6.822   5.300  0.6616 -0.2551  0.2544
11718TIP3    H135095   2.929   6.916   5.287  1.9105 -0.3940 -0.1487
11718TIP3    H235096   3.011   6.789   5.289  0.4086 -1.3647  1.3547
11719TIP3   OH235097   5.847   6.856   0.792  0.7061  0.4576  0.3396
11719TIP3    H135098   5.900   6.817   0.722  0.5072  0.5293  0.1509
11719TIP3    H235099   5.848   6.791   0.862  2.2713  1.0704  0.9136
11720TIP3   OH235100   7.064   5.868   6.487 -0.0480  0.1671  0.2741
11720TIP3    H135101   7.074   5.962   6.500  0.7998  0.2408 -0.8457
11720TIP3    H235102   7.092   5.854   6.396  0.0629 -1.2010  0.5203
11721TIP3   OH235103   4.558   5.040   3.443 -0.1808 -0.0613 -0.4230
11721TIP3    H135104   4.515   5.115   3.484 -0.6182  0.0594 -1.0949
11721TIP3    H235105   4.649   5.047   3.471 -0.1521  0.9137 -0.7275
11722TIP3   OH235106   3.269   6.555   4.760  0.5523  0.0952 -0.0171
11722TIP3    H135107   3.319   6.488   4.807  0.2043 -0.2607 -0.1503
11722TIP3    H235108   3.247   6.514   4.676  0.2480  0.3425 -0.0591
11723TIP3   OH235109   4.041   4.629   5.111  0.2778 -1.0417  0.1507
11723TIP3    H135110   3.965   4.678   5.141  0.1088 -2.2296  1.6908
11723TIP3    H235111   4.112   4.693   5.109 -0.5253 -0.1602 -0.3365
11724TIP3   OH235112   1.755   6.679   6.098 -0.5829  0.0824 -0.0443
11724TIP3    H135113   1.822   6.610   6.089 -0.9871 -0.1963 -0.8919
11724TIP3    H235114   1.678   6.643   6.054 -0.9522  0.8695 -0.0351
11725TIP3   OH235115   5.200   4.443   6.477  0.5871  0.2290  0.1541
11725TIP3    H135116   5.111   4.470   6.456 -0.0005 -1.5007  0.2878
11725TIP3    H235117   5.205   4.353   6.445  2.1769  0.1935  0.4692
11726TIP3   OH235118   4.047   3.004   0.437 -0.3975  0.3912 -0.4419
11726TIP3    H135119   4.010   3.063   0.504 -0.2024  1.8880 -1.6364
11726TIP3    H235120   4.142   3.008   0.451 -0.3678  0.5634 -0.7006
11727TIP3   OH235121   6.851   4.307   5.658  0.8307  0.3396 -0.1719
11727TIP3    H135122   6.829   4.214   5.649 -0.9537  0.6614  0.6069
11727TIP3    H235123   6.842   4.342   5.569 -2.3645  0.5297  0.1505
11728TIP3   OH235124   6.631   4.925   4.107 -0.0530 -0.5830 -0.0983
11728TIP3    H135125   6.697   4.906   4.040  1.5529  0.1325  1.2504
11728TIP3    H235126   6.675   4.906   4.190 -1.8300 -0.9071  0.7917
11729TIP3   OH235127   6.023   2.151   6.171 -0.3191  0.0166 -0.6854
11729TIP3    H135128   6.071   2.071   6.150  3.2187  1.3210  1.9730
11729TIP3    H235129   6.056   2.217   6.111  1.9654  1.1094  1.6582
11730TIP3   OH235130   4.171   5.140   3.374  0.1805 -0.7025  0.1629
11730TIP3    H135131   4.212   5.139   3.461  1.2112  0.3616 -0.2983
11730TIP3    H235132   4.125   5.224   3.371  1.4133 -0.0500 -0.8845
11731TIP3   OH235133   1.542   1.233   0.535 -0.4878 -0.2562  0.3723
11731TIP3    H135134   1.492   1.179   0.596 -1.3392 -0.4352 -0.4744
11731TIP3    H235135   1.550   1.179   0.457  4.1941 -1.7544  1.6904
11732TIP3   OH235136   5.965   5.616   4.563 -0.1905 -0.1104  0.5537
11732TIP3    H135137   5.903   5.657   4.503 -0.8591 -0.7373  0.8121
11732TIP3    H235138   6.032   5.578   4.506  0.1083  0.7987  0.2889
11733TIP3   OH235139   3.206   4.444   5.534  0.0387  0.2772 -0.4302
11733TIP3    H135140   3.294   4.414   5.513 -0.0843  1.8473 -3.6317
11733TIP3    H235141   3.210   4.539   5.523 -2.1138  0.3339 -0.9605
11734TIP3   OH235142   0.804   1.696   0.165  0.3707 -0.2902  0.0727
11734TIP3    H135143   0.787   1.775   0.114 -0.0216  1.0960  2.2934
11734TIP3    H235144   0.895   1.704   0.192  0.1559 -0.3149  0.7981
11735TIP3   OH235145   3.160   5.353   6.330 -0.2801 -0.2872 -0.4579
11735TIP3    H135146   3.172   5.345   6.235  0.9654  0.4731 -0.3857
11735TIP3    H235147   3.066   5.364   6.342 -0.3006  1.2062 -1.7577
11736TIP3   OH235148   4.936   5.011   6.281  0.3204 -0.3220  0.1862
11736TIP3    H135149   5.001   5.000   6.351 -0.6585 -1.7691  0.8983
11736TIP3    H235150   4.886   4.929   6.282  0.9823 -0.8316 -2.9689
11737TIP3   OH235151   8.045   7.655   1.084  0.0116  0.2163 -0.3530
11737TIP3    H135152   8.033   7.563   1.109  0.5080  0.4083  0.5958
11737TIP3    H235153   8.139   7.669   1.088 -0.0108  0.6131 -1.0864
11738TIP3   OH235154   3.725   2.440   5.668 -0.0456 -0.4300  0.0340
11738TIP3    H135155   3.801   2.481   5.708 -0.0903  0.3868 -0.6992
11738TIP3    H235156   3.673   2.513   5.633 -1.0074 -0.9918  0.2516
11739TIP3   OH235157   5.590   4.454   6.298 -0.7763  0.0582  0.1359
11739TIP3    H135158   5.549   4.489   6.377 -1.7071  0.5041 -0.5452
11739TIP3    H235159   5.526   4.392   6.263 -0.1765 -0.4702 -0.0346
11740TIP3   OH235160   7.351   4.776   6.205 -0.5287  0.6290 -0.1596
11740TIP3    H135161   7.389   4.723   6.275 -0.0135  1.1512 -0.0408
11740TIP3    H235162   7.404   4.856   6.203  0.9899 -0.3585 -2.6776
11741TIP3   OH235163   4.228   5.419   5.008  0.0518 -0.0680 -0.3761
11741TIP3    H135164   4.306   5.472   5.027  0.3453 -1.0460  1.1943
11741TIP3    H235165   4.155   5.481   5.011  0.7864  0.9144 -2.1725
11742TIP3   OH235166   8.199   8.066   0.875 -0.7508  0.2752  0.2838
11742TIP3    H135167   8.281   8.041   0.833 -1.6765 -0.3921 -1.1427
11742TIP3    H235168   8.224   8.085   0.966  1.0735  0.6707 -0.2825
11743TIP3   OH235169   7.236   2.652   6.343  0.2442 -0.1443 -0.0482
11743TIP3    H135170   7.310   2.608   6.302  0.6914  0.2167  0.3667
11743TIP3    H235171   7.166   2.648   6.277  0.8252  0.0558 -0.6829
11744TIP3   OH235172   2.411   4.989   3.231  0.0148 -0.3756  0.6034
11744TIP3    H135173   2.399   4.904   3.274  0.7088 -0.8798 -0.1725
11744TIP3    H235174   2.339   4.995   3.169  0.0867 -0.4891  0.5093
11745TIP3   OH235175   3.231   0.911   0.330  0.3340 -0.3950  0.3056
11745TIP3    H135176   3.177   0.986   0.357 -0.7019 -0.0222 -2.6082
11745TIP3    H235177   3.317   0.929   0.369  0.4729  3.0055 -1.3813
11746TIP3   OH235178   3.951   4.971   6.973 -0.3098  0.5235 -0.1590
11746TIP3    H135179   3.925   4.948   7.063  0.8859  1.4329  0.4308
11746TIP3    H235180   3.937   4.891   6.923  0.8049 -0.5652  1.2156
11747TIP3   OH235181   6.456   4.559   6.814  0.1062  0.0589  0.2190
11747TIP3    H135182   6.510   4.545   6.892 -1.6820  1.6885  1.7970
11747TIP3    H235183   6.414   4.644   6.829 -0.5432  0.2417 -2.3750
11748TIP3   OH235184   2.670   1.597   3.663 -0.0065  0.1580  0.0231
11748TIP3    H135185   2.710   1.653   3.597 -0.5952 -0.5593 -0.9591
11748TIP3    H235186   2.576   1.599   3.642 -0.2508  0.2079  1.0587
11749TIP3   OH235187   0.215   5.915   6.925  0.7584  0.0780  0.1543
11749TIP3    H135188   0.195   5.836   6.976  0.5203  0.1118  0.1160
11749TIP3    H235189   0.131   5.960   6.918  0.3487 -0.9391 -1.9908
11750TIP3   OH235190   4.355   4.336   4.702 -0.2673 -0.3270 -0.0439
11750TIP3    H135191   4.376   4.286   4.781  0.0158 -1.8501 -1.0547
11750TIP3    H235192   4.261   4.326   4.691 -0.2712 -0.3092 -0.0272
11751TIP3   OH235193   0.788   0.578   0.437 -0.1855  0.0500 -0.3702
11751TIP3    H135194   0.826   0.546   0.518  0.4076  1.1551 -0.2017
11751TIP3    H235195   0.762   0.668   0.457 -0.8736  0.0294 -1.1351
11752TIP3   OH235196   1.607   0.969   1.662  0.3953 -0.5494 -0.3892
11752TIP3    H135197   1.607   0.960   1.758  2.7445  0.2168 -0.3032
11752TIP3    H235198   1.638   1.058   1.647 -2.2878  0.2007 -1.8280
11753TIP3   OH235199   2.856   7.255   4.300  0.0176  0.0362 -0.0818
11753TIP3    H135200   2.901   7.213   4.227 -1.4566  1.0575 -1.6011
11753TIP3    H235201   2.909   7.332   4.321 -0.2038  0.4008 -0.8665
11754TIP3   OH235202   4.412   5.121   5.731 -0.3257  0.0291  0.4500
11754TIP3    H135203   4.321   5.149   5.721 -0.5706 -0.7958  0.3606
11754TIP3    H235204   4.461   5.203   5.740 -1.1529  0.4550  1.1268
11755TIP3   OH235205   5.294   4.469   4.946 -0.4718  0.0510  0.0481
11755TIP3    H135206   5.219   4.467   4.886  0.7748  2.1351 -1.6077
11755TIP3    H235207   5.290   4.555   4.987  0.2399 -0.3560  0.9972
11756TIP3   OH235208   6.353   4.822   6.871 -0.2260  0.4017 -0.1071
11756TIP3    H135209   6.305   4.815   6.953 -0.3792  0.2122 -0.2116
11756TIP3    H235210   6.287   4.844   6.806  0.2114  2.6358  0.1667
11757TIP3   OH235211   3.490   7.003   4.624 -0.1479  0.2522  0.0992
11757TIP3    H135212   3.497   7.037   4.535  1.3483  1.2792  0.5815
11757TIP3    H235213   3.525   6.914   4.618 -0.9717 -0.0269 -0.5314
11758TIP3   OH235214   3.667   5.608   5.816  0.0667  0.6665  0.4681
11758TIP3    H135215   3.668   5.564   5.901  0.5586  0.3184  0.2835
11758TIP3    H235216   3.739   5.567   5.767  1.8688  3.0940  1.0066
11759TIP3   OH235217   3.882   4.835   5.509 -0.4525  0.2705 -0.2598
11759TIP3    H135218   3.892   4.750   5.465 -1.1056  0.0910 -0.0605
11759TIP3    H235219   3.792   4.861   5.489 -0.2808  0.8708 -0.2374
11760TIP3   OH235220   0.333   0.541   0.288  0.1513  0.1239 -0.5671
11760TIP3    H135221   0.418   0.500   0.269 -0.1264 -1.3086  1.1347
11760TIP3    H235222   0.331   0.547   0.384 -0.4816  2.7715 -0.7037
11761TIP3   OH235223   4.638   7.967   5.304  0.5383 -0.1197 -0.2594
11761TIP3    H135224   4.667   7.924   5.385  1.9632  2.0832  0.4366
11761TIP3    H235225   4.709   7.951   5.242  1.4111  1.7877  0.2158
11762TIP3   OH235226   3.600   5.841   5.669 -0.0864  0.4339  0.2772
11762TIP3    H135227   3.640   5.768   5.717 -1.2137 -1.1850 -1.1585
11762TIP3    H235228   3.669   5.874   5.612  0.2901  0.1185  0.5528
11763TIP3   OH235229   7.011   8.043   0.045 -0.7967 -0.5244  0.1161
11763TIP3    H135230   7.087   8.039   0.103 -1.7372 -0.4738  1.3627
11763TIP3    H235231   6.984   8.135   0.048 -0.8463 -0.5175 -0.4330
11764TIP3   OH235232   4.880   5.652   6.036 -0.4028 -0.2260 -0.5585
11764TIP3    H135233   4.902   5.728   5.982 -0.8414  0.8968  0.8232
11764TIP3    H235234   4.795   5.674   6.074  1.0835  0.1527  2.6752
11765TIP3   OH235235   7.441   3.427   4.694 -0.1355 -0.3780 -0.0905
11765TIP3    H135236   7.391   3.453   4.772  1.0526  0.1816  0.5044
11765TIP3    H235237   7.458   3.334   4.707 -1.0534 -0.5818 -0.3172
11766TIP3   OH235238   4.561   5.479   6.256 -0.5129  0.0469 -0.4678
11766TIP3    H135239   4.580   5.555   6.311  1.2041 -0.1872 -0.7044
11766TIP3    H235240   4.519   5.417   6.315  0.6317  0.0942  0.4155
11767TIP3   OH235241   6.010   2.869   4.751  0.3309  0.0471  0.0948
11767TIP3    H135242   6.010   2.788   4.700  0.1608  0.0571  0.0801
11767TIP3    H235243   5.920   2.878   4.783 -0.5906  2.1792 -2.9376
11768TIP3   OH235244   4.435   4.063   7.024  0.1176 -0.2142  0.4228
11768TIP3    H135245   4.522   4.100   7.042  0.1752 -0.1507  0.0175
11768TIP3    H235246   4.440   4.034   6.933 -0.9988  1.8003 -0.2950
11769TIP3   OH235247   4.589   5.560   4.935 -0.2750 -0.1089 -0.4165
11769TIP3    H135248   4.517   5.616   4.907 -0.0085  0.5303  0.1706
11769TIP3    H235249   4.565   5.533   5.024 -1.3801 -2.5524 -1.4186
11770TIP3   OH235250   4.720   4.172   6.154 -0.3525  0.6056 -0.6075
11770TIP3    H135251   4.640   4.225   6.147  0.4945  1.8135 -1.4364
11770TIP3    H235252   4.715   4.111   6.080 -0.5916  0.5513 -0.5465
11771TIP3   OH235253   4.971   5.163   4.630 -0.1636  0.0725 -0.0867
11771TIP3    H135254   4.909   5.106   4.584 -0.0838 -0.6698  0.7120
11771TIP3    H235255   5.038   5.103   4.664  0.6727  0.7995 -0.4286
11772TIP3   OH235256   3.887   3.903   4.679  0.6172 -0.2001 -0.0223
11772TIP3    H135257   3.825   3.920   4.608  1.6007 -0.2857 -0.9236
11772TIP3    H235258   3.838   3.853   4.743 -0.5116  0.5432 -0.2886
11773TIP3   OH235259   5.223   3.863   5.327  0.2473  0.4716 -0.2197
11773TIP3    H135260   5.223   3.783   5.273  0.1527  0.8585 -0.7934
11773TIP3    H235261   5.273   3.926   5.276 -0.8575  1.2055 -0.3943
11774TIP3   OH235262   0.064   6.134   0.246  0.2131 -0.1530  0.4234
11774TIP3    H135263   0.033   6.077   0.175  0.7031 -1.5249  1.2799
11774TIP3    H235264   0.002   6.207   0.248 -0.3268 -0.5664 -0.8164
11775TIP3   OH235265   2.553   5.675   4.064 -0.0576  0.9256 -0.1422
11775TIP3    H135266   2.577   5.713   4.149 -1.3956 -0.1860  0.7515
11775TIP3    H235267   2.630   5.689   4.009  0.9277  1.4089  1.3354
11776TIP3   OH235268   4.838   5.402   5.047  0.2007 -0.2854  0.9046
11776TIP3    H135269   4.873   5.390   4.959  0.0263 -0.3237  0.8388
11776TIP3    H235270   4.869   5.488   5.075 -1.6253  0.7271 -0.0935
11777TIP3   OH235271   5.800   7.074   1.087  0.7407 -0.1011  0.0661
11777TIP3    H135272   5.838   7.099   1.003 -1.8922  2.2065 -0.4786
11777TIP3    H235273   5.713   7.041   1.066  0.5696 -0.7880  1.7586
11778TIP3   OH235274   3.939   3.469   6.654 -0.3853  0.5651  0.4029
11778TIP3    H135275   3.926   3.561   6.676 -0.3530  0.7798 -0.4983
11778TIP3    H235276   3.917   3.462   6.561  0.3329 -0.1926  0.2822
11779TIP3   OH235277   1.788   2.496   0.794 -0.0517 -0.2381  0.3104
11779TIP3    H135278   1.735   2.456   0.726  0.5471  1.0518 -0.9256
11779TIP3    H235279   1.865   2.532   0.748 -0.0485  1.3686  1.5190
11780TIP3   OH235280   8.198   7.095   1.026 -0.1589 -0.0270 -0.5510
11780TIP3    H135281   8.243   7.065   0.947 -1.2869 -0.0769 -1.1940
11780TIP3    H235282   8.124   7.147   0.993 -1.5064 -1.2716  0.4048
11781TIP3   OH235283   5.344   4.909   6.703 -0.0396 -0.3764  0.1544
11781TIP3    H135284   5.366   5.000   6.683 -0.6380 -0.4628 -0.8724
11781TIP3    H235285   5.340   4.866   6.618 -0.4506 -1.2147  0.5996
11782TIP3   OH235286   6.963   5.109   6.081  0.5261  0.6132 -0.2817
11782TIP3    H135287   6.990   5.106   6.173  1.8169 -1.7650 -0.7152
11782TIP3    H235288   6.868   5.124   6.084  0.8489  2.4383  1.3822
11783TIP3   OH235289   5.696   4.611   6.807  0.0024 -0.3847  0.6667
11783TIP3    H135290   5.668   4.545   6.871 -1.3427 -0.2216  0.2651
11783TIP3    H235291   5.779   4.644   6.841 -0.1402 -1.1109  1.7353
11784TIP3   OH235292   6.855   4.798   4.276 -0.5793 -0.6450 -0.4660
11784TIP3    H135293   6.943   4.780   4.243 -0.4484  0.3306 -0.6698
11784TIP3    H235294   6.803   4.723   4.248  0.3955 -1.6676  0.4550
11785TIP3   OH235295   6.274   6.137   5.371  0.3495  0.0341  0.3979
11785TIP3    H135296   6.183   6.123   5.346  0.0090  2.0004  0.4262
11785TIP3    H235297   6.284   6.093   5.455  0.5062 -3.5049 -1.3599
11786TIP3   OH235298   4.802   0.229   1.919  0.2398 -0.4795 -0.1297
11786TIP3    H135299   4.759   0.290   1.859  0.0698 -0.1992  0.2693
11786TIP3    H235300   4.836   0.159   1.863 -0.0617 -0.3067 -0.5300
11787TIP3   OH235301   5.754   3.273   5.851  0.3223  0.8078 -0.2572
11787TIP3    H135302   5.809   3.303   5.923 -0.3979 -0.4771  0.8497
11787TIP3    H235303   5.687   3.341   5.841 -0.1594  0.5147  0.9500
11788TIP3   OH235304   4.568   5.265   6.002  0.3652  0.4399 -0.1713
11788TIP3    H135305   4.473   5.275   6.000  0.4553  1.1637 -0.9056
11788TIP3    H235306   4.602   5.352   5.981  1.1910 -0.1016 -1.1076
11789TIP3   OH235307   5.971   3.664   4.300  0.4526 -0.5888  0.1875
11789TIP3    H135308   5.910   3.595   4.276  1.2392 -1.8212  1.6625
11789TIP3    H235309   5.932   3.707   4.375  1.2861 -1.2836  1.0427
11790TIP3   OH235310   6.917   5.647   5.443 -0.2623  0.0420 -0.6409
11790TIP3    H135311   6.911   5.657   5.348  0.9106 -1.0232 -0.8437
11790TIP3    H235312   6.969   5.721   5.472 -0.5914  0.3500 -0.8299
11791TIP3   OH235313   7.588   5.069   3.134 -0.5073  0.2436  0.2837
11791TIP3    H135314   7.510   5.116   3.162 -0.4268  0.3070  0.4017
11791TIP3    H235315   7.595   4.995   3.195 -0.2552  0.4570  0.5149
11792TIP3   OH235316   8.459   0.700   6.641  0.3377  0.7363  0.2315
11792TIP3    H135317   8.430   0.791   6.633 -0.7042  0.4598  0.8052
11792TIP3    H235318   8.473   0.688   6.734  1.3430  0.5624  0.0627
11793TIP3   OH235319   4.191   4.614   4.835  0.0985  0.1946  0.0418
11793TIP3    H135320   4.099   4.593   4.821 -0.0218  1.1211 -0.5767
11793TIP3    H235321   4.191   4.677   4.907  0.4073 -1.2959  1.3938
11794TIP3   OH235322   7.160   4.044   4.860 -0.3743 -0.3347  0.2067
11794TIP3    H135323   7.186   4.098   4.786 -0.3782 -1.4567 -0.6382
11794TIP3    H235324   7.097   4.097   4.908 -1.3833 -0.0970 -1.3397
11795TIP3   OH235325   5.015   4.348   6.752 -0.2140  0.3924 -0.5448
11795TIP3    H135326   5.075   4.279   6.723 -0.6290 -0.3637  0.3937
11795TIP3    H235327   5.014   4.411   6.679 -0.4212 -0.9616 -1.7196
11796TIP3   OH235328   7.007   4.499   6.449  0.2367 -0.0764 -0.2382
11796TIP3    H135329   7.022   4.572   6.509  0.3292  1.3018 -1.8734
11796TIP3    H235330   6.982   4.426   6.505  0.8550  1.0158  1.5047
11797TIP3   OH235331   8.328   3.971   5.874 -0.0348 -0.0501  0.2208
11797TIP3    H135332   8.250   3.943   5.827  0.1309 -1.0837  0.5373
11797TIP3    H235333   8.325   4.066   5.872  0.2451 -0.0409 -2.3578
11798TIP3   OH235334   5.858   2.378   4.768  0.0634 -0.1740  0.2189
11798TIP3    H135335   5.949   2.360   4.795  0.7006  0.0299 -1.7161
11798TIP3    H235336   5.833   2.302   4.715  0.2080  1.1835 -1.8431
11799TIP3   OH235337   5.752   7.273   5.356  0.5009 -0.1909 -0.6270
11799TIP3    H135338   5.770   7.362   5.328  1.4678 -0.3089 -0.3830
11799TIP3    H235339   5.683   7.243   5.297  1.1018  0.2574 -1.5654
11800TIP3   OH235340   6.197   5.483   5.797 -0.2142  0.2283  0.1231
11800TIP3    H135341   6.291   5.490   5.779 -0.0507  1.6578  1.4263
11800TIP3    H235342   6.178   5.390   5.790  1.2064 -0.0266 -0.6170
11801TIP3   OH235343   8.584   4.032   4.679 -0.0878 -0.1083  0.1653
11801TIP3    H135344   8.547   3.951   4.715  0.0781 -0.4905 -0.5046
11801TIP3    H235345   8.595   4.090   4.755  1.0033 -1.1756  0.8480
11802TIP3   OH235346   5.611   5.772   5.746  0.2105 -0.2732 -0.1960
11802TIP3    H135347   5.529   5.729   5.720 -0.0360 -0.7650  1.3534
11802TIP3    H235348   5.664   5.702   5.782  1.5053 -0.0314 -1.6144
11803TIP3   OH235349   5.273   7.643   6.020 -0.8330  0.0024 -0.0694
11803TIP3    H135350   5.217   7.631   6.096 -0.4957 -1.4574 -0.0316
11803TIP3    H235351   5.312   7.730   6.032 -0.7217 -0.2500  1.4575
11804TIP3   OH235352   3.764   4.391   5.043 -0.2742 -0.0386 -0.3385
11804TIP3    H135353   3.822   4.376   5.118 -1.2273  1.1316  0.6491
11804TIP3    H235354   3.776   4.314   4.988  0.1871 -1.0769  1.1859
11805TIP3   OH235355   7.978   4.615   5.958 -0.1181  0.0257 -0.0470
11805TIP3    H135356   8.043   4.580   6.019  0.5959 -0.9202 -1.3244
11805TIP3    H235357   7.930   4.680   6.009  1.7996  0.7117  0.9308
11806TIP3   OH235358   6.941   3.127   5.051 -0.4970  0.0608  0.3545
11806TIP3    H135359   6.858   3.138   5.098 -0.7494  1.1162 -0.3310
11806TIP3    H235360   6.916   3.088   4.967 -0.0162 -2.0810  1.1783
11807TIP3   OH235361   6.310   2.650   3.536  0.3700  0.2064 -0.3459
11807TIP3    H135362   6.401   2.663   3.507 -0.4506  0.3408 -2.9594
11807TIP3    H235363   6.291   2.727   3.589  1.4818  0.6412 -0.5601
11808TIP3   OH235364   5.382   5.182   6.829 -0.1217  0.0144  0.7532
11808TIP3    H135365   5.391   5.267   6.787 -1.1074  0.7084  1.9294
11808TIP3    H235366   5.442   5.185   6.904  1.5693 -1.1900 -0.5002
11809TIP3   OH235367   4.744   4.571   6.534 -0.3217 -0.0676  0.0515
11809TIP3    H135368   4.660   4.595   6.494 -0.5851 -1.8096 -0.4860
11809TIP3    H235369   4.723   4.497   6.590  0.4519  0.9991  1.7709
11810TIP3   OH235370   1.484   0.291   3.482 -0.1619 -0.5449 -0.1370
11810TIP3    H135371   1.450   0.363   3.429 -0.3533 -0.5022  0.0414
11810TIP3    H235372   1.532   0.333   3.553 -0.0012 -0.5991 -0.2134
11811TIP3   OH235373   4.218   0.513   0.147 -0.2392 -0.3293  0.2129
11811TIP3    H135374   4.136   0.519   0.195  0.0078  1.5925  0.4193
11811TIP3    H235375   4.226   0.597   0.102 -1.0077 -2.4871 -4.1586
11812TIP3   OH235376   7.153   4.967   3.292 -0.0051 -0.1248  0.3710
11812TIP3    H135377   7.075   4.997   3.339  0.9263  0.2663  1.6946
11812TIP3    H235378   7.192   5.048   3.257  0.0901 -0.2669  0.1471
11813TIP3   OH235379   6.546   5.735   4.426  0.0853 -0.1890  0.0898
11813TIP3    H135380   6.554   5.664   4.362  0.6622  0.9550 -1.1234
11813TIP3    H235381   6.464   5.778   4.404  0.2180  0.1248  0.2102
11814TIP3   OH235382   6.027   4.075   6.240  0.2126 -0.2922  0.4405
11814TIP3    H135383   5.985   4.000   6.282  0.9707 -0.9001  0.1452
11814TIP3    H235384   6.038   4.048   6.149  3.3214 -1.1170  0.9965
11815TIP3   OH235385   5.642   4.317   4.580  0.3625 -0.2567  0.0814
11815TIP3    H135386   5.566   4.375   4.576  1.6396  1.4862  0.5564
11815TIP3    H235387   5.669   4.318   4.671  0.1940 -1.9129  0.1764
11816TIP3   OH235388   5.037   5.531   6.378 -0.1947 -0.5356 -0.2230
11816TIP3    H135389   5.057   5.508   6.469 -0.6414 -1.2208 -0.2993
11816TIP3    H235390   4.954   5.578   6.383  0.0715 -0.0604 -0.2150
11817TIP3   OH235391   5.933   4.990   4.878 -0.1620 -0.3272 -0.1243
11817TIP3    H135392   5.985   5.070   4.876  0.6189 -0.8479 -1.0594
11817TIP3    H235393   5.860   5.010   4.937  0.7044  0.6417  0.6384
11818TIP3   OH235394   6.235   4.880   5.724  0.4861  0.6082  0.2250
11818TIP3    H135395   6.224   4.913   5.813  1.2371  0.3280  0.4280
11818TIP3    H235396   6.254   4.787   5.734 -0.5067  0.3433 -0.2908
11819TIP3   OH235397   7.412   2.821   5.180  0.2976  0.1796  0.0895
11819TIP3    H135398   7.318   2.827   5.197  0.2081  0.4594 -0.4893
11819TIP3    H235399   7.445   2.909   5.196  0.5443 -0.0305  0.7568
11820TIP3   OH235400   6.347   5.781   5.546  0.0340 -1.0941 -0.2662
11820TIP3    H135401   6.326   5.873   5.558  0.0800 -1.1533  0.2857
11820TIP3    H235402   6.427   5.767   5.597 -1.3210 -1.9965  1.6625
11821TIP3   OH235403   5.052   4.710   5.503  0.5753  0.0218 -0.9223
11821TIP3    H135404   5.072   4.677   5.590  1.2492  0.5581 -0.8725
11821TIP3    H235405   5.136   4.711   5.457  0.3105  0.2325 -1.4065
11822TIP3   OH235406   7.814   1.989   6.785  0.1900  0.0213 -0.3863
11822TIP3    H135407   7.775   1.929   6.721 -0.2921  0.0595 -0.1298
11822TIP3    H235408   7.882   1.937   6.828  1.3242  0.3425 -1.7369
11823TIP3   OH235409   6.618   4.750   5.593  0.0607 -0.0997  0.1143
11823TIP3    H135410   6.693   4.765   5.536  0.6114 -0.2209  0.8126
11823TIP3    H235411   6.580   4.668   5.561 -0.4620  0.5492 -0.9741
11824TIP3   OH235412   1.209   7.545   0.025 -0.1969 -0.0040  0.5134
11824TIP3    H135413   1.213   7.454   0.053 -0.8779 -0.6212 -1.3456
11824TIP3    H235414   1.301   7.572   0.021 -0.0408 -0.2074  2.2719
11825TIP3   OH235415   5.649   5.210   5.596  0.2232  0.1739  0.5238
11825TIP3    H135416   5.619   5.123   5.624  1.4450 -0.2014  0.7124
11825TIP3    H235417   5.569   5.261   5.584 -0.6774 -1.8281 -2.4509
11826TIP3   OH235418   5.428   4.806   6.466 -0.8610 -0.3484  0.2504
11826TIP3    H135419   5.453   4.899   6.475 -1.1584 -0.3143  0.7578
11826TIP3    H235420   5.384   4.801   6.382 -0.1530 -0.1775 -0.1291
11827TIP3   OH235421   6.737   7.883   2.111  0.4304  0.7446 -1.0964
11827TIP3    H135422   6.761   7.891   2.204 -1.3450 -0.1670 -0.5504
11827TIP3    H235423   6.727   7.974   2.081  1.7953  1.0610 -0.6130
11828TIP3   OH235424   4.581   0.944   0.616  0.1204  0.0055 -0.1645
11828TIP3    H135425   4.615   0.983   0.536 -1.8912 -0.8656 -1.4670
11828TIP3    H235426   4.563   1.018   0.674 -3.2011  1.0647 -2.4211
11829TIP3   OH235427   2.590   0.339   0.284  0.0032  0.1951  0.3400
11829TIP3    H135428   2.668   0.382   0.320 -0.2499 -0.1449  1.3297
11829TIP3    H235429   2.520   0.363   0.345 -1.2082  2.5416 -1.9017
11830TIP3   OH235430   6.218   5.606   6.220 -0.5857 -0.0838 -0.3290
11830TIP3    H135431   6.157   5.586   6.149  0.4088 -0.3963 -1.1174
11830TIP3    H235432   6.268   5.525   6.232  0.7707  0.6640 -0.8198
11831TIP3   OH235433   0.126   3.358   4.988  0.6959  0.8239  0.1529
11831TIP3    H135434   0.212   3.335   5.024  2.1196  4.2028 -0.8850
11831TIP3    H235435   0.125   3.315   4.902  0.4212 -0.9882  1.0339
11832TIP3   OH235436   5.451   6.509   4.856  0.9754 -0.1504 -0.8755
11832TIP3    H135437   5.355   6.511   4.849  0.9033 -0.5720 -0.1122
11832TIP3    H235438   5.471   6.421   4.887  1.6913 -0.3863 -1.9829
11833TIP3   OH235439   5.411   4.996   6.111  0.0473 -0.7605 -0.1940
11833TIP3    H135440   5.359   5.075   6.124 -0.6217 -1.4189  1.4147
11833TIP3    H235441   5.502   5.024   6.119 -0.1699 -0.0552 -0.2215
11834TIP3   OH235442   7.214   5.836   6.242 -0.3947 -0.4920 -0.0750
11834TIP3    H135443   7.307   5.839   6.262  0.2066 -1.3702 -2.5479
11834TIP3    H235444   7.193   5.743   6.236 -2.1664 -0.4154  3.3937
11835TIP3   OH235445   6.795   5.760   6.568 -0.1933  0.1848 -0.5666
11835TIP3    H135446   6.829   5.673   6.590 -1.3728 -0.2836 -0.6037
11835TIP3    H235447   6.871   5.805   6.531  0.3551 -0.9184 -0.8263
11836TIP3   OH235448   6.320   3.217   6.438 -1.0179 -0.1593 -0.5182
11836TIP3    H135449   6.294   3.278   6.507  0.5448  0.6580 -0.6241
11836TIP3    H235450   6.308   3.130   6.477 -0.2830  0.2852  0.7470
11837TIP3   OH235451   5.236   5.860   6.421  0.1830  0.5313  0.0063
11837TIP3    H135452   5.187   5.779   6.435 -0.6408  1.4940  3.0799
11837TIP3    H235453   5.323   5.832   6.393 -0.9053 -1.3137 -1.5940
11838TIP3   OH235454   6.274   4.683   4.936  0.1148  0.0170  0.5161
11838TIP3    H135455   6.283   4.709   4.844  0.0913  0.4590  0.6392
11838TIP3    H235456   6.204   4.739   4.969 -0.4288 -0.6964  0.5916
11839TIP3   OH235457   7.356   2.744   6.062 -0.6876 -0.1648 -0.0354
11839TIP3    H135458   7.371   2.660   6.106 -0.1589  0.1275  0.3496
11839TIP3    H235459   7.289   2.788   6.116 -0.9808 -0.3440 -0.2496
11840TIP3   OH235460   4.049   0.780   0.188  0.5724 -0.0639 -0.1386
11840TIP3    H135461   3.985   0.711   0.170  1.8363 -0.8383 -1.7668
11840TIP3    H235462   4.108   0.741   0.254  0.9302 -0.3318 -0.6129
11841TIP3   OH235463   7.142   4.473   3.759  0.3709 -0.4404 -0.4768
11841TIP3    H135464   7.157   4.384   3.729  0.9783 -0.6106  0.3127
11841TIP3    H235465   7.229   4.505   3.784 -0.0457 -0.1064  0.5627
11842TIP3   OH235466   7.324   6.437   4.762  0.2753  0.4972 -0.0915
11842TIP3    H135467   7.386   6.440   4.834 -0.8190  1.2401  0.8335
11842TIP3    H235468   7.316   6.344   4.741  0.6193  0.2838  0.7154
11843TIP3   OH235469   8.345   2.565   5.654 -0.0814 -0.4438 -0.4768
11843TIP3    H135470   8.261   2.559   5.701 -0.2424  0.2430 -0.6841
11843TIP3    H235471   8.404   2.607   5.716  0.0414 -0.6690 -0.4373
11844TIP3   OH235472   6.537   6.316   5.096  0.2167  0.2358 -0.0092
11844TIP3    H135473   6.575   6.277   5.018 -1.0368 -0.7190 -0.1509
11844TIP3    H235474   6.548   6.250   5.164 -0.9515  0.0574  0.0118
11845TIP3   OH235475   4.972   6.304   4.072  0.4792 -0.0037  0.1541
11845TIP3    H135476   5.008   6.218   4.090  0.2984 -0.2979 -0.8494
11845TIP3    H235477   5.048   6.363   4.071  0.6864 -0.2729  0.1391
11846TIP3   OH235478   6.935   3.304   5.514  0.0223  0.0489 -0.0709
11846TIP3    H135479   6.862   3.260   5.557  1.1796 -0.0732  1.7971
11846TIP3    H235480   6.995   3.234   5.489 -0.1130  0.2180 -0.9091
11847TIP3   OH235481   6.547   3.799   6.207 -0.0707  0.1622 -0.1140
11847TIP3    H135482   6.555   3.746   6.286 -1.2534 -1.4044 -1.0083
11847TIP3    H235483   6.583   3.745   6.137 -2.1072  0.1519 -1.1930
11848TIP3   OH235484   7.581   5.240   6.514  0.3988  0.2196 -0.8550
11848TIP3    H135485   7.498   5.209   6.479  0.1272  1.8346 -1.6883
11848TIP3    H235486   7.592   5.192   6.596 -1.5159  0.2448 -0.5730
11849TIP3   OH235487   5.853   5.245   3.644 -0.3747  0.2495 -0.1101
11849TIP3    H135488   5.777   5.202   3.606  0.3998  0.0173 -1.4472
11849TIP3    H235489   5.868   5.199   3.727 -3.4690  2.2740  1.6456
11850TIP3   OH235490   4.600   4.436   5.280 -0.0968 -0.2123 -0.0328
11850TIP3    H135491   4.562   4.501   5.339 -0.8820  0.5459 -1.3391
11850TIP3    H235492   4.689   4.424   5.311  0.3829  2.2276 -0.3447
11851TIP3   OH235493   6.561   3.847   5.703 -0.3301  0.2268  0.6718
11851TIP3    H135494   6.475   3.881   5.726 -0.4833  1.6782 -1.8909
11851TIP3    H235495   6.554   3.824   5.610  2.7107  2.7280 -0.2826
11852TIP3   OH235496   6.146   5.191   5.244 -0.1716 -0.7531 -0.0973
11852TIP3    H135497   6.051   5.203   5.248 -0.1193 -0.7265  1.4691
11852TIP3    H235498   6.172   5.231   5.161 -1.3060  0.9473  0.3330
11853TIP3   OH235499   7.541   3.067   5.187  0.0509 -0.0222 -0.0936
11853TIP3    H135500   7.524   3.161   5.179  0.7645  0.0114 -1.3409
11853TIP3    H235501   7.586   3.057   5.270  0.2879  0.7832 -0.1247
11854TIP3   OH235502   7.369   4.784   3.839 -0.6448  0.3156  0.3461
11854TIP3    H135503   7.399   4.693   3.842 -0.2539  0.4412  0.2601
11854TIP3    H235504   7.318   4.791   3.758 -2.1260 -0.2728  1.2101
11855TIP3   OH235505   6.324   3.948   5.800 -0.1011  0.0134  0.1357
11855TIP3    H135506   6.237   3.974   5.771 -0.1633 -0.3759 -0.0387
11855TIP3    H235507   6.363   4.028   5.835 -1.3981 -0.2832  2.3856
11856TIP3   OH235508   0.081   8.056   0.193  0.1373  0.1200 -0.1798
11856TIP3    H135509   0.157   8.101   0.228  0.4853 -0.4231 -0.2163
11856TIP3    H235510   0.083   7.970   0.236 -0.0455 -0.1541 -0.7187
11857TIP3   OH235511   4.933   5.036   5.316  0.1233 -0.7338  0.6420
11857TIP3    H135512   4.909   4.961   5.261  1.6290 -0.9965  0.3214
11857TIP3    H235513   4.919   5.004   5.405  0.8286 -1.4378  0.5107
11858TIP3   OH235514   6.812   4.154   6.570 -0.5299  0.4811  0.2581
11858TIP3    H135515   6.846   4.069   6.596 -0.6980  0.4285  0.3089
11858TIP3    H235516   6.767   4.137   6.487  0.6178  0.7801 -0.4410
11859TIP3   OH235517   4.643   5.527   6.557 -0.0509 -0.4882 -0.3900
11859TIP3    H135518   4.556   5.563   6.577  0.1413 -0.7039  0.8962
11859TIP3    H235519   4.626   5.437   6.529 -0.2004 -0.6956  0.3643
11860TIP3   OH235520   7.472   4.133   6.815  0.6009  0.2532 -0.5594
11860TIP3    H135521   7.565   4.153   6.827  0.6009  0.4682 -0.9024
11860TIP3    H235522   7.471   4.057   6.757  0.5744 -0.0388 -0.1734
11861TIP3   OH235523   7.408   1.787   6.023 -0.0877 -0.1218  0.0427
11861TIP3    H135524   7.363   1.841   5.958  1.7660 -0.3093 -1.4351
11861TIP3    H235525   7.355   1.795   6.102 -0.9405  2.2362 -0.7378
11862TIP3   OH235526   6.220   2.906   5.807  0.1452 -0.4252 -0.2753
11862TIP3    H135527   6.229   2.935   5.716  0.0766  1.2608  0.2464
11862TIP3    H235528   6.131   2.870   5.812  0.4186 -1.2246 -1.0583
11863TIP3   OH235529   4.795   6.390   4.628 -0.0882 -0.2858 -0.3726
11863TIP3    H135530   4.832   6.426   4.548 -0.3518  0.1019 -0.3214
11863TIP3    H235531   4.752   6.465   4.670 -0.7936 -0.7035 -0.3557
11864TIP3   OH235532   1.736   1.975   0.410  0.5017  0.0737 -0.1241
11864TIP3    H135533   1.809   2.034   0.392 -0.1705  0.9307 -0.0102
11864TIP3    H235534   1.706   1.999   0.498 -2.6333  2.5611 -1.8006
11865TIP3   OH235535   6.384   4.604   2.315 -0.1590  1.0019  0.2827
11865TIP3    H135536   6.354   4.694   2.325  0.7582  1.3682 -0.1939
11865TIP3    H235537   6.451   4.593   2.382  0.1488  0.8558 -0.0504
11866TIP3   OH235538   4.423   0.664   0.574  0.0388  0.6632 -0.5403
11866TIP3    H135539   4.432   0.724   0.648  1.5718 -0.6455  0.3670
11866TIP3    H235540   4.441   0.718   0.497 -0.5957  1.8084  0.0990
11867TIP3   OH235541   6.002   5.218   6.378  0.2257  0.4313 -0.2275
11867TIP3    H135542   5.982   5.148   6.317  0.8804  0.0086  0.0295
11867TIP3    H235543   5.945   5.291   6.352 -0.6525 -0.2876 -0.3215
11868TIP3   OH235544   2.679   1.134   0.038 -0.4525 -0.1221 -0.0688
11868TIP3    H135545   2.615   1.193   0.078  0.4824  0.6501  0.2885
11868TIP3    H235546   2.764   1.175   0.054  0.1702 -1.3126 -0.2515
11869TIP3   OH235547   7.861   5.889   3.529  0.4763  0.1775 -0.3649
11869TIP3    H135548   7.831   5.826   3.595  0.7247  0.5687  0.1253
11869TIP3    H235549   7.887   5.966   3.580  0.5020  0.5462 -0.9365
11870TIP3   OH235550   3.542   1.220   2.325 -0.1501 -0.5102  0.0149
11870TIP3    H135551   3.580   1.161   2.259  2.1494  0.0374  0.7866
11870TIP3    H235552   3.499   1.288   2.274 -0.8491 -1.6112 -0.9035
11871TIP3   OH235553  -0.015   3.689   5.410 -0.0061  0.5161 -0.0487
11871TIP3    H135554   0.056   3.694   5.345  0.3850 -0.3981  0.2905
11871TIP3    H235555   0.026   3.645   5.486 -1.3904 -1.5976 -0.4912
11872TIP3   OH235556   4.910   6.011   5.734 -0.3548 -0.1533  0.3337
11872TIP3    H135557   4.884   5.982   5.822 -0.2845  0.7263  0.6548
11872TIP3    H235558   5.005   6.021   5.740 -0.3342 -0.2335  0.1190
11873TIP3   OH235559   0.451   5.140   3.902 -0.0646  0.4358  0.3038
11873TIP3    H135560   0.486   5.076   3.839 -2.3124 -1.1095  0.5683
11873TIP3    H235561   0.362   5.157   3.871  0.1705  2.7188  0.8167
11874TIP3   OH235562   6.219   5.367   6.522 -0.3721 -0.5516 -0.3137
11874TIP3    H135563   6.149   5.318   6.479 -0.6860 -0.9389  0.6245
11874TIP3    H235564   6.181   5.397   6.604  0.4999 -0.6141  0.1284
11875TIP3   OH235565   4.765   5.474   5.505 -0.3811  0.2715 -0.3565
11875TIP3    H135566   4.721   5.394   5.477 -0.6150  0.2067  0.1764
11875TIP3    H235567   4.857   5.449   5.512 -0.4142  0.1194 -0.4536
11876TIP3   OH235568   7.303   6.169   4.678 -0.5585 -0.0542  0.3081
11876TIP3    H135569   7.306   6.097   4.615  0.6116 -1.1845  1.6179
11876TIP3    H235570   7.229   6.147   4.735 -0.6292  0.1531  0.2965
11877TIP3   OH235571   7.311   4.420   5.815 -0.5712 -0.0688 -0.3841
11877TIP3    H135572   7.339   4.433   5.724  1.1207 -0.1451  0.1092
11877TIP3    H235573   7.229   4.372   5.808 -0.1048 -0.6861 -1.8549
11878TIP3   OH235574   6.743   3.909   3.384 -0.2973 -0.7022 -0.1983
11878TIP3    H135575   6.710   3.945   3.301 -0.7622 -3.6103 -1.3219
11878TIP3    H235576   6.683   3.942   3.450 -1.5174 -0.5343 -1.3686
11879TIP3   OH235577   4.579   5.680   5.580  0.8700 -0.0958 -0.5970
11879TIP3    H135578   4.623   5.765   5.574  0.6113  0.0243 -0.7592
11879TIP3    H235579   4.643   5.617   5.546  1.1682 -0.0041 -0.2170
11880TIP3   OH235580   7.274   6.302   3.846  0.3294 -0.4562 -0.5149
11880TIP3    H135581   7.313   6.356   3.778 -0.9021 -1.9684 -2.4781
11880TIP3    H235582   7.340   6.235   3.864  0.5706 -0.1806 -0.3733
11881TIP3   OH235583   5.399   6.180   5.797 -0.7008  0.6338  0.1474
11881TIP3    H135584   5.492   6.159   5.811 -0.5914  2.6032  2.6295
11881TIP3    H235585   5.400   6.270   5.765 -1.8373  1.1350  1.5225
11882TIP3   OH235586   2.433   1.699   0.135 -0.6062 -0.3280 -0.1328
11882TIP3    H135587   2.517   1.711   0.181  0.2035 -1.5482 -1.2405
11882TIP3    H235588   2.367   1.705   0.204  0.3498  1.1200  0.6983
11883TIP3   OH235589   6.625   4.784   6.260 -0.0909  0.2341  0.3013
11883TIP3    H135590   6.604   4.728   6.336  0.5486  1.3475  1.3080
11883TIP3    H235591   6.593   4.734   6.185  2.3081 -2.4638  0.9697
11884TIP3   OH235592   0.643   6.027   5.087 -0.3669  0.4648 -0.0206
11884TIP3    H135593   0.627   6.033   4.993 -0.2828  0.8037 -0.0113
11884TIP3    H235594   0.713   5.962   5.095 -1.5697 -0.8713 -0.0797
11885TIP3   OH235595   7.793   5.485   5.232  0.1055 -0.0947  0.5418
11885TIP3    H135596   7.738   5.506   5.156  0.2737 -0.1477  0.4052
11885TIP3    H235597   7.882   5.486   5.198  0.0834 -1.5010  0.4180
11886TIP3   OH235598   4.919   3.343   6.494 -0.0478  0.4491  0.0807
11886TIP3    H135599   4.856   3.403   6.453 -0.0958  1.5089  1.6305
11886TIP3    H235600   4.888   3.335   6.585 -0.7842 -2.9637 -0.4179
11887TIP3   OH235601   6.240   3.892   2.385 -0.1024 -0.1010  0.0384
11887TIP3    H135602   6.197   3.933   2.460 -1.8545 -1.9448  0.1082
11887TIP3    H235603   6.288   3.963   2.342 -3.6345  2.2146 -0.3049
11888TIP3   OH235604   5.019   3.198   6.992 -0.4568 -0.0850  0.2006
11888TIP3    H135605   5.082   3.263   7.024 -0.5227  0.1564 -0.1503
11888TIP3    H235606   5.070   3.143   6.932 -0.4838 -0.1430  0.2318
11889TIP3   OH235607   4.627   5.680   3.998 -0.5445 -0.0672  0.2877
11889TIP3    H135608   4.684   5.656   3.926 -1.2540 -0.1428 -0.2520
11889TIP3    H235609   4.627   5.604   4.056 -1.1155 -0.5539 -0.3550
11890TIP3   OH235610   5.022   5.035   3.291 -0.5497 -0.2262  0.3035
11890TIP3    H135611   4.949   5.007   3.236 -1.2590 -0.6260  1.4393
11890TIP3    H235612   5.017   5.131   3.291 -0.0578 -0.1866 -0.9663
11891TIP3   OH235613   3.323   4.367   4.804  0.3605 -0.3080  0.1814
11891TIP3    H135614   3.318   4.275   4.830 -0.4911  0.2736  2.1286
11891TIP3    H235615   3.386   4.405   4.865  1.0132  0.3259 -0.8770
11892TIP3   OH235616   3.075   2.425   0.245 -0.9131 -0.5564 -0.4634
11892TIP3    H135617   3.118   2.491   0.190  1.5161 -0.4701  1.4596
11892TIP3    H235618   3.023   2.477   0.307  0.6984 -0.4286  0.8065
11893TIP3   OH235619   6.102   5.265   4.096  0.3548  0.0930  0.2405
11893TIP3    H135620   6.169   5.235   4.034  0.1415  1.7625 -0.8373
11893TIP3    H235621   6.019   5.251   4.050 -0.0127 -1.1257  1.2199
11894TIP3   OH235622   6.131   5.427   3.502 -0.2567  0.0013  0.1658
11894TIP3    H135623   6.099   5.413   3.413  0.7836  0.3495 -0.2822
11894TIP3    H235624   6.064   5.482   3.543 -1.5348 -1.5132  0.1257
11895TIP3   OH235625   5.735   2.063   6.178 -0.0101 -0.5996  0.2824
11895TIP3    H135626   5.790   2.120   6.125 -1.2675  0.1878 -0.2009
11895TIP3    H235627   5.717   1.988   6.122 -0.8425 -0.0447 -0.2228
11896TIP3   OH235628   5.600   3.602   6.031 -0.2018  0.1777 -0.3882
11896TIP3    H135629   5.638   3.690   6.031  0.7272 -0.2130 -1.7254
11896TIP3    H235630   5.523   3.609   6.088 -0.8623  2.1715 -1.4859
11897TIP3   OH235631   7.695   3.202   4.534  0.3924 -0.5211 -0.5653
11897TIP3    H135632   7.626   3.201   4.467 -0.1427 -0.5839 -0.0270
11897TIP3    H235633   7.647   3.214   4.617  1.1102  0.3308 -0.2687
11898TIP3   OH235634   6.278   6.467   6.654 -0.4055 -0.2442 -0.0244
11898TIP3    H135635   6.333   6.540   6.623 -1.5426  0.7715  0.3248
11898TIP3    H235636   6.270   6.410   6.577  1.2475 -0.4726 -0.0407
11899TIP3   OH235637   6.644   5.934   4.681  0.3174  0.1364 -0.5771
11899TIP3    H135638   6.722   5.879   4.689 -0.2239 -0.6085 -0.3495
11899TIP3    H235639   6.581   5.880   4.634 -1.1635 -0.4998  2.0016
11900TIP3   OH235640   1.804   5.274   5.009 -0.1568 -0.2407  0.6655
11900TIP3    H135641   1.894   5.264   5.041  0.9127 -0.1924 -2.2403
11900TIP3    H235642   1.794   5.368   4.994  0.4900 -0.6115 -2.2728
11901TIP3   OH235643   6.563   5.665   3.024  0.8571 -0.2604  0.7518
11901TIP3    H135644   6.478   5.704   3.006  0.5187 -0.9276  0.8738
11901TIP3    H235645   6.554   5.575   2.993  1.0950 -0.7032  1.9647
11902TIP3   OH235646   6.982   5.138   5.426  0.9525  0.3830  0.6520
11902TIP3    H135647   6.928   5.060   5.437  0.5317  0.6350  0.3907
11902TIP3    H235648   6.956   5.173   5.341  3.3557 -0.9234 -0.6994
11903TIP3   OH235649   7.068   4.833   3.984 -0.0910 -0.0849  0.5435
11903TIP3    H135650   7.065   4.754   4.038  2.4619 -0.3104  0.4189
11903TIP3    H235651   7.070   4.799   3.894  0.5082  0.1283  0.4761
11904TIP3   OH235652   6.943   6.990   4.545  0.7829 -0.2911 -1.0181
11904TIP3    H135653   6.920   7.055   4.611 -1.2754 -1.2180 -0.7856
11904TIP3    H235654   6.995   6.925   4.592  0.0899 -0.4812 -0.5079
11905TIP3   OH235655   0.198   5.487   0.639  0.0784  0.0601  0.1291
11905TIP3    H135656   0.192   5.489   0.734 -0.1101 -0.1566  0.1221
11905TIP3    H235657   0.291   5.475   0.621  0.1176  0.1266  0.2837
11906TIP3   OH235658   6.615   5.050   6.189  0.4490  0.2673  0.5540
11906TIP3    H135659   6.610   4.973   6.246  1.3136 -0.4240 -0.2710
11906TIP3    H235660   6.651   5.119   6.245 -0.9621  0.2711  1.4826
11907TIP3   OH235661   5.999   6.968   4.710  0.0365 -0.1661 -0.4085
11907TIP3    H135662   5.968   7.057   4.694 -0.5809 -0.0045  1.4964
11907TIP3    H235663   6.018   6.933   4.623 -0.0024  1.7161 -1.2070
11908TIP3   OH235664   1.448   0.661   0.342  0.4033 -0.0267 -0.0430
11908TIP3    H135665   1.426   0.716   0.267 -1.1366 -0.5651 -0.0207
11908TIP3    H235666   1.530   0.696   0.375  0.9706  0.3699 -1.8323
11909TIP3   OH235667   5.262   4.040   3.316 -0.4409 -0.3505 -0.4761
11909TIP3    H135668   5.336   4.021   3.373 -0.7333 -0.6746 -0.2007
11909TIP3    H235669   5.291   4.114   3.262 -1.0032  1.5156  1.7137
11910TIP3   OH235670   6.639   7.403   4.662 -0.7314 -0.5016  0.3843
11910TIP3    H135671   6.726   7.387   4.625 -1.0977 -2.5090  0.3053
11910TIP3    H235672   6.621   7.324   4.714 -1.7914  0.6512  1.7823
11911TIP3   OH235673   6.899   5.037   4.724  0.0792 -0.3864 -0.4177
11911TIP3    H135674   6.841   4.976   4.769  2.0844 -1.6051  0.5526
11911TIP3    H235675   6.975   4.985   4.699  2.0877  1.7585  0.9073
11912TIP3   OH235676   5.424   4.269   6.176 -0.6003  0.4056 -0.0113
11912TIP3    H135677   5.465   4.187   6.148 -1.1232  0.1154  0.0658
11912TIP3    H235678   5.353   4.242   6.234 -0.2091  0.9606  0.7244
11913TIP3   OH235679   7.314   3.982   5.779 -0.6708  0.1008 -0.7092
11913TIP3    H135680   7.291   3.999   5.870  1.5118  0.7561 -0.2540
11913TIP3    H235681   7.258   4.041   5.729  1.1336  2.9307  0.4603
11914TIP3   OH235682   2.842   3.716   5.522 -0.5372  0.1461  0.0956
11914TIP3    H135683   2.902   3.786   5.496 -4.4655  3.9418  0.7733
11914TIP3    H235684   2.805   3.684   5.440  0.3130 -0.2959 -0.1241
11915TIP3   OH235685   7.475   6.301   2.779  0.0009  0.1747 -0.1934
11915TIP3    H135686   7.428   6.228   2.739  0.7989 -0.2898 -0.2884
11915TIP3    H235687   7.539   6.260   2.837 -2.2904  0.8291  2.9683
11916TIP3   OH235688   4.716   4.274   2.988 -0.4815  0.2997  0.4715
11916TIP3    H135689   4.689   4.197   3.038 -0.6769  1.5636  2.3867
11916TIP3    H235690   4.639   4.298   2.937 -0.9562  0.1728  1.1172
11917TIP3   OH235691   0.367   7.699   2.004  0.2061  0.7247  0.1430
11917TIP3    H135692   0.420   7.736   2.074  0.6131 -0.1261  0.2806
11917TIP3    H235693   0.418   7.626   1.969 -0.6106  0.2574 -0.1087
11918TIP3   OH235694   5.418   5.692   5.565 -0.1456  0.4423 -0.1944
11918TIP3    H135695   5.452   5.716   5.478 -2.4238 -1.0381 -1.5427
11918TIP3    H235696   5.323   5.699   5.556 -0.3767  1.7599  2.6585
11919TIP3   OH235697   4.554   4.773   6.026  0.4679 -0.8681 -0.5331
11919TIP3    H135698   4.526   4.845   5.970  0.9802 -0.2358  0.0129
11919TIP3    H235699   4.649   4.769   6.015  0.7355  0.1032  1.2617
11920TIP3   OH235700   6.632   4.717   4.821  0.4673  0.3183 -0.3999
11920TIP3    H135701   6.606   4.808   4.808  0.6860  0.0776 -2.6966
11920TIP3    H235702   6.551   4.672   4.846  0.1752  0.9562 -0.1892
11921TIP3   OH235703   7.233   5.451   5.668 -0.0054 -0.1837  0.4192
11921TIP3    H135704   7.237   5.355   5.677 -0.4053  0.0425  3.7554
11921TIP3    H235705   7.309   5.482   5.719  0.9130  1.2508 -1.7795
11922TIP3   OH235706   5.925   7.494   3.784  0.2687 -0.2186 -0.1446
11922TIP3    H135707   5.901   7.429   3.850  0.5679 -0.5760 -0.3836
11922TIP3    H235708   5.856   7.488   3.718  0.2847 -0.2832 -0.1559
11923TIP3   OH235709   3.332   0.248   1.120  0.0594  0.1713  0.4823
11923TIP3    H135710   3.338   0.220   1.211  1.3926 -0.8654  0.0882
11923TIP3    H235711   3.386   0.186   1.072 -0.1955  1.0347 -0.9479
11924TIP3   OH235712   5.949   4.208   5.818 -0.0989 -0.2266 -0.1302
11924TIP3    H135713   5.994   4.139   5.770 -1.5760 -0.5666 -1.0464
11924TIP3    H235714   5.885   4.243   5.756  1.2536  2.6163 -0.0052
11925TIP3   OH235715   4.839   4.756   6.293  0.8959 -0.0045 -0.4157
11925TIP3    H135716   4.935   4.748   6.298  1.0133  1.3136 -0.6465
11925TIP3    H235717   4.808   4.706   6.369  1.6562 -2.4034 -1.6407
11926TIP3   OH235718   5.651   4.682   6.129  0.2654 -0.7125 -0.0265
11926TIP3    H135719   5.658   4.587   6.118 -3.1347 -1.0046 -0.0205
11926TIP3    H235720   5.667   4.697   6.222 -1.3883 -1.5307  0.3994
11927TIP3   OH235721   7.105   5.326   3.891 -0.0871 -0.1113 -0.1449
11927TIP3    H135722   7.155   5.406   3.906  0.5654 -0.6493  0.5164
11927TIP3    H235723   7.163   5.255   3.918 -1.5508 -0.6916  1.5925
11928TIP3   OH235724   3.995   1.165   0.078  0.1937  0.2193  0.3214
11928TIP3    H135725   3.932   1.225   0.118 -0.2351  0.1781 -0.2769
11928TIP3    H235726   4.067   1.221   0.050  0.9475  0.1207  2.0148
11929TIP3   OH235727   6.819   1.994   4.981  0.6195  0.1585  0.3890
11929TIP3    H135728   6.858   2.012   4.896 -1.0165  0.6931 -0.2657
11929TIP3    H235729   6.846   1.905   5.001 -0.6704 -0.7321 -1.6560
11930TIP3   OH235730   1.808   1.398   0.559  0.4705 -0.3938  0.3171
11930TIP3    H135731   1.750   1.464   0.520  0.5669  0.8067  2.1616
11930TIP3    H235732   1.748   1.335   0.599  0.4293  0.2142  1.2060
11931TIP3   OH235733   5.836   4.222   6.353  0.0050  0.0157 -0.5557
11931TIP3    H135734   5.899   4.178   6.296  1.1303  0.0801  0.6252
11931TIP3    H235735   5.821   4.306   6.310  2.2462  0.8248  0.1298
11932TIP3   OH235736   7.978   4.327   5.343 -0.0492 -0.5380 -0.4535
11932TIP3    H135737   7.951   4.406   5.297  0.4857 -1.2797 -2.0878
11932TIP3    H235738   8.038   4.283   5.282 -2.2018 -3.4197 -0.6500
11933TIP3   OH235739   1.359   0.867   0.073 -0.0887  0.0413 -0.0756
11933TIP3    H135740   1.438   0.894   0.026 -0.4167  1.8503  0.3933
11933TIP3    H235741   1.287   0.889   0.015 -0.3552 -0.0316  0.2224
11934TIP3   OH235742   0.905   7.440  -0.012 -0.3861  0.0409  0.6930
11934TIP3    H135743   0.904   7.530   0.021 -0.5713 -0.5765  2.4780
11934TIP3    H235744   0.857   7.390   0.055  1.5559 -1.7328  0.8423
11935TIP3   OH235745   8.095   6.474   6.606  0.4786  0.1762  0.3599
11935TIP3    H135746   8.173   6.444   6.560  0.3728 -0.0114  0.2999
11935TIP3    H235747   8.049   6.393   6.630  0.3282  0.2838  0.4371
11936TIP3   OH235748   5.619   5.754   2.819  0.5648  0.2330  0.1353
11936TIP3    H135749   5.527   5.728   2.829  0.2886  0.8126 -0.7562
11936TIP3    H235750   5.634   5.815   2.891 -0.2300  1.3489 -0.6125
11937TIP3   OH235751   5.398   2.675   5.471 -0.3104  0.3947  0.8386
11937TIP3    H135752   5.448   2.750   5.503  0.6372 -0.1643  0.6684
11937TIP3    H235753   5.447   2.644   5.395 -1.1541  0.1119  0.4057
11938TIP3   OH235754   5.766   5.396   4.276  0.2333 -0.1955  0.2510
11938TIP3    H135755   5.727   5.310   4.288  0.2169 -0.2544 -0.2163
11938TIP3    H235756   5.706   5.442   4.217  1.5783 -0.7747 -1.6079
11939TIP3   OH235757   6.223   4.655   5.904 -0.6121 -0.3376 -0.8234
11939TIP3    H135758   6.180   4.574   5.878 -2.1971  0.0336  0.5835
11939TIP3    H235759   6.243   4.643   5.997 -1.8569  1.3059 -0.3206
11940TIP3   OH235760   7.645   5.311   6.903  0.2144 -0.1124 -0.0491
11940TIP3    H135761   7.648   5.403   6.930  0.0802 -0.0831 -0.1328
11940TIP3    H235762   7.717   5.270   6.951  1.5496  0.4483 -1.5431
11941TIP3   OH235763   6.567   6.270   6.257  0.2062 -0.4437  0.0011
11941TIP3    H135764   6.503   6.329   6.218  1.0362 -0.5107 -1.4775
11941TIP3    H235765   6.520   6.187   6.266  0.0557 -0.4747 -1.0147
11942TIP3   OH235766   5.921   5.979   6.488 -0.0858 -0.0127 -0.6685
11942TIP3    H135767   5.873   5.896   6.480 -0.6604  0.2488  0.0512
11942TIP3    H235768   5.963   5.990   6.403 -0.1756 -0.9456 -0.8403
11943TIP3   OH235769   6.387   4.998   4.439  0.3178  0.1702 -0.2506
11943TIP3    H135770   6.389   5.044   4.524  2.6381  0.9347 -0.6910
11943TIP3    H235771   6.332   5.053   4.384  1.2914  1.3110 -0.1155
11944TIP3   OH235772   1.985   1.700   0.160  0.4949  0.2871 -0.1611
11944TIP3    H135773   2.034   1.781   0.170 -1.1657  1.3185 -0.2596
11944TIP3    H235774   1.899   1.719   0.196 -0.0782 -1.2830 -0.6358
11945TIP3   OH235775   7.770   5.711   3.688  0.2240  0.4099 -0.0661
11945TIP3    H135776   7.685   5.666   3.688 -0.2580  1.2673  1.9465
11945TIP3    H235777   7.831   5.646   3.724 -0.0093  0.5398  0.5709
11946TIP3   OH235778   6.789   5.372   5.560  0.0971 -0.1961  0.1427
11946TIP3    H135779   6.717   5.310   5.574  0.6911 -0.6382  1.2661
11946TIP3    H235780   6.854   5.323   5.510 -1.0815  0.7171 -2.3593
11947TIP3   OH235781   4.321   4.234   5.340 -0.0070 -0.1770 -0.1975
11947TIP3    H135782   4.233   4.214   5.371 -1.0007  2.9769 -0.7773
11947TIP3    H235783   4.346   4.312   5.391  1.8830 -0.2188 -1.0408
11948TIP3   OH235784   7.394   4.297   4.207  0.5206  0.2902 -0.0881
11948TIP3    H135785   7.477   4.280   4.252  0.5792  1.9421  0.4861
11948TIP3    H235786   7.332   4.318   4.277  0.2703  1.5564 -0.6723
11949TIP3   OH235787   7.101   4.718   4.225 -0.3670  0.1267 -0.5739
11949TIP3    H135788   7.196   4.709   4.219 -0.3827  0.0140 -0.6386
11949TIP3    H235789   7.075   4.657   4.293 -0.5555 -0.8727 -1.5222
11950TIP3   OH235790   4.309   4.106   5.690  0.1849 -0.2492 -0.4575
11950TIP3    H135791   4.386   4.049   5.681  0.7734  0.8003 -2.3119
11950TIP3    H235792   4.234   4.046   5.687  0.8318 -1.0236 -1.5245
11951TIP3   OH235793   8.295   5.432   4.134 -0.5217  0.0723 -0.2929
11951TIP3    H135794   8.279   5.385   4.052 -2.1337  0.4624 -0.2254
11951TIP3    H235795   8.346   5.508   4.108  0.8917 -0.9665 -0.6030
11952TIP3   OH235796   5.887   6.161   5.796 -0.3803  0.1909  0.4549
11952TIP3    H135797   5.917   6.237   5.747  0.0084  0.4413  1.0650
11952TIP3    H235798   5.934   6.167   5.879  0.5294 -1.3541  0.0660
11953TIP3   OH235799   7.900   4.636   3.781 -0.0861  0.0801  0.2306
11953TIP3    H135800   7.830   4.579   3.812  0.1930 -0.9035 -0.9152
11953TIP3    H235801   7.941   4.587   3.710  2.4120  0.2347  1.5366
11954TIP3   OH235802   7.812   6.099   5.468  0.5451  0.1987  0.3006
11954TIP3    H135803   7.754   6.126   5.539  0.4447 -0.9032  0.6508
11954TIP3    H235804   7.755   6.092   5.391  0.0373 -1.6960  0.8312
11955TIP3   OH235805   6.066   3.883   6.828 -0.1950  0.5281 -0.1897
11955TIP3    H135806   6.062   3.964   6.777  1.3627  0.1623 -0.9176
11955TIP3    H235807   6.128   3.902   6.898 -1.4561  0.6529  0.8963
11956TIP3   OH235808   7.771   3.341   5.703 -0.3339 -0.7695 -0.1823
11956TIP3    H135809   7.845   3.383   5.660 -0.5081 -1.5914 -1.2946
11956TIP3    H235810   7.766   3.384   5.789 -0.7955  1.8580 -1.4496
11957TIP3   OH235811   3.176   1.015   0.057 -0.0828 -0.3623  0.5833
11957TIP3    H135812   3.222   1.088   0.100 -0.5168 -1.0022  2.1687
11957TIP3    H235813   3.171   0.947   0.125 -2.7366 -0.5587  0.2084
11958TIP3   OH235814   8.007   5.455   4.194 -0.6070  0.3713 -0.6176
11958TIP3    H135815   8.101   5.435   4.196 -0.7464 -0.1877  0.5358
11958TIP3    H235816   7.970   5.393   4.131 -0.1814  0.6664 -1.1552
11959TIP3   OH235817   7.560   4.194   4.430 -1.1178  0.0708 -0.6904
11959TIP3    H135818   7.634   4.148   4.392 -2.0330 -0.5128 -1.7968
11959TIP3    H235819   7.531   4.138   4.502 -1.1123 -0.2009 -0.8990
11960TIP3   OH235820   5.791   4.239   5.567 -0.1780  0.1959 -0.3011
11960TIP3    H135821   5.722   4.189   5.524  0.8370 -2.5195  1.0496
11960TIP3    H235822   5.846   4.271   5.496  0.5190 -2.7805 -1.1929
11961TIP3   OH235823   3.918   5.476   4.644 -0.3037  0.0713  0.0427
11961TIP3    H135824   3.847   5.499   4.584 -0.9428  1.3300  1.2534
11961TIP3    H235825   3.874   5.453   4.725  0.6738  0.8147  0.7988
11962TIP3   OH235826   6.449   5.392   5.970  0.2279  0.3550 -0.1763
11962TIP3    H135827   6.481   5.323   5.911  1.9614 -0.4629  1.6746
11962TIP3    H235828   6.503   5.384   6.048 -0.6643  2.7621  0.7395
11963TIP3   OH235829   7.971   4.981   6.160  0.3807 -0.2912 -0.7428
11963TIP3    H135830   7.915   4.994   6.237 -1.7742  0.7165 -2.4011
11963TIP3    H235831   7.934   4.904   6.116 -0.1973  0.7696 -2.2004
11964TIP3   OH235832   5.090   3.886   5.045  0.2042  0.2878 -0.1476
11964TIP3    H135833   5.052   3.799   5.045  0.7690  0.0370 -0.7897
11964TIP3    H235834   5.184   3.872   5.036  0.5652  0.8625  2.4928
11965TIP3   OH235835   6.190   6.488   3.924  0.0762 -0.1550  0.0491
11965TIP3    H135836   6.136   6.469   4.000 -0.3360 -1.7991 -0.6214
11965TIP3    H235837   6.268   6.529   3.959 -0.2999 -0.5118  1.3240
11966TIP3   OH235838   7.165   2.585   4.822 -0.1970  0.5448 -0.0248
11966TIP3    H135839   7.220   2.617   4.894  0.0838 -0.1243  0.0701
11966TIP3    H235840   7.115   2.513   4.861 -1.2682  1.2629 -0.0728
11967TIP3   OH235841   7.341   6.779   2.490 -0.3231 -0.5015  0.1571
11967TIP3    H135842   7.289   6.846   2.534 -1.8010 -1.7308  0.3161
11967TIP3    H235843   7.408   6.755   2.553  0.0141  0.5589  0.2258
11968TIP3   OH235844   5.129   4.140   6.425  1.1170  0.3406  0.4612
11968TIP3    H135845   5.038   4.115   6.442  0.5853  1.3121 -0.9148
11968TIP3    H235846   5.168   4.147   6.512 -0.1076 -0.1473  1.0609
11969TIP3   OH235847   7.301   6.159   5.523  0.4919  0.4359  0.3261
11969TIP3    H135848   7.221   6.210   5.532  0.5505  0.7279 -0.7820
11969TIP3    H235849   7.308   6.141   5.430  1.7956  0.5506  0.3930
11970TIP3   OH235850   4.722   5.160   5.035 -0.8246 -0.3570  0.8010
11970TIP3    H135851   4.759   5.097   5.096  0.7808 -0.8661 -0.6535
11970TIP3    H235852   4.772   5.240   5.051  0.5182 -0.8635 -0.7222
11971TIP3   OH235853   1.201   7.921   1.008 -0.3094  0.1927 -0.1546
11971TIP3    H135854   1.124   7.875   0.977  0.6707 -0.4173 -1.7361
11971TIP3    H235855   1.226   7.875   1.089  0.0637 -1.4355 -1.1761
11972TIP3   OH235856   4.342   4.509   5.438  0.3137 -0.6282 -0.6428
11972TIP3    H135857   4.338   4.512   5.343 -0.1360  0.6725 -0.5934
11972TIP3    H235858   4.253   4.531   5.466  0.2158 -1.8845  0.0716
11973TIP3   OH235859   6.085   5.802   5.267  0.5704  0.0706  0.0779
11973TIP3    H135860   6.074   5.755   5.349 -1.0448  0.9026  0.3662
11973TIP3    H235861   6.056   5.891   5.286 -2.2363 -0.2949 -1.9863
11974TIP3   OH235862   4.469   5.540   5.179  0.3251 -0.5184  0.2311
11974TIP3    H135863   4.516   5.617   5.213 -0.2095 -0.2532  0.3707
11974TIP3    H235864   4.449   5.488   5.256  2.7742 -2.0054 -0.0615
11975TIP3   OH235865   7.545   0.348   4.347 -0.2854  0.0416  0.2692
11975TIP3    H135866   7.547   0.345   4.443 -0.5567 -0.8247  0.2528
11975TIP3    H235867   7.454   0.328   4.325 -0.0358 -0.6274 -0.1878
11976TIP3   OH235868   6.206   7.283   4.389  0.1044  0.3504 -0.7659
11976TIP3    H135869   6.279   7.346   4.394 -1.1123  1.9763 -2.5885
11976TIP3    H235870   6.138   7.321   4.444 -0.0369 -0.2168 -0.5512
11977TIP3   OH235871   6.952   5.296   4.668 -0.4033 -0.2297 -0.1550
11977TIP3    H135872   6.928   5.352   4.741  1.4336  0.3217  0.0528
11977TIP3    H235873   6.936   5.207   4.700  0.2624  0.0133  0.8672
11978TIP3   OH235874   6.304   3.518   6.230  0.0753 -0.5869 -0.0445
11978TIP3    H135875   6.249   3.444   6.203 -0.7873  0.5250 -1.4236
11978TIP3    H235876   6.345   3.548   6.148  0.0443  0.7432  0.4190
11979TIP3   OH235877   3.900   0.902   0.582  0.4505 -0.1303 -0.2111
11979TIP3    H135878   3.885   0.995   0.597 -0.5263 -0.4736  1.0765
11979TIP3    H235879   3.884   0.889   0.489 -1.3755  0.6503 -0.0264
11980TIP3   OH235880   5.984   4.618   6.176  0.2026 -0.2911 -0.7187
11980TIP3    H135881   6.001   4.531   6.211 -0.3450  0.3308  1.1368
11980TIP3    H235882   6.071   4.657   6.165  0.4657 -1.1910 -1.9034
11981TIP3   OH235883   6.742   5.262   6.339  0.3273  0.1879 -0.5427
11981TIP3    H135884   6.764   5.355   6.344  0.4709  0.1789 -1.0002
11981TIP3    H235885   6.758   5.229   6.428  0.4160  0.5684 -0.4168
11982TIP3   OH235886   0.401   3.288   5.613  0.2729 -0.3648  0.1739
11982TIP3    H135887   0.388   3.336   5.695 -0.9272 -1.2702  0.5393
11982TIP3    H235888   0.321   3.305   5.563  0.4335 -0.8815 -0.2639
11983TIP3   OH235889   5.296   2.425   6.438  0.2733 -0.4405 -0.1015
11983TIP3    H135890   5.306   2.364   6.365  1.7012  0.0080 -0.2992
11983TIP3    H235891   5.289   2.511   6.397 -4.1243 -0.6030  0.0435
11984TIP3   OH235892   6.419   4.540   5.700  0.7026 -0.4940  0.5751
11984TIP3    H135893   6.505   4.503   5.719  0.4753 -1.8159 -0.8660
11984TIP3    H235894   6.385   4.569   5.785  2.7775  0.5197  1.0808
11985TIP3   OH235895   6.374   2.554   6.026  0.0468 -0.0252 -0.5005
11985TIP3    H135896   6.284   2.545   5.997  0.4869 -0.7238 -1.6668
11985TIP3    H235897   6.393   2.648   6.018 -0.5161  0.0964 -0.4059
11986TIP3   OH235898   4.509   0.436   0.721 -0.0144 -0.0457  0.2230
11986TIP3    H135899   4.479   0.379   0.650  2.4087 -0.6043 -0.4367
11986TIP3    H235900   4.481   0.523   0.696 -2.4312 -0.7304  0.4590
11987TIP3   OH235901   0.177   4.944   3.188  0.0649  0.1207  0.1345
11987TIP3    H135902   0.210   4.855   3.175 -0.4445 -0.1213  0.4856
11987TIP3    H235903   0.152   4.973   3.100 -0.5817 -0.4072  0.1350
11988TIP3   OH235904   4.973   3.607   4.603  0.1245  0.7075  0.7715
11988TIP3    H135905   5.069   3.603   4.602  0.0901 -0.5940 -1.5769
11988TIP3    H235906   4.945   3.517   4.616 -0.7568  0.6289 -1.4416
11989TIP3   OH235907   6.428   4.846   3.943 -0.1425  0.4097  0.0823
11989TIP3    H135908   6.366   4.817   4.010 -1.8018  0.3618 -1.4386
11989TIP3    H235909   6.491   4.900   3.991 -1.0318  0.0065  1.7507
11990TIP3   OH235910   7.104   3.237   3.924 -0.2548  0.6322 -0.3526
11990TIP3    H135911   7.090   3.267   4.014  1.5596 -1.0014  0.5233
11990TIP3    H235912   7.062   3.151   3.921  0.3226  0.3626 -0.8396
11991TIP3   OH235913   3.957   3.724   6.769 -0.0973 -0.3404  0.6800
11991TIP3    H135914   3.901   3.679   6.833 -1.5439  0.5404  0.0676
11991TIP3    H235915   3.930   3.816   6.774  0.6281 -0.0637 -0.3208
11992TIP3   OH235916   5.294   4.974   3.973 -0.1703 -0.0107 -0.0771
11992TIP3    H135917   5.224   5.031   4.007 -0.1890 -0.6329  0.9577
11992TIP3    H235918   5.250   4.919   3.908 -0.4442  0.2184 -0.0898
11993TIP3   OH235919   7.007   3.662   5.976 -0.1496 -0.0403  0.1293
11993TIP3    H135920   7.021   3.666   6.071  2.5642 -1.8970 -0.1177
11993TIP3    H235921   6.963   3.578   5.962 -1.0185  0.4687 -0.2120
11994TIP3   OH235922   7.656   1.882   6.077 -0.0072  0.0725  0.0769
11994TIP3    H135923   7.678   1.843   6.162 -1.1657 -1.8460 -0.4669
11994TIP3    H235924   7.562   1.870   6.069  0.3486 -1.3796 -2.2625
11995TIP3   OH235925   4.652   5.310   4.809 -0.6517  0.2124 -0.0336
11995TIP3    H135926   4.670   5.259   4.887 -1.0975  0.5499  0.2884
11995TIP3    H235927   4.630   5.398   4.842 -0.6202  0.4147 -0.5423
11996TIP3   OH235928   7.245   0.414   0.521 -0.1564  0.1131  0.7041
11996TIP3    H135929   7.256   0.378   0.609  0.5223  0.3485  0.7153
11996TIP3    H235930   7.150   0.412   0.507 -0.2628 -0.0337  1.3955
11997TIP3   OH235931   7.319   4.601   6.636 -0.7223 -0.3636 -0.0518
11997TIP3    H135932   7.353   4.690   6.642  0.3381 -0.6734 -1.1613
11997TIP3    H235933   7.225   4.609   6.652 -0.5545  0.8788  0.3483
11998TIP3   OH235934   8.591   3.388   4.489 -0.1293  0.0793 -0.2390
11998TIP3    H135935   8.592   3.386   4.394  1.8390  0.6696 -0.2494
11998TIP3    H235936   8.564   3.476   4.512 -1.5096 -0.3365 -0.2352
11999TIP3   OH235937   0.019   4.777   6.605  0.1031 -0.8167  0.4007
11999TIP3    H135938   0.073   4.846   6.567 -1.0108 -0.8107 -1.2167
11999TIP3    H235939   0.064   4.752   6.686 -0.2488  2.7966  1.7791
12000TIP3   OH235940   6.977   5.535   5.726 -0.0568  1.0850  0.2425
12000TIP3    H135941   7.020   5.585   5.796  0.3641  3.1588 -1.4249
12000TIP3    H235942   7.044   5.475   5.694  0.0925  0.9164  0.8799
12001TIP3   OH235943   7.753   3.930   5.970 -0.1551 -0.3186 -0.3640
12001TIP3    H135944   7.796   3.925   5.885  0.5914  0.0687 -0.0098
12001TIP3    H235945   7.709   4.015   5.969  0.5512  0.0566 -0.0383
12002TIP3   OH235946   8.256   5.821   3.474 -0.2495  0.4576 -0.2136
12002TIP3    H135947   8.205   5.901   3.468  2.0610  1.8581 -1.7889
12002TIP3    H235948   8.272   5.796   3.383  0.0941 -1.1224  0.2720
12003TIP3   OH235949   7.064   6.184   4.260  0.2077 -0.0337  0.3526
12003TIP3    H135950   7.155   6.173   4.232  0.1377 -0.9060  0.4479
12003TIP3    H235951   7.013   6.153   4.185 -0.0641  2.7631 -0.6904
12004TIP3   OH235952   7.523   4.670   6.846  0.0541  0.0246  0.0466
12004TIP3    H135953   7.470   4.608   6.796 -1.6393  1.4090  0.0634
12004TIP3    H235954   7.503   4.652   6.937 -0.0484  0.2555  0.0703
12005TIP3   OH235955   1.807   5.423   3.569  0.7054  0.4314 -0.1649
12005TIP3    H135956   1.747   5.373   3.625 -1.3745  3.4081  0.3904
12005TIP3    H235957   1.757   5.441   3.490  1.1179  2.3420 -0.0021
12006TIP3   OH235958   7.246   5.585   5.138 -0.5463  0.1679 -1.1564
12006TIP3    H135959   7.204   5.659   5.181 -1.9512 -1.9680  1.2648
12006TIP3    H235960   7.320   5.562   5.194  1.5143  1.3549 -3.2933
12007TIP3   OH235961   7.303   6.168   6.242  0.7297  0.4685 -0.1670
12007TIP3    H135962   7.333   6.149   6.153  1.6378  0.4900  0.1272
12007TIP3    H235963   7.374   6.219   6.281  0.5486  0.0463  0.7320
12008TIP3   OH235964   6.272   5.916   3.767  0.0330 -0.4905  0.1387
12008TIP3    H135965   6.273   5.906   3.672 -1.1544  0.0956  0.0563
12008TIP3    H235966   6.263   6.011   3.781 -3.2672 -0.8524  0.8070
12009TIP3   OH235967   4.164   7.428   0.276 -0.4610  0.5238  0.0647
12009TIP3    H135968   4.235   7.393   0.330 -0.1603 -1.7551 -1.7484
12009TIP3    H235969   4.195   7.515   0.249  0.3705  0.7281  1.6404
12010TIP3   OH235970   7.581   4.680   5.856 -0.1754 -0.1105  0.1482
12010TIP3    H135971   7.613   4.765   5.885 -1.0623 -0.2207  1.4859
12010TIP3    H235972   7.590   4.623   5.932 -1.2600 -0.7605 -0.1925
12011TIP3   OH235973   7.672   4.766   4.963  0.5841 -0.0602 -0.2136
12011TIP3    H135974   7.688   4.794   4.873  1.8002 -2.8269 -0.9223
12011TIP3    H235975   7.719   4.683   4.971  0.5720  0.1708  3.0090
12012TIP3   OH235976   7.137   5.456   4.416  0.6527  0.3332  0.0953
12012TIP3    H135977   7.231   5.445   4.405  0.6999  0.9084 -0.1271
12012TIP3    H235978   7.105   5.371   4.445  1.1617 -0.0051 -0.3449
12013TIP3   OH235979   7.996   6.344   4.791  0.1064 -0.3946 -0.1755
12013TIP3    H135980   8.071   6.399   4.814 -1.0186  1.4550 -0.8481
12013TIP3    H235981   8.016   6.259   4.831  1.9923  0.4094  0.6657
12014TIP3   OH235982   6.941   4.309   3.395  0.0106 -0.0135 -0.5843
12014TIP3    H135983   6.958   4.218   3.371 -1.2415 -0.4283  0.0533
12014TIP3    H235984   6.953   4.358   3.314  0.8463 -0.7267 -0.8952
12015TIP3   OH235985   8.164   5.205   2.799  0.0203  0.0933 -0.2441
12015TIP3    H135986   8.161   5.224   2.893  0.1116 -1.4984  0.0824
12015TIP3    H235987   8.241   5.150   2.788 -0.4641 -0.4219 -1.1220
12016TIP3   OH235988   1.411   4.646   5.549 -0.1054  0.2757  0.5812
12016TIP3    H135989   1.409   4.733   5.588 -0.2663 -0.8808  3.2324
12016TIP3    H235990   1.484   4.602   5.591  1.1575 -0.2892 -2.1166
12017TIP3   OH235991   7.392   5.173   5.743 -0.0260 -0.1334  0.2742
12017TIP3    H135992   7.304   5.165   5.706 -0.6202  2.1661  1.0505
12017TIP3    H235993   7.380   5.157   5.837  0.3729  0.1475  0.3740
12018TIP3   OH235994   5.956   6.890   5.397  0.2530  0.0855 -0.2108
12018TIP3    H135995   5.941   6.944   5.474  0.1427  1.1496 -0.9595
12018TIP3    H235996   5.889   6.918   5.335  0.1728 -0.9415 -0.6120
12019TIP3   OH235997   0.606   6.992   6.975  0.0863 -0.3456  0.3357
12019TIP3    H135998   0.529   7.036   6.939  0.1260 -0.3336  0.2661
12019TIP3    H235999   0.635   6.933   6.906  0.2373 -0.2306  0.2999
12020TIP3   OH236000   0.020   5.001   6.026  0.4121 -0.3007 -0.3550
12020TIP3    H136001   0.043   5.047   5.946 -1.5291  0.8753 -0.2803
12020TIP3    H236002   0.009   5.070   6.091 -0.3386 -1.0544  0.3338
12021TIP3   OH236003   1.022   6.376   5.197 -0.0640 -0.1705  1.1533
12021TIP3    H136004   1.101   6.418   5.162 -0.9102 -0.1092 -0.7705
12021TIP3    H236005   1.038   6.282   5.186 -0.0139 -0.1789  1.3046
12022TIP3   OH236006   8.002   5.850   5.029 -0.0807 -0.3687  0.8494
12022TIP3    H136007   8.042   5.764   5.020 -0.3943 -0.5237  0.9555
12022TIP3    H236008   8.037   5.885   5.111 -0.5493 -0.7092  1.1946
12023TIP3   OH236009   5.906   1.733   0.535 -0.3221 -0.5197 -0.2686
12023TIP3    H136010   5.824   1.779   0.552  0.2236  0.0080  1.0520
12023TIP3    H236011   5.899   1.704   0.444 -1.5198  0.4281 -0.4988
12024TIP3   OH236012   8.505   5.512   5.896  0.1948  0.2349 -0.8526
12024TIP3    H136013   8.461   5.598   5.893 -1.5520 -0.5787  0.4978
12024TIP3    H236014   8.460   5.461   5.829  1.3475  0.3941 -1.7675
12025TIP3   OH236015   1.390   5.975   3.536  0.5218 -0.3136  0.1778
12025TIP3    H136016   1.378   5.880   3.527 -0.2203 -0.1243 -0.8663
12025TIP3    H236017   1.363   5.994   3.626  0.2412 -1.0248  0.2484
12026TIP3   OH236018   0.345   2.093   6.107  0.0546  0.2059  0.2378
12026TIP3    H136019   0.273   2.145   6.072 -1.1259 -1.7193 -0.2908
12026TIP3    H236020   0.354   2.122   6.198 -0.8583  1.0133  0.0775
12027TIP3   OH236021   4.994   2.066   0.546  0.2823  0.3268 -0.2800
12027TIP3    H136022   5.075   2.094   0.588 -0.4271  2.4156 -0.2643
12027TIP3    H236023   5.021   1.994   0.489  2.0306  0.5610  0.2157
12028TIP3   OH236024   7.051   4.914   4.480 -0.2937  0.2443 -0.0599
12028TIP3    H136025   7.087   4.857   4.413 -2.2904 -0.0866 -0.8913
12028TIP3    H236026   7.105   4.897   4.558 -0.2746 -2.0794 -0.5529
12029TIP3   OH236027   0.080   5.083   4.703 -0.0515  0.0323  0.1943
12029TIP3    H136028   0.026   5.127   4.637 -1.2028 -1.3035  0.2360
12029TIP3    H236029   0.145   5.034   4.652  1.6438  2.2340  0.1565
12030TIP3   OH236030   7.411   4.870   6.626  0.8119 -0.6392  0.4011
12030TIP3    H136031   7.424   4.859   6.532 -0.8892 -1.3552  0.2389
12030TIP3    H236032   7.499   4.889   6.660  1.3605  0.0749 -1.3803
12031TIP3   OH236033   0.641   5.237   5.661 -0.3635  0.2453  0.2542
12031TIP3    H136034   0.556   5.200   5.684  0.0778 -1.8013 -1.1466
12031TIP3    H236035   0.698   5.214   5.735 -0.7757  0.6165  0.6832
12032TIP3   OH236036   8.523   6.051   5.266 -0.6220 -0.0884  0.3826
12032TIP3    H136037   8.610   6.010   5.260 -1.0051 -0.8776  0.1168
12032TIP3    H236038   8.464   5.987   5.226 -1.1114  1.1494 -0.8805
12033TIP3   OH236039   5.162   1.365   0.382  0.3655  0.0595 -0.1143
12033TIP3    H136040   5.088   1.308   0.364  0.9900 -1.0675  0.8641
12033TIP3    H236041   5.144   1.444   0.331 -1.3246 -0.3431 -0.1778
12034TIP3   OH236042   5.350   0.865   1.495  0.1851 -0.5477  0.2140
12034TIP3    H136043   5.399   0.938   1.534  0.8385 -0.0323 -1.5606
12034TIP3    H236044   5.266   0.866   1.542  1.8083 -1.4302  3.2935
12035TIP3   OH236045   0.670   5.195   4.928  0.1998 -0.6530  0.0051
12035TIP3    H136046   0.691   5.102   4.936 -1.0115 -1.0472 -1.1707
12035TIP3    H236047   0.581   5.202   4.963  1.4864  0.6623  3.1818
12036TIP3   OH236048   8.376   5.520   3.502 -0.3001  0.5709 -0.5947
12036TIP3    H136049   8.410   5.521   3.591 -0.8609  1.0747 -0.3816
12036TIP3    H236050   8.317   5.445   3.500  1.6724 -1.0105 -1.3007
12037TIP3   OH236051   8.260   6.009   3.758  0.5338 -0.7374  0.2483
12037TIP3    H136052   8.238   5.916   3.763  0.5562 -0.8404 -1.2850
12037TIP3    H236053   8.217   6.040   3.678 -1.9609  1.2578  2.2668
12038TIP3   OH236054   8.457   6.009   2.093  0.2861 -0.2714  0.0054
12038TIP3    H136055   8.397   6.049   2.030 -1.9209 -1.1861  1.4338
12038TIP3    H236056   8.519   5.960   2.040 -3.2077 -3.3307 -1.5051
12039TIP3   OH236057   7.027   5.906   5.461  0.8193 -0.3246 -0.4755
12039TIP3    H136058   6.972   5.909   5.539 -0.0922  0.3675 -1.1379
12039TIP3    H236059   7.114   5.884   5.494  0.4190 -0.1447  0.7193
12040TIP3   OH236060   7.381   5.506   5.386  0.0715  0.3288 -0.0622
12040TIP3    H136061   7.299   5.489   5.433 -0.4516  0.0959 -1.0571
12040TIP3    H236062   7.439   5.434   5.413 -0.3976 -0.0943 -0.1714
12041TIP3   OH236063   5.720   5.688   3.773  0.0651  0.2665 -0.1857
12041TIP3    H136064   5.730   5.672   3.867  0.6123  1.7763  0.0199
12041TIP3    H236065   5.642   5.742   3.766 -0.3449 -0.3749 -0.6720
12042TIP3   OH236066   6.284   5.379   5.007  0.5183  0.2425 -0.6743
12042TIP3    H136067   6.284   5.452   4.945  0.2705  1.0852  0.3019
12042TIP3    H236068   6.297   5.421   5.092  0.1956 -0.8445 -0.0888
12043TIP3   OH236069   2.619   1.452   3.264 -0.0361  0.3329 -0.1136
12043TIP3    H136070   2.650   1.443   3.354 -1.1870  1.1650  0.3787
12043TIP3    H236071   2.699   1.455   3.212  0.6615  0.4714  0.9409
12044TIP3   OH236072   7.692   7.279   3.378  0.0305 -0.0589  0.6397
12044TIP3    H136073   7.656   7.196   3.408  0.6339  0.1324  1.8867
12044TIP3    H236074   7.784   7.278   3.405  0.4540  0.3330 -0.7436
12045TIP3   OH236075   7.924   5.051   6.443 -0.1388  0.5314  0.3651
12045TIP3    H136076   8.011   5.040   6.481  0.0479 -0.2384 -0.2675
12045TIP3    H236077   7.874   5.097   6.510  0.8545  1.3033  0.5923
12046TIP3   OH236078   6.533   6.182   5.714 -0.0547 -0.3976  0.3337
12046TIP3    H136079   6.571   6.161   5.799  0.1170 -1.9548 -0.1113
12046TIP3    H236080   6.580   6.261   5.686  0.8500 -0.6620  1.0686
12047TIP3   OH236081   8.223   4.737   5.581 -0.0992  0.0765 -0.1572
12047TIP3    H136082   8.245   4.818   5.627  2.0164 -1.2160  1.2363
12047TIP3    H236083   8.131   4.721   5.600 -0.2358  1.5809  0.4534
12048TIP3   OH236084   8.456   5.928   6.384  0.9087 -0.3361 -0.5340
12048TIP3    H136085   8.491   5.840   6.393 -1.1637 -0.9404  2.3404
12048TIP3    H236086   8.509   5.981   6.444  1.0827  0.0609 -1.0333
12049TIP3   OH236087   4.037   1.876   1.273  0.0160 -0.2782 -0.3961
12049TIP3    H136088   4.121   1.898   1.233  1.3619 -0.4437  2.2550
12049TIP3    H236089   4.028   1.782   1.259  0.8532 -0.4731  0.3671
12050TIP3   OH236090   1.355   4.990   4.858  0.2422  0.5568  0.4358
12050TIP3    H136091   1.355   5.025   4.947  0.0172  3.5488 -0.6687
12050TIP3    H236092   1.436   4.939   4.852  0.6278  0.9396  2.1078
12051TIP3   OH236093   8.345   5.920   5.012 -0.2329 -0.5482  0.5172
12051TIP3    H136094   8.438   5.921   4.990  0.0425 -1.7685  1.6049
12051TIP3    H236095   8.300   5.911   4.927  0.5974  0.7872 -0.0752
12052TIP3   OH236096   7.406   4.140   6.422  0.0077  0.2437  0.3497
12052TIP3    H136097   7.462   4.210   6.389 -0.1442 -0.5553 -1.7220
12052TIP3    H236098   7.321   4.181   6.435 -0.2780  0.2996 -1.5806
12053TIP3   OH236099   6.042   3.234   3.322 -0.8748 -0.0356  0.0628
12053TIP3    H136100   6.064   3.142   3.337  0.4956  0.2664 -0.0745
12053TIP3    H236101   6.086   3.281   3.393  1.4062  0.8814 -1.9210
12054TIP3   OH236102   0.850   3.471   4.597 -0.0791  0.1768  0.0762
12054TIP3    H136103   0.894   3.454   4.514  0.4907  2.1436 -0.0471
12054TIP3    H236104   0.828   3.564   4.594 -0.3361  0.1998  2.0021
12055TIP3   OH236105   0.256   4.969   4.053 -0.3636  0.1852 -0.1155
12055TIP3    H136106   0.248   5.019   3.972 -0.1072 -0.4155 -0.5123
12055TIP3    H236107   0.338   5.000   4.092  0.6613 -1.1022 -1.1844
12056TIP3   OH236108   8.477   2.658   5.884  0.6825  0.3458 -0.0785
12056TIP3    H136109   8.461   2.593   5.953 -2.6430  1.8252  0.6666
12056TIP3    H236110   8.441   2.740   5.920  0.3735  1.5132 -2.8964
12057TIP3   OH236111   8.119   6.392   6.040  0.4241  0.0034 -0.1797
12057TIP3    H136112   8.105   6.459   5.973  0.5524  2.1513  1.8744
12057TIP3    H236113   8.037   6.392   6.091  0.9197 -0.4801  0.6312
12058TIP3   OH236114   6.930   4.791   3.536  0.3385 -0.4773 -0.4451
12058TIP3    H136115   6.849   4.817   3.492  0.8118 -0.0710 -1.0849
12058TIP3    H236116   6.910   4.706   3.575 -0.8870  0.3315  0.7261
12059TIP3   OH236117   6.728   4.146   5.446  0.4252  0.4681 -0.0661
12059TIP3    H136118   6.683   4.067   5.415  2.9388 -2.0112  2.2416
12059TIP3    H236119   6.792   4.166   5.377 -1.4126  1.5843 -1.4760
12060TIP3   OH236120   5.921   7.144   0.754 -0.7552  0.2759 -0.0060
12060TIP3    H136121   6.010   7.120   0.729 -0.1708  1.7609  0.5610
12060TIP3    H236122   5.877   7.061   0.773 -0.5281 -0.7259 -3.5524
12061TIP3   OH236123   7.380   4.438   5.540  0.2324  0.8139 -0.1926
12061TIP3    H136124   7.368   4.411   5.448 -1.7128  0.7765  0.0408
12061TIP3    H236125   7.457   4.495   5.538 -0.2325  1.4323 -1.9873
12062TIP3   OH236126   7.040   5.987   4.775 -0.0444 -0.0470  0.1762
12062TIP3    H136127   7.121   5.941   4.796 -0.8414 -0.9600  1.2543
12062TIP3    H236128   6.989   5.924   4.724  0.2723  0.8301 -1.2632
12063TIP3   OH236129   8.013   3.258   3.709  0.5659  0.0535  0.0735
12063TIP3    H136130   8.068   3.254   3.632  1.7727 -1.5669  0.9919
12063TIP3    H236131   7.956   3.181   3.703  0.9358 -0.3025  0.9842
12064TIP3   OH236132   7.330   5.058   4.251  0.5206  0.6529 -0.0604
12064TIP3    H136133   7.236   5.063   4.233  0.3678 -1.0700  0.1610
12064TIP3    H236134   7.368   5.130   4.200 -0.8497  1.0436 -0.5598
12065TIP3   OH236135   7.565   5.001   6.202  0.5890  0.5496  0.3759
12065TIP3    H136136   7.557   5.096   6.212  0.1272  0.3161  2.4588
12065TIP3    H236137   7.582   4.969   6.290 -1.1354 -1.4771  0.0166
12066TIP3   OH236138   0.453   5.060   3.580  0.4848  0.3563  0.2639
12066TIP3    H136139   0.378   5.069   3.522  0.1884  0.6103  0.6823
12066TIP3    H236140   0.471   5.149   3.610  2.3173  0.6104 -1.5354
12067TIP3   OH236141   7.291   5.886   5.635  0.6780 -0.0174 -0.1529
12067TIP3    H136142   7.280   5.913   5.727  3.0367  1.7846 -0.3578
12067TIP3    H236143   7.300   5.968   5.587 -1.4247 -0.9180 -2.1669
12068TIP3   OH236144   4.854   1.298   0.537  0.7894 -0.3396 -0.1900
12068TIP3    H136145   4.868   1.370   0.598  1.5297 -0.1750 -0.5494
12068TIP3    H236146   4.765   1.268   0.556  1.5033 -1.2198  1.9502
12069TIP3   OH236147   6.986   4.607   4.941  0.2105  0.6796  0.3893
12069TIP3    H136148   7.022   4.589   4.855  0.4548  1.9262  0.2240
12069TIP3    H236149   7.055   4.656   4.986 -0.1593  0.5806  1.0670
12070TIP3   OH236150   7.674   5.489   6.639 -0.1731  1.0480  0.1149
12070TIP3    H136151   7.594   5.533   6.666 -0.7394 -1.3672  2.5827
12070TIP3    H236152   7.645   5.408   6.598  0.9486  0.3817  0.6043
12071TIP3   OH236153   5.243   6.718   5.685 -0.1066  0.3512  0.5504
12071TIP3    H136154   5.169   6.680   5.636  2.3712 -3.7101 -0.3362
12071TIP3    H236155   5.235   6.680   5.773  0.0052  1.1939  0.9244
12072TIP3   OH236156   8.511   5.686   6.510 -0.5814 -0.2834  0.2978
12072TIP3    H136157   8.581   5.723   6.563 -1.8347  0.4104  1.4977
12072TIP3    H236158   8.553   5.614   6.462  1.0001  0.3002  0.7773
12073TIP3   OH236159   0.518   2.419   3.816  0.3027 -0.1557  0.5191
12073TIP3    H136160   0.516   2.467   3.733  0.3011 -0.7085  0.1994
12073TIP3    H236161   0.530   2.487   3.882  0.4318  0.2765  0.0556
12074TIP3   OH236162   8.091   6.305   5.397 -0.0611  0.1697  0.6274
12074TIP3    H136163   8.041   6.316   5.478  0.4929  0.2915  0.9534
12074TIP3    H236164   8.157   6.239   5.418  0.6114  0.7941  0.5339
12075TIP3   OH236165   0.988   5.612   4.591 -0.3724  0.1111  0.2059
12075TIP3    H136166   1.083   5.601   4.582 -0.3514  0.8268 -0.4438
12075TIP3    H236167   0.952   5.527   4.567 -0.0466  0.6040 -2.1872
12076TIP3   OH236168   0.081   6.235   4.954 -0.0193  0.0562  0.0089
12076TIP3    H136169   0.087   6.197   5.041  0.1063  1.7025  0.7433
12076TIP3    H236170  -0.011   6.262   4.947 -0.3216 -1.1711 -0.8508
12077TIP3   OH236171   8.119   5.798   4.407  0.2237 -0.1924 -0.2580
12077TIP3    H136172   8.200   5.748   4.407  0.2588 -0.1352 -0.5190
12077TIP3    H236173   8.132   5.866   4.341 -0.0058 -0.1352 -0.2472
12078TIP3   OH236174   7.571   4.126   5.049  0.5670 -0.3538 -0.5967
12078TIP3    H136175   7.483   4.086   5.048  0.6956 -0.6372 -1.7943
12078TIP3    H236176   7.630   4.052   5.032  0.8196  0.2975 -2.6958
12079TIP3   OH236177   8.110   4.197   2.854  0.3199 -0.3293 -0.1070
12079TIP3    H136178   8.024   4.193   2.814  0.0776 -0.9091  0.4599
12079TIP3    H236179   8.160   4.257   2.798  0.8809 -3.3549 -3.0016
12080TIP3   OH236180   7.388   4.349   5.274  0.0624 -0.4236  0.6175
12080TIP3    H136181   7.482   4.346   5.256  0.2997  0.2873  1.7253
12080TIP3    H236182   7.349   4.374   5.190  0.9396  0.2373  0.4013
12081TIP3   OH236183   3.422   1.971   0.557 -0.5156  0.5880  0.1085
12081TIP3    H136184   3.478   1.893   0.558 -2.6713 -0.9936  0.2641
12081TIP3    H236185   3.476   2.039   0.516  1.4940 -0.9066  0.2260
12082TIP3   OH236186   7.340   6.942   5.255  0.1920  0.0484 -0.5638
12082TIP3    H136187   7.398   6.977   5.322  0.6464 -2.6587  0.5127
12082TIP3    H236188   7.268   7.005   5.249  1.2951  1.4577  0.8486
12083TIP3   OH236189   7.616   5.371   5.486  0.5072 -0.2701  0.1569
12083TIP3    H136190   7.666   5.383   5.405  1.4637 -1.5728  0.5442
12083TIP3    H236191   7.625   5.454   5.533  0.4818  0.2673 -0.7763
12084TIP3   OH236192   7.895   6.356   6.200 -0.1081  0.0551  0.3370
12084TIP3    H136193   7.881   6.262   6.201  0.4954 -0.0496 -0.8555
12084TIP3    H236194   7.807   6.393   6.206 -0.2984 -0.5641  1.6348
12085TIP3   OH236195  -0.024   6.095   6.555 -0.1064 -0.1916 -0.0495
12085TIP3    H136196  -0.031   6.191   6.550  1.9773 -0.0722 -1.6238
12085TIP3    H236197   0.069   6.078   6.541 -0.4912 -2.4662  0.0673
12086TIP3   OH236198   5.890   5.150   5.447 -0.4084  0.0259  0.2269
12086TIP3    H136199   5.966   5.122   5.498 -1.1607  2.7462  2.9001
12086TIP3    H236200   5.825   5.176   5.512 -1.4452  3.4499 -2.0736
12087TIP3   OH236201   7.264   5.958   3.247 -0.1314 -0.0419  0.5784
12087TIP3    H136202   7.172   5.983   3.256 -0.4407 -0.8510 -0.2046
12087TIP3    H236203   7.306   5.990   3.327 -0.8609  1.3541  0.4127
12088TIP3   OH236204   1.664   5.760   3.239  1.0019  0.2890  0.3995
12088TIP3    H136205   1.646   5.831   3.177  1.6464  0.4105  0.3520
12088TIP3    H236206   1.577   5.725   3.261  0.8101 -0.5335 -1.4806
12089TIP3   OH236207   7.088   6.063   3.601  0.1541  0.1444 -0.4124
12089TIP3    H136208   7.055   6.110   3.678 -0.2406 -0.9989  0.1324
12089TIP3    H236209   7.177   6.037   3.624 -1.3347 -3.9012  1.4400
12090TIP3   OH236210   1.047   3.646   2.240  0.3696 -0.1257  0.6307
12090TIP3    H136211   1.034   3.552   2.234  1.9941 -0.4544  1.8141
12090TIP3    H236212   1.140   3.658   2.220 -0.1400  1.3966 -0.9987
12091TIP3   OH236213   2.150   5.800   4.520  0.0735 -0.9617  0.1380
12091TIP3    H136214   2.182   5.767   4.604  1.6496 -0.1554 -0.1425
12091TIP3    H236215   2.142   5.894   4.532  0.2552 -0.8457 -0.6061
12092TIP3   OH236216   0.255   5.848   4.462  0.3592  0.4158 -0.6978
12092TIP3    H136217   0.250   5.753   4.469  0.4670  0.4748  0.3481
12092TIP3    H236218   0.246   5.867   4.369 -0.8831 -0.5500 -0.7845
12093TIP3   OH236219   3.074   6.126   0.449 -0.2938  0.6374  0.4641
12093TIP3    H136220   3.115   6.128   0.362 -0.5379  0.2034  0.3388
12093TIP3    H236221   3.141   6.090   0.507 -0.3118  0.4475  0.3640
12094TIP3   OH236222   8.415   4.874   4.668  0.0451 -0.2548  0.1032
12094TIP3    H136223   8.375   4.808   4.612  1.4807 -2.3816  1.4989
12094TIP3    H236224   8.455   4.936   4.606 -0.9568 -0.9153 -1.2380
12095TIP3   OH236225   8.350   5.601   7.020 -0.7296  0.2345 -0.4386
12095TIP3    H136226   8.414   5.551   6.969 -0.8068 -1.1695  0.8096
12095TIP3    H236227   8.266   5.582   6.978 -0.4862  1.0839 -1.3160
12096TIP3   OH236228   8.563   7.085   4.038 -0.2611  0.1913 -0.0911
12096TIP3    H136229   8.602   7.048   3.959  1.4886  0.5925  0.5526
12096TIP3    H236230   8.492   7.140   4.006  0.9768  1.0291 -1.4600
12097TIP3   OH236231   7.103   4.574   2.399  0.2974  0.3075 -0.0062
12097TIP3    H136232   7.171   4.596   2.336  1.7091  0.6264  1.5917
12097TIP3    H236233   7.119   4.632   2.474 -0.5744 -0.8945  1.1501
12098TIP3   OH236234   7.785   5.194   5.898  0.4528 -0.4164  0.3130
12098TIP3    H136235   7.865   5.246   5.894 -0.4325  1.0806  1.3384
12098TIP3    H236236   7.753   5.192   5.808  1.0064  0.0150  0.1040
12099TIP3   OH236237   5.835   1.810   0.936 -0.2440  0.5486 -0.4726
12099TIP3    H136238   5.841   1.787   1.029  1.5918 -0.3975 -0.8089
12099TIP3    H236239   5.751   1.775   0.908 -0.4578  0.1425  0.6563
12100TIP3   OH236240   8.158   5.140   5.047 -0.0268  0.2159  0.2504
12100TIP3    H136241   8.182   5.087   4.971  0.7222  0.3472  0.3968
12100TIP3    H236242   8.062   5.143   5.044 -0.0638 -0.9509  0.1113
12101TIP3   OH236243   6.674   5.380   3.936 -0.4066 -0.7269  0.5681
12101TIP3    H136244   6.584   5.366   3.966 -0.8142  1.5187  0.5086
12101TIP3    H236245   6.692   5.472   3.956  1.3528 -0.7385 -0.7943
12102TIP3   OH236246   7.417   5.289   3.215  0.4940 -0.2154 -0.8073
12102TIP3    H136247   7.447   5.377   3.193  0.9523 -0.4095 -0.9653
12102TIP3    H236248   7.386   5.295   3.305 -0.1365  0.2712 -1.0581
12103TIP3   OH236249   0.073   6.412   6.188  0.0636 -0.0001  0.4765
12103TIP3    H136250   0.153   6.375   6.224 -0.2925 -1.1901  0.0872
12103TIP3    H236251   0.101   6.455   6.107  0.1072 -1.6644 -0.4137
12104TIP3   OH236252   6.328   2.288   5.076 -0.2948  0.1035 -0.6991
12104TIP3    H136253   6.380   2.222   5.031 -0.5463 -0.1052 -0.6850
12104TIP3    H236254   6.299   2.347   5.006 -0.8277 -0.3170 -0.8378
12105TIP3   OH236255   8.191   6.460   4.557 -0.2697 -0.1258 -0.5891
12105TIP3    H136256   8.189   6.379   4.506  0.1995  1.4355 -3.1646
12105TIP3    H236257   8.250   6.518   4.509  0.2316  1.4138  1.7639
12106TIP3   OH236258   0.756   4.672   4.954  0.4612 -0.2511 -0.1936
12106TIP3    H136259   0.824   4.605   4.946  1.0914  0.2398  0.8973
12106TIP3    H236260   0.763   4.703   5.045  0.3204  1.4271 -0.7280
12107TIP3   OH236261   7.383   6.755   5.051 -0.3941 -0.5309  0.1496
12107TIP3    H136262   7.423   6.823   5.105  1.1437 -1.6719  0.4800
12107TIP3    H236263   7.457   6.714   5.006 -1.3027 -1.9691 -0.0703
12108TIP3   OH236264   8.016   4.104   4.316  0.6986  0.1095  0.2610
12108TIP3    H136265   7.965   4.139   4.389 -0.3126 -0.3080 -0.2265
12108TIP3    H236266   8.016   4.174   4.251  0.8320  0.1493  0.3048
12109TIP3   OH236267   7.365   5.267   4.523 -0.3103 -0.1848  0.2607
12109TIP3    H136268   7.382   5.304   4.436 -1.1730  0.7565  0.4884
12109TIP3    H236269   7.296   5.203   4.508 -1.0060  0.5374  0.3808
12110TIP3   OH236270   7.332   4.795   5.379 -0.5016 -0.1753 -0.1345
12110TIP3    H136271   7.355   4.777   5.470  2.8825  0.5173 -0.7636
12110TIP3    H236272   7.387   4.870   5.355 -2.3094  0.4798 -2.3602
12111TIP3   OH236273   2.356   1.141   5.010 -0.3127 -0.1288  0.1874
12111TIP3    H136274   2.436   1.093   5.030  0.8938  2.2520  1.3171
12111TIP3    H236275   2.352   1.142   4.915  1.6509  0.7438  0.0937
12112TIP3   OH236276   7.948   6.587   5.328  0.4101 -0.0742 -0.5902
12112TIP3    H136277   7.921   6.666   5.279  1.7819  0.0363 -1.1883
12112TIP3    H236278   7.881   6.577   5.395 -0.4063  0.9530 -1.2260
12113TIP3   OH236279   7.952   5.057   4.210  0.0524 -0.4703 -0.1032
12113TIP3    H136280   7.958   5.076   4.116 -1.7887 -1.7451 -0.4887
12113TIP3    H236281   7.885   5.116   4.242 -0.3331 -1.0465  0.1423
12114TIP3   OH236282   8.599   6.080   4.625  0.0104 -0.5015 -0.2014
12114TIP3    H136283   8.575   5.989   4.638 -0.5187 -0.7506 -2.6984
12114TIP3    H236284   8.526   6.118   4.576  0.9228  0.8546 -0.5497
12115TIP3   OH236285   0.511   6.390   2.861  0.0756 -0.1783 -0.2594
12115TIP3    H136286   0.474   6.303   2.854 -1.1083  0.3586 -0.7965
12115TIP3    H236287   0.474   6.426   2.943  1.3183 -0.5290  0.4709
12116TIP3   OH236288   5.112   1.665   2.034 -0.4143 -0.0382 -0.0610
12116TIP3    H136289   5.132   1.620   1.952 -2.9613 -1.8295  0.2657
12116TIP3    H236290   5.071   1.599   2.089  0.1642  1.4514  2.2343
12117TIP3   OH236291   0.577   4.460   4.530 -0.5193  0.4649 -0.0289
12117TIP3    H136292   0.598   4.368   4.547  0.7013  0.5855 -0.8287
12117TIP3    H236293   0.623   4.508   4.599 -1.2393  0.4847  0.4494
12118TIP3   OH236294   6.247   4.677   6.173 -0.2344  0.4731 -0.5649
12118TIP3    H136295   6.277   4.600   6.223  0.5497 -0.2176 -2.0588
12118TIP3    H236296   6.316   4.742   6.187  1.9343 -0.9936 -3.7039
12119TIP3   OH236297   0.917   5.211   5.521  0.2602  0.7486 -0.3242
12119TIP3    H136298   0.912   5.163   5.603 -0.2879  2.1783  0.5124
12119TIP3    H236299   0.825   5.227   5.497  0.4152  0.2310 -1.2804
12120TIP3   OH236300   5.258   2.774   1.346 -0.1264  0.1291 -0.2819
12120TIP3    H136301   5.314   2.739   1.415  0.9977  1.0239 -0.7089
12120TIP3    H236302   5.208   2.699   1.314  1.3412 -0.8319 -0.3610
12121TIP3   OH236303   8.212   4.976   6.443  0.0733 -0.2111  0.3595
12121TIP3    H136304   8.281   4.910   6.441 -1.3225 -1.7390  1.3505
12121TIP3    H236305   8.224   5.026   6.362  1.4049 -1.3820 -0.1864
12122TIP3   OH236306   8.324   3.965   3.367 -0.5077 -0.6003 -0.4136
12122TIP3    H136307   8.389   3.987   3.300  0.2220 -0.1123  0.4351
12122TIP3    H236308   8.249   3.930   3.318  0.3072 -0.9603 -1.4196
12123TIP3   OH236309   5.981   5.689   3.349 -0.0820  0.5218  0.2152
12123TIP3    H136310   5.924   5.629   3.396 -1.2517  2.4044  1.2206
12123TIP3    H236311   5.952   5.776   3.375  2.3887  1.5293 -0.2875
12124TIP3   OH236312   0.525   5.607   4.763  0.3693 -0.1045 -0.5311
12124TIP3    H136313   0.496   5.684   4.812  1.0313  1.2169 -2.1509
12124TIP3    H236314   0.576   5.556   4.826  2.3099  2.1986 -0.1456
12125TIP3   OH236315   8.139   6.171   5.863 -0.2893 -0.5120  0.3529
12125TIP3    H136316   8.094   6.107   5.918  3.0378  0.7385  4.7993
12125TIP3    H236317   8.135   6.252   5.913  2.6301  0.7673 -1.3954
12126TIP3   OH236318   8.141   5.230   2.523 -0.3504  0.1124 -0.0702
12126TIP3    H136319   8.113   5.316   2.493 -0.9497  0.2658  0.9184
12126TIP3    H236320   8.126   5.231   2.617 -1.7451 -1.5751 -0.2356
12127TIP3   OH236321   5.697   2.088   0.593 -0.4312 -0.1251 -0.1706
12127TIP3    H136322   5.790   2.108   0.584 -0.9054  2.8971  0.9740
12127TIP3    H236323   5.682   2.089   0.688 -2.1422  2.3382 -0.3981
12128TIP3   OH236324   7.656   4.157   6.577  0.1993  0.2216  0.1278
12128TIP3    H136325   7.689   4.071   6.551  0.1956  0.1960  0.2071
12128TIP3    H236326   7.561   4.149   6.570  0.1614 -0.0363  0.9302
12129TIP3   OH236327   5.432   1.240   0.125 -0.5742  0.8939 -0.2986
12129TIP3    H136328   5.366   1.224   0.193  2.4782  0.8048  2.7814
12129TIP3    H236329   5.424   1.166   0.066 -1.6617 -0.3512  1.3553
12130TIP3   OH236330   0.365   5.694   5.127  0.4455  0.0805 -0.2301
12130TIP3    H136331   0.365   5.701   5.222  0.2756  0.4779 -0.2546
12130TIP3    H236332   0.276   5.665   5.105  0.6614 -0.5865 -0.2318
12131TIP3   OH236333   4.468   1.881   0.829 -0.3704  0.0336 -0.6140
12131TIP3    H136334   4.410   1.832   0.887  0.2996  1.1589  1.0226
12131TIP3    H236335   4.555   1.844   0.845 -0.2851 -0.1159 -1.4067
12132TIP3   OH236336   3.603   1.525   0.585 -0.3982  0.2675 -0.1413
12132TIP3    H136337   3.640   1.600   0.633 -0.9377  0.7966 -0.5377
12132TIP3    H236338   3.608   1.552   0.493  0.7189 -0.7787 -0.3997
12133TIP3   OH236339   7.947   4.087   6.110 -0.0036 -0.4483  0.3245
12133TIP3    H136340   7.924   4.086   6.203  2.1379 -2.6355  0.8860
12133TIP3    H236341   7.883   4.028   6.069 -0.7379  0.2514  0.4522
12134TIP3   OH236342   6.670   3.796   6.461 -0.2447 -0.7678  0.3964
12134TIP3    H136343   6.595   3.854   6.472 -0.4936 -0.9387 -0.3374
12134TIP3    H236344   6.634   3.708   6.471 -0.1358 -0.8474  0.0994
12135TIP3   OH236345   6.443   3.672   0.464 -0.0661 -0.4980  0.8176
12135TIP3    H136346   6.490   3.679   0.380 -0.8354  2.1239  0.5834
12135TIP3    H236347   6.354   3.648   0.439  0.3356 -2.3364  1.0762
12136TIP3   OH236348   4.961   0.775   0.503 -0.2413 -0.2458 -0.0011
12136TIP3    H136349   4.871   0.804   0.514  0.4566  1.8251  0.4653
12136TIP3    H236350   5.002   0.790   0.588  0.6106 -0.8980 -0.2927
12137TIP3   OH236351   1.985   7.104   0.363 -0.4083 -0.4466 -0.0271
12137TIP3    H136352   1.945   7.054   0.292 -0.1521  0.6718 -0.9807
12137TIP3    H236353   1.910   7.135   0.415 -0.7865  1.2631 -1.5467
12138TIP3   OH236354   5.672   1.311   0.252 -0.2379 -0.1402 -0.5122
12138TIP3    H136355   5.691   1.229   0.298 -0.0698 -0.5764 -1.3519
12138TIP3    H236356   5.584   1.299   0.217 -0.7287  0.5444  0.4466
12139TIP3   OH236357   6.837  -0.026   0.501 -0.2457  0.2009 -0.0313
12139TIP3    H136358   6.877   0.039   0.560  1.2244  0.1799 -0.9725
12139TIP3    H236359   6.762   0.019   0.463  0.1848  1.0174  0.0677
12140TIP3   OH236360   6.631   6.399   3.092 -0.1822  0.6121 -0.5810
12140TIP3    H136361   6.604   6.326   3.036 -0.6863 -1.0094  1.7481
12140TIP3    H236362   6.704   6.365   3.143 -0.7430  1.5887  0.8928
12141TIP3   OH236363   1.824   0.092   2.677 -0.4916 -0.4929  0.2179
12141TIP3    H136364   1.741   0.089   2.723 -0.2423  2.5699  1.0190
12141TIP3    H236365   1.890   0.078   2.745 -0.3043 -1.7125 -0.2077
12142TIP3   OH236366   7.435   5.654   5.760 -0.1348  0.4867  0.6997
12142TIP3    H136367   7.496   5.650   5.686  0.8582  0.4790  1.5118
12142TIP3    H236368   7.365   5.711   5.729  0.4172  0.7264 -0.1479
12143TIP3   OH236369   7.366   6.379   3.592 -0.5453 -1.1783 -0.2546
12143TIP3    H136370   7.285   6.431   3.588 -1.0486 -1.6267  2.7872
12143TIP3    H236371   7.425   6.422   3.530 -1.3806  2.3198  1.2224
12144TIP3   OH236372   7.399   7.156   3.174 -0.2194 -0.4462 -0.1881
12144TIP3    H136373   7.391   7.094   3.246 -0.3660  1.1699  1.2267
12144TIP3    H236374   7.400   7.102   3.095  0.8903 -2.3159  1.0705
12145TIP3   OH236375   7.414   4.515   4.846 -0.1270 -0.3048  0.1220
12145TIP3    H136376   7.430   4.564   4.927  1.2030  1.7271 -1.3196
12145TIP3    H236377   7.496   4.470   4.827 -1.2271 -2.8725  1.2318
12146TIP3   OH236378   1.335   5.685   4.612  0.3167 -0.1259 -0.3049
12146TIP3    H136379   1.288   5.651   4.689 -0.5115 -1.3638 -1.3347
12146TIP3    H236380   1.410   5.626   4.602 -0.5715 -1.0794 -1.5008
12147TIP3   OH236381   6.875   5.715   4.909  0.7173 -0.1994  0.0461
12147TIP3    H136382   6.799   5.700   4.965  0.6949  1.2469  0.4096
12147TIP3    H236383   6.922   5.787   4.951  0.3826  1.3178 -2.1175
12148TIP3   OH236384   0.300   4.355   3.038 -0.2114 -0.1783  0.1682
12148TIP3    H136385   0.228   4.301   3.005  0.0570 -0.4740  0.0664
12148TIP3    H236386   0.286   4.357   3.133 -1.7646  1.7866 -0.0687
12149TIP3   OH236387   8.263   5.651   2.955 -0.1426  0.4731 -0.0698
12149TIP3    H136388   8.224   5.646   3.042  1.3406  1.0731  0.6512
12149TIP3    H236389   8.358   5.646   2.971  0.1417  0.7088 -1.6284
12150TIP3   OH236390   8.364   4.667   6.694 -0.1180 -0.1013  0.1767
12150TIP3    H136391   8.453   4.675   6.660  0.0918  0.9274  0.9552
12150TIP3    H236392   8.341   4.575   6.679  2.6911 -1.5677  3.9187
12151TIP3   OH236393   1.278   4.292   3.825 -0.3916 -0.3047  0.6068
12151TIP3    H136394   1.233   4.346   3.760 -1.2801  0.7062  2.0173
12151TIP3    H236395   1.281   4.347   3.903  0.1585 -1.7025  1.5876
12152TIP3   OH236396   1.472   4.670   4.366 -0.3985  0.3033 -0.0111
12152TIP3    H136397   1.500   4.737   4.304 -1.4930 -0.4766 -1.3758
12152TIP3    H236398   1.554   4.636   4.404  0.2674  0.9284 -0.8816
12153TIP3   OH236399   7.664   2.590   5.910 -0.4845  0.2085  0.0137
12153TIP3    H136400   7.683   2.675   5.950 -0.0216  0.8214 -1.5016
12153TIP3    H236401   7.727   2.582   5.838 -1.9466 -0.4695 -1.2133
12154TIP3   OH236402   8.080   2.501   5.128 -0.0349 -0.2085 -0.3329
12154TIP3    H136403   8.002   2.455   5.097 -1.2276  1.1508  0.5564
12154TIP3    H236404   8.075   2.497   5.223  0.5361  0.6116 -0.2574
12155TIP3   OH236405   5.991   3.426   5.080 -0.5999 -0.2022 -0.1612
12155TIP3    H136406   6.047   3.349   5.088 -0.5772 -0.1163  0.5193
12155TIP3    H236407   6.026   3.474   5.005  2.7904  1.9740  2.6785
12156TIP3   OH236408   5.380   0.593   1.444  0.1503  0.2020  0.3813
12156TIP3    H136409   5.394   0.687   1.438 -4.4374  0.8673 -2.4263
12156TIP3    H236410   5.415   0.558   1.362 -0.6445 -0.1460  0.1861
12157TIP3   OH236411   2.210   7.763   6.211  0.4466  1.1008  0.0245
12157TIP3    H136412   2.208   7.683   6.158  0.4692  0.8808  0.3542
12157TIP3    H236413   2.256   7.827   6.156 -0.7156  1.2713 -0.7699
12158TIP3   OH236414   0.744   4.755   5.210  0.3903 -0.1660 -0.2722
12158TIP3    H136415   0.661   4.802   5.219 -0.4502 -1.5035 -0.8965
12158TIP3    H236416   0.739   4.684   5.273  0.8271 -0.5816 -0.6963
12159TIP3   OH236417   8.195   6.549   4.818 -0.0109  0.4406 -1.1786
12159TIP3    H136418   8.195   6.497   4.737 -0.7703 -0.8816 -0.3493
12159TIP3    H236419   8.258   6.619   4.801  2.3838 -1.7568 -1.7130
12160TIP3   OH236420   6.979   4.477   6.874  0.3499 -0.1052 -0.5366
12160TIP3    H136421   6.900   4.423   6.881  0.6930 -0.5329  0.0428
12160TIP3    H236422   7.036   4.447   6.945  0.9318  0.3789 -0.7882
12161TIP3   OH236423   7.886   5.011   5.705 -0.0216 -0.6486 -0.4528
12161TIP3    H136424   7.797   5.029   5.676  0.1177 -0.1449 -0.5877
12161TIP3    H236425   7.896   4.917   5.697 -0.7314 -0.7693  0.1097
12162TIP3   OH236426   6.695   6.006   2.248  0.6455 -0.1064 -0.1722
12162TIP3    H136427   6.643   6.060   2.188 -1.0797  1.3285  2.5059
12162TIP3    H236428   6.754   6.068   2.291  0.8166 -0.8527  0.6845
12163TIP3   OH236429   4.569   2.201   0.379 -0.8062 -0.0512  0.3272
12163TIP3    H136430   4.645   2.142   0.375  0.0247  1.0788 -1.0691
12163TIP3    H236431   4.545   2.203   0.471  0.0783 -1.4090  0.6010
12164TIP3   OH236432   7.908   6.247   6.578  0.3793  0.5060  0.2899
12164TIP3    H136433   7.819   6.215   6.587  0.0623  1.2770 -0.0592
12164TIP3    H236434   7.915   6.274   6.486  1.3667 -0.7168 -0.0001
12165TIP3   OH236435   0.116   3.776   6.812 -0.5379  0.0814  0.2100
12165TIP3    H136436   0.028   3.801   6.841 -0.8144  0.5663 -0.9795
12165TIP3    H236437   0.170   3.780   6.891 -1.5273  0.0704  0.8971
12166TIP3   OH236438   8.214   4.148   6.310  0.3427 -0.0900  0.1906
12166TIP3    H136439   8.126   4.173   6.339 -0.2388  0.6983 -2.1313
12166TIP3    H236440   8.199   4.077   6.248  1.0311  2.2600 -2.7757
12167TIP3   OH236441   6.716   5.717   3.953 -0.3235 -0.0421 -0.1882
12167TIP3    H136442   6.752   5.765   4.028 -2.3405 -1.3796  1.6904
12167TIP3    H236443   6.655   5.778   3.913  0.4263  0.5220 -0.4803
12168TIP3   OH236444   6.364   5.914   6.856  0.2585  0.5517 -0.2717
12168TIP3    H136445   6.336   5.853   6.789  0.0763  0.0456  0.2615
12168TIP3    H236446   6.455   5.934   6.833  0.5430 -0.4503 -0.0701
12169TIP3   OH236447   6.735   6.874   4.870 -0.5251 -0.0435 -0.3957
12169TIP3    H136448   6.772   6.814   4.935  2.2018  0.7942 -1.1468
12169TIP3    H236449   6.746   6.829   4.787  0.5572  1.0474 -0.8446
12170TIP3   OH236450   7.849   3.527   5.221 -0.2632 -0.1463 -0.1813
12170TIP3    H136451   7.889   3.458   5.275  0.7649  0.2005 -0.4816
12170TIP3    H236452   7.798   3.579   5.282  0.4749 -0.0643  0.3714
12171TIP3   OH236453   6.320   4.340   6.449  0.1538 -0.3915  0.8520
12171TIP3    H136454   6.416   4.343   6.447  0.1183  0.6822  0.7129
12171TIP3    H236455   6.296   4.388   6.529 -0.3189  0.6901  0.0672
12172TIP3   OH236456   0.547   4.070   6.166  0.0192 -0.3605  0.3293
12172TIP3    H136457   0.501   4.150   6.192  0.3895 -0.1701  0.4046
12172TIP3    H236458   0.638   4.084   6.195  0.1841 -0.6207 -0.0574
12173TIP3   OH236459   0.978   2.283   5.614  0.1716  0.3026  0.1213
12173TIP3    H136460   0.945   2.370   5.589  0.7489  0.2211 -0.9401
12173TIP3    H236461   1.064   2.277   5.571 -0.0760 -0.9872 -0.1932
12174TIP3   OH236462   5.980   3.975   2.248  0.1451 -0.2804  0.0222
12174TIP3    H136463   6.074   3.956   2.253  0.4045  1.1645  0.8874
12174TIP3    H236464   5.957   4.005   2.336 -1.5690 -2.5040  0.3566
12175TIP3   OH236465   0.072   1.061   4.196 -0.2298 -0.2115 -0.4202
12175TIP3    H136466  -0.013   1.021   4.216  0.4462 -1.4236  0.1014
12175TIP3    H236467   0.088   1.121   4.270  1.1024 -2.8156  1.4763
12176TIP3   OH236468   7.466   6.607   3.935 -0.4983  0.4605 -0.2679
12176TIP3    H136469   7.379   6.613   3.896 -0.7955  0.8773  0.4413
12176TIP3    H236470   7.450   6.590   4.028  0.1860 -0.0697 -0.2446
12177TIP3   OH236471   7.547   5.676   4.281 -0.3711 -0.1137 -0.5883
12177TIP3    H136472   7.537   5.583   4.261 -0.5649 -0.1704 -0.2478
12177TIP3    H236473   7.575   5.678   4.373  0.3906  0.1376 -0.8220
12178TIP3   OH236474   8.159   5.803   6.539 -0.0864  0.0759 -0.4570
12178TIP3    H136475   8.101   5.858   6.592 -0.1232  0.0570 -0.4777
12178TIP3    H236476   8.237   5.857   6.524 -1.4989  1.4513 -3.3168
12179TIP3   OH236477   5.190   6.459   4.435 -0.7091  0.3414 -0.4104
12179TIP3    H136478   5.096   6.470   4.421 -0.5352 -0.2765 -2.1966
12179TIP3    H236479   5.216   6.392   4.372  1.1666  1.4342 -0.8298
12180TIP3   OH236480   6.958   4.151   5.050 -0.5012 -0.1439 -0.3362
12180TIP3    H136481   6.868   4.126   5.031 -1.0215  0.4525  1.2936
12180TIP3    H236482   6.950   4.230   5.104  1.0143  0.5683 -1.1083
12181TIP3   OH236483   4.624   2.064   2.943 -0.0891  0.0616  0.0574
12181TIP3    H136484   4.579   1.992   2.898 -0.5443 -0.8235  1.8622
12181TIP3    H236485   4.645   2.028   3.030  3.6011  0.6623 -0.5101
12182TIP3   OH236486   7.584   5.684   2.822 -0.1753 -0.2292 -0.2562
12182TIP3    H136487   7.628   5.655   2.742  1.5593 -1.4564  1.1058
12182TIP3    H236488   7.642   5.751   2.858  0.4048 -1.5557  1.3380
12183TIP3   OH236489   7.562   6.316   5.952  0.4474  0.1015  0.2208
12183TIP3    H136490   7.517   6.321   5.868  2.6385  1.8300 -0.8897
12183TIP3    H236491   7.600   6.228   5.953  4.1345  1.5311 -2.6533
12184TIP3   OH236492   8.448   6.204   4.055  0.0534 -0.2959 -0.5023
12184TIP3    H136493   8.463   6.133   3.993 -0.0574 -2.6940  2.0962
12184TIP3    H236494   8.496   6.178   4.134 -2.9476  0.6754  1.7637
12185TIP3   OH236495   1.466   7.474   5.426  0.0103 -0.1065 -0.1435
12185TIP3    H136496   1.531   7.542   5.443 -0.6798  0.5124  0.0505
12185TIP3    H236497   1.472   7.458   5.332  0.3914 -0.0045 -0.1401
12186TIP3   OH236498   5.981   4.861   0.060  0.2861  0.4155  0.3587
12186TIP3    H136499   5.984   4.838  -0.032 -0.3730 -0.3107  0.5138
12186TIP3    H236500   5.962   4.955   0.061 -0.7160  0.2162 -0.2281
12187TIP3   OH236501   6.668   3.195   0.956  0.4132 -0.0054  0.2633
12187TIP3    H136502   6.629   3.133   1.017  0.8413  0.7309  1.3198
12187TIP3    H236503   6.630   3.280   0.981  2.2404  0.6400  0.9765
12188TIP3   OH236504   0.947   7.075   6.742  0.6537 -0.4372 -0.0276
12188TIP3    H136505   0.891   7.115   6.675  0.4760  0.0961  0.4346
12188TIP3    H236506   0.911   7.106   6.825  1.8583  0.2068  0.2660
12189TIP3   OH236507   5.050   1.714   0.569  0.2028  0.2791  0.3198
12189TIP3    H136508   5.092   1.785   0.522 -0.6524 -0.3267 -1.4064
12189TIP3    H236509   5.119   1.650   0.583  0.2460  0.0162 -1.0369
12190TIP3   OH236510   3.608   4.927   3.728 -0.0782 -0.7335 -0.8386
12190TIP3    H136511   3.534   4.898   3.781  1.0018 -0.5117  0.8071
12190TIP3    H236512   3.586   5.017   3.704 -1.2773 -1.3449 -2.0709
12191TIP3   OH236513   6.358   2.659   0.665 -0.4138  0.0776  0.0608
12191TIP3    H136514   6.379   2.639   0.574  0.1080  1.1196 -0.0592
12191TIP3    H236515   6.272   2.701   0.661  0.5865  2.1451 -0.2028
12192TIP3   OH236516   6.437   0.487   0.718 -0.3781  0.4137  0.6678
12192TIP3    H136517   6.510   0.466   0.660 -1.9575 -1.2860 -0.7633
12192TIP3    H236518   6.412   0.577   0.695 -0.4561  0.0410 -0.7190
12193TIP3   OH236519   6.777   1.241   0.558 -0.5092 -0.7435  0.1965
12193TIP3    H136520   6.735   1.263   0.475 -0.7474  0.6647  0.6724
12193TIP3    H236521   6.870   1.236   0.538 -0.5597 -0.3466 -0.1482
12194TIP3   OH236522   4.006   2.704   0.753  0.0116  0.6092 -0.3933
12194TIP3    H136523   4.067   2.778   0.747 -3.4739  3.5762 -1.1668
12194TIP3    H236524   4.018   2.671   0.842  3.1055  0.7314 -0.7084
12195TIP3   OH236525   6.851   1.603   0.113  0.2277 -0.1786 -0.1266
12195TIP3    H136526   6.797   1.682   0.111  0.9013  0.2675 -1.4072
12195TIP3    H236527   6.849   1.571   0.023  1.6929 -0.4376 -0.0762
12196TIP3   OH236528   3.070   1.798   4.021 -0.4951  0.0194  0.2703
12196TIP3    H136529   3.155   1.757   4.002 -0.2986  0.6924 -0.3227
12196TIP3    H236530   3.008   1.753   3.963 -0.6814 -1.0029  1.2582
12197TIP3   OH236531   6.573   3.070   0.026  0.4293 -0.1746 -0.1972
12197TIP3    H136532   6.489   3.026   0.020 -0.1125  1.0372 -1.9844
12197TIP3    H236533   6.626   3.014   0.083 -0.7660 -2.2233 -1.0578
12198TIP3   OH236534   6.717   1.441   1.406 -0.0536 -0.4489  0.0270
12198TIP3    H136535   6.685   1.441   1.496  0.2585  1.2977  0.1549
12198TIP3    H236536   6.808   1.468   1.413  0.3445 -1.5567 -0.7083
12199TIP3   OH236537   7.723   4.019   0.275 -0.9100 -0.5795  0.1595
12199TIP3    H136538   7.650   4.073   0.245 -1.3250 -1.4611 -0.4327
12199TIP3    H236539   7.784   4.081   0.314 -2.4900  0.0436  1.7148
12200TIP3   OH236540   1.181   5.943   5.586 -0.6023  0.1372  0.0937
12200TIP3    H136541   1.177   5.993   5.505 -0.0642  2.2394  1.3489
12200TIP3    H236542   1.095   5.954   5.625 -0.1712  0.8699  0.8361
12201TIP3   OH236543   7.918   1.465   1.533  0.2121 -0.0736  0.3112
12201TIP3    H136544   7.872   1.528   1.588 -1.4098 -0.4080 -0.6320
12201TIP3    H236545   7.998   1.512   1.506 -1.1512  1.7544 -0.6821
12202TIP3   OH236546   1.089   3.989   4.928 -0.0630 -0.0649 -0.0039
12202TIP3    H136547   1.164   4.017   4.982 -0.2546 -2.7265  1.7057
12202TIP3    H236548   1.119   3.910   4.884 -0.4836  1.1731 -2.6370
12203TIP3   OH236549   5.515   1.839   0.266  0.5752  0.1813 -0.1772
12203TIP3    H136550   5.446   1.782   0.300 -0.2915  1.3891  0.1581
12203TIP3    H236551   5.502   1.839   0.171  1.0975 -0.8146 -0.2540
12204TIP3   OH236552   7.781   2.778   0.055  0.1484 -0.1732 -0.6328
12204TIP3    H136553   7.815   2.785   0.144 -1.8114  0.8967  0.0662
12204TIP3    H236554   7.804   2.861   0.014 -0.9201  0.2460 -0.3974
12205TIP3   OH236555   1.260   5.106   5.109  0.3893 -0.2188 -0.1333
12205TIP3    H136556   1.214   5.190   5.119  0.6128  0.2751 -2.8407
12205TIP3    H236557   1.323   5.105   5.181  0.1429  1.7967  0.1494
12206TIP3   OH236558   4.575   0.411   6.373  0.9036 -0.2749  0.5343
12206TIP3    H136559   4.583   0.368   6.458  1.3684 -0.6377  0.3123
12206TIP3    H236560   4.548   0.341   6.313 -1.4356  0.4037  0.7642
12207TIP3   OH236561   0.028   4.273   5.285  0.0677 -0.5472  0.3588
12207TIP3    H136562  -0.058   4.247   5.255 -0.6830  0.5854  1.4545
12207TIP3    H236563   0.031   4.368   5.271  1.0700 -0.5543  0.4605
12208TIP3   OH236564   3.863   2.255   0.367 -0.4314  0.1344  0.0140
12208TIP3    H136565   3.875   2.347   0.343 -2.6337  0.4802  0.1596
12208TIP3    H236566   3.883   2.251   0.460 -1.4249  0.7046  0.2625
12209TIP3   OH236567   0.014   5.877   4.933  0.2923 -0.3517  0.2273
12209TIP3    H136568  -0.011   5.922   4.853  2.4464  0.4838 -0.0144
12209TIP3    H236569   0.100   5.913   4.955  0.3885 -1.6410  2.0967
12210TIP3   OH236570   2.008   6.178   5.074 -0.1631  0.2599 -0.6543
12210TIP3    H136571   2.060   6.244   5.029  0.7975 -1.0392 -1.4701
12210TIP3    H236572   1.920   6.189   5.039 -0.4459  2.3179  0.5688
12211TIP3   OH236573   7.398   5.729   0.858  0.4856  0.1151 -0.2165
12211TIP3    H136574   7.465   5.793   0.836  0.4197  0.9190  1.8796
12211TIP3    H236575   7.316   5.769   0.829  0.7878 -0.4558 -1.9019
12212TIP3   OH236576   6.607   5.208   1.331  0.1845 -0.1328 -0.7251
12212TIP3    H136577   6.632   5.300   1.339 -2.3494  0.5167  0.0781
12212TIP3    H236578   6.647   5.166   1.406  0.5555  0.4917 -0.5651
12213TIP3   OH236579   5.757   2.097   0.280  0.4117 -0.7233  0.0054
12213TIP3    H136580   5.842   2.056   0.299  0.9416 -0.4556 -1.6913
12213TIP3    H236581   5.727   2.129   0.365  1.6245 -1.5537  0.7700
12214TIP3   OH236582   0.725   6.681   6.662 -0.4586  0.6615 -0.3022
12214TIP3    H136583   0.654   6.678   6.598 -1.9192 -0.8539  1.3218
12214TIP3    H236584   0.776   6.602   6.646 -1.4129 -0.2375  1.0287
12215TIP3   OH236585   0.566   5.539   5.055 -0.0564  0.0635 -0.2496
12215TIP3    H136586   0.506   5.605   5.090 -0.8471 -2.1058  2.5640
12215TIP3    H236587   0.618   5.511   5.130 -0.3898 -3.2002 -1.1866
12216TIP3   OH236588   7.545   2.144   0.309 -0.2723 -0.2815 -0.1154
12216TIP3    H136589   7.465   2.133   0.258 -0.4309 -1.7249  0.4199
12216TIP3    H236590   7.610   2.175   0.246 -0.4154 -2.2122 -1.2496
12217TIP3   OH236591   7.044   1.243   0.480 -0.0284  0.4052  0.1483
12217TIP3    H136592   7.116   1.246   0.543 -1.1802 -0.8185  1.5745
12217TIP3    H236593   7.082   1.207   0.401  1.5623  2.4042 -0.0431
12218TIP3   OH236594   7.997   1.817   0.749  0.3614  0.1924 -0.0597
12218TIP3    H136595   7.956   1.800   0.833 -0.0442  1.2777 -0.0337
12218TIP3    H236596   8.030   1.732   0.721  1.0216 -0.0714  1.4684
12219TIP3   OH236597   0.794   6.570   5.605  0.1200 -0.0919  0.2254
12219TIP3    H136598   0.732   6.498   5.612 -2.1080  1.8990  2.0137
12219TIP3    H236599   0.801   6.586   5.511 -3.3692  0.6365 -0.0054
12220TIP3   OH236600   7.279   2.548   0.373  0.4745 -0.5237  0.6295
12220TIP3    H136601   7.224   2.470   0.365  0.0514 -0.2552  0.9618
12220TIP3    H236602   7.331   2.533   0.452 -0.3370 -0.0062  1.2633
12221TIP3   OH236603   5.040   1.926   0.151  0.1112 -0.2883  0.8784
12221TIP3    H136604   4.960   1.976   0.162  0.3949  0.2599  0.4753
12221TIP3    H236605   5.027   1.875   0.071  1.1975  1.8321 -0.7068
12222TIP3   OH236606   6.493   4.520   0.078  0.3728 -0.1051 -0.3919
12222TIP3    H136607   6.478   4.606   0.117  1.5249  0.3502 -0.9196
12222TIP3    H236608   6.584   4.499   0.101  0.3212 -0.8637 -0.8587
12223TIP3   OH236609   5.774   3.015   1.579 -0.5491  0.1136 -0.5052
12223TIP3    H136610   5.702   3.017   1.516 -0.0388  0.9548 -1.0717
12223TIP3    H236611   5.850   2.985   1.528  0.2236  2.2698 -0.6912
12224TIP3   OH236612   1.488   6.985   5.514  0.1693  0.4109 -0.0042
12224TIP3    H136613   1.507   7.066   5.466  1.0194 -0.8635 -1.8826
12224TIP3    H236614   1.548   6.920   5.476 -2.4152 -1.7715 -0.4958
12225TIP3   OH236615   6.951   4.693   1.267 -0.5870  0.7002  0.0010
12225TIP3    H136616   6.975   4.739   1.347  0.9461  2.0430 -1.1859
12225TIP3    H236617   7.030   4.647   1.241 -1.1746 -0.0052 -0.5633
12226TIP3   OH236618   6.710   2.999   0.725  0.4933 -0.5675 -0.3291
12226TIP3    H136619   6.681   3.005   0.634 -0.1069 -1.0296 -0.1674
12226TIP3    H236620   6.672   2.917   0.758 -2.2863  1.3283  1.4035
12227TIP3   OH236621   0.909   5.128   5.825  0.1447  0.4358 -0.2388
12227TIP3    H136622   0.843   5.066   5.856  1.0234 -0.1931  0.4029
12227TIP3    H236623   0.927   5.183   5.902  1.1832 -0.1200 -0.0735
12228TIP3   OH236624   5.969   3.434   1.076  0.1664 -0.1624  0.0028
12228TIP3    H136625   6.014   3.500   1.022 -2.5738  1.4903 -0.3681
12228TIP3    H236626   5.926   3.376   1.013 -3.0856  1.8024  0.2748
12229TIP3   OH236627   6.440   1.050   1.672  0.8568 -0.8070 -0.2061
12229TIP3    H136628   6.456   1.141   1.649 -0.3128 -0.7007 -0.6171
12229TIP3    H236629   6.453   1.046   1.766  0.6547 -0.1533 -0.1506
12230TIP3   OH236630   1.966   7.919   6.773 -0.0239 -0.0672 -0.6940
12230TIP3    H136631   1.970   7.957   6.861  1.3814 -0.3429 -0.6305
12230TIP3    H236632   1.877   7.884   6.766 -1.2012  2.7466 -0.5475
12231TIP3   OH236633   7.374   1.456   0.133 -0.3135 -0.0436  0.0071
12231TIP3    H136634   7.407   1.532   0.085 -1.8577 -0.2156 -1.3725
12231TIP3    H236635   7.321   1.493   0.203 -1.0774  0.1810 -0.6734
12232TIP3   OH236636   2.125   6.978   6.047  0.1104 -0.4433  0.4515
12232TIP3    H136637   2.050   6.952   5.993 -1.0626  1.0512  1.3267
12232TIP3    H236638   2.189   7.011   5.984 -1.4014  1.6742 -0.0208
12233TIP3   OH236639   0.728   5.917   4.857  0.2481  0.2431 -0.3052
12233TIP3    H136640   0.680   5.910   4.775 -0.2649  1.1580 -0.0783
12233TIP3    H236641   0.809   5.963   4.834 -0.0940  0.8862 -0.2053
12234TIP3   OH236642   1.730   6.499   6.493  0.5435  0.2888 -0.1120
12234TIP3    H136643   1.773   6.415   6.510 -0.2408 -0.3989 -1.5031
12234TIP3    H236644   1.656   6.501   6.554 -0.3418 -0.7202 -1.1410
12235TIP3   OH236645   4.637   0.317   6.630  0.3512  0.5653 -0.3180
12235TIP3    H136646   4.544   0.310   6.650  0.2667 -1.2672 -1.2071
12235TIP3    H236647   4.676   0.241   6.674  0.8789 -0.7285 -2.9092
12236TIP3   OH236648   1.963   6.583   5.800  0.6360  0.1429 -0.6800
12236TIP3    H136649   1.989   6.609   5.712 -0.2658  1.1996 -0.6563
12236TIP3    H236650   1.911   6.504   5.788  1.4209 -0.3234 -0.9941
12237TIP3   OH236651   7.577   2.360   0.469  0.4694  0.0550 -0.1946
12237TIP3    H136652   7.580   2.286   0.409 -0.2958  1.2666 -1.7512
12237TIP3    H236653   7.616   2.433   0.420  0.3866  0.9069  0.9850
12238TIP3   OH236654   2.950   0.627   6.799 -0.3890 -0.1894  0.1755
12238TIP3    H136655   3.009   0.575   6.854  0.6501  0.2040 -0.5572
12238TIP3    H236656   2.864   0.589   6.815  0.0877 -0.9335  1.0716
12239TIP3   OH236657   6.605   4.253   0.256 -0.0225 -0.5446 -0.1389
12239TIP3    H136658   6.660   4.319   0.215  0.1355 -1.0434 -0.7295
12239TIP3    H236659   6.568   4.297   0.333  0.3895  0.1037 -0.3112
12240TIP3   OH236660   4.368   1.187   6.709  0.4083 -0.2685 -0.0828
12240TIP3    H136661   4.463   1.179   6.700  0.5681  0.4395  0.8526
12240TIP3    H236662   4.339   1.224   6.625  0.8991 -0.8667 -0.5229
12241TIP3   OH236663   0.685   7.957   7.002 -0.1000  0.9800 -0.8724
12241TIP3    H136664   0.729   8.022   6.947 -2.0562  0.8276 -2.6541
12241TIP3    H236665   0.693   7.992   7.091  0.8719  2.5050 -1.5326
12242TIP3   OH236666   4.821   0.816   1.094  0.2389  0.6910 -0.9478
12242TIP3    H136667   4.862   0.789   1.176  2.6615  1.1733 -1.9770
12242TIP3    H236668   4.813   0.911   1.101 -1.1474  0.5679 -0.5873
12243TIP3   OH236669   7.044   2.018   1.271  0.1204 -0.4390  0.1971
12243TIP3    H136670   7.063   2.094   1.325 -0.6590 -1.3706  1.8396
12243TIP3    H236671   7.123   2.005   1.219  0.3691  1.2942  0.1225
12244TIP3   OH236672   6.634   3.792   0.991  0.1411  0.2485  0.1541
12244TIP3    H136673   6.654   3.883   0.971 -0.8891  0.0884 -1.7538
12244TIP3    H236674   6.689   3.770   1.066  1.1574  2.1228 -0.0405
12245TIP3   OH236675   7.163   4.143   5.603  0.1076  0.3804 -0.6441
12245TIP3    H136676   7.120   4.210   5.655 -0.1883  0.9307 -1.5908
12245TIP3    H236677   7.133   4.158   5.514 -1.0453 -1.8619 -0.6811
12246TIP3   OH236678   8.516   1.963   0.375 -0.7833  0.4571 -0.1358
12246TIP3    H136679   8.424   1.966   0.400 -0.8091  0.1457 -0.1953
12246TIP3    H236680   8.523   1.888   0.316 -0.5672  0.7080 -0.4340
12247TIP3   OH236681   6.333   3.362   1.353  1.0883 -0.3877 -0.0040
12247TIP3    H136682   6.254   3.321   1.318  0.8700 -0.4582  0.5598
12247TIP3    H236683   6.404   3.302   1.329  0.9786 -0.2937 -0.5653
12248TIP3   OH236684   4.800   0.807   6.625  0.5879  0.0331  0.4901
12248TIP3    H136685   4.865   0.742   6.600  0.4356 -1.1496  2.9915
12248TIP3    H236686   4.721   0.756   6.643 -1.0353  1.4367 -2.4040
12249TIP3   OH236687   8.298   6.786   6.763  0.2179 -0.0577  0.1891
12249TIP3    H136688   8.343   6.706   6.791  1.3913  0.1877 -0.9499
12249TIP3    H236689   8.263   6.766   6.676  0.4426  0.6378 -0.0656
12250TIP3   OH236690   7.841   6.239   1.702  0.0646  0.1171  0.3202
12250TIP3    H136691   7.763   6.222   1.649 -0.6164 -0.5711  1.5299
12250TIP3    H236692   7.853   6.160   1.754  0.0234  1.2218  2.0637
12251TIP3   OH236693   1.027   1.962   1.859 -0.1560  0.5271  0.1548
12251TIP3    H136694   0.948   2.005   1.891  0.3244  2.2356 -0.8632
12251TIP3    H236695   1.018   1.964   1.763  1.0631  0.6515  0.0358
12252TIP3   OH236696   5.987   1.944   0.198 -0.0375 -0.4104 -0.6001
12252TIP3    H136697   5.914   1.886   0.218 -0.4428 -0.1934 -1.4678
12252TIP3    H236698   5.948   2.019   0.153  0.4808  0.5488  0.5039
12253TIP3   OH236699   6.906   2.474   0.233 -0.5885  0.3598  0.4961
12253TIP3    H136700   6.959   2.406   0.273 -0.1996  0.9608  1.0073
12253TIP3    H236701   6.819   2.434   0.224 -0.5537  0.0389  1.4697
12254TIP3   OH236702   7.397   3.042   1.124 -0.3335  0.0328  0.0762
12254TIP3    H136703   7.309   3.036   1.160 -0.2045  1.6332  0.6964
12254TIP3    H236704   7.389   3.009   1.034 -1.9559  1.9149 -0.4970
12255TIP3   OH236705   6.956   2.669   0.975 -0.0308 -0.1888 -0.4032
12255TIP3    H136706   7.045   2.636   0.974 -0.4649 -1.6494  2.7904
12255TIP3    H236707   6.966   2.765   0.969  1.5946 -0.4257 -1.9738
12256TIP3   OH236708   6.611   2.418   1.784  0.2725 -0.4125  0.1729
12256TIP3    H136709   6.704   2.437   1.778  0.4685 -1.2675  0.5188
12256TIP3    H236710   6.606   2.323   1.795 -0.6617 -0.4406 -0.4178
12257TIP3   OH236711   6.983   2.736   1.340  0.7017  0.0327 -0.1958
12257TIP3    H136712   6.920   2.680   1.385 -0.1408 -0.0086 -1.3944
12257TIP3    H236713   7.021   2.680   1.273  0.1837  0.7470 -1.1056
12258TIP3   OH236714   6.638   4.262   0.706 -0.5219 -0.0684 -0.9837
12258TIP3    H136715   6.660   4.173   0.677 -1.1801 -1.0536  1.4148
12258TIP3    H236716   6.602   4.304   0.628 -1.4181 -2.3222 -1.8230
12259TIP3   OH236717   4.828   0.982   6.265  0.8097  0.5142  0.2687
12259TIP3    H136718   4.829   1.066   6.218 -2.0796  0.6325  0.3126
12259TIP3    H236719   4.899   0.931   6.225  1.4308  2.3161 -1.0054
12260TIP3   OH236720   6.468  -0.025   5.619 -0.6107 -0.1621 -0.4509
12260TIP3    H136721   6.473  -0.021   5.523 -0.3634 -0.4624 -0.4491
12260TIP3    H236722   6.423   0.056   5.643  0.4803  0.5458 -0.7395
12261TIP3   OH236723   6.346   2.087   0.374  0.5259  0.1434  0.1721
12261TIP3    H136724   6.399   2.074   0.452  0.4506 -1.2691  0.0020
12261TIP3    H236725   6.261   2.049   0.396  0.9174 -1.5117 -1.0580
12262TIP3   OH236726   4.072   4.524   5.479  0.4140 -0.1596 -0.0804
12262TIP3    H136727   4.070   4.529   5.575  0.5310  4.2288 -0.1865
12262TIP3    H236728   3.979   4.526   5.454  0.4244  2.2366 -0.0748
12263TIP3   OH236729   5.291   1.646   2.481  0.1948  0.6631  0.4434
12263TIP3    H136730   5.301   1.732   2.439  0.8431  0.1661 -0.4307
12263TIP3    H236731   5.239   1.595   2.418 -0.2670  0.4349  1.0035
12264TIP3   OH236732   8.463   0.604   0.039 -0.0330 -0.3847  0.7286
12264TIP3    H136733   8.553   0.610   0.072 -0.1455  0.6174  0.8861
12264TIP3    H236734   8.472   0.560  -0.046  0.7790  0.8186  0.1613
12265TIP3   OH236735   2.035   7.029   4.609 -0.1360  0.0444 -0.1014
12265TIP3    H136736   2.023   6.941   4.575 -1.0229 -0.0588  0.4606
12265TIP3    H236737   2.110   7.022   4.668 -0.2484 -0.3547 -0.0035
12266TIP3   OH236738   0.153   1.539   1.746 -0.4127  0.5835  0.7033
12266TIP3    H136739   0.133   1.479   1.818  0.5419  0.1388  0.6110
12266TIP3    H236740   0.193   1.615   1.788  1.4578 -0.2864  0.5253
12267TIP3   OH236741   5.055   1.051   6.097 -0.2658  0.1005  0.3010
12267TIP3    H136742   4.988   1.054   6.028  0.1156  0.5170 -0.0608
12267TIP3    H236743   5.106   0.972   6.078  1.9772  1.9869 -1.9651
12268TIP3   OH236744   1.579   5.516   5.757 -0.1454 -0.8238 -0.1974
12268TIP3    H136745   1.493   5.515   5.798 -0.1473 -1.7014 -0.1967
12268TIP3    H236746   1.566   5.554   5.671 -0.0746  1.4195  0.7613
12269TIP3   OH236747   2.548   6.170   5.907  0.0846 -0.0676  0.0137
12269TIP3    H136748   2.535   6.206   5.819 -0.0467 -1.5180 -0.5743
12269TIP3    H236749   2.625   6.114   5.898 -0.3087 -0.7099  0.6750
12270TIP3   OH236750   6.154   3.175   0.713  0.4839 -0.2232  0.1212
12270TIP3    H136751   6.231   3.170   0.657  0.9278  0.9627  0.6207
12270TIP3    H236752   6.185   3.214   0.794 -0.7101  0.6299  0.1853
12271TIP3   OH236753   6.165   0.302   6.584 -0.1772 -0.1813 -0.1729
12271TIP3    H136754   6.178   0.270   6.673 -0.8253  0.8899  0.3106
12271TIP3    H236755   6.253   0.321   6.552  0.2064 -2.1237 -0.3657
12272TIP3   OH236756   1.019   4.631   6.804  0.4626 -0.0071 -0.0982
12272TIP3    H136757   1.054   4.544   6.789 -1.1683 -0.7978  0.5538
12272TIP3    H236758   1.011   4.670   6.717 -0.6378 -1.2540 -0.5717
12273TIP3   OH236759   6.849   1.146   1.076  0.1467 -0.2222  0.1505
12273TIP3    H136760   6.762   1.163   1.111 -0.0330 -0.8709  0.0179
12273TIP3    H236761   6.842   1.171   0.984 -0.2502 -1.4332 -0.1570
12274TIP3   OH236762   0.488   5.425   5.496  0.1510  0.0449 -0.5690
12274TIP3    H136763   0.583   5.436   5.501  0.3219 -1.5416  0.2717
12274TIP3    H236764   0.462   5.407   5.587 -0.9540  0.5117 -0.7884
12275TIP3   OH236765   7.790   2.239   0.182 -0.1696  0.7744 -0.2323
12275TIP3    H136766   7.799   2.334   0.196 -0.3115  0.7596 -0.0313
12275TIP3    H236767   7.843   2.221   0.106 -1.4492  1.2836 -1.2704
12276TIP3   OH236768   7.453   4.743   0.386  0.4836  0.1503 -0.3222
12276TIP3    H136769   7.497   4.825   0.406 -0.0965  0.6300 -1.0015
12276TIP3    H236770   7.468   4.729   0.292  0.6443 -0.5522 -0.1940
12277TIP3   OH236771   2.741   7.749   6.913  0.1426 -0.0702 -0.3183
12277TIP3    H136772   2.734   7.743   6.817 -0.2429 -2.4850 -0.1890
12277TIP3    H236773   2.656   7.717   6.945  0.0432  1.2929  0.8425
12278TIP3   OH236774   4.124   7.587   0.578 -0.1390  0.0235  0.0501
12278TIP3    H136775   4.063   7.658   0.600  0.6867  1.2170 -1.3872
12278TIP3    H236776   4.206   7.612   0.621 -0.7218 -1.7580  2.2739
12279TIP3   OH236777   2.324   5.428   6.382 -0.3858  0.1000  0.0860
12279TIP3    H136778   2.234   5.460   6.378 -0.7415 -0.5336  2.0720
12279TIP3    H236779   2.337   5.404   6.474  0.9977 -2.1305 -0.6305
12280TIP3   OH236780   4.667   1.337   2.238 -0.1994 -0.0642  0.5992
12280TIP3    H136781   4.622   1.273   2.183 -0.1281 -0.2627  0.7713
12280TIP3    H236782   4.643   1.422   2.200  1.9946 -0.2810 -1.3953
12281TIP3   OH236783   5.927   1.123   2.017  0.2911  0.2706  0.3076
12281TIP3    H136784   5.902   1.168   2.097 -1.2195 -1.0012  0.5787
12281TIP3    H236785   5.989   1.056   2.046 -0.3206 -0.2460  0.4520
12282TIP3   OH236786   2.376   5.751   5.208 -0.2382 -0.3116 -0.2645
12282TIP3    H136787   2.280   5.745   5.211 -0.1322 -3.2512 -0.6929
12282TIP3    H236788   2.401   5.778   5.296 -1.5206  1.9519 -0.5623
12283TIP3   OH236789   7.556   3.239   1.221 -0.3569 -0.4103 -0.1124
12283TIP3    H136790   7.529   3.280   1.139  1.2680 -0.0640 -0.4912
12283TIP3    H236791   7.532   3.147   1.211  0.2345 -0.4621 -1.1747
12284TIP3   OH236792   1.466   5.547   4.285  0.0053 -0.3772 -0.0802
12284TIP3    H136793   1.411   5.611   4.241  0.8337  0.5667  0.2493
12284TIP3    H236794   1.456   5.467   4.233 -1.1682 -0.0407 -0.3849
12285TIP3   OH236795   5.710   3.108   0.713  0.0998  0.1910  0.3438
12285TIP3    H136796   5.679   3.032   0.665  1.6438  0.1923 -0.6781
12285TIP3    H236797   5.717   3.177   0.647  0.1939  0.7783  0.9646
12286TIP3   OH236798   5.148   0.130   6.243  0.1851  0.3430  0.6350
12286TIP3    H136799   5.154   0.169   6.330 -1.1395  0.1327  0.8340
12286TIP3    H236800   5.057   0.142   6.218  0.5903  0.5192 -0.7843
12287TIP3   OH236801   2.804   6.000   6.170 -0.5318  0.0981  0.2116
12287TIP3    H136802   2.867   5.990   6.098 -0.4517 -1.0878  0.4451
12287TIP3    H236803   2.817   6.090   6.200  0.8185 -0.0125  0.0145
12288TIP3   OH236804   8.246   6.009   0.125  0.5817  0.0298  0.2648
12288TIP3    H136805   8.181   6.080   0.128  2.2250  1.6180 -0.4432
12288TIP3    H236806   8.195   5.931   0.107 -1.2207  1.1213  0.4408
12289TIP3   OH236807   6.157   2.420   6.562  0.0530  0.0989  0.2660
12289TIP3    H136808   6.115   2.347   6.516 -1.2303  1.1114 -0.2113
12289TIP3    H236809   6.085   2.467   6.602  0.8427  1.2819  0.3193
12290TIP3   OH236810   3.888   2.424   0.917  0.2317 -0.0107 -0.0863
12290TIP3    H136811   3.928   2.345   0.951 -0.6439  0.2330  1.5279
12290TIP3    H236812   3.937   2.496   0.957 -1.9487  0.2961  2.1736
12291TIP3   OH236813   7.320   0.668   0.035 -0.2574 -0.2848  0.0447
12291TIP3    H136814   7.337   0.631   0.122 -0.4174 -0.8829 -0.1751
12291TIP3    H236815   7.281   0.754   0.052  1.1228  0.2597  0.5657
12292TIP3   OH236816   4.902   1.173   2.114  0.1087  0.6424  0.3172
12292TIP3    H136817   4.815   1.172   2.074  0.0451 -1.0524  0.4821
12292TIP3    H236818   4.961   1.150   2.044  0.0868 -1.4680  0.9772
12293TIP3   OH236819   6.667   1.794   0.045  0.4696  0.2184  0.0186
12293TIP3    H136820   6.615   1.872   0.064  0.8908  0.3228  0.7560
12293TIP3    H236821   6.659   1.782  -0.050 -1.9365 -0.5161  0.2746
12294TIP3   OH236822   1.693   4.164   5.595  0.4553 -0.1513 -0.4408
12294TIP3    H136823   1.759   4.110   5.551  0.7191  1.1874 -1.7504
12294TIP3    H236824   1.743   4.231   5.640 -0.0020  0.9732 -1.5787
12295TIP3   OH236825   7.505   4.646   6.393  0.3024 -0.8903  0.0532
12295TIP3    H136826   7.592   4.611   6.411 -0.1507 -1.9848  0.2024
12295TIP3    H236827   7.449   4.607   6.461 -0.1888  0.2778  0.3269
12296TIP3   OH236828   6.529   4.582   4.444 -0.3608  0.0831 -0.1571
12296TIP3    H136829   6.591   4.552   4.377 -0.1412 -1.3138  0.6454
12296TIP3    H236830   6.562   4.669   4.470  0.4238 -0.0236 -0.7808
12297TIP3   OH236831   0.014   5.873   4.108 -0.4543  0.1334 -0.4207
12297TIP3    H136832  -0.012   5.924   4.031 -0.6091  0.9287  0.1529
12297TIP3    H236833   0.047   5.938   4.170  0.4213 -0.5909 -0.1197
12298TIP3   OH236834   0.914   5.026   6.895  0.3999 -0.4025  0.2804
12298TIP3    H136835   0.918   5.121   6.887  0.7975 -0.5629 -1.6274
12298TIP3    H236836   0.863   4.997   6.819  1.1337 -1.7719  0.2886
12299TIP3   OH236837   2.045   5.610   6.906  0.3474 -0.8525 -0.1972
12299TIP3    H136838   2.080   5.664   6.977  1.2218  0.8763 -1.9063
12299TIP3    H236839   1.953   5.637   6.900  0.2005 -1.1876  0.4171
12300TIP3   OH236840   2.794   7.931   5.475  0.1616  0.4557  0.0874
12300TIP3    H136841   2.795   7.932   5.379  0.0789 -0.5305  0.0744
12300TIP3    H236842   2.837   7.849   5.498  1.2290  1.2258  0.9157
12301TIP3   OH236843   1.056   6.791   6.658 -0.5149 -0.0870  0.4431
12301TIP3    H136844   1.075   6.758   6.570  0.6983  1.2349  0.1916
12301TIP3    H236845   0.980   6.848   6.647 -1.9414 -1.9070  0.6965
12302TIP3   OH236846   1.850   6.761   5.266 -0.3428 -1.1349 -0.5549
12302TIP3    H136847   1.824   6.807   5.346 -2.4337 -2.1373 -0.6198
12302TIP3    H236848   1.858   6.669   5.292 -0.2117 -1.3404 -1.2961
12303TIP3   OH236849   3.022   7.116   3.810  0.5911  0.1335  0.3228
12303TIP3    H136850   3.088   7.182   3.789 -0.1834  0.7937 -0.0655
12303TIP3    H236851   2.961   7.161   3.870  0.7926 -0.6356  1.1222
12304TIP3   OH236852   6.289   3.233   0.963 -0.1409 -0.3604  0.6145
12304TIP3    H136853   6.351   3.204   0.895  0.7404  1.0183  0.8103
12304TIP3    H236854   6.322   3.193   1.044 -0.5223 -1.0464  0.4405
12305TIP3   OH236855   0.539   6.325   5.959  0.2219  0.2132  0.1918
12305TIP3    H136856   0.505   6.338   5.870  0.2599  0.5654  0.2280
12305TIP3    H236857   0.478   6.373   6.015  0.3600  0.2282  0.3292
12306TIP3   OH236858   1.432   6.469   6.346  0.0041 -0.2786  0.6856
12306TIP3    H136859   1.406   6.499   6.259 -0.8409 -0.6316  0.8231
12306TIP3    H236860   1.519   6.508   6.359  1.2842 -2.3659 -1.3924
12307TIP3   OH236861   2.706   2.193   1.096  0.4717 -0.8053  0.3015
12307TIP3    H136862   2.731   2.169   1.186  0.3691  1.2462  0.9046
12307TIP3    H236863   2.789   2.196   1.049  0.5234 -1.9273  0.3066
12308TIP3   OH236864   3.469   5.264   6.522  0.8722  0.3743  0.8327
12308TIP3    H136865   3.514   5.247   6.440  1.0728  1.7885  0.6269
12308TIP3    H236866   3.508   5.346   6.553 -1.2987  1.4161  0.8396
12309TIP3   OH236867   2.898   7.020   6.806 -0.3362 -0.4381 -0.7331
12309TIP3    H136868   2.932   6.972   6.882  1.0911  3.0472  0.9341
12309TIP3    H236869   2.944   6.981   6.731  0.4383 -1.9614  0.4847
12310TIP3   OH236870   7.673   1.343   0.392 -0.2535  0.0446  0.1560
12310TIP3    H136871   7.672   1.371   0.484 -0.2193 -0.5530  0.3420
12310TIP3    H236872   7.762   1.363   0.362  0.3197 -1.4797  0.7974
12311TIP3   OH236873   6.795   3.783   0.132 -0.8093 -0.2436  0.1168
12311TIP3    H136874   6.747   3.792   0.214 -0.6235  0.3029  0.1631
12311TIP3    H236875   6.784   3.867   0.088 -2.5334 -1.1761 -1.2985
12312TIP3   OH236876   8.413   6.551   6.815 -0.1258  0.1904  0.5377
12312TIP3    H136877   8.344   6.511   6.867 -1.4416  1.4795 -0.1606
12312TIP3    H236878   8.476   6.481   6.801 -0.2701 -0.4505  2.9443
12313TIP3   OH236879   7.849   1.757   0.066  0.4880  0.4668  0.1211
12313TIP3    H136880   7.891   1.813   0.000  1.0529 -0.3602 -0.2258
12313TIP3    H236881   7.913   1.751   0.136  0.6046 -0.0982 -0.0323
12314TIP3   OH236882   7.124   2.520   1.188 -0.1604 -0.1745 -0.5201
12314TIP3    H136883   7.117   2.433   1.148 -0.0165 -0.7403  0.6465
12314TIP3    H236884   7.156   2.502   1.277 -0.9069  1.0071 -0.0090
12315TIP3   OH236885   3.835   6.443   4.786  0.3962 -0.1151  0.3388
12315TIP3    H136886   3.894   6.518   4.772 -0.6678  0.8257  0.7756
12315TIP3    H236887   3.868   6.375   4.727  0.7781  1.0388 -0.8082
12316TIP3   OH236888   2.447   7.406   6.839 -0.9313  0.0478  0.0815
12316TIP3    H136889   2.417   7.496   6.854  0.0204  0.2753  0.6265
12316TIP3    H236890   2.522   7.415   6.780 -1.0807 -0.4193 -0.1818
12317TIP3   OH236891   0.853   6.424   6.660 -0.5226  0.2113  0.3106
12317TIP3    H136892   0.892   6.380   6.585  0.4432  1.3339  0.1387
12317TIP3    H236893   0.877   6.369   6.735 -0.3648 -0.2117 -0.0488
12318TIP3   OH236894   0.555   6.214   6.318 -0.0316  0.1053  0.1522
12318TIP3    H136895   0.486   6.166   6.364 -1.3573  0.2580 -1.6227
12318TIP3    H236896   0.559   6.173   6.231  1.9382  0.2709  0.1436
12319TIP3   OH236897   5.545   1.292   0.963 -0.0415 -0.2336  0.6274
12319TIP3    H136898   5.571   1.203   0.986 -2.9953 -1.3392 -0.0384
12319TIP3    H236899   5.571   1.302   0.872  0.8843 -0.1880  0.8989
12320TIP3   OH236900   0.739   6.981   6.557  0.0651  0.2942 -0.0025
12320TIP3    H136901   0.745   6.907   6.617 -1.4612  0.5087  0.4514
12320TIP3    H236902   0.790   6.955   6.481 -1.2966 -1.6711 -0.2825
12321TIP3   OH236903   2.219   1.537   1.409 -0.1402 -0.1124 -0.3241
12321TIP3    H136904   2.213   1.524   1.314 -0.1858 -0.8159 -0.2275
12321TIP3    H236905   2.227   1.449   1.445 -0.4173  0.1296  0.3492
12322TIP3   OH236906   1.307   5.957   4.579 -0.7774 -0.1509  0.5130
12322TIP3    H136907   1.311   5.869   4.616  2.0328 -0.1192  0.4080
12322TIP3    H236908   1.343   5.948   4.491  0.0466  1.2024  0.6985
12323TIP3   OH236909   0.476   6.063   6.100  0.0351 -0.1196 -0.1437
12323TIP3    H136910   0.390   6.097   6.078 -0.3619 -1.0511 -0.0792
12323TIP3    H236911   0.527   6.073   6.020  0.0995  1.1354  0.0456
12324TIP3   OH236912   2.208   5.904   4.916  0.4254 -0.4600  0.2336
12324TIP3    H136913   2.202   5.904   5.011  0.3909 -0.3688  0.2317
12324TIP3    H236914   2.118   5.919   4.886  0.8062  2.1920  0.2219
12325TIP3   OH236915   1.106   7.123   5.996  0.3414  0.5248 -0.0216
12325TIP3    H136916   1.068   7.082   6.073  1.3891 -1.2954 -0.4561
12325TIP3    H236917   1.164   7.191   6.030 -1.0936  1.4213  0.7049
12326TIP3   OH236918   1.053   6.797   3.313  0.5662  0.2299  0.0458
12326TIP3    H136919   1.049   6.703   3.300 -0.1768  0.5444 -2.4681
12326TIP3    H236920   0.962   6.824   3.323  0.8807  0.5140  2.2433
12327TIP3   OH236921   8.396   1.530   0.732  0.1025 -0.5474 -0.1683
12327TIP3    H136922   8.335   1.543   0.659 -0.4139 -0.0626  0.3382
12327TIP3    H236923   8.345   1.482   0.798 -0.1598  1.0027  0.7905
12328TIP3   OH236924   2.629   0.873   4.426 -0.1776  0.2788 -0.5220
12328TIP3    H136925   2.571   0.946   4.403 -0.6696  0.0375 -0.0473
12328TIP3    H236926   2.634   0.821   4.346  0.8768  1.3032 -1.1314
12329TIP3   OH236927   2.520   6.897   6.148 -0.7254 -0.4265 -0.4544
12329TIP3    H136928   2.603   6.913   6.102 -0.6134  0.4461  0.0437
12329TIP3    H236929   2.541   6.828   6.211 -0.2530  0.1274  0.0013
12330TIP3   OH236930   3.879   5.198   5.561 -0.4077  1.0008  0.2739
12330TIP3    H136931   3.878   5.117   5.612  1.3985  0.6428 -0.2527
12330TIP3    H236932   3.789   5.230   5.566 -0.9318 -0.5777  1.2163
12331TIP3   OH236933   2.873   6.811   6.438 -0.3335 -0.0550 -0.5937
12331TIP3    H136934   2.813   6.879   6.409 -0.8831 -0.1586  0.2767
12331TIP3    H236935   2.936   6.856   6.494 -0.2345 -0.1305 -0.6445
12332TIP3   OH236936   6.155   1.567   0.513  0.1586  0.3451 -0.3276
12332TIP3    H136937   6.191   1.559   0.601 -0.4917 -0.5532 -0.1292
12332TIP3    H236938   6.069   1.607   0.526  0.3205  0.7868 -0.6166
12333TIP3   OH236939   2.937   7.078   5.137  0.4809  0.5258  0.2198
12333TIP3    H136940   2.955   7.082   5.043  0.0373  0.4241  0.1284
12333TIP3    H236941   2.915   7.168   5.161 -3.5881 -0.1564 -0.6351
12334TIP3   OH236942   7.443   2.892   0.211  0.5332 -0.4938 -0.2573
12334TIP3    H136943   7.413   2.868   0.123  3.0325 -1.3463 -0.9042
12334TIP3    H236944   7.419   2.818   0.266  1.7172 -1.3158 -0.8339
12335TIP3   OH236945   8.384   4.359   0.989 -0.3518 -0.1688 -0.7507
12335TIP3    H136946   8.388   4.368   1.084 -1.5255  0.6942 -0.7634
12335TIP3    H236947   8.431   4.278   0.970  1.1635  0.4149  0.4246
12336TIP3   OH236948   3.298   6.984   5.007  0.1061  0.0089 -0.0324
12336TIP3    H136949   3.243   6.969   4.931  0.3899  0.2546 -0.2884
12336TIP3    H236950   3.342   6.901   5.022  1.6479  0.5296 -1.4246
12337TIP3   OH236951   8.269   2.977   0.607  0.3955  0.2935 -0.2047
12337TIP3    H136952   8.331   3.049   0.599 -0.8587  1.2000 -2.1743
12337TIP3    H236953   8.304   2.908   0.550 -0.1831  0.6668 -1.0263
12338TIP3   OH236954   0.145   2.261   0.718  0.1876  0.0327 -0.0567
12338TIP3    H136955   0.120   2.171   0.698 -0.8550  0.0052  1.2548
12338TIP3    H236956   0.068   2.313   0.693  0.0214  0.3190  1.0278
12339TIP3   OH236957   3.391   3.465   6.577 -0.3927 -0.1470  0.0197
12339TIP3    H136958   3.408   3.558   6.594 -0.3715  0.1897 -1.8170
12339TIP3    H236959   3.395   3.425   6.664 -3.0958  1.9817  1.2231
12340TIP3   OH236960   4.465   2.149   0.658  0.0116  0.4571 -0.4343
12340TIP3    H136961   4.467   2.073   0.715  1.1838 -0.7830 -2.0837
12340TIP3    H236962   4.372   2.163   0.639 -0.3300  0.4481  1.1644
12341TIP3   OH236963   2.180   7.309   4.889 -0.3675  0.1491 -0.6200
12341TIP3    H136964   2.215   7.341   4.973 -0.2427 -0.0560 -0.5946
12341TIP3    H236965   2.231   7.231   4.870 -0.5913  0.0334 -0.7448
12342TIP3   OH236966   8.087   3.053   1.322 -0.2180 -0.2699  0.3038
12342TIP3    H136967   8.101   3.116   1.251  3.4371 -0.0468  1.1702
12342TIP3    H236968   8.088   2.968   1.279 -2.3697  0.0517 -0.4657
12343TIP3   OH236969   3.808   4.978   5.738  0.8511 -0.6223  0.3952
12343TIP3    H136970   3.846   4.905   5.690  1.3143 -0.2948  0.2566
12343TIP3    H236971   3.857   4.982   5.820  0.3226 -0.9367  0.7312
12344TIP3   OH236972   1.375   6.940   6.944  0.0955 -0.0750 -0.2769
12344TIP3    H136973   1.424   7.013   6.983  0.1631  0.1790 -0.8400
12344TIP3    H236974   1.437   6.899   6.884 -0.2572  0.0041 -0.6960
12345TIP3   OH236975   6.363   0.611   3.880 -0.6329  0.2520  0.4872
12345TIP3    H136976   6.348   0.701   3.908 -0.3220  0.3953  0.2057
12345TIP3    H236977   6.448   0.614   3.836 -0.8808 -0.0685 -0.0151
12346TIP3   OH236978   0.137   5.861   6.314 -0.5243  0.1967  0.5277
12346TIP3    H136979   0.158   5.935   6.371  0.3338 -0.3279  0.9030
12346TIP3    H236980   0.100   5.901   6.236  0.9958  1.1004  0.2559
12347TIP3   OH236981   2.939   6.392   5.846 -0.5221  0.2725 -0.1648
12347TIP3    H136982   2.975   6.479   5.832  0.8134 -0.2489 -0.0645
12347TIP3    H236983   2.971   6.366   5.932  1.2560 -1.3396 -1.2792
12348TIP3   OH236984   0.090   0.900   0.169 -0.4139 -0.3872 -0.2419
12348TIP3    H136985   0.116   0.845   0.095  2.5080  0.4046  0.1665
12348TIP3    H236986   0.054   0.839   0.233 -0.8821 -1.3276 -1.3751
12349TIP3   OH236987   0.076   3.757   3.668 -0.4129  0.2806  0.0895
12349TIP3    H136988   0.039   3.691   3.726  0.5218 -1.1398 -0.8716
12349TIP3    H236989   0.166   3.769   3.699 -0.0839 -0.0792 -0.6946
12350TIP3   OH236990   4.731   0.446   5.789  0.3309 -0.2315 -0.2432
12350TIP3    H136991   4.660   0.510   5.782  0.3418 -0.4903 -3.5548
12350TIP3    H236992   4.806   0.497   5.821 -0.7369  0.5008  1.1502
12351TIP3   OH236993   1.894   7.607   5.719 -0.2919 -0.1871  0.0139
12351TIP3    H136994   1.936   7.666   5.782  0.2821 -2.2154  1.6124
12351TIP3    H236995   1.828   7.561   5.770  0.3716 -2.0662 -0.7834
12352TIP3   OH236996   1.819   6.000   6.541 -0.2080 -0.1807  0.1093
12352TIP3    H136997   1.767   5.925   6.570  0.2804 -0.1269  1.1659
12352TIP3    H236998   1.783   6.074   6.590  0.3442 -0.0136  0.2655
12353TIP3   OH236999   3.305   6.487   1.859  0.2975 -0.0142  0.2398
12353TIP3    H137000   3.370   6.519   1.921 -1.3236  1.8748  0.9742
12353TIP3    H237001   3.225   6.477   1.910 -0.6300 -0.0167 -1.1919
12354TIP3   OH237002   1.177   1.718   1.470  0.1562 -0.0069 -0.4490
12354TIP3    H137003   1.248   1.783   1.472 -0.8893  1.1657 -0.8135
12354TIP3    H237004   1.102   1.764   1.507 -0.0446 -1.7256  1.3804
12355TIP3   OH237005   3.306   6.335   6.958  0.2910 -0.4276 -0.3656
12355TIP3    H137006   3.218   6.297   6.963  0.3296 -0.5845 -0.8804
12355TIP3    H237007   3.365   6.260   6.970  0.3558 -0.2765  0.3049
12356TIP3   OH237008   2.568   8.068   3.560  0.2700  0.3161 -0.1700
12356TIP3    H137009   2.558   8.029   3.647 -0.3159  0.1507 -0.3030
12356TIP3    H237010   2.534   8.157   3.569 -0.0995  0.1912 -0.3057
12357TIP3   OH237011   8.199   1.568   2.054  0.0331  0.2933 -0.1394
12357TIP3    H137012   8.252   1.490   2.037 -0.1863 -0.3173  1.9087
12357TIP3    H237013   8.139   1.573   1.979  1.6294 -0.1437 -1.4686
12358TIP3   OH237014   2.847   6.830   6.099 -0.4793 -0.0098  0.2405
12358TIP3    H137015   2.941   6.815   6.109 -0.5471 -0.9153 -0.4492
12358TIP3    H237016   2.806   6.752   6.138 -0.9622  0.5649  0.9075
12359TIP3   OH237017   3.095   5.578   3.788  0.2287  0.4701 -0.1084
12359TIP3    H137018   3.006   5.610   3.769  0.0930  0.0655 -0.1539
12359TIP3    H237019   3.089   5.543   3.877  0.2367  0.0520 -0.2728
12360TIP3   OH237020   0.520   5.489   6.178  0.1016  0.1244  0.3297
12360TIP3    H137021   0.498   5.525   6.264 -0.3671 -0.2508  0.3653
12360TIP3    H237022   0.523   5.566   6.120  0.6057  0.4005  0.7184
12361TIP3   OH237023   8.084   1.360   0.052  0.1026  1.0587  0.2991
12361TIP3    H137024   8.105   1.441   0.004 -1.7960  1.7251  0.5276
12361TIP3    H237025   8.163   1.307   0.046  0.3203  1.6234 -2.5653
12362TIP3   OH237026   2.680   6.482   5.768 -0.8526  0.2746  0.4359
12362TIP3    H137027   2.757   6.433   5.794 -0.8208  0.1566  0.1254
12362TIP3    H237028   2.608   6.419   5.772 -0.6162 -0.1349 -1.1377
12363TIP3   OH237029   2.030   7.327   6.098 -0.2241  0.4955  0.2485
12363TIP3    H137030   2.090   7.256   6.074  0.5019  0.9812  0.6262
12363TIP3    H237031   1.993   7.299   6.182 -1.5749 -0.4547 -0.6425
12364TIP3   OH237032   6.821   0.223   6.272  0.1168 -0.1667  0.2419
12364TIP3    H137033   6.836   0.268   6.189  0.8865 -1.6396 -0.4411
12364TIP3    H237034   6.769   0.285   6.324  0.3337  1.1004 -1.0187
12365TIP3   OH237035   1.595   6.275   4.052  0.9210  0.6773 -0.5455
12365TIP3    H137036   1.580   6.207   3.985  0.7114  1.0583 -0.8847
12365TIP3    H237037   1.527   6.258   4.118  1.5230 -0.0942 -0.1109
12366TIP3   OH237038   1.470   4.441   6.039  0.1829 -0.2828 -0.5196
12366TIP3    H137039   1.548   4.393   6.010 -0.8078 -1.7686 -0.8262
12366TIP3    H237040   1.497   4.485   6.119  1.2923 -0.9228 -0.5296
12367TIP3   OH237041   0.683   5.340   5.944 -0.7880 -0.4674  0.4462
12367TIP3    H137042   0.653   5.424   5.979  1.0068  1.1367 -1.7586
12367TIP3    H237043   0.772   5.329   5.980 -0.6407 -0.9612 -0.0605
12368TIP3   OH237044   7.194   2.154   0.520 -0.6531 -0.1785 -0.5661
12368TIP3    H137045   7.284   2.167   0.549 -0.2427 -3.4717 -0.2329
12368TIP3    H237046   7.186   2.060   0.504 -3.9296  0.0833 -0.9459
12369TIP3   OH237047   1.351   5.980   6.551 -0.2815  0.0611  0.4182
12369TIP3    H137048   1.285   5.916   6.576 -0.3202 -0.0194  0.1119
12369TIP3    H237049   1.305   6.040   6.493 -0.1615  0.1799  0.4452
12370TIP3   OH237050   3.557   7.356   6.595  0.3198 -0.3302 -0.0332
12370TIP3    H137051   3.563   7.401   6.511  0.3851  0.2798  0.2943
12370TIP3    H237052   3.638   7.380   6.640  0.2070 -0.5217  0.2719
12371TIP3   OH237053   0.470   5.619   6.411 -0.2315  0.1620 -0.5011
12371TIP3    H137054   0.412   5.622   6.487  0.0244  1.6511 -0.3392
12371TIP3    H237055   0.473   5.710   6.380 -0.4389 -0.4518 -2.3791
12372TIP3   OH237056   5.792   3.210   0.138  0.2227  0.2568 -0.2271
12372TIP3    H137057   5.867   3.264   0.164 -0.2558  0.1715  1.4417
12372TIP3    H237058   5.734   3.213   0.214 -1.3214  0.0621 -1.3704
12373TIP3   OH237059   3.159   7.828   5.443  0.4704 -0.5561 -0.1961
12373TIP3    H137060   3.244   7.801   5.409 -0.7714 -2.3200 -2.0315
12373TIP3    H237061   3.154   7.922   5.423  0.8659 -1.0079 -2.6161
12374TIP3   OH237062   3.060   7.142   4.137  0.4738  0.2138 -0.1063
12374TIP3    H137063   3.037   7.222   4.090  0.5420  0.3366  0.0707
12374TIP3    H237064   3.132   7.105   4.087 -0.2716 -0.2980 -0.8025
12375TIP3   OH237065   1.642   5.867   4.085  0.4111  0.1201  0.1099
12375TIP3    H137066   1.643   5.774   4.060  0.3476  0.5381 -1.5065
12375TIP3    H237067   1.551   5.885   4.106  0.0789  0.2477 -1.3428
12376TIP3   OH237068   2.039   7.544   6.624 -0.3736 -0.8148  0.0239
12376TIP3    H137069   2.099   7.482   6.666 -1.0305 -1.0937  0.5529
12376TIP3    H237070   2.020   7.608   6.693 -0.9436 -0.9121 -0.0438
12377TIP3   OH237071   0.987   2.459   1.440 -0.4751  0.3207  0.4433
12377TIP3    H137072   0.915   2.522   1.442 -0.1421  0.6929  0.9838
12377TIP3    H237073   1.007   2.443   1.532  0.3476  0.4722  0.2968
12378TIP3   OH237074   7.613   0.467   1.355 -0.2145  0.1323  0.0950
12378TIP3    H137075   7.681   0.409   1.390 -1.7233 -1.8120 -0.0878
12378TIP3    H237076   7.603   0.439   1.264 -1.3179  0.3449  0.1501
12379TIP3   OH237077   6.078   1.263   1.052 -0.1196 -0.5630  0.6598
12379TIP3    H137078   5.987   1.258   1.080 -0.2949  0.6479  0.3185
12379TIP3    H237079   6.080   1.215   0.969 -0.2671 -1.2764  1.0550
12380TIP3   OH237080   0.885   5.821   5.157 -0.4668 -0.1577  0.2667
12380TIP3    H137081   0.879   5.772   5.075 -1.8741 -0.5903  0.6140
12380TIP3    H237082   0.945   5.770   5.211  0.6269  0.2320 -0.5478
12381TIP3   OH237083   2.293   7.479   4.351  0.4084 -0.2361 -0.7418
12381TIP3    H137084   2.358   7.471   4.420  0.1063 -1.6069 -0.5919
12381TIP3    H237085   2.293   7.393   4.308 -1.2066 -0.2291 -0.7958
12382TIP3   OH237086   4.084   6.337   6.611  0.0091 -0.9338 -0.5424
12382TIP3    H137087   4.015   6.397   6.641  0.7082  0.0100 -0.7852
12382TIP3    H237088   4.040   6.280   6.548 -0.6742 -0.6932 -0.2891
12383TIP3   OH237089   2.222   6.001   6.897  0.3595 -0.8983  0.4399
12383TIP3    H137090   2.182   5.975   6.814  0.0247  0.7365  0.0615
12383TIP3    H237091   2.314   6.017   6.876  0.0292  0.6245  0.1295
12384TIP3   OH237092   1.580   7.388   6.540  0.1684 -0.1838 -0.4091
12384TIP3    H137093   1.670   7.362   6.523 -0.0755 -0.1212 -1.9491
12384TIP3    H237094   1.527   7.321   6.496 -0.5576 -0.7280  1.2621
12385TIP3   OH237095   4.162   5.788   3.593 -0.2702  0.2682  0.2731
12385TIP3    H137096   4.130   5.723   3.531  0.0565  1.8284 -1.5851
12385TIP3    H237097   4.253   5.762   3.609  0.5674  1.4896 -2.2116
12386TIP3   OH237098   1.174   6.455   4.694 -0.4362  0.1859 -0.1286
12386TIP3    H137099   1.210   6.475   4.608  1.3576 -0.0720  0.5355
12386TIP3    H237100   1.161   6.360   4.693 -1.5089  0.3232 -0.4994
12387TIP3   OH237101   2.184   4.919   5.261  0.8365 -0.0065  0.2116
12387TIP3    H137102   2.130   4.897   5.337  1.9490  1.0340  1.3346
12387TIP3    H237103   2.121   4.934   5.190 -0.1537 -2.0659  0.6334
12388TIP3   OH237104   6.550   2.985   1.047  0.5947 -0.6372 -0.0074
12388TIP3    H137105   6.632   2.938   1.064 -0.9559 -2.7710  1.7598
12388TIP3    H237106   6.491   2.920   1.010 -1.1019  0.2656  1.0371
12389TIP3   OH237107   8.225   4.255   1.589 -0.0756 -0.5497 -0.4439
12389TIP3    H137108   8.136   4.254   1.623  0.1927 -0.9061  0.2548
12389TIP3    H237109   8.260   4.169   1.610  1.1141  0.2850  1.1240
12390TIP3   OH237110   0.127   2.870   0.102 -0.1190  0.2785 -0.3103
12390TIP3    H137111   0.133   2.797   0.164 -0.8065  1.0749  0.7194
12390TIP3    H237112   0.159   2.834   0.019  2.4237 -0.3643  0.8749
12391TIP3   OH237113   4.903   6.568   6.651  0.5288  0.1319 -0.1965
12391TIP3    H137114   4.833   6.525   6.604  0.7269  0.2163 -0.5709
12391TIP3    H237115   4.983   6.539   6.607  0.7613 -0.3595  0.5403
12392TIP3   OH237116   2.649   5.940   5.282 -0.3284  0.3210 -1.1676
12392TIP3    H137117   2.580   6.007   5.283 -0.8563 -0.2037  1.9927
12392TIP3    H237118   2.701   5.958   5.360  0.2756 -2.1828 -0.9535
12393TIP3   OH237119   0.897   7.435   4.711  0.2505 -0.2875  0.2358
12393TIP3    H137120   0.976   7.486   4.698 -0.4201  0.7255  0.1258
12393TIP3    H237121   0.825   7.495   4.692 -0.5461 -1.3191 -0.1211
12394TIP3   OH237122   4.780   0.001   5.266 -0.0063  0.4052  0.6280
12394TIP3    H137123   4.806   0.085   5.303  1.9003  1.1185 -2.2018
12394TIP3    H237124   4.733   0.024   5.186 -0.3193 -1.1952  0.3419
12395TIP3   OH237125   0.479   5.882   6.322  0.4085 -0.5988 -0.1617
12395TIP3    H137126   0.431   5.949   6.371  1.0060 -1.2602  1.3467
12395TIP3    H237127   0.467   5.907   6.230 -2.2151 -0.3582  0.2149
12396TIP3   OH237128   1.782   6.315   2.691 -0.0764 -0.0028 -0.0070
12396TIP3    H137129   1.842   6.296   2.763  0.4011  1.4561 -0.0231
12396TIP3    H237130   1.835   6.360   2.626 -1.1950  1.4008  0.0150
12397TIP3   OH237131   2.999   6.026   2.355 -0.1613  0.0293 -0.5375
12397TIP3    H137132   2.943   5.949   2.354  0.4357 -0.3943 -2.2327
12397TIP3    H237133   2.972   6.077   2.278  0.4679  0.7704 -0.2778
12398TIP3   OH237134   6.986   3.594   0.098 -0.1816 -0.3384  0.1587
12398TIP3    H137135   6.953   3.514   0.140  2.5322 -1.8680 -0.4646
12398TIP3    H237136   6.917   3.659   0.112 -3.3665 -3.2838 -0.9742
12399TIP3   OH237137   2.769   8.056   6.998  0.3062  0.7075 -0.2315
12399TIP3    H137138   2.693   8.084   6.947 -1.0247  0.3853  1.5263
12399TIP3    H237139   2.776   7.962   6.981 -0.6544  0.4317  0.7856
12400TIP3   OH237140   3.500   7.340   5.148 -0.3191  0.3308 -0.5403
12400TIP3    H137141   3.521   7.326   5.241 -0.9824  2.6164 -0.0089
12400TIP3    H237142   3.573   7.392   5.115  0.2933 -1.1274 -1.5154
12401TIP3   OH237143   2.061   6.761   4.595 -0.0783 -0.7584 -0.5907
12401TIP3    H137144   2.076   6.751   4.689 -1.5793 -2.1063 -0.4715
12401TIP3    H237145   2.104   6.685   4.556  1.8584  0.5805 -1.1741
12402TIP3   OH237146   1.491   6.086   4.825  0.7475  0.0194  0.6240
12402TIP3    H137147   1.540   6.018   4.778  0.3250  1.1648 -1.5306
12402TIP3    H237148   1.554   6.158   4.834 -0.3676  1.3846 -1.9017
12403TIP3   OH237149   3.718   7.302   3.099 -0.1876  0.3030 -0.2681
12403TIP3    H137150   3.773   7.365   3.052  1.2128 -1.1315 -0.6283
12403TIP3    H237151   3.777   7.263   3.164 -1.5957  0.8425  1.3499
12404TIP3   OH237152   2.900   7.676   4.941  0.1691  0.1574 -0.0901
12404TIP3    H137153   2.911   7.623   4.862 -1.3884 -0.5925  0.1849
12404TIP3    H237154   2.964   7.640   5.002  2.1956  1.4725 -1.3343
12405TIP3   OH237155   7.852   0.779   1.254 -0.1428 -0.2093  0.5170
12405TIP3    H137156   7.769   0.775   1.207  0.1776 -0.1900 -0.0621
12405TIP3    H237157   7.834   0.834   1.330 -0.7591 -0.5281  0.6044
12406TIP3   OH237158   3.872   0.157   6.883 -0.2555 -0.4588  0.1819
12406TIP3    H137159   3.780   0.153   6.908 -0.2546  0.0971  0.2901
12406TIP3    H237160   3.918   0.110   6.952 -0.3012  0.6626  1.0017
12407TIP3   OH237161   2.977   6.932   4.526  0.0260  0.3745 -0.3034
12407TIP3    H137162   2.980   7.016   4.572 -0.7411  0.7693 -0.9663
12407TIP3    H237163   3.059   6.889   4.550 -0.7891  0.1719  2.1854
12408TIP3   OH237164   1.228   7.153   4.751 -0.6538 -1.1476  0.3711
12408TIP3    H137165   1.171   7.167   4.676 -1.5547  0.9328  1.4163
12408TIP3    H237166   1.314   7.134   4.713 -1.2586 -0.8000 -1.1828
12409TIP3   OH237167   8.073   5.615   6.985 -0.1445 -0.2700  0.3197
12409TIP3    H137168   8.012   5.585   7.053 -1.5460  0.0857 -0.7367
12409TIP3    H237169   8.034   5.698   6.955  1.3197  0.3762  0.1894
12410TIP3   OH237170   0.366   1.368   1.116  0.3257 -0.4524 -0.4540
12410TIP3    H137171   0.443   1.311   1.120  0.0962 -0.7649 -0.4370
12410TIP3    H237172   0.392   1.439   1.057  1.1172  0.1914  0.6461
12411TIP3   OH237173   8.320   5.967   5.680 -0.1064  0.1437 -0.0971
12411TIP3    H137174   8.395   5.971   5.622  1.8710  0.5701  2.4046
12411TIP3    H237175   8.318   6.053   5.723  0.3236 -1.1730  2.6685
12412TIP3   OH237176   4.296   0.227   6.442 -0.1440 -0.3304 -0.0692
12412TIP3    H137177   4.352   0.195   6.371  0.7955 -0.0112  0.5255
12412TIP3    H237178   4.272   0.315   6.416  2.6662  0.9315  1.4087
12413TIP3   OH237179   0.324   2.164   0.473  1.1433 -1.0438 -0.3101
12413TIP3    H137180   0.413   2.199   0.473  0.8136 -0.1921  0.5266
12413TIP3    H237181   0.325   2.095   0.540  1.1158 -0.8822 -0.1431
12414TIP3   OH237182   0.416   6.702   6.956  0.4324  0.7203  1.2546
12414TIP3    H137183   0.342   6.642   6.949 -1.0308  2.5981 -0.1537
12414TIP3    H237184   0.486   6.660   6.905 -0.3829 -0.0499  0.7449
12415TIP3   OH237185   1.889   5.580   6.353  0.4519  0.2240 -0.3980
12415TIP3    H137186   1.909   5.600   6.444 -0.3874  2.2841 -0.6385
12415TIP3    H237187   1.894   5.665   6.308 -2.2461 -0.2487 -1.6893
12416TIP3   OH237188   8.276   6.104   5.377 -0.4547 -0.1177  0.5663
12416TIP3    H137189   8.367   6.099   5.350 -0.8012  0.0117 -0.6412
12416TIP3    H237190   8.233   6.029   5.336 -1.3750  1.1333 -0.8046
12417TIP3   OH237191   2.280   6.980   6.279  0.2110 -0.1253  0.7222
12417TIP3    H137192   2.222   6.986   6.203  0.2636  3.0450  0.8392
12417TIP3    H237193   2.354   6.927   6.250 -0.7162 -0.6074 -0.7912
12418TIP3   OH237194   0.807   2.517   0.589  0.2055 -0.8322 -0.0499
12418TIP3    H137195   0.800   2.608   0.616  0.5277 -0.4127 -1.3291
12418TIP3    H237196   0.786   2.518   0.495 -0.4239 -2.1636  0.0616
12419TIP3   OH237197   3.674   7.093   5.997 -0.2219  0.0775 -0.0892
12419TIP3    H137198   3.712   7.011   5.963  1.2299 -0.8376  3.4608
12419TIP3    H237199   3.750   7.145   6.024 -1.2467  0.4191  2.3213
12420TIP3   OH237200   1.562   6.584   5.320  0.2010  0.4907  0.0934
12420TIP3    H137201   1.562   6.679   5.315 -3.3164  0.5476 -0.1322
12420TIP3    H237202   1.532   6.555   5.234 -0.2363 -0.7545  0.6413
12421TIP3   OH237203   2.687   6.945   5.913 -0.5952 -0.1908 -0.2810
12421TIP3    H137204   2.753   6.911   5.974  0.3527  0.5438 -0.8885
12421TIP3    H237205   2.675   6.875   5.849  0.5619  0.1845 -0.9148
12422TIP3   OH237206   4.350   6.278   6.515 -0.2493 -0.3049  0.1609
12422TIP3    H137207   4.364   6.183   6.514  0.0849 -0.2727 -2.4600
12422TIP3    H237208   4.255   6.288   6.518 -0.3647 -0.7789 -1.2325
12423TIP3   OH237209   7.445   1.039   0.494 -0.0060 -0.0872  0.2551
12423TIP3    H137210   7.382   1.080   0.554 -1.2407 -1.6547  0.0670
12423TIP3    H237211   7.452   1.101   0.421 -0.3228  0.7155  0.9016
12424TIP3   OH237212   0.379   6.458   6.311 -0.3376 -0.4658 -0.3834
12424TIP3    H137213   0.326   6.437   6.387  0.1426  0.2168  0.1585
12424TIP3    H237214   0.463   6.414   6.327  0.3083  0.9305  0.2570
12425TIP3   OH237215   8.300   3.211   0.788  0.5352  0.4367  0.0999
12425TIP3    H137216   8.382   3.204   0.837  0.1442 -0.1706  0.6762
12425TIP3    H237217   8.233   3.229   0.854 -0.0158 -0.4909 -0.1875
12426TIP3   OH237218   7.387   1.716  -0.011 -0.2119 -0.3448 -0.5255
12426TIP3    H137219   7.399   1.766   0.070 -0.4034 -2.5519  0.9148
12426TIP3    H237220   7.308   1.753  -0.051 -0.6495  0.1541  0.7834
12427TIP3   OH237221   3.828   8.084   3.798  0.1801 -0.3649 -0.4028
12427TIP3    H137222   3.789   8.077   3.711  1.1019  0.5852 -0.9022
12427TIP3    H237223   3.761   8.127   3.851 -0.0780 -0.2267 -0.8400
12428TIP3   OH237224   0.941   3.123   1.204  0.0654 -0.0982 -0.0134
12428TIP3    H137225   0.902   3.091   1.122 -0.0341 -2.0439  0.7733
12428TIP3    H237226   1.020   3.070   1.215  0.7641  1.0378  0.5016
12429TIP3   OH237227   0.826   6.904   3.085 -0.2934  0.1392  0.3873
12429TIP3    H137228   0.753   6.922   3.026 -0.3576 -0.0707  0.4005
12429TIP3    H237229   0.785   6.885   3.169 -0.2740 -0.8182  0.1890
12430TIP3   OH237230   8.427   1.731   0.191  0.0235 -0.0322  0.6877
12430TIP3    H137231   8.389   1.674   0.258 -0.0488  1.0278  1.5452
12430TIP3    H237232   8.355   1.788   0.165 -0.2799 -1.1955 -1.1456
12431TIP3   OH237233   1.787   6.459   5.460  0.6572  0.5313 -0.0393
12431TIP3    H137234   1.812   6.420   5.376  0.5272  1.8322 -0.7052
12431TIP3    H237235   1.706   6.507   5.440  0.7654  1.0604  0.7775
12432TIP3   OH237236   0.711   2.819   1.762 -0.7382 -0.2814 -0.3253
12432TIP3    H137237   0.618   2.799   1.751 -1.2518  1.0426  1.3705
12432TIP3    H237238   0.729   2.801   1.855  0.2098  1.3437 -0.1723
12433TIP3   OH237239   3.029   7.161   6.359  1.0426 -0.0054  0.1715
12433TIP3    H137240   3.097   7.122   6.304  1.1000  1.2209 -0.6659
12433TIP3    H237241   2.947   7.144   6.312  1.1430  1.4788 -0.5777
12434TIP3   OH237242   0.771   2.791   0.236 -0.4431 -1.1206  0.2473
12434TIP3    H137243   0.754   2.804   0.143 -1.0151  0.6574  0.5805
12434TIP3    H237244   0.860   2.823   0.249 -1.0988  0.5489  0.6846
12435TIP3   OH237245   8.203   1.953   1.755  0.3037  0.4042 -0.4201
12435TIP3    H137246   8.239   1.993   1.834  0.1450 -0.4373  0.0872
12435TIP3    H237247   8.147   2.021   1.717  0.7523  0.9766 -0.0668
12436TIP3   OH237248   1.360   7.636   6.852 -0.4925  0.4747 -0.5940
12436TIP3    H137249   1.318   7.649   6.937  0.3999  1.2339 -0.2632
12436TIP3    H237250   1.383   7.543   6.851 -0.7480  0.4082 -0.1143
12437TIP3   OH237251   7.434   2.453   0.714  0.0064 -0.1349 -0.3940
12437TIP3    H137252   7.345   2.461   0.682 -0.2542 -1.4461 -0.0113
12437TIP3    H237253   7.472   2.382   0.662  0.0002 -1.3514  1.2466
12438TIP3   OH237254   1.359   5.365   4.485 -0.2574  1.0728 -0.4204
12438TIP3    H137255   1.280   5.329   4.447 -0.0252 -1.9183  1.7558
12438TIP3    H237256   1.388   5.432   4.423 -3.6467  1.1989 -1.9503
12439TIP3   OH237257   2.404   7.149   6.571  0.0958  0.7429 -0.1201
12439TIP3    H137258   2.320   7.171   6.531  0.4536 -0.5290 -1.6330
12439TIP3    H237259   2.466   7.210   6.531  0.2215  0.3822 -0.4767
12440TIP3   OH237260   3.387   4.944   4.413  0.5922  0.4672 -0.7114
12440TIP3    H137261   3.392   5.015   4.477 -1.0069 -0.7588  0.8270
12440TIP3    H237262   3.322   4.974   4.349 -0.3935  0.2597  0.1664
12441TIP3   OH237263   3.057   4.954   6.662 -0.1094  0.3869  0.1465
12441TIP3    H137264   3.144   4.984   6.686  0.0348  1.6943 -1.9135
12441TIP3    H237265   3.005   5.034   6.655 -1.1989 -0.2960  0.3044
12442TIP3   OH237266   6.962   3.935   2.696 -0.4765  0.0499  0.2288
12442TIP3    H137267   6.942   4.024   2.727 -1.5689 -0.2549  0.4126
12442TIP3    H237268   7.038   3.946   2.639 -0.1001  0.9906  0.8923
12443TIP3   OH237269   2.971   6.560   6.822  0.4653  0.3885 -0.5248
12443TIP3    H137270   3.000   6.495   6.885 -1.0385  1.2542  1.1002
12443TIP3    H237271   2.988   6.521   6.737  0.5658 -1.6784  0.4305
12444TIP3   OH237272   1.553   2.634   1.834  0.2471 -0.0875  0.5329
12444TIP3    H137273   1.458   2.637   1.820  0.3272  1.2496  0.2026
12444TIP3    H237274   1.588   2.588   1.758 -0.1665 -0.8604  0.8087
12445TIP3   OH237275   8.131   4.212   0.342 -0.3107 -0.7790 -0.0850
12445TIP3    H137276   8.036   4.210   0.355  0.0221  2.5975  3.8404
12445TIP3    H237277   8.167   4.167   0.418  1.2712  2.2818  1.0884
12446TIP3   OH237278   0.538   3.463   0.223 -0.4682 -0.1516  0.2737
12446TIP3    H137279   0.560   3.554   0.205  1.3984 -0.3667  1.3456
12446TIP3    H237280   0.532   3.458   0.318  0.8960 -1.4422  0.3136
12447TIP3   OH237281   2.586   6.077   6.544 -0.0620 -0.4940 -0.2730
12447TIP3    H137282   2.617   6.153   6.495  1.5501 -0.9141  0.0597
12447TIP3    H237283   2.529   6.031   6.483  0.0021  0.2723 -0.9203
12448TIP3   OH237284   3.439   6.377   5.133 -0.5916 -0.3568 -0.5343
12448TIP3    H137285   3.363   6.435   5.124 -0.7932 -0.5959 -0.3826
12448TIP3    H237286   3.435   6.346   5.223 -0.1629 -0.1654 -0.4481
12449TIP3   OH237287   4.539   6.902   6.543  0.3490  0.0190  0.1148
12449TIP3    H137288   4.504   6.836   6.603  1.9443  0.9921  2.1924
12449TIP3    H237289   4.634   6.894   6.552  0.6346  0.0145 -2.5215
12450TIP3   OH237290   1.696   1.147   1.294 -0.2870 -0.2574  0.1399
12450TIP3    H137291   1.742   1.064   1.307 -0.8211 -0.5778 -0.0075
12450TIP3    H237292   1.690   1.185   1.381  1.2415  0.3153  0.0201
12451TIP3   OH237293   1.706   7.539   6.727  0.3553  0.0992  0.3182
12451TIP3    H137294   1.727   7.456   6.769  1.6127  0.4751  0.4637
12451TIP3    H237295   1.638   7.518   6.663  0.1176 -0.8979  0.8870
12452TIP3   OH237296   3.413   4.236   6.347 -0.1110  0.6340 -0.0759
12452TIP3    H137297   3.490   4.180   6.361 -0.5848 -0.3603 -1.2631
12452TIP3    H237298   3.442   4.324   6.371  0.8168 -0.0290  1.3085
12453TIP3   OH237299   0.782   3.272   1.639  0.8202 -0.2616  0.8537
12453TIP3    H137300   0.781   3.210   1.712  1.1398 -1.9274 -0.5298
12453TIP3    H237301   0.736   3.227   1.569 -1.9160  2.3730  0.8161
12454TIP3   OH237302   3.575   7.455   4.525 -0.7566  0.2868  0.2762
12454TIP3    H137303   3.535   7.383   4.575  1.1180 -0.7213  0.3875
12454TIP3    H237304   3.545   7.441   4.435  1.0712 -1.7960 -0.0669
12455TIP3   OH237305   1.247   6.818   4.916 -0.3387  0.3963 -0.5167
12455TIP3    H137306   1.182   6.835   4.985 -0.3611 -0.4427 -0.3325
12455TIP3    H237307   1.195   6.786   4.842 -0.0651 -0.9962 -0.1202
12456TIP3   OH237308   8.132   2.283   0.599  1.0877  0.4336  0.0914
12456TIP3    H137309   8.082   2.217   0.645  0.2031  1.0509  0.0239
12456TIP3    H237310   8.080   2.304   0.522  1.5429  0.9329 -0.0851
12457TIP3   OH237311   6.639   2.749   0.796 -0.1771 -0.6676 -0.3407
12457TIP3    H137312   6.674   2.666   0.763  0.5622 -0.4216 -0.1746
12457TIP3    H237313   6.546   2.747   0.772 -0.1419 -1.5021 -0.4217
12458TIP3   OH237314   8.422   2.150   0.148  0.2501  0.3071  0.0422
12458TIP3    H137315   8.498   2.189   0.193  0.2847  0.3173 -0.0249
12458TIP3    H237316   8.460   2.078   0.097  0.2025  0.2643  0.0690
12459TIP3   OH237317   4.728   7.493   5.420  0.0703  0.0115  0.1701
12459TIP3    H137318   4.768   7.406   5.414  0.6847  0.1859  1.6988
12459TIP3    H237319   4.779   7.547   5.360  0.7539 -0.2770  0.4938
12460TIP3   OH237320   8.213   2.616   1.761 -0.3774 -0.0932 -0.3150
12460TIP3    H137321   8.183   2.600   1.851 -0.3674 -0.2775 -0.3439
12460TIP3    H237322   8.135   2.601   1.707 -0.9505  2.1745 -0.1484
12461TIP3   OH237323   1.088   7.450   4.247 -0.6719 -0.0443 -0.8114
12461TIP3    H137324   1.159   7.464   4.310 -0.8099 -0.4684 -0.5571
12461TIP3    H237325   1.053   7.537   4.231  1.3206  0.4839 -2.6264
12462TIP3   OH237326   3.153   7.581   4.162  0.4492 -0.0059  0.3658
12462TIP3    H137327   3.205   7.542   4.092  0.8448  0.5322  0.3638
12462TIP3    H237328   3.176   7.674   4.162 -1.0624  0.3801 -0.1324
12463TIP3   OH237329   8.414   1.277   0.994 -0.4418  0.2814 -0.5393
12463TIP3    H137330   8.491   1.330   1.015 -0.1681  0.1009 -1.0772
12463TIP3    H237331   8.451   1.192   0.968 -0.8549 -0.0253 -0.1283
12464TIP3   OH237332   7.548   2.029   0.935  0.1940 -0.0301  0.2759
12464TIP3    H137333   7.521   1.952   0.885  1.1192 -0.2462  0.0991
12464TIP3    H237334   7.643   2.023   0.940  0.3126  1.3249 -0.0848
12465TIP3   OH237335   1.295   5.614   5.692 -0.1385  0.2879  0.2315
12465TIP3    H137336   1.247   5.681   5.643  2.6835 -0.0218 -3.1792
12465TIP3    H237337   1.257   5.531   5.662  0.1495  0.1708  0.1863
12466TIP3   OH237338   2.557   4.441   6.221  0.0262 -0.3085  0.2539
12466TIP3    H137339   2.602   4.358   6.207 -0.1917 -0.3823 -0.0236
12466TIP3    H237340   2.502   4.452   6.143 -0.0983 -0.0036  0.3825
12467TIP3   OH237341   7.878   1.067   0.852 -0.3215  0.4194 -0.0869
12467TIP3    H137342   7.973   1.063   0.838 -0.3562 -0.2948 -0.1633
12467TIP3    H237343   7.868   1.125   0.927  0.4115 -1.9708  1.9506
12468TIP3   OH237344   6.734   2.518   1.041  1.5152 -0.7267  0.9834
12468TIP3    H137345   6.817   2.552   1.007 -0.6082  3.5305 -0.3092
12468TIP3    H237346   6.719   2.568   1.121  0.6769 -2.2853  1.8252
12469TIP3   OH237347   4.037   7.700   5.915  0.4025  0.2102  0.6007
12469TIP3    H137348   4.065   7.621   5.962  0.1495 -1.8879 -2.6587
12469TIP3    H237349   4.119   7.739   5.885  0.3762 -1.1020 -1.2940
12470TIP3   OH237350   0.071   2.961   1.135  0.0274  0.3376  0.2233
12470TIP3    H137351   0.037   2.979   1.223  0.1623  0.3162  0.2795
12470TIP3    H237352   0.160   2.995   1.137  0.7854 -1.6089  0.7734
12471TIP3   OH237353   2.787   7.164   5.710 -0.2565  0.0311 -0.0347
12471TIP3    H137354   2.699   7.130   5.702 -0.5635  0.6891  0.5261
12471TIP3    H237355   2.775   7.258   5.725  0.5542  0.3108 -1.0292
12472TIP3   OH237356   2.654   7.628   5.058 -0.1293  0.0722 -0.0535
12472TIP3    H137357   2.720   7.660   4.996  0.8505  0.1630  1.0233
12472TIP3    H237358   2.641   7.701   5.119 -0.7619 -0.1751  0.1114
12473TIP3   OH237359   3.096   5.213   3.908  0.3252  0.4405  0.0548
12473TIP3    H137360   3.134   5.125   3.905 -1.0959 -0.2380  1.3650
12473TIP3    H237361   3.112   5.249   3.821  0.1851 -1.4434 -0.7780
12474TIP3   OH237362   1.836   6.189   5.962  0.4321 -0.7282  0.9216
12474TIP3    H137363   1.832   6.238   5.880 -0.3623 -0.9288  0.8303
12474TIP3    H237364   1.849   6.255   6.029 -3.4867 -0.0347  1.1083
12475TIP3   OH237365   0.510   3.260   0.767 -0.4875 -0.2048  0.4349
12475TIP3    H137366   0.459   3.210   0.703 -0.0175  0.4769 -0.4844
12475TIP3    H237367   0.591   3.280   0.721 -0.8980  1.8754  0.6011
12476TIP3   OH237368   2.848   7.401   6.404  0.1083  0.2576  0.0038
12476TIP3    H137369   2.938   7.375   6.386  0.2229  0.0866  0.7907
12476TIP3    H237370   2.848   7.496   6.395  0.7880  0.4370  1.7694
12477TIP3   OH237371   3.514   6.013   4.973 -0.1779  0.1487  0.0350
12477TIP3    H137372   3.486   6.084   4.915 -0.4458 -0.8040 -1.0096
12477TIP3    H237373   3.581   5.966   4.923  1.6312  0.9976  1.5996
12478TIP3   OH237374   0.472   3.819   0.401  0.5443  0.1034  0.2190
12478TIP3    H137375   0.456   3.748   0.463  1.1478 -0.7014 -0.5403
12478TIP3    H237376   0.422   3.795   0.323 -0.0840  1.0353  0.3244
12479TIP3   OH237377   2.241   6.706   6.713 -0.4947 -0.4779 -0.1365
12479TIP3    H137378   2.206   6.757   6.786 -0.9860  0.1650 -0.8112
12479TIP3    H237379   2.230   6.763   6.637 -0.4215 -1.3278 -0.7894
12480TIP3   OH237380   0.671   0.729   0.157  0.2205  0.0578 -0.4581
12480TIP3    H137381   0.605   0.671   0.119 -1.7560  2.0118 -0.1084
12480TIP3    H237382   0.649   0.816   0.123  0.5721  1.2814  2.2955
12481TIP3   OH237383   1.700   5.000   6.252  0.3694  0.0821 -0.2280
12481TIP3    H137384   1.778   5.053   6.265  0.7315 -0.3745 -0.5419
12481TIP3    H237385   1.657   5.040   6.176  0.3725  0.2422 -0.1461
12482TIP3   OH237386   4.821   2.730   0.777  0.3529 -0.5129  0.6119
12482TIP3    H137387   4.891   2.752   0.838 -0.5153 -0.3476  1.5810
12482TIP3    H237388   4.743   2.772   0.814 -0.0005  0.4310 -1.1655
12483TIP3   OH237389   0.169   6.600   6.929  0.4734  0.6193 -0.0458
12483TIP3    H137390   0.148   6.508   6.914 -0.5560  0.8608 -0.1072
12483TIP3    H237391   0.127   6.646   6.856  0.0520  1.2510  0.5935
12484TIP3   OH237392   2.318   5.878   5.848  0.2758 -0.1975 -0.0607
12484TIP3    H137393   2.327   5.786   5.873 -1.7836 -1.2326 -2.9030
12484TIP3    H237394   2.381   5.889   5.776 -1.3948 -0.1201 -1.5265
12485TIP3   OH237395   6.733   4.116   1.430 -0.1461  0.1309  0.3037
12485TIP3    H137396   6.657   4.139   1.484 -0.6227  0.6979 -0.5913
12485TIP3    H237397   6.696   4.070   1.354  0.6050 -1.5718  0.9376
12486TIP3   OH237398   1.739   6.971   6.055 -0.1915 -0.3936  0.3719
12486TIP3    H137399   1.743   6.876   6.066  1.0221 -0.3910  0.0238
12486TIP3    H237400   1.670   6.984   5.990 -0.6464 -1.0045  0.7164
12487TIP3   OH237401   5.685   1.845   6.028 -0.0821  0.0577  0.3595
12487TIP3    H137402   5.747   1.780   6.063 -1.2834 -0.1791  2.1225
12487TIP3    H237403   5.656   1.807   5.945  1.7342 -0.0738 -0.2349
12488TIP3   OH237404   1.859   5.356   6.187  0.8589  0.0387  0.7927
12488TIP3    H137405   1.881   5.382   6.098 -1.6857  0.4284  0.2426
12488TIP3    H237406   1.872   5.435   6.239 -1.1637  0.8614  0.1132
12489TIP3   OH237407   5.179   6.864   6.443 -0.3304 -0.2248  0.0089
12489TIP3    H137408   5.230   6.894   6.518  0.0623  0.1327 -0.3942
12489TIP3    H237409   5.194   6.931   6.376  0.7718 -1.4472 -0.9989
12490TIP3   OH237410   6.225   3.693   0.030  0.0299 -0.6902  0.0686
12490TIP3    H137411   6.281   3.750  -0.023  0.1325 -0.2049  0.6980
12490TIP3    H237412   6.200   3.747   0.105  0.0651 -1.4588  0.6317
12491TIP3   OH237413   2.603   6.708   6.337  0.0358 -0.0420  0.5125
12491TIP3    H137414   2.690   6.678   6.365  0.2615  0.9547  0.9138
12491TIP3    H237415   2.575   6.767   6.406 -0.1377  1.1304 -0.5319
12492TIP3   OH237416   4.541   0.845   5.078  0.2174 -0.3561  0.2201
12492TIP3    H137417   4.481   0.918   5.061  0.3168 -0.1792  0.6479
12492TIP3    H237418   4.488   0.767   5.060 -0.0740 -0.1942  0.3665
12493TIP3   OH237419   1.981   6.914   5.805 -0.1738  0.5451  0.2883
12493TIP3    H137420   1.911   6.852   5.787  0.1035  0.4737 -0.5810
12493TIP3    H237421   1.943   7.000   5.787  0.3418  0.4232 -1.4766
12494TIP3   OH237422   1.782   7.481   4.476  0.3903 -0.1096  0.3956
12494TIP3    H137423   1.738   7.565   4.459  0.5383 -0.2138 -0.5272
12494TIP3    H237424   1.762   7.428   4.399 -0.3948 -1.2186  1.3400
12495TIP3   OH237425   7.981   6.653   4.262  0.2775  0.0068 -0.2117
12495TIP3    H137426   7.991   6.566   4.223 -2.0954  0.5407 -2.1203
12495TIP3    H237427   7.981   6.636   4.357 -2.1128 -2.3360 -0.5697
12496TIP3   OH237428   6.898   4.296   1.324  0.4438 -0.0933 -0.1475
12496TIP3    H137429   6.846   4.216   1.335  1.0530 -0.3726  0.7211
12496TIP3    H237430   6.982   4.277   1.366  0.7662  0.8402 -0.3436
12497TIP3   OH237431   0.074   4.987   5.163 -0.5704  0.1557  0.0161
12497TIP3    H137432   0.109   4.949   5.083 -0.2835 -2.6677  1.4045
12497TIP3    H237433   0.010   4.923   5.194  0.5157  0.3574  2.8894
12498TIP3   OH237434   0.293   3.432   0.529  0.1718 -0.3266  0.1857
12498TIP3    H137435   0.212   3.468   0.567  0.2922  0.2164 -0.0732
12498TIP3    H237436   0.357   3.441   0.599  0.0860 -0.4706  0.2839
12499TIP3   OH237437   0.189   6.717   6.526 -0.3008 -0.0616 -0.6292
12499TIP3    H137438   0.273   6.680   6.553 -1.2446 -0.4238  2.0323
12499TIP3    H237439   0.210   6.803   6.491  1.1519  0.0466  0.4470
12500TIP3   OH237440   4.491   4.211   6.465 -0.0388  0.8222 -0.2664
12500TIP3    H137441   4.509   4.176   6.378  0.7137 -1.2210  0.6882
12500TIP3    H237442   4.396   4.207   6.474 -0.3701  3.4899 -1.9605
12501TIP3   OH237443   8.263   2.369   1.909  0.0498  0.0150  0.1987
12501TIP3    H137444   8.280   2.430   1.981  1.4821  0.3623 -0.4067
12501TIP3    H237445   8.350   2.339   1.882 -0.4416  0.2181 -1.6772
12502TIP3   OH237446   7.843   1.073   0.402 -0.1157  0.2160 -0.1730
12502TIP3    H137447   7.856   1.168   0.397  1.7038  0.1895  2.8144
12502TIP3    H237448   7.771   1.063   0.465  1.2347 -0.4318  1.2910
12503TIP3   OH237449   7.689   1.869   0.368 -0.2052  0.0850 -0.1214
12503TIP3    H137450   7.675   1.825   0.284 -0.6897 -0.4423  0.2344
12503TIP3    H237451   7.634   1.948   0.363  1.4679  1.2189 -1.1762
12504TIP3   OH237452   4.030   5.413   6.446 -0.0060 -0.0497 -0.0177
12504TIP3    H137453   4.066   5.325   6.460 -3.0552 -1.4936 -1.0343
12504TIP3    H237454   3.941   5.409   6.481 -1.4713  1.5400 -3.3269
12505TIP3   OH237455   2.730   5.577   3.873  0.0890  0.2866 -0.5720
12505TIP3    H137456   2.735   5.482   3.861  0.1308  0.3216 -0.8326
12505TIP3    H237457   2.762   5.614   3.791 -1.9286  0.5163 -1.2924
12506TIP3   OH237458   2.023   5.718   5.931  0.1800 -0.2351  0.5597
12506TIP3    H137459   2.116   5.696   5.924 -0.3347 -1.7629 -3.2502
12506TIP3    H237460   2.021   5.814   5.930  1.7040 -0.1868  0.3894
12507TIP3   OH237461   8.003   5.989   6.019  0.0049 -0.1372 -0.2199
12507TIP3    H137462   7.962   6.052   6.079  0.9411  0.4002 -0.1430
12507TIP3    H237463   8.015   5.910   6.073  0.5157  0.2250  0.1971
12508TIP3   OH237464   7.105   2.683   0.234 -0.0044  0.0930 -0.4035
12508TIP3    H137465   7.191   2.645   0.256  0.1293  1.0302  0.7615
12508TIP3    H237466   7.051   2.608   0.209  0.7191 -0.6869  0.3320
12509TIP3   OH237467   7.983   6.292   5.657 -0.0130  0.0109  0.4028
12509TIP3    H137468   7.912   6.230   5.674  1.0088 -0.9851  1.2127
12509TIP3    H237469   8.050   6.269   5.722  0.7151  1.4551  0.1842
12510TIP3   OH237470   3.601   6.739   5.156  0.3382  0.1470 -0.5329
12510TIP3    H137471   3.575   6.822   5.195  0.1688 -0.2472  0.2103
12510TIP3    H237472   3.532   6.718   5.093 -0.2597 -0.0507  0.1864
12511TIP3   OH237473   7.533   2.256   2.751 -0.4622  0.5178  0.0327
12511TIP3    H137474   7.571   2.285   2.668 -1.0419  0.3556 -0.2937
12511TIP3    H237475   7.516   2.337   2.799  0.0912  0.6018  0.0894
12512TIP3   OH237476   3.472   3.122   4.994 -0.4677  0.1430  0.1757
12512TIP3    H137477   3.409   3.160   4.933 -0.3534 -0.0019 -0.0363
12512TIP3    H237478   3.426   3.120   5.078 -0.5486  0.5458  0.1407
12513TIP3   OH237479   1.006   5.817   3.489  0.3034  0.0436  0.4204
12513TIP3    H137480   1.014   5.912   3.484 -1.1375  0.3393  2.6407
12513TIP3    H237481   0.918   5.798   3.458  0.0139 -0.3877  1.4654
12514TIP3   OH237482   3.366   6.394   5.394  0.1749  0.0758  0.4698
12514TIP3    H137483   3.313   6.465   5.430 -2.3007 -1.1812 -0.6457
12514TIP3    H237484   3.319   6.315   5.419  1.8630 -1.0978 -0.0336
12515TIP3   OH237485   5.390   0.171   5.525 -0.2908 -0.5359 -0.5520
12515TIP3    H137486   5.424   0.100   5.581 -1.1169 -0.3880  0.1373
12515TIP3    H237487   5.460   0.185   5.461  0.8213 -0.4739  0.6463
12516TIP3   OH237488   2.913   5.171   4.712 -0.1724 -0.4652  0.2924
12516TIP3    H137489   2.889   5.090   4.668  3.0771  0.2564 -3.0596
12516TIP3    H237490   3.004   5.157   4.739 -0.6477  0.8414  2.7414
12517TIP3   OH237491   3.315   7.538   5.225  0.5264 -0.4091 -0.5156
12517TIP3    H137492   3.363   7.477   5.169  0.7098  0.1349 -0.9523
12517TIP3    H237493   3.223   7.525   5.202  0.4741 -1.2600  0.1303
12518TIP3   OH237494   3.536   6.180   6.250 -0.4084 -0.0191 -0.2325
12518TIP3    H137495   3.446   6.172   6.218 -1.5164  1.5104  2.3590
12518TIP3    H237496   3.543   6.115   6.321 -0.2158  1.4229  1.1028
12519TIP3   OH237497   4.117   7.132   4.487 -0.4598 -0.1652  0.1418
12519TIP3    H137498   4.208   7.125   4.517 -1.4548 -1.4356  3.0748
12519TIP3    H237499   4.111   7.220   4.449  1.6168  0.4953  1.2488
12520TIP3   OH237500   5.114   6.292   5.662  1.0786 -0.2266  0.3608
12520TIP3    H137501   5.109   6.243   5.744 -0.4943  0.6879  0.8351
12520TIP3    H237502   5.045   6.255   5.607 -0.3506  1.6040  0.8445
12521TIP3   OH237503   0.174   1.658   0.287  0.3083 -0.5991 -0.1497
12521TIP3    H137504   0.127   1.666   0.371  0.3939  1.3808 -0.2507
12521TIP3    H237505   0.260   1.625   0.311  0.3945  0.1322  0.5790
12522TIP3   OH237506   5.061   0.163   5.849  0.1225 -0.0803 -0.1946
12522TIP3    H137507   5.147   0.126   5.832  0.3104  0.2231  0.0861
12522TIP3    H237508   5.078   0.239   5.904 -0.1230  1.3654 -2.0794
12523TIP3   OH237509   0.589   1.856   0.289 -0.3852  0.4279 -0.4451
12523TIP3    H137510   0.573   1.788   0.224  1.2192  0.4771 -0.9114
12523TIP3    H237511   0.541   1.932   0.256  0.1240  0.3462 -1.4013
12524TIP3   OH237512   4.405   7.680   5.188 -0.2621 -0.8147 -0.5128
12524TIP3    H137513   4.347   7.653   5.259 -0.6635  0.1590 -0.4600
12524TIP3    H237514   4.409   7.603   5.130  0.4454 -1.7769  0.7804
12525TIP3   OH237515   3.613   4.574   4.629 -0.0914  0.1930  0.5619
12525TIP3    H137516   3.579   4.630   4.699 -0.8197  0.0156  0.3453
12525TIP3    H237517   3.685   4.624   4.591 -1.4425  1.4691 -0.3678
12526TIP3   OH237518   6.418   7.036   4.793 -0.1026 -0.1436 -0.2955
12526TIP3    H137519   6.428   7.070   4.704  2.0343 -0.5256 -0.2271
12526TIP3    H237520   6.497   6.985   4.808  0.3315  1.2408  2.3989
12527TIP3   OH237521   7.774   3.637   1.116 -0.3889 -0.5131  0.0241
12527TIP3    H137522   7.810   3.596   1.037 -2.0485  0.4477 -1.2711
12527TIP3    H237523   7.680   3.625   1.108 -0.5467 -0.7415  2.0739
12528TIP3   OH237524   4.492   7.567   4.562 -0.0398 -0.2586  0.1964
12528TIP3    H137525   4.524   7.519   4.639  0.0685 -0.5421 -0.0258
12528TIP3    H237526   4.570   7.606   4.524 -0.1490  0.2495  0.4769
12529TIP3   OH237527   4.233   4.722   3.485 -0.3739  0.1139 -0.2315
12529TIP3    H137528   4.247   4.639   3.438 -0.1084 -0.5590  1.0153
12529TIP3    H237529   4.175   4.772   3.428 -1.3175 -1.3145 -0.5706
12530TIP3   OH237530   2.085   5.798   5.169  0.7797 -0.3534  0.0251
12530TIP3    H137531   1.993   5.805   5.143  0.7702 -2.2857 -0.5361
12530TIP3    H237532   2.082   5.794   5.265  0.2203 -1.1376 -0.0184
12531TIP3   OH237533   5.642   6.536   6.783  0.5052 -0.1254 -0.6329
12531TIP3    H137534   5.599   6.491   6.711  1.5756  0.6176 -1.7495
12531TIP3    H237535   5.735   6.531   6.763  0.9709 -1.7246  1.7727
12532TIP3   OH237536   2.278   7.090   4.771 -0.7064 -0.0693  0.5082
12532TIP3    H137537   2.275   7.100   4.676  1.0250  1.0539  0.5623
12532TIP3    H237538   2.306   7.000   4.785 -3.5096 -1.0896 -0.0010
12533TIP3   OH237539   3.122   7.796   5.768  0.2081  0.3712 -0.4158
12533TIP3    H137540   3.188   7.807   5.700 -1.5025  0.7696 -2.0604
12533TIP3    H237541   3.111   7.884   5.805 -0.3710  0.5920 -1.0938
12534TIP3   OH237542   3.695   5.671   4.502  0.5396 -0.1570 -0.0359
12534TIP3    H137543   3.636   5.746   4.507  0.4362 -0.0404 -2.2447
12534TIP3    H237544   3.668   5.626   4.422  2.7813 -0.6646 -0.5264
12535TIP3   OH237545   4.383   6.009   4.686 -0.0949  0.1598  0.1118
12535TIP3    H137546   4.416   6.027   4.775 -2.9748  0.4985  1.1591
12535TIP3    H237547   4.371   5.914   4.684 -1.3483  0.2951  0.5978
12536TIP3   OH237548   7.498   0.408   4.892 -0.4828 -0.2060 -0.1157
12536TIP3    H137549   7.408   0.406   4.923 -0.6464  2.4480 -0.3007
12536TIP3    H237550   7.490   0.402   4.796 -0.5891  1.9352 -0.2512
12537TIP3   OH237551   2.910   7.041   4.811  0.2790 -0.2337 -0.2187
12537TIP3    H137552   2.930   7.095   4.734 -0.4008  0.5235  0.1363
12537TIP3    H237553   2.989   6.989   4.824  0.4778 -0.2162 -1.3107
12538TIP3   OH237554   6.917   0.900   2.804  0.0324 -0.5798  0.4107
12538TIP3    H137555   6.964   0.816   2.811 -0.1943 -0.7834 -0.3827
12538TIP3    H237556   6.838   0.879   2.754 -0.1443  0.0598  0.4175
12539TIP3   OH237557   2.651   6.897   6.788  0.5288 -0.3075 -0.4313
12539TIP3    H137558   2.657   6.805   6.813  0.0771 -0.3033 -0.3171
12539TIP3    H237559   2.738   6.932   6.808  0.2601 -0.3629  0.8758
12540TIP3   OH237560   5.162   5.243   5.648 -0.2756  0.3707  0.5653
12540TIP3    H137561   5.105   5.195   5.708 -0.8999 -1.9816 -1.8353
12540TIP3    H237562   5.226   5.178   5.619  0.3766  1.6280 -0.8489
12541TIP3   OH237563   6.436   6.710   6.634 -0.5969 -0.8113  0.1734
12541TIP3    H137564   6.420   6.799   6.602  0.7379 -1.1043 -1.3491
12541TIP3    H237565   6.446   6.721   6.729  1.9122  1.0325 -0.2474
12542TIP3   OH237566   3.244   5.928   5.441 -0.6182  0.4676 -0.3957
12542TIP3    H137567   3.300   5.924   5.363  0.4410  1.8587  0.2746
12542TIP3    H237568   3.200   6.012   5.435 -0.4420  0.6389  0.5572
12543TIP3   OH237569   3.429   6.599   4.462  0.4254  0.3459  0.7735
12543TIP3    H137570   3.474   6.550   4.530  1.1712 -0.4895 -0.3223
12543TIP3    H237571   3.498   6.650   4.419  0.1412 -0.0461 -0.1483
12544TIP3   OH237572   3.230   8.051   3.870 -0.4334  0.1986  0.4907
12544TIP3    H137573   3.135   8.049   3.883 -0.3241 -1.5767  1.1216
12544TIP3    H237574   3.241   8.088   3.783 -1.6205  2.2356  1.1598
12545TIP3   OH237575   3.392   4.780   3.882  0.1537 -0.5591 -0.0331
12545TIP3    H137576   3.351   4.733   3.954  0.9257 -1.3107 -0.0889
12545TIP3    H237577   3.446   4.847   3.923 -1.7636  0.9871  0.0322
12546TIP3   OH237578   3.726   5.278   3.800 -0.0131  0.3616 -0.4024
12546TIP3    H137579   3.725   5.256   3.893 -2.2051  0.4409 -0.3718
12546TIP3    H237580   3.733   5.374   3.798 -0.4821  0.4013 -0.2905
12547TIP3   OH237581   5.473   7.549   5.130 -0.0031  0.0789  0.3833
12547TIP3    H137582   5.416   7.566   5.205  0.1044  0.5263  0.3617
12547TIP3    H237583   5.561   7.549   5.166 -0.1235 -2.6930  0.8020
12548TIP3   OH237584   2.735   6.702   1.860 -0.5388  0.1082  0.1331
12548TIP3    H137585   2.702   6.628   1.911  0.4295  1.8930  3.4557
12548TIP3    H237586   2.798   6.662   1.799 -0.6990 -1.9221  1.2502
12549TIP3   OH237587   5.578   5.810   4.907  0.2345  0.0609  1.0797
12549TIP3    H137588   5.673   5.805   4.901  0.1516  0.1684 -0.4217
12549TIP3    H237589   5.562   5.880   4.971  1.1496  1.0034  0.2875
12550TIP3   OH237590   2.758   6.023   6.757  0.2438 -0.0954 -0.2517
12550TIP3    H137591   2.708   6.048   6.680  0.8623 -0.0907 -0.6614
12550TIP3    H237592   2.842   6.068   6.746  0.3036 -0.0325  0.4659
12551TIP3   OH237593   4.100   6.504   4.241  0.1409  0.3247 -0.3170
12551TIP3    H137594   4.105   6.410   4.259  1.6200  0.7161  1.4077
12551TIP3    H237595   4.164   6.519   4.171 -2.0761 -0.3700 -2.5775
12552TIP3   OH237596   1.485   2.907   0.209 -0.7010 -0.3141  0.4203
12552TIP3    H137597   1.575   2.880   0.195 -0.6923  0.2091 -0.6249
12552TIP3    H237598   1.433   2.829   0.185 -0.5182 -0.7515  1.4280
12553TIP3   OH237599   0.352   3.274   0.164 -0.1369  0.5359  0.1206
12553TIP3    H137600   0.429   3.322   0.195  1.2306 -0.8247 -1.0401
12553TIP3    H237601   0.349   3.291   0.070 -1.8512  1.3632  0.3061
12554TIP3   OH237602   4.146   5.383   5.587 -0.7845  0.0519  0.1949
12554TIP3    H137603   4.060   5.361   5.553 -0.1220 -0.3119 -1.2714
12554TIP3    H237604   4.171   5.307   5.640 -0.8241 -0.3858 -0.4105
12555TIP3   OH237605   3.359   7.176   2.243  0.2012  0.0967  0.2272
12555TIP3    H137606   3.266   7.150   2.245  0.2147 -0.0365 -0.7175
12555TIP3    H237607   3.384   7.179   2.335 -1.1491  1.5865  0.5777
12556TIP3   OH237608   4.618   5.776   6.989 -0.2008 -0.4369  0.1694
12556TIP3    H137609   4.634   5.859   7.034  0.5071 -0.1050 -0.6680
12556TIP3    H237610   4.596   5.802   6.899  0.7010 -1.1723 -0.2766
12557TIP3   OH237611   3.668   7.529   5.589  0.3229 -0.3446 -0.8487
12557TIP3    H137612   3.711   7.447   5.611 -1.1273 -0.8203  0.2379
12557TIP3    H237613   3.728   7.597   5.622  0.1718 -1.0078  0.8251
12558TIP3   OH237614   2.761   6.053   5.035 -0.1114  0.4639 -0.0949
12558TIP3    H137615   2.832   6.007   4.990 -0.0368  0.7780 -0.3039
12558TIP3    H237616   2.733   5.993   5.104  0.8970  0.6613  0.5038
12559TIP3   OH237617   6.555   5.264   5.507  0.4222  0.0552 -0.2250
12559TIP3    H137618   6.535   5.171   5.514 -0.5967  0.4174  2.2310
12559TIP3    H237619   6.544   5.284   5.414  0.9670 -2.3217 -0.8369
12560TIP3   OH237620   4.993   7.404   4.913  0.5523  0.1622 -0.4774
12560TIP3    H137621   4.990   7.499   4.900 -0.2069 -0.1441 -2.8351
12560TIP3    H237622   5.050   7.392   4.989 -0.6637  2.5692  0.8893
12561TIP3   OH237623   4.009   7.208   4.064  0.3712 -0.3031  0.3617
12561TIP3    H137624   4.055   7.227   3.982  1.0662  1.9427  1.2308
12561TIP3    H237625   4.062   7.252   4.131 -1.9958  0.7209  1.6070
12562TIP3   OH237626   7.009   1.325   0.010  0.7974  0.5326  0.1647
12562TIP3    H137627   6.961   1.402  -0.020  0.6389 -0.0693 -1.2032
12562TIP3    H237628   6.992   1.320   0.104  0.0754  1.6501  0.0960
12563TIP3   OH237629   3.297   6.774   4.089  0.0993  0.1820 -0.1749
12563TIP3    H137630   3.326   6.839   4.153  0.2198 -0.7889  0.7649
12563TIP3    H237631   3.210   6.805   4.062 -0.1585  0.3401  0.8115
12564TIP3   OH237632   4.596   7.026   5.705 -0.1686  0.4230  0.4254
12564TIP3    H137633   4.566   6.974   5.779  0.6520  0.3282  0.6977
12564TIP3    H237634   4.687   6.998   5.691 -0.7990 -0.7156 -1.6161
12565TIP3   OH237635   5.900   5.946   3.496 -0.3871 -0.1945 -0.0848
12565TIP3    H137636   5.808   5.934   3.518 -0.1402  0.2288  1.2271
12565TIP3    H237637   5.946   5.928   3.578  0.5628  1.5017 -0.2369
12566TIP3   OH237638   5.319   0.153   4.710  0.6412  0.0963  0.3870
12566TIP3    H137639   5.333   0.179   4.801 -0.0001 -0.8780  0.7743
12566TIP3    H237640   5.263   0.075   4.716  0.2272  0.2929 -0.8555
12567TIP3   OH237641   3.652   6.817   4.206  0.3103 -0.2315  0.0496
12567TIP3    H137642   3.720   6.881   4.225 -1.2252  1.1141  1.1429
12567TIP3    H237643   3.662   6.799   4.112  1.1464  1.1705 -0.1481
12568TIP3   OH237644   3.974   7.405   2.418  0.5265  0.5480 -0.3292
12568TIP3    H137645   3.957   7.488   2.463  1.8973  1.2528 -1.0821
12568TIP3    H237646   4.059   7.377   2.450  1.2573  0.7648 -2.0275
12569TIP3   OH237647   1.613   6.009   5.881  0.5365 -0.5991  0.2493
12569TIP3    H137648   1.592   6.017   5.974 -1.1792  0.9497 -0.2391
12569TIP3    H237649   1.681   6.075   5.866 -1.6557  1.6372 -0.2673
12570TIP3   OH237650   2.516   3.949   5.430 -0.2128  0.3404 -0.1217
12570TIP3    H137651   2.504   4.029   5.379 -2.8075  0.1888  0.1869
12570TIP3    H237652   2.468   3.882   5.381 -0.2973 -0.4397  1.0095
12571TIP3   OH237653   2.560   7.605   4.698 -0.3354 -0.1625 -0.2189
12571TIP3    H137654   2.464   7.601   4.698 -0.3596 -0.5921 -2.5054
12571TIP3    H237655   2.588   7.520   4.732 -0.7362  0.3535  1.4644
12572TIP3   OH237656   4.327   6.152   5.851  0.0166  0.4928 -0.6526
12572TIP3    H137657   4.383   6.200   5.913  1.7496  0.3034 -2.0240
12572TIP3    H237658   4.374   6.069   5.836 -1.0093  0.0159 -1.2600
12573TIP3   OH237659   4.224   1.150   0.347 -0.5356  0.2535 -0.2479
12573TIP3    H137660   4.164   1.217   0.313  0.4005  1.9049  1.2855
12573TIP3    H237661   4.285   1.198   0.403  1.3170 -1.6232 -0.5861
12574TIP3   OH237662   5.343   7.931   4.522 -0.0898  0.4665 -0.1556
12574TIP3    H137663   5.397   7.852   4.529  0.8827  1.0700 -0.6333
12574TIP3    H237664   5.403   8.003   4.542 -0.7636  1.1365 -0.5037
12575TIP3   OH237665   3.152   7.098   3.541  0.0518  0.1976 -0.3093
12575TIP3    H137666   3.195   7.019   3.571  0.4972  0.7134  0.4237
12575TIP3    H237667   3.177   7.165   3.605 -1.7074  0.5424  0.0454
12576TIP3   OH237668   2.583   5.267   5.153 -0.1577 -0.6374 -0.2691
12576TIP3    H137669   2.521   5.337   5.132  0.2756  0.5008  2.0191
12576TIP3    H237670   2.668   5.300   5.122 -0.3690 -1.3149 -1.5794
12577TIP3   OH237671   3.816   6.686   5.701 -0.3605  0.5580 -0.2745
12577TIP3    H137672   3.784   6.608   5.747 -1.4925  0.8030 -0.6451
12577TIP3    H237673   3.797   6.670   5.609  0.4649  0.7734 -0.4920
12578TIP3   OH237674   3.975   5.559   5.020  0.2297 -0.3627 -0.3628
12578TIP3    H137675   3.906   5.511   4.974  0.0351  1.4255 -2.0114
12578TIP3    H237676   3.928   5.612   5.085  0.2280 -0.4894 -0.2585
12579TIP3   OH237677   2.975   7.637   3.117 -0.2178  0.6294  0.2871
12579TIP3    H137678   3.049   7.577   3.125  0.2847  0.8502 -2.1572
12579TIP3    H237679   2.991   7.704   3.184  0.6664 -0.4565  1.1827
12580TIP3   OH237680   5.775   6.209   6.609 -0.1028 -0.3887 -0.5208
12580TIP3    H137681   5.799   6.254   6.689 -2.0663 -1.2494  0.6072
12580TIP3    H237682   5.854   6.162   6.582  0.0179 -1.7202  2.0484
12581TIP3   OH237683   4.838   7.998   4.571 -0.6007 -0.0243  0.3071
12581TIP3    H137684   4.922   7.975   4.610 -1.1288  0.3363  1.7031
12581TIP3    H237685   4.830   8.093   4.585  0.2549  0.5712 -2.7965
12582TIP3   OH237686   1.424   1.045   0.358  0.4331  0.6799  0.4748
12582TIP3    H137687   1.369   1.120   0.335  1.2098  1.4895  1.2071
12582TIP3    H237688   1.364   0.982   0.397 -0.4231  0.4407 -1.1671
12583TIP3   OH237689   3.607   7.895   5.813  0.4399 -0.1087  0.5745
12583TIP3    H137690   3.592   7.968   5.753 -1.7785  1.1463  2.5903
12583TIP3    H237691   3.539   7.831   5.792 -1.3326  1.0096  2.7211
12584TIP3   OH237692   3.934   7.338   4.964  0.0361 -0.7323 -0.3624
12584TIP3    H137693   3.951   7.264   4.905  2.1787 -0.3582 -0.2393
12584TIP3    H237694   3.889   7.402   4.909 -1.0972 -1.7871 -0.6819
12585TIP3   OH237695   3.875   6.822   4.966  0.0959 -0.0735 -0.8827
12585TIP3    H137696   3.936   6.818   4.892  1.0132 -0.9679 -0.0921
12585TIP3    H237697   3.798   6.772   4.937 -1.0733  2.6205 -2.5934
12586TIP3   OH237698   5.966   7.220   6.956 -0.2184 -0.3273  0.2391
12586TIP3    H137699   5.881   7.235   6.998  0.5417 -0.9879  2.0781
12586TIP3    H237700   6.016   7.170   7.021  0.9236 -1.5959 -1.5799
12587TIP3   OH237701   4.277   6.666   6.367 -0.1470 -0.5341 -0.5679
12587TIP3    H137702   4.287   6.635   6.458  0.4813 -0.2362 -0.5353
12587TIP3    H237703   4.187   6.643   6.344 -0.0874 -1.2579 -0.1088
12588TIP3   OH237704   1.170   7.200   6.494  0.2329  0.3407  0.8332
12588TIP3    H137705   1.100   7.264   6.509  0.0517 -0.0130  1.5054
12588TIP3    H237706   1.194   7.170   6.582  1.0465  0.2629  0.5876
12589TIP3   OH237707   0.283   1.572   0.762 -0.0047  0.1779  0.2399
12589TIP3    H137708   0.305   1.659   0.729  3.2205 -0.8593 -0.5051
12589TIP3    H237709   0.349   1.554   0.829 -0.8140 -1.5858  0.5988
12590TIP3   OH237710   4.894   6.390   6.325 -0.1890  0.8599 -0.0044
12590TIP3    H137711   4.929   6.479   6.322  0.1103  0.7779  1.0311
12590TIP3    H237712   4.830   6.391   6.396  1.7257 -0.4208  1.7951
12591TIP3   OH237713   2.753   7.119   6.260 -0.0375 -1.0829 -0.1007
12591TIP3    H137714   2.680   7.163   6.217  0.7222 -1.0328 -1.3428
12591TIP3    H237715   2.723   7.108   6.351 -0.2178  2.0962  0.3008
12592TIP3   OH237716   8.240   0.298   5.839 -0.2457  0.0113  0.0123
12592TIP3    H137717   8.276   0.209   5.840  0.1515  0.1476 -1.1690
12592TIP3    H237718   8.312   0.352   5.871 -0.6022 -0.1273  1.0595
12593TIP3   OH237719   1.675   3.804   1.283 -0.2462  1.0328 -0.4138
12593TIP3    H137720   1.684   3.899   1.289 -2.1047  1.2117 -0.0554
12593TIP3    H237721   1.590   3.786   1.323  0.7587 -0.9484  0.8712
12594TIP3   OH237722   5.473   6.638   4.186  0.4232  0.1030  0.2299
12594TIP3    H137723   5.548   6.606   4.137 -0.0047 -0.9628  0.2706
12594TIP3    H237724   5.511   6.694   4.254  1.0403  1.2727 -1.0622
12595TIP3   OH237725   2.524   5.459   5.395  0.2222  0.2858 -0.1513
12595TIP3    H137726   2.530   5.385   5.335  3.0551 -0.0049  0.4573
12595TIP3    H237727   2.586   5.523   5.360  1.2284  0.4911  1.9232
12596TIP3   OH237728   3.436   7.477   5.718 -0.6080 -0.3029  0.3839
12596TIP3    H137729   3.514   7.515   5.678 -0.5506 -1.0954 -0.2849
12596TIP3    H237730   3.458   7.384   5.728 -1.2704 -0.4313  0.6690
12597TIP3   OH237731   7.138   0.168   5.364 -0.2161  0.0168 -0.0075
12597TIP3    H137732   7.125   0.254   5.403  0.4677  0.8448 -1.5639
12597TIP3    H237733   7.091   0.108   5.422  0.5260  1.2383  1.9087
12598TIP3   OH237734   4.851   7.538   3.259  0.5273  0.2371  0.3205
12598TIP3    H137735   4.937   7.579   3.272  1.3132 -1.0607 -0.5277
12598TIP3    H237736   4.838   7.542   3.164 -0.1335 -0.0054  0.4027
12599TIP3   OH237737   4.388   5.737   4.907 -0.2023 -0.4836 -0.2968
12599TIP3    H137738   4.297   5.754   4.882  0.0304  0.3447 -0.5998
12599TIP3    H237739   4.401   5.788   4.987 -0.3877 -1.6340  0.4717
12600TIP3   OH237740   2.034   2.241   0.673 -0.1937 -0.4087 -0.1097
12600TIP3    H137741   2.058   2.202   0.757 -0.3125 -2.0895 -0.8396
12600TIP3    H237742   2.074   2.184   0.607  0.5558  1.3310 -1.2022
12601TIP3   OH237743   2.039   6.434   4.888  0.0857  0.1141 -0.1720
12601TIP3    H137744   2.049   6.528   4.872 -0.5447  0.0071 -1.2815
12601TIP3    H237745   2.050   6.394   4.801  1.2509 -0.9153  0.4459
12602TIP3   OH237746   4.070   5.848   5.645 -0.2688  0.2886 -0.2435
12602TIP3    H137747   4.146   5.793   5.627  0.0742  0.5849  0.2859
12602TIP3    H237748   4.018   5.845   5.564 -0.6871 -1.5130  0.0542
12603TIP3   OH237749   5.816   7.940   3.249  0.4841 -0.1764 -1.1715
12603TIP3    H137750   5.742   7.919   3.192  0.2532 -0.8081 -0.6426
12603TIP3    H237751   5.888   7.958   3.189  0.0061  0.0378 -1.6818
12604TIP3   OH237752   1.809   5.828   5.110 -0.0990 -0.8597 -0.3132
12604TIP3    H137753   1.811   5.830   5.015 -0.6829 -0.4153 -0.3199
12604TIP3    H237754   1.758   5.905   5.135  1.6520  0.0977  0.4291
12605TIP3   OH237755   3.378   6.384   4.079 -0.1453 -0.0904 -0.1895
12605TIP3    H137756   3.471   6.403   4.095  0.1083 -0.1044 -1.6059
12605TIP3    H237757   3.340   6.469   4.058 -0.3346 -0.1676 -0.1546
12606TIP3   OH237758   3.912   6.934   4.451  0.9682 -0.7325 -0.0054
12606TIP3    H137759   3.991   6.987   4.457  0.0309  0.5017  2.1563
12606TIP3    H237760   3.926   6.878   4.376  2.9155  1.0954 -1.0571
12607TIP3   OH237761   5.227   6.201   3.028  0.3678 -0.6675 -0.0232
12607TIP3    H137762   5.181   6.176   3.108  0.6753  1.4793  0.8467
12607TIP3    H237763   5.272   6.282   3.050 -1.6634  1.4170 -3.1106
12608TIP3   OH237764   0.423   1.283   6.060  0.5362 -0.4364 -0.1084
12608TIP3    H137765   0.493   1.339   6.027 -0.5313  0.5003 -0.8113
12608TIP3    H237766   0.370   1.340   6.116 -0.3786 -0.8160 -0.5794
12609TIP3   OH237767   4.383   7.844   4.414 -0.8096  0.2478  0.2598
12609TIP3    H137768   4.331   7.829   4.493 -0.3040  0.4167  0.6278
12609TIP3    H237769   4.318   7.867   4.347 -1.2500  0.0098  0.5998
12610TIP3   OH237770   4.900   7.930   4.010 -0.0019  0.4936  0.2436
12610TIP3    H137771   4.838   8.002   3.995 -1.0640 -0.4684 -0.0164
12610TIP3    H237772   4.908   7.925   4.105  0.0524  0.9471  0.2626
12611TIP3   OH237773   4.767   0.376   5.229 -0.6025  0.0589 -0.9350
12611TIP3    H137774   4.810   0.409   5.308 -2.6197  0.7765 -0.0908
12611TIP3    H237775   4.793   0.284   5.224  0.3850  0.2742 -0.0180
12612TIP3   OH237776   3.043   5.472   5.882 -0.1312  0.2575  0.2417
12612TIP3    H137777   3.128   5.479   5.838 -0.4497  3.2961  0.0290
12612TIP3    H237778   2.990   5.417   5.825  0.5358  1.3848 -1.4898
12613TIP3   OH237779   7.279   0.115   5.737  0.1438  0.1178  0.1235
12613TIP3    H137780   7.262   0.106   5.643  0.7109 -0.2114  0.0425
12613TIP3    H237781   7.344   0.047   5.756  1.9035  1.7829  0.2498
12614TIP3   OH237782   3.252   7.231   6.601 -0.3399  0.1826 -0.0838
12614TIP3    H137783   3.202   7.226   6.519  0.1621  0.8009 -0.4361
12614TIP3    H237784   3.340   7.257   6.573 -0.1307  0.2575  0.6426
12615TIP3   OH237785   4.752   0.408   4.595  0.0614 -0.0117  0.1348
12615TIP3    H137786   4.774   0.405   4.502 -0.4451 -0.9525  0.0374
12615TIP3    H237787   4.684   0.342   4.606 -0.7406  0.9358  0.9506
12616TIP3   OH237788   5.401   6.505   5.405  0.0777  0.1656  0.2285
12616TIP3    H137789   5.331   6.517   5.341  0.3440 -0.4586 -0.1848
12616TIP3    H237790   5.462   6.577   5.388  0.9137 -0.8686 -1.2363
12617TIP3   OH237791   6.987   6.523   4.744  0.4975  0.0164 -0.9283
12617TIP3    H137792   7.055   6.508   4.679 -0.4596  0.5839 -2.0798
12617TIP3    H237793   6.988   6.617   4.760  1.2638 -0.2168  0.4859
12618TIP3   OH237794   8.432   2.196   4.684 -0.1371 -0.1209 -0.5619
12618TIP3    H137795   8.387   2.246   4.753 -0.1950 -0.3563 -0.4273
12618TIP3    H237796   8.415   2.246   4.604 -0.2857  0.0170 -0.4460
12619TIP3   OH237797   4.639   7.308   4.407  0.2074  0.8740  0.0216
12619TIP3    H137798   4.608   7.389   4.448 -0.2576  0.7675 -0.1211
12619TIP3    H237799   4.577   7.292   4.336  0.5613  0.6327 -0.2299
12620TIP3   OH237800   2.656   8.089   5.679 -0.2841 -0.3682  0.0423
12620TIP3    H137801   2.691   8.045   5.756  0.6093  0.3907  0.0745
12620TIP3    H237802   2.727   8.086   5.615 -0.9777 -0.8860 -0.7185
12621TIP3   OH237803   4.661   7.729   5.077  0.0300  0.2560 -0.1889
12621TIP3    H137804   4.588   7.734   5.140  0.5950  2.5353  0.3368
12621TIP3    H237805   4.619   7.713   4.993 -0.9070 -0.6876  0.4460
12622TIP3   OH237806   5.778   0.384   6.755  0.4677  0.5804 -0.5550
12622TIP3    H137807   5.691   0.347   6.762  1.3486 -1.6732 -1.1697
12622TIP3    H237808   5.772   0.468   6.800 -2.3293  1.0414 -1.6901
12623TIP3   OH237809   5.222   0.673   4.690 -0.5156 -0.0391  0.5861
12623TIP3    H137810   5.147   0.616   4.677 -0.9768  1.2249 -2.6372
12623TIP3    H237811   5.196   0.757   4.652  2.9273  0.0805 -1.7453
12624TIP3   OH237812   5.362   7.256   4.473 -0.6871 -0.1415  0.2932
12624TIP3    H137813   5.384   7.277   4.564  0.4912  0.9882 -0.2350
12624TIP3    H237814   5.268   7.277   4.466 -0.6221  0.4519  1.0691
12625TIP3   OH237815   2.895   7.059   2.750 -0.2821 -1.0608 -0.3378
12625TIP3    H137816   2.968   7.026   2.698  1.1951 -0.1662  1.1260
12625TIP3    H237817   2.904   7.154   2.747 -0.9880 -0.9685  0.4123
12626TIP3   OH237818   7.147   7.836   5.492 -0.0358  0.2493  0.7104
12626TIP3    H137819   7.135   7.745   5.465 -4.0624  0.8298  0.1906
12626TIP3    H237820   7.115   7.838   5.582  0.7885  0.9775  0.9856
12627TIP3   OH237821   6.308   6.892   5.680 -0.3305  0.3927  0.1445
12627TIP3    H137822   6.243   6.948   5.638 -0.1756  1.1108  0.8292
12627TIP3    H237823   6.268   6.805   5.683 -1.8290  1.0957  1.7547
12628TIP3   OH237824   7.958   6.713   3.456  0.3636 -0.6069  0.1532
12628TIP3    H137825   7.996   6.793   3.492 -1.5034 -0.1325  1.1221
12628TIP3    H237826   7.938   6.659   3.533 -2.9956  0.1086 -0.1776
12629TIP3   OH237827   1.815   6.750   6.715  0.8512 -0.1776 -0.5197
12629TIP3    H137828   1.894   6.770   6.765  1.3008 -0.9701 -0.8803
12629TIP3    H237829   1.834   6.665   6.675 -0.0631 -0.2227 -0.8706
12630TIP3   OH237830   3.847   6.337   6.224 -0.2676  0.4690  0.1669
12630TIP3    H137831   3.766   6.356   6.176 -1.5864 -1.0427  1.7591
12630TIP3    H237832   3.899   6.285   6.163 -0.8351  0.7330 -0.5505
12631TIP3   OH237833   3.785   5.977   6.192  0.5461  1.1859  0.0774
12631TIP3    H137834   3.748   6.054   6.236 -1.5763  0.8816 -1.1034
12631TIP3    H237835   3.714   5.913   6.193  2.3010 -0.8224  1.0982
12632TIP3   OH237836   5.853   0.020   3.963  1.1132  0.1348  0.4718
12632TIP3    H137837   5.868   0.113   3.979  1.6486  0.0566  0.4323
12632TIP3    H237838   5.777  -0.002   4.018 -0.2757  1.0364 -1.0252
12633TIP3   OH237839   4.082   5.193   5.006  0.4353  0.3792 -0.5280
12633TIP3    H137840   4.129   5.276   4.997  0.0554  0.6917  0.3974
12633TIP3    H237841   4.048   5.194   5.095 -0.5909 -0.2423 -0.9076
12634TIP3   OH237842   4.511   3.982   6.757  0.1064  0.0405 -0.4232
12634TIP3    H137843   4.518   3.909   6.818 -3.6383  2.9577  3.8504
12634TIP3    H237844   4.451   3.952   6.690  0.6578 -1.6684 -0.1863
12635TIP3   OH237845   4.309   7.236   6.222  0.2034 -0.1528  0.0576
12635TIP3    H137846   4.381   7.186   6.184  0.4637  0.5395 -0.3775
12635TIP3    H237847   4.351   7.311   6.264 -0.3640  1.1759 -1.6692
12636TIP3   OH237848   3.892   7.521   3.760  0.1612  0.0173 -0.2305
12636TIP3    H137849   3.872   7.511   3.853 -1.3630  0.0355 -0.5476
12636TIP3    H237850   3.921   7.611   3.751 -1.5510  0.5961 -0.0871
12637TIP3   OH237851   2.513   7.085   5.721 -0.0845  0.2848  0.4437
12637TIP3    H137852   2.480   7.138   5.794  0.6589  0.3746  0.7095
12637TIP3    H237853   2.552   7.008   5.762 -0.5035 -0.1271  0.0912
12638TIP3   OH237854   5.188   7.316   6.137  0.0085 -0.6216  0.1994
12638TIP3    H137855   5.178   7.408   6.113 -1.7447 -0.9653 -0.4157
12638TIP3    H237856   5.243   7.319   6.215  0.5946  0.8978 -0.2371
12639TIP3   OH237857   3.393   6.883   4.314 -0.2979  0.1605 -0.3817
12639TIP3    H137858   3.473   6.843   4.281 -0.2232 -0.5125  0.5822
12639TIP3    H237859   3.422   6.965   4.354 -0.0799 -0.1060  0.0089
12640TIP3   OH237860   4.145   6.932   4.697 -0.1857 -0.1238  0.0122
12640TIP3    H137861   4.184   6.930   4.610  0.7777 -0.4665  0.4542
12640TIP3    H237862   4.083   6.859   4.697 -1.4312  0.8951 -0.9534
12641TIP3   OH237863   3.197   7.764   6.809 -0.1627  0.1383  0.0112
12641TIP3    H137864   3.241   7.835   6.856 -0.0007 -1.3695  2.2126
12641TIP3    H237865   3.266   7.724   6.756  0.5903 -0.6706  1.5797
12642TIP3   OH237866   3.675   7.085   4.865 -0.5002  0.3170  0.0863
12642TIP3    H137867   3.762   7.081   4.826  0.0505  0.0215  1.3182
12642TIP3    H237868   3.616   7.099   4.791  0.5132 -0.3384 -0.8602
12643TIP3   OH237869   1.365   7.089   4.980  0.1589  0.2756 -0.3705
12643TIP3    H137870   1.330   7.000   4.984 -0.4295  0.5498  1.2526
12643TIP3    H237871   1.329   7.126   4.900  0.0260 -0.7906 -0.8135
12644TIP3   OH237872   3.986   7.724   5.247 -0.6284 -0.2219  0.5054
12644TIP3    H137873   4.014   7.670   5.172  0.4013  0.1183  0.6435
12644TIP3    H237874   3.998   7.667   5.323 -1.4928 -0.5008  0.4341
12645TIP3   OH237875   4.146   6.387   5.311  0.1089 -0.7477 -0.2334
12645TIP3    H137876   4.168   6.358   5.222 -1.9328 -1.1607 -0.6221
12645TIP3    H237877   4.054   6.412   5.306  0.7506  2.1068  1.0590
12646TIP3   OH237878   0.289   1.820   0.689  0.7140  0.0102  0.6808
12646TIP3    H137879   0.210   1.861   0.653  2.0359  0.5995 -1.6893
12646TIP3    H237880   0.355   1.890   0.687  2.3416 -1.5050 -1.1287
12647TIP3   OH237881   4.679   6.766   4.521 -0.4188 -0.1138 -0.1261
12647TIP3    H137882   4.700   6.716   4.601 -2.4966 -0.9878 -0.0867
12647TIP3    H237883   4.584   6.776   4.524 -0.4136  0.6277 -2.0520
12648TIP3   OH237884   0.435   1.502   0.080 -0.0506 -0.6771  0.2860
12648TIP3    H137885   0.475   1.587   0.063 -0.8063  0.1512  2.5454
12648TIP3    H237886   0.437   1.493   0.175 -3.4272 -1.4851  0.3436
12649TIP3   OH237887   5.748   5.041   3.821  0.5465  0.5342 -0.7968
12649TIP3    H137888   5.677   4.992   3.862  0.4661  0.5661 -0.8983
12649TIP3    H237889   5.819   4.977   3.814  0.0754  0.1241 -1.9282
12650TIP3   OH237890   3.908   6.967   6.725  0.1069 -0.2394  0.3362
12650TIP3    H137891   3.901   6.980   6.820 -0.2853 -0.6569  0.3642
12650TIP3    H237892   3.995   7.002   6.703 -0.2936  0.9683  0.6518
12651TIP3   OH237893   0.182   4.699   1.194 -0.0592 -0.5626 -0.5600
12651TIP3    H137894   0.104   4.711   1.140  0.1794 -1.4993 -1.1326
12651TIP3    H237895   0.220   4.617   1.162  0.1005 -1.1132  1.0223
12652TIP3   OH237896   5.226   0.677   5.084  0.3221  0.4470 -0.1481
12652TIP3    H137897   5.285   0.617   5.038 -0.5176 -0.3344 -0.2082
12652TIP3    H237898   5.273   0.761   5.083  1.7126 -0.2984  0.3425
12653TIP3   OH237899   3.109   7.390   5.914 -0.3526 -0.1554  0.0392
12653TIP3    H137900   3.150   7.306   5.894 -1.8394 -0.4239 -2.1800
12653TIP3    H237901   3.021   7.367   5.944  0.0970  0.5149  1.8753
12654TIP3   OH237902   3.374   7.591   6.684  0.3797 -0.6262 -0.6523
12654TIP3    H137903   3.387   7.496   6.679  0.9230 -0.4914 -2.2170
12654TIP3    H237904   3.340   7.615   6.598  1.0048  0.7106 -0.5402
12655TIP3   OH237905   3.782   6.673   6.439 -0.5194  0.0462  0.2278
12655TIP3    H137906   3.742   6.758   6.454 -0.3800  0.0659  0.4866
12655TIP3    H237907   3.715   6.623   6.392 -0.5014  0.3831 -0.1596
12656TIP3   OH237908   5.836   7.332   3.992 -0.0813  0.5690  0.2364
12656TIP3    H137909   5.873   7.348   4.079  0.5204  0.5586 -0.0105
12656TIP3    H237910   5.743   7.318   4.007 -0.4958  3.3393  0.6055
12657TIP3   OH237911   0.888   4.821   0.780  0.1935  0.0830  0.4469
12657TIP3    H137912   0.801   4.787   0.802 -0.0498  1.5902  1.8950
12657TIP3    H237913   0.949   4.755   0.814 -0.3052  0.4374  2.0652
12658TIP3   OH237914   2.260   6.519   3.195 -0.5142 -0.1735 -0.2337
12658TIP3    H137915   2.194   6.452   3.182  0.3038 -0.7215 -1.7418
12658TIP3    H237916   2.344   6.472   3.189  0.0667  0.9482 -1.2213
12659TIP3   OH237917   3.717   6.115   6.766 -0.1912 -0.3642  0.4098
12659TIP3    H137918   3.751   6.180   6.704  3.1240 -0.5516  1.9199
12659TIP3    H237919   3.691   6.041   6.711 -0.2102  0.6629 -0.9908
12660TIP3   OH237920   5.450   8.038   3.328  0.5031  0.5323  0.1093
12660TIP3    H137921   5.374   8.095   3.322 -0.1749 -0.2995  0.7285
12660TIP3    H237922   5.422   7.957   3.285  2.0002  1.2049 -2.2547
12661TIP3   OH237923   2.866   0.676   0.131 -0.3165  0.4725  0.8812
12661TIP3    H137924   2.804   0.607   0.106  0.5692  0.2965 -0.8552
12661TIP3    H237925   2.824   0.757   0.103  1.1304  0.2078 -2.2670
12662TIP3   OH237926   7.955   2.535   0.031 -0.4688  0.1150  0.0571
12662TIP3    H137927   7.888   2.602   0.015  0.5906  0.6225 -2.3525
12662TIP3    H237928   7.927   2.460  -0.022 -0.9246 -0.9205  1.7060
12663TIP3   OH237929   0.664   3.285   1.208  0.1344 -0.0658  0.1598
12663TIP3    H137930   0.758   3.302   1.215  0.2751 -1.4715  1.8602
12663TIP3    H237931   0.623   3.369   1.228  0.9884  0.1721  0.9486
12664TIP3   OH237932   4.916   7.280   5.343 -0.0954 -0.3486 -0.0600
12664TIP3    H137933   4.991   7.340   5.350  0.2849 -0.6255 -1.6502
12664TIP3    H237934   4.941   7.204   5.395  0.9537 -0.6604 -1.0075
12665TIP3   OH237935   5.242   4.215   5.038  0.2432  0.6716  0.1843
12665TIP3    H137936   5.199   4.166   4.968 -1.0910  1.4266  0.4689
12665TIP3    H237937   5.263   4.300   4.999 -1.1035  1.3412  0.8749
12666TIP3   OH237938   7.425   4.891   4.439 -0.0310 -0.0750 -0.7597
12666TIP3    H137939   7.377   4.939   4.371  0.1226 -0.5505 -1.2072
12666TIP3    H237940   7.505   4.942   4.452 -1.1288  1.3271  0.7701
12667TIP3   OH237941   0.930   1.120   1.333  0.1035 -0.0235 -0.3866
12667TIP3    H137942   0.849   1.079   1.301 -1.0710  0.4766  1.8523
12667TIP3    H237943   0.992   1.048   1.339 -0.6396 -0.6949 -0.6442
12668TIP3   OH237944   6.735   5.406   6.851  0.4889 -0.0661 -0.1358
12668TIP3    H137945   6.666   5.456   6.807 -0.3884  0.2394  1.5677
12668TIP3    H237946   6.732   5.320   6.810 -0.1665  0.2731 -0.8200
12669TIP3   OH237947   5.552   5.599   6.533 -0.1817 -0.0481 -0.2925
12669TIP3    H137948   5.509   5.590   6.448 -0.0555  1.9744 -0.5782
12669TIP3    H237949   5.526   5.685   6.566  2.9061  0.8883 -0.0968
12670TIP3   OH237950   2.346   8.005   4.704 -0.6396 -0.3162  0.0628
12670TIP3    H137951   2.364   7.948   4.629  1.4109 -0.6394  0.7676
12670TIP3    H237952   2.342   7.946   4.779 -2.2332  0.0619  0.2980
12671TIP3   OH237953   2.012   7.567   4.310 -0.4168  0.0915  0.6628
12671TIP3    H137954   2.099   7.538   4.336 -0.5466  0.0357  1.0449
12671TIP3    H237955   1.954   7.529   4.376 -0.6143  1.0323  1.0466
12672TIP3   OH237956   2.965   7.227   4.623 -0.2091  0.3162  0.6152
12672TIP3    H137957   2.884   7.279   4.623 -0.4662 -0.0023 -1.8269
12672TIP3    H237958   3.035   7.292   4.616 -0.2099  0.5897  2.6679
12673TIP3   OH237959   5.787   0.456   5.616  0.1442  0.2602 -0.0432
12673TIP3    H137960   5.821   0.520   5.553 -0.7240 -0.0794 -0.8769
12673TIP3    H237961   5.819   0.372   5.584  0.2495  0.1558  0.3402
12674TIP3   OH237962   2.622   8.077   6.763 -0.1622 -0.1988 -0.2204
12674TIP3    H137963   2.607   8.003   6.705 -1.1044  0.9465 -1.4709
12674TIP3    H237964   2.654   8.147   6.705 -0.1057  0.6322  0.7949
12675TIP3   OH237965   6.652   7.627   4.811 -0.6179 -0.4038 -0.1966
12675TIP3    H137966   6.630   7.568   4.739  1.2617 -0.9419 -0.3684
12675TIP3    H237967   6.643   7.575   4.890  2.8297 -1.5642 -0.4640
12676TIP3   OH237968   0.299   1.144   5.617  0.6743 -0.2839  0.0871
12676TIP3    H137969   0.358   1.106   5.682  1.1007 -0.9225 -0.6688
12676TIP3    H237970   0.312   1.238   5.625  0.3708 -0.3249  1.2554
12677TIP3   OH237971   6.807   0.523   4.646  0.1577  0.8429 -0.3658
12677TIP3    H137972   6.727   0.553   4.604 -0.6608 -1.3621 -0.4428
12677TIP3    H237973   6.795   0.542   4.739 -0.4157  0.6011 -0.3923
12678TIP3   OH237974   5.209   7.583   4.320  0.3016 -0.2984  0.2661
12678TIP3    H137975   5.277   7.557   4.381  0.2269  1.1827  1.0131
12678TIP3    H237976   5.233   7.672   4.293 -1.3156  0.2593  0.5519
12679TIP3   OH237977   3.024   7.138   5.531 -0.2495  0.1216 -0.7686
12679TIP3    H137978   3.112   7.114   5.560 -0.1234  0.6954 -0.6540
12679TIP3    H237979   2.973   7.142   5.612 -0.1550  0.6917 -0.7362
12680TIP3   OH237980   4.301   8.120   4.912  0.2352 -0.2262  0.0378
12680TIP3    H137981   4.379   8.138   4.965 -0.2490 -0.1958  0.7434
12680TIP3    H237982   4.249   8.060   4.965  0.6565 -1.7574 -1.2270
12681TIP3   OH237983   5.532   7.246   3.656  0.5988  0.2107 -0.5714
12681TIP3    H137984   5.451   7.295   3.671  0.2219  0.2583 -2.6738
12681TIP3    H237985   5.538   7.186   3.730 -0.6229  1.1824  0.3274
12682TIP3   OH237986   3.242   6.273   3.506  0.0898 -0.1924 -0.2312
12682TIP3    H137987   3.216   6.190   3.545  1.6168 -0.0621  1.1453
12682TIP3    H237988   3.311   6.250   3.444  2.4059  0.2550  2.0689
12683TIP3   OH237989   0.075   2.842   0.631 -0.8964  0.4522 -0.6290
12683TIP3    H137990   0.144   2.778   0.609 -0.5015  1.0562 -1.1543
12683TIP3    H237991   0.070   2.839   0.727 -1.6302 -1.1524 -0.7037
12684TIP3   OH237992   2.986   6.024   5.288  0.3237  0.2166  0.1492
12684TIP3    H137993   3.016   6.094   5.345 -0.4723  0.5059  0.2109
12684TIP3    H237994   2.938   6.068   5.218  2.8147  0.0319 -1.7629
12685TIP3   OH237995   4.325   6.048   4.065 -0.1001 -0.4732  0.1026
12685TIP3    H137996   4.245   5.997   4.065 -0.6478  0.3896  0.8784
12685TIP3    H237997   4.391   5.990   4.104 -0.5901 -0.7821  0.4681
12686TIP3   OH237998   5.972   7.525   6.585 -0.7777 -0.3566  0.2431
12686TIP3    H137999   5.887   7.497   6.552 -1.0629 -0.2179  0.8594
12686TIP3    H238000   5.957   7.615   6.615  0.0952  0.4643 -1.6290
12687TIP3   OH238001   1.844   4.997   3.420 -0.3951  0.5978 -0.2959
12687TIP3    H138002   1.918   5.056   3.429  0.2075  0.1490 -2.1237
12687TIP3    H238003   1.866   4.923   3.477  0.2943  0.7388 -0.3717
12688TIP3   OH238004   5.971   6.078   4.695  0.3963  0.2751 -0.2003
12688TIP3    H138005   5.908   6.151   4.692 -0.0057  0.1072  2.6967
12688TIP3    H238006   5.968   6.048   4.786  1.0618 -2.9398 -1.1989
12689TIP3   OH238007   4.060   7.003   5.448 -0.5139  0.7649  0.2285
12689TIP3    H138008   4.068   7.090   5.487 -0.2102  0.3842  1.0230
12689TIP3    H238009   4.076   6.942   5.520 -3.5161  0.0026  0.3329
12690TIP3   OH238010   2.044   0.173   4.272  0.5254  0.2897 -0.1497
12690TIP3    H138011   2.004   0.103   4.219  0.8731 -0.0028 -0.0300
12690TIP3    H238012   2.137   0.167   4.253  0.4343  1.5065 -1.0549
12691TIP3   OH238013   4.523   5.887   6.752 -0.2368  0.0396  0.5252
12691TIP3    H138014   4.591   5.950   6.728 -0.4478  0.5868  1.3503
12691TIP3    H238015   4.441   5.936   6.744 -0.5422 -0.6307 -0.5081
12692TIP3   OH238016   6.347   6.985   6.431  0.0539  0.6981  0.2815
12692TIP3    H138017   6.281   6.998   6.499 -0.7562  0.9540 -0.5440
12692TIP3    H238018   6.299   6.949   6.357  0.8548  0.7986 -0.2980
12693TIP3   OH238019   4.604   6.378   5.452 -0.0947 -0.5024  0.1449
12693TIP3    H138020   4.562   6.429   5.382 -2.7427  0.1187  2.0731
12693TIP3    H238021   4.561   6.292   5.447 -0.8440 -0.2097  1.4580
12694TIP3   OH238022   4.252   5.996   6.787 -0.5647  0.5372 -0.7929
12694TIP3    H138023   4.228   6.086   6.808 -0.1029  0.0371  2.1992
12694TIP3    H238024   4.250   5.951   6.872 -1.1206 -2.3481 -2.2851
12695TIP3   OH238025   3.654   5.378   5.485  0.1838 -0.0392 -0.1227
12695TIP3    H138026   3.668   5.323   5.408 -0.4230 -0.2129 -0.1103
12695TIP3    H238027   3.596   5.448   5.454 -0.7157 -0.5613  0.3830
12696TIP3   OH238028   5.981   4.986   6.180 -0.2446  0.6526 -0.6215
12696TIP3    H138029   5.911   4.923   6.165 -1.4138  1.2659  2.1136
12696TIP3    H238030   6.049   4.936   6.225 -0.0437  0.7228 -0.8429
12697TIP3   OH238031   4.677   5.155   6.309  0.0559  0.1961 -0.2238
12697TIP3    H138032   4.735   5.210   6.259 -1.1270  1.3124 -0.3950
12697TIP3    H238033   4.727   5.075   6.325  0.7773  0.1910 -2.3635
12698TIP3   OH238034   3.012   6.480   4.100 -0.4368 -0.3938  0.2234
12698TIP3    H138035   3.076   6.523   4.157 -1.9277 -1.6049  2.9030
12698TIP3    H238036   3.022   6.387   4.119 -2.1204 -0.6822 -0.2677
12699TIP3   OH238037   2.755   6.831   4.973 -0.2437 -0.6105  0.4107
12699TIP3    H138038   2.826   6.815   4.911 -0.7045 -0.9099 -0.0395
12699TIP3    H238039   2.795   6.817   5.059  1.1721  2.6323  0.3441
12700TIP3   OH238040   3.189   5.803   5.875  0.1873 -0.4784 -0.3463
12700TIP3    H138041   3.214   5.711   5.879 -1.2261 -0.8007  1.5650
12700TIP3    H238042   3.214   5.838   5.960 -1.8547  0.2084 -0.0054
12701TIP3   OH238043   1.973   6.481   6.051 -0.3092  0.0884  0.2520
12701TIP3    H138044   1.968   6.525   5.966 -0.3001 -0.2369  0.0832
12701TIP3    H238045   2.061   6.500   6.083  0.0019 -0.5466 -0.2217
12702TIP3   OH238046   5.188   6.511   4.761  0.2049 -0.3950 -0.0185
12702TIP3    H138047   5.157   6.424   4.786  0.3202 -1.0730 -2.1285
12702TIP3    H238048   5.189   6.510   4.665  2.4173  1.1534 -0.0639
12703TIP3   OH238049   3.512   7.343   5.432 -0.0799  0.3795 -0.0981
12703TIP3    H138050   3.561   7.418   5.464  0.5990  0.6430 -1.7099
12703TIP3    H238051   3.420   7.368   5.440  0.1082  0.8537  0.6006
12704TIP3   OH238052   4.079   4.887   4.587  0.1109  0.8391 -0.5681
12704TIP3    H138053   4.159   4.937   4.568  0.8212  0.3047  0.8723
12704TIP3    H238054   4.064   4.901   4.681  0.0985 -1.2998 -0.2126
12705TIP3   OH238055   5.992   6.358   5.592 -0.6849  0.5447  0.8367
12705TIP3    H138056   6.003   6.341   5.499 -0.0670  0.3246  0.9466
12705TIP3    H238057   5.917   6.418   5.597 -1.4468 -0.3442  0.2861
12706TIP3   OH238058   1.845   7.090   5.173  0.0445  0.1110  0.5368
12706TIP3    H138059   1.827   7.155   5.241  0.7076  0.7190  0.1359
12706TIP3    H238060   1.906   7.029   5.214  0.4484  0.4808  0.4878
12707TIP3   OH238061   3.195   7.477   4.981 -0.1198 -0.0473 -0.1719
12707TIP3    H138062   3.156   7.490   4.894 -0.7272 -0.5480  0.0205
12707TIP3    H238063   3.258   7.406   4.969  0.8536  0.8742 -0.5196
12708TIP3   OH238064   4.532   6.075   6.306 -0.4032 -0.3328 -0.0229
12708TIP3    H138065   4.500   6.114   6.387  0.0787  1.1594 -0.5480
12708TIP3    H238066   4.468   6.006   6.286 -0.7295 -0.4576  1.4178
12709TIP3   OH238067   3.688   8.000   4.255  0.4347  0.2380 -0.0642
12709TIP3    H138068   3.744   7.955   4.192 -1.0522 -0.2164 -1.0812
12709TIP3    H238069   3.599   7.992   4.219 -0.0060  2.9757  0.3256
12710TIP3   OH238070   3.137   4.744   5.812  0.2923 -0.5824 -0.0204
12710TIP3    H138071   3.224   4.722   5.779  0.1913  0.0022 -0.6963
12710TIP3    H238072   3.152   4.822   5.867  0.4555 -1.5350  1.3007
12711TIP3   OH238073   3.010   7.380   3.996  0.4085  0.0336  0.2033
12711TIP3    H138074   3.005   7.418   3.909 -0.3063 -1.0481 -0.2394
12711TIP3    H238075   3.032   7.454   4.054  1.6267  0.6197 -0.9779
12712TIP3   OH238076   4.911   0.487   5.440 -0.1577  0.2975 -0.0573
12712TIP3    H138077   4.991   0.512   5.394  0.4459 -0.6092  0.4817
12712TIP3    H238078   4.880   0.568   5.479 -0.7544  1.1095 -2.1467
12713TIP3   OH238079   4.922   5.866   4.949  0.4472  0.2972 -0.3296
12713TIP3    H138080   4.877   5.935   4.899 -0.2584 -0.6024 -0.9561
12713TIP3    H238081   4.878   5.785   4.923  0.8769 -0.3296  0.8490
12714TIP3   OH238082   6.808   4.687   4.596 -0.4243 -0.3124  0.2370
12714TIP3    H138083   6.764   4.680   4.682  1.1179  0.2398  1.0840
12714TIP3    H238084   6.744   4.733   4.541 -2.1100 -2.1423  0.6000
12715TIP3   OH238085   3.034   5.759   6.173 -0.1428 -0.2511  0.0049
12715TIP3    H138086   2.996   5.776   6.087 -0.1862  0.0699  0.0868
12715TIP3    H238087   3.119   5.803   6.171  0.9307 -2.2858 -0.7372
12716TIP3   OH238088   5.017   5.394   4.227  0.5580 -0.5490 -0.2437
12716TIP3    H138089   5.012   5.387   4.323 -0.6293  0.0049 -0.2517
12716TIP3    H238090   5.030   5.304   4.197 -0.5923 -0.9334  0.3717
12717TIP3   OH238091   1.724   6.045   5.409  0.3641  0.3868 -0.3348
12717TIP3    H138092   1.745   5.952   5.400  1.2872  0.4087  1.4327
12717TIP3    H238093   1.701   6.073   5.320  2.8904 -0.8321 -1.4128
12718TIP3   OH238094   4.740   6.385   4.234  0.1286  0.1378  0.2256
12718TIP3    H138095   4.809   6.362   4.172  0.7606  0.3363  0.8462
12718TIP3    H238096   4.687   6.306   4.242  1.0006 -0.4187  0.6713
12719TIP3   OH238097   3.182   6.366   4.565  0.0302  0.2532  0.3432
12719TIP3    H138098   3.241   6.341   4.494  0.2881  0.7367  0.3862
12719TIP3    H238099   3.126   6.289   4.578 -0.9730  0.6740 -1.3461
12720TIP3   OH238100   1.519   2.307   2.171 -0.0912  0.2055 -0.7199
12720TIP3    H138101   1.470   2.361   2.234  0.7754  0.3694 -0.1884
12720TIP3    H238102   1.459   2.235   2.151  0.1705 -0.6214  1.3784
12721TIP3   OH238103   5.976   5.938   5.658  0.1472  0.0211  0.1276
12721TIP3    H138104   5.931   5.999   5.717  0.5637  0.9342 -0.4940
12721TIP3    H238105   5.910   5.871   5.639 -0.6362  0.7990  0.0422
12722TIP3   OH238106   1.605   6.820   3.709 -0.0686 -0.0514  0.0372
12722TIP3    H138107   1.575   6.889   3.649 -0.2556 -1.3304 -1.3508
12722TIP3    H238108   1.527   6.797   3.759  0.0034  0.7552  0.5422
12723TIP3   OH238109   4.232   6.765   4.450  0.3233  0.0632 -0.0691
12723TIP3    H138110   4.246   6.774   4.356  1.4449 -0.7515  0.0157
12723TIP3    H238111   4.147   6.722   4.458  0.7387 -0.8851 -0.7327
12724TIP3   OH238112   2.582   5.718   5.000 -0.8195 -0.0437  0.0250
12724TIP3    H138113   2.543   5.648   4.946  0.2585 -1.1359  0.6434
12724TIP3    H238114   2.519   5.730   5.071 -1.1585 -0.1747 -0.2496
12725TIP3   OH238115   3.506   6.397   3.292 -0.4364 -0.4226 -0.3170
12725TIP3    H138116   3.434   6.398   3.228 -0.5334  0.2095 -0.2068
12725TIP3    H238117   3.495   6.479   3.340  0.8363  0.0499 -0.8219
12726TIP3   OH238118   5.019   6.568   5.647  0.2307 -0.0625  0.2217
12726TIP3    H138119   4.937   6.603   5.681 -0.4905  1.2314 -2.7140
12726TIP3    H238120   4.994   6.486   5.603  0.5620  0.1207 -0.3153
12727TIP3   OH238121   6.158   0.894   4.754  0.1696  0.0397  0.0991
12727TIP3    H138122   6.227   0.947   4.793 -1.2847  2.2372 -0.2439
12727TIP3    H238123   6.130   0.943   4.677  0.4363 -2.4238 -1.6514
12728TIP3   OH238124   3.130   1.259   0.902  0.4460 -0.7387  0.0521
12728TIP3    H138125   3.080   1.259   0.820 -1.0229  0.7740  0.9211
12728TIP3    H238126   3.184   1.181   0.897 -1.3095 -1.9039 -1.3473
12729TIP3   OH238127   5.418   0.722   2.543 -0.5523 -0.5232  0.0630
12729TIP3    H138128   5.445   0.812   2.561  1.6074 -1.1033 -0.0688
12729TIP3    H238129   5.399   0.721   2.449 -0.2673 -0.2678  0.0017
12730TIP3   OH238130   3.479   5.842   4.394 -0.0162 -0.2989 -0.7772
12730TIP3    H138131   3.384   5.830   4.396  0.1622 -1.7772 -0.5836
12730TIP3    H238132   3.509   5.788   4.322  0.7878 -0.7111 -0.1449
12731TIP3   OH238133   5.386   7.636   4.880  0.7153  0.1184 -0.3105
12731TIP3    H138134   5.391   7.732   4.885 -2.4705  0.2529  1.6099
12731TIP3    H238135   5.397   7.607   4.971 -2.6660 -1.0236 -0.2052
12732TIP3   OH238136   3.799   6.880   5.894  0.2865  0.3722  0.1522
12732TIP3    H138137   3.811   6.799   5.844  0.2702  0.2682  0.3167
12732TIP3    H238138   3.860   6.872   5.968  2.0746  1.5970 -1.1525
12733TIP3   OH238139   5.602   6.679   5.359 -0.0176 -0.4244 -0.0960
12733TIP3    H138140   5.577   6.725   5.439  1.0875 -0.4839  0.3028
12733TIP3    H238141   5.663   6.738   5.315 -2.2824  0.5717 -2.0235
12734TIP3   OH238142   5.134   7.415   4.656 -0.1553  0.4251 -0.0490
12734TIP3    H138143   5.072   7.416   4.729 -0.1925  0.9044 -0.0849
12734TIP3    H238144   5.093   7.357   4.591 -0.6329  0.8384 -0.1252
12735TIP3   OH238145   4.660   6.591   3.803  0.4834 -0.0287  0.2152
12735TIP3    H138146   4.604   6.669   3.808 -0.0256 -0.2961 -1.1402
12735TIP3    H238147   4.746   6.622   3.830 -0.6103  0.0414  4.0050
12736TIP3   OH238148   4.982   6.972   3.761  0.2876 -0.3176  0.2609
12736TIP3    H138149   5.039   7.047   3.746  0.2095 -0.3229 -0.0719
12736TIP3    H238150   4.894   7.009   3.766  0.2528 -0.3825  0.1277
12737TIP3   OH238151   3.876   6.138   3.889  0.0092 -0.1207 -0.2981
12737TIP3    H138152   3.926   6.188   3.824  1.3564  0.3333  1.0484
12737TIP3    H238153   3.788   6.174   3.884 -0.1040 -0.6117 -2.3963
12738TIP3   OH238154   4.688   6.736   5.742 -0.5019  0.2541 -0.6491
12738TIP3    H138155   4.594   6.722   5.750 -0.7914  2.8295  1.0550
12738TIP3    H238156   4.725   6.696   5.821 -0.2466 -0.0382 -0.9160
12739TIP3   OH238157   0.853   0.099   6.112  0.7567  0.7749 -1.0469
12739TIP3    H138158   0.852   0.105   6.016 -0.8176  1.8335 -0.9899
12739TIP3    H238159   0.787   0.032   6.132  1.0217  0.6175 -0.7082
12740TIP3   OH238160   0.330   0.512   6.616  0.2583 -0.1441 -0.1984
12740TIP3    H138161   0.257   0.515   6.554  0.3273  0.5884 -0.2415
12740TIP3    H238162   0.306   0.574   6.686 -0.0966 -1.3966  0.8152
12741TIP3   OH238163   6.308   6.741   5.104  0.2691  0.0930  0.4606
12741TIP3    H138164   6.270   6.811   5.051 -3.2576 -1.9170  0.1940
12741TIP3    H238165   6.373   6.701   5.046  0.7945  1.7576 -0.1310
12742TIP3   OH238166   4.634   3.516   4.876  0.5124  0.3820  0.5523
12742TIP3    H138167   4.551   3.544   4.915  1.2795  0.3162  2.2382
12742TIP3    H238168   4.687   3.595   4.872  0.2925  0.4884 -0.8150
12743TIP3   OH238169   4.673   6.135   6.761  0.2707 -0.5779  0.3995
12743TIP3    H138170   4.757   6.093   6.740  0.8143 -0.4105  2.1205
12743TIP3    H238171   4.698   6.219   6.800 -0.7489  0.2131 -0.6234
12744TIP3   OH238172   6.277   6.261   2.625 -0.5544  0.2674 -0.0512
12744TIP3    H138173   6.335   6.204   2.575 -1.7709 -2.1895  1.2562
12744TIP3    H238174   6.328   6.284   2.703 -1.3199 -1.9811  1.1518
12745TIP3   OH238175   4.319   5.907   5.114 -0.1026  0.0059  0.3254
12745TIP3    H138176   4.338   5.896   5.207  2.4508 -0.0818 -0.1726
12745TIP3    H238177   4.364   5.988   5.090 -0.4362 -0.1667 -0.9097
12746TIP3   OH238178   4.321   3.929   4.894 -0.7612  0.1695 -0.4784
12746TIP3    H138179   4.234   3.960   4.868 -0.4935 -0.0777 -1.6971
12746TIP3    H238180   4.378   4.005   4.883 -0.5271 -0.1133 -1.2636
12747TIP3   OH238181   6.013   6.189   4.165  0.2364 -0.5018 -0.1217
12747TIP3    H138182   5.919   6.192   4.183 -0.1209  1.8334 -2.1139
12747TIP3    H238183   6.020   6.135   4.087  0.5341 -0.5109 -0.0874
12748TIP3   OH238184   3.979   6.069   5.423 -0.4659  0.0497 -0.0647
12748TIP3    H138185   4.035   6.113   5.487 -1.3868  0.7944  0.2472
12748TIP3    H238186   4.021   5.985   5.408 -1.1987 -0.9367  2.9494
12749TIP3   OH238187   6.499   7.880   5.358 -0.1621 -0.2305 -0.6573
12749TIP3    H138188   6.487   7.954   5.298  1.9571  0.6932 -0.0015
12749TIP3    H238189   6.421   7.826   5.346 -1.7709  2.1262 -1.1201
12750TIP3   OH238190   5.115   7.139   5.903 -0.3282 -0.5269 -0.3004
12750TIP3    H138191   5.126   7.196   5.979  1.3693  0.2371 -1.1058
12750TIP3    H238192   5.118   7.050   5.940 -1.5391 -0.1542  0.7575
12751TIP3   OH238193   7.612   6.101   4.257 -0.3507 -0.6135 -0.1237
12751TIP3    H138194   7.672   6.167   4.291  0.7399 -0.5983 -2.0618
12751TIP3    H238195   7.620   6.028   4.319  1.7289 -0.6528 -0.4076
12752TIP3   OH238196   4.289   5.732   5.956  0.1895 -0.2230 -0.1767
12752TIP3    H138197   4.338   5.695   5.883  0.2479  1.7467 -1.1419
12752TIP3    H238198   4.197   5.730   5.928  0.3628  2.0464 -1.0120
12753TIP3   OH238199   6.459   6.622   5.787  0.5716 -0.0825 -0.1081
12753TIP3    H138200   6.473   6.717   5.782 -0.5069  0.1523  0.8981
12753TIP3    H238201   6.365   6.613   5.804  1.0166 -1.2468  1.8795
12754TIP3   OH238202   5.879   5.526   3.592  0.3293 -0.2127 -0.0243
12754TIP3    H138203   5.820   5.569   3.654 -0.4572 -1.7005  0.2778
12754TIP3    H238204   5.852   5.434   3.593  1.0608 -0.4584 -1.7165
12755TIP3   OH238205   8.431   7.029   3.038  0.2427  0.0126  0.1617
12755TIP3    H138206   8.380   7.104   3.067 -0.2803 -0.6871  1.0888
12755TIP3    H238207   8.375   6.985   2.974  0.4090  0.2256 -0.1286
12756TIP3   OH238208   6.331   6.753   4.035  0.3386  0.0327  0.2306
12756TIP3    H138209   6.390   6.797   4.097  1.8831 -0.9899 -0.4782
12756TIP3    H238210   6.386   6.688   3.991 -1.2683 -0.7795 -0.6425
12757TIP3   OH238211   6.225   5.833   3.519 -0.7568  0.3792 -0.3847
12757TIP3    H138212   6.159   5.804   3.457 -1.4555 -0.8658  0.8998
12757TIP3    H238213   6.281   5.756   3.532  0.1781  1.0353 -0.4915
12758TIP3   OH238214   6.771   6.724   5.100 -0.5192  0.6467  0.5106
12758TIP3    H138215   6.730   6.666   5.164 -0.3623  1.7401  1.6140
12758TIP3    H238216   6.861   6.694   5.093 -0.5996  0.3793  0.6386
12759TIP3   OH238217   5.270   5.748   5.233  0.3005  0.0524 -0.3243
12759TIP3    H138218   5.357   5.716   5.255  0.2156  0.0605  0.0301
12759TIP3    H238219   5.227   5.762   5.318 -0.8050 -2.0882 -0.4805
12760TIP3   OH238220   6.377   5.508   3.250  0.1454  0.3494  0.2833
12760TIP3    H138221   6.453   5.533   3.198 -0.7278 -1.5951 -2.0307
12760TIP3    H238222   6.311   5.574   3.230  1.1219  1.9920  2.2316
12761TIP3   OH238223   7.032   6.666   5.059  0.0698 -0.6497 -0.4303
12761TIP3    H138224   7.049   6.758   5.037 -0.9093 -0.2112  0.5670
12761TIP3    H238225   7.118   6.632   5.085  0.4475 -0.0202 -0.8447
12762TIP3   OH238226   5.017   6.296   4.778 -0.0027  0.6081 -0.0887
12762TIP3    H138227   4.965   6.228   4.821  0.1440 -0.4129 -1.4702
12762TIP3    H238228   4.953   6.355   4.739 -0.1351  0.7225  0.3072
12763TIP3   OH238229   5.756   5.949   6.220  0.4785  0.1460  0.2252
12763TIP3    H138230   5.702   6.021   6.188  0.3871  0.2843  0.6718
12763TIP3    H238231   5.795   5.910   6.142  0.7452  0.8594 -0.0025
12764TIP3   OH238232   7.114   5.636   4.210 -0.2170  0.3256  0.0094
12764TIP3    H138233   7.144   5.583   4.284 -0.9594 -0.3468 -0.1695
12764TIP3    H238234   7.022   5.612   4.199 -0.1551  0.5526 -1.0201
12765TIP3   OH238235   6.880   7.378   4.562 -0.0161  0.1579 -0.0744
12765TIP3    H138236   6.878   7.457   4.509  1.1661  0.7620  0.7458
12765TIP3    H238237   6.973   7.357   4.570 -0.3189 -1.3050 -0.2702
12766TIP3   OH238238   6.000   4.971   4.587  0.2169 -0.1958  0.3608
12766TIP3    H138239   5.985   4.982   4.681 -0.6473  0.7718  0.1139
12766TIP3    H238240   6.045   5.051   4.560 -2.2850  0.9476 -0.6217
12767TIP3   OH238241   0.878   0.401   4.557 -0.2017 -0.0139 -0.2545
12767TIP3    H138242   0.831   0.480   4.528 -1.4860  0.1221  2.0261
12767TIP3    H238243   0.811   0.333   4.560  0.5674 -0.7926 -0.6748
12768TIP3   OH238244   8.514   0.672   6.047  0.2824  0.4483 -0.8284
12768TIP3    H138245   8.460   0.654   6.125  0.9699 -1.3347 -0.7473
12768TIP3    H238246   8.450   0.683   5.977 -0.2455 -0.9351 -0.5882
12769TIP3   OH238247   7.834   0.796   4.312  0.6587  0.2318 -0.1040
12769TIP3    H138248   7.836   0.892   4.306 -1.7982  0.2373 -1.3038
12769TIP3    H238249   7.859   0.766   4.225  2.0692 -0.2606  0.4511
12770TIP3   OH238250   6.463   6.909   3.830 -0.2085  0.0051 -0.1205
12770TIP3    H138251   6.385   6.870   3.790  0.7052 -2.7745  0.6719
12770TIP3    H238252   6.528   6.909   3.759 -0.0836 -0.3709 -0.0118
12771TIP3   OH238253   1.370   1.478   5.034 -0.1858  0.0071 -0.7020
12771TIP3    H138254   1.347   1.407   5.093 -0.9306  1.3783  0.7116
12771TIP3    H238255   1.289   1.528   5.024  0.5534  1.1788 -0.9168
12772TIP3   OH238256   0.074   0.238   5.000  0.3594  0.3676  0.2962
12772TIP3    H138257   0.015   0.197   5.064  0.1087 -0.5538 -0.5023
12772TIP3    H238258   0.073   0.331   5.022  0.8647 -0.0237  2.1006
12773TIP3   OH238259   6.294   6.727   4.421  0.4460 -0.4338  0.4620
12773TIP3    H138260   6.236   6.672   4.475  0.0578  0.2851  0.7843
12773TIP3    H238261   6.261   6.816   4.434 -0.2003 -0.3403 -1.6462
12774TIP3   OH238262   3.833   6.322   5.341 -0.4013 -0.1621 -0.2769
12774TIP3    H138263   3.784   6.340   5.261 -1.0046 -0.7067 -0.0427
12774TIP3    H238264   3.878   6.239   5.324  1.7205  1.1084 -1.0627
12775TIP3   OH238265   5.208   6.731   4.510 -0.4745  0.2579 -0.2704
12775TIP3    H138266   5.113   6.740   4.501 -0.7151  0.2817  1.9557
12775TIP3    H238267   5.231   6.659   4.450 -1.9217  0.0810 -0.6445
12776TIP3   OH238268   4.103   6.783   5.622 -0.2605  0.4999  0.1142
12776TIP3    H138269   4.129   6.711   5.565  0.7762  1.4242 -0.5934
12776TIP3    H238270   4.024   6.751   5.667 -1.1634 -0.1773 -1.9100
12777TIP3   OH238271   6.462   7.524   2.560  0.6240  0.0584 -0.1343
12777TIP3    H138272   6.478   7.436   2.595 -1.8819  0.3306  1.8022
12777TIP3    H238273   6.403   7.510   2.486  0.2393  0.0953  0.1632
12778TIP3   OH238274   6.599   7.138   5.958  0.3443  0.0520 -0.1952
12778TIP3    H138275   6.665   7.205   5.938 -0.8892  1.9016  1.7378
12778TIP3    H238276   6.522   7.164   5.907  0.1598 -0.4256 -0.1654
12779TIP3   OH238277   6.112   6.497   5.294  0.0369 -0.1552 -0.1004
12779TIP3    H138278   6.044   6.563   5.279  0.1048 -0.2319 -0.7618
12779TIP3    H238279   6.163   6.496   5.213  1.4794  0.6388  0.7650
12780TIP3   OH238280   5.739   6.850   3.039 -0.7399 -0.3100 -0.2054
12780TIP3    H138281   5.717   6.941   3.057 -2.3525 -1.0488  1.6952
12780TIP3    H238282   5.833   6.851   3.022 -0.5620  1.5752  0.7901
12781TIP3   OH238283   4.319   5.187   3.629  0.2517  0.1641  0.2735
12781TIP3    H138284   4.381   5.141   3.685  2.0648  1.1894 -0.8224
12781TIP3    H238285   4.294   5.264   3.679  0.4633  0.1335  0.4277
12782TIP3   OH238286   8.411   0.960   7.013 -0.4165 -0.7345  0.2082
12782TIP3    H138287   8.413   0.905   6.935 -1.2054  0.7726 -0.8847
12782TIP3    H238288   8.501   0.956   7.047  0.2331 -0.4901 -1.4247
12783TIP3   OH238289   8.546   4.761   5.277  0.3257 -0.1106 -0.0080
12783TIP3    H138290   8.554   4.723   5.365  1.5838  1.1348  0.4301
12783TIP3    H238291   8.452   4.761   5.259  0.3227 -4.4860 -0.5129
12784TIP3   OH238292   1.610   1.515   5.604 -0.0474 -0.0335 -0.2328
12784TIP3    H138293   1.699   1.546   5.593 -0.3295  0.0972 -2.3452
12784TIP3    H238294   1.598   1.508   5.699  1.9029  0.7746  0.0865
12785TIP3   OH238295   7.544   6.265   4.854  0.8211 -0.3859 -0.0571
12785TIP3    H138296   7.588   6.198   4.905  1.0173  0.0548  0.3595
12785TIP3    H238297   7.519   6.221   4.773  0.6680 -1.0375  0.3448
12786TIP3   OH238298   6.067   3.984   5.692  0.0627 -0.1562  0.1780
12786TIP3    H138299   6.104   3.998   5.605  0.1842  1.2898  0.4493
12786TIP3    H238300   6.069   3.889   5.704 -0.3588 -0.4101 -1.5667
12787TIP3   OH238301   8.469   7.009   2.671  0.0070  0.0347 -0.2278
12787TIP3    H138302   8.543   6.976   2.723 -0.3656 -0.6100 -0.1048
12787TIP3    H238303   8.441   6.933   2.619 -0.4022  0.3536 -0.4722
12788TIP3   OH238304   7.006   0.083   2.788 -0.4277  0.0151  0.3242
12788TIP3    H138305   7.063   0.159   2.803  0.4046 -0.4156 -0.5922
12788TIP3    H238306   6.919   0.114   2.812 -0.0656  1.2117  0.1512
12789TIP3   OH238307   5.079   5.559   5.153  0.1829  0.2150 -0.3683
12789TIP3    H138308   5.113   5.484   5.105  0.9654  1.7823 -2.3419
12789TIP3    H238309   5.158   5.606   5.181 -0.2977  0.3735  0.7263
12790TIP3   OH238310   3.585   5.713   4.192 -0.4593 -0.0852  0.1814
12790TIP3    H138311   3.518   5.714   4.124  0.3542 -1.7814 -0.6631
12790TIP3    H238312   3.668   5.721   4.145  0.0359  0.1135  1.0749
12791TIP3   OH238313   5.775   6.293   3.745  0.0857 -0.0160  0.3595
12791TIP3    H138314   5.817   6.304   3.659 -0.7185 -1.0759 -0.1711
12791TIP3    H238315   5.682   6.287   3.726 -0.3604  2.4285  1.5440
12792TIP3   OH238316   5.486   7.310   4.990  0.2928 -0.1586 -0.0369
12792TIP3    H138317   5.490   7.401   5.018 -1.0265 -0.1926  0.2592
12792TIP3    H238318   5.501   7.259   5.070  0.1771 -0.2094 -0.0468
12793TIP3   OH238319   2.873   6.794   3.927  0.1108 -1.1499 -0.3782
12793TIP3    H138320   2.805   6.852   3.892 -1.1435 -1.1823  1.9028
12793TIP3    H238321   2.954   6.844   3.918 -0.6251  0.0290 -0.5433
12794TIP3   OH238322   0.427   0.397   7.040 -0.2104  0.3291  0.1910
12794TIP3    H138323   0.440   0.492   7.046 -1.4037  0.4971  0.2308
12794TIP3    H238324   0.490   0.368   6.974  2.3617  0.6885  2.4127
12795TIP3   OH238325   4.951   6.022   4.534  0.1586  0.1901  0.8772
12795TIP3    H138326   5.017   6.054   4.596 -0.5120 -0.3901  1.8975
12795TIP3    H238327   4.872   6.071   4.556 -0.4896 -1.1036  1.5044
12796TIP3   OH238328   4.895   4.932   4.884  0.2799 -0.4811 -0.0628
12796TIP3    H138329   4.934   5.007   4.930  1.1083 -2.0931  1.9221
12796TIP3    H238330   4.964   4.901   4.826  0.1208 -0.0185 -0.4944
12797TIP3   OH238331   7.019   6.317   4.955 -0.0539 -0.0875 -0.1561
12797TIP3    H138332   7.047   6.405   4.930  0.6877 -0.2848 -0.0438
12797TIP3    H238333   6.955   6.292   4.888  0.1133  0.3354 -0.4756
12798TIP3   OH238334   4.745   5.486   4.190  0.4549  0.0870  0.9074
12798TIP3    H138335   4.705   5.468   4.275  2.9232  0.8167  2.2700
12798TIP3    H238336   4.838   5.467   4.203  0.8373 -0.0559 -1.7244
12799TIP3   OH238337   6.219   6.052   2.817  0.9446  0.0655 -0.3366
12799TIP3    H138338   6.163   6.122   2.851  0.6640  0.3383 -1.3312
12799TIP3    H238339   6.215   6.063   2.722  0.7321 -1.4398 -0.5092
12800TIP3   OH238340   6.284   6.459   4.976 -0.1799  0.6051  0.2926
12800TIP3    H138341   6.372   6.488   5.001 -0.4945  0.1817  1.9633
12800TIP3    H238342   6.282   6.366   4.997 -0.5114  0.2461 -1.2448
12801TIP3   OH238343   6.221   6.998   2.729 -0.1253 -0.5120  0.0357
12801TIP3    H138344   6.169   6.934   2.680 -1.6296  2.1442 -1.9959
12801TIP3    H238345   6.157   7.062   2.759  1.5197  0.8944  0.6249
12802TIP3   OH238346   5.867   6.546   5.139  0.5547 -0.2190  0.1437
12802TIP3    H138347   5.896   6.569   5.051  0.5212  2.3390  0.7494
12802TIP3    H238348   5.772   6.540   5.134  0.7396 -3.0545 -0.6193
12803TIP3   OH238349   0.562   3.621   1.147  0.5027 -0.3250  0.2059
12803TIP3    H138350   0.482   3.670   1.164  0.4260 -0.1141 -0.7326
12803TIP3    H238351   0.535   3.551   1.088  0.9524 -0.4239  0.1133
12804TIP3   OH238352   4.917   6.509   4.391 -0.2267  0.0032  0.0263
12804TIP3    H138353   4.912   6.603   4.379 -0.8768 -0.1977 -1.4855
12804TIP3    H238354   4.847   6.474   4.335  0.8064 -1.4256 -0.4229
12805TIP3   OH238355   3.910   5.157   6.766 -0.2371 -0.1760  1.1492
12805TIP3    H138356   3.935   5.078   6.814 -2.1001  0.9826  4.1418
12805TIP3    H238357   3.824   5.136   6.728  1.3879 -1.2221 -2.1405
12806TIP3   OH238358   4.465   6.545   5.880 -0.3265 -0.3363 -0.5304
12806TIP3    H138359   4.379   6.510   5.904 -0.2439 -0.8026 -0.9062
12806TIP3    H238360   4.513   6.469   5.845 -0.2972  0.2235 -1.7431
12807TIP3   OH238361   3.954   6.445   5.053  0.3122  0.1330  0.1096
12807TIP3    H138362   3.886   6.450   5.120  0.0855 -0.0944 -0.1035
12807TIP3    H238363   3.906   6.434   4.971  0.5894  0.4060 -0.0899
12808TIP3   OH238364   5.159   5.945   6.100 -0.7899  0.1783 -0.1139
12808TIP3    H138365   5.159   5.855   6.132 -2.1638  0.0279 -0.5197
12808TIP3    H238366   5.207   5.994   6.167  0.7787 -0.9955 -0.3511
12809TIP3   OH238367   2.008   0.991   0.022 -0.1564  0.2346 -0.6301
12809TIP3    H138368   2.103   0.997   0.010 -0.1274  0.8220 -0.1646
12809TIP3    H238369   1.981   1.079   0.047 -0.9089  0.1959 -1.2811
12810TIP3   OH238370   5.949   7.563   4.426  0.0438 -0.2068 -0.4804
12810TIP3    H138371   5.955   7.637   4.365 -0.0033 -1.7072 -2.3600
12810TIP3    H238372   5.861   7.569   4.463  0.4746  1.3829  0.3399
12811TIP3   OH238373   6.702   0.087   3.097 -0.7608 -0.0251 -0.6241
12811TIP3    H138374   6.760   0.142   3.151 -1.0869  0.3890 -0.6948
12811TIP3    H238375   6.749   0.004   3.089 -0.2707  0.2380 -0.5035
12812TIP3   OH238376   3.668   7.363   1.149  0.4534 -0.0345 -0.2234
12812TIP3    H138377   3.623   7.295   1.199  0.5812  0.4449  0.5444
12812TIP3    H238378   3.760   7.356   1.176  0.4016  0.7020  0.1474
12813TIP3   OH238379   3.306   7.523   3.957  0.2659 -1.0738 -0.0212
12813TIP3    H138380   3.395   7.499   3.932 -0.3406 -2.4056 -0.9885
12813TIP3    H238381   3.293   7.610   3.919  1.4789 -0.4462  0.9707
12814TIP3   OH238382   5.838   5.194   4.017 -0.1146 -0.2552 -0.0246
12814TIP3    H138383   5.818   5.159   3.930 -2.6741 -0.2592  0.5405
12814TIP3    H238384   5.848   5.117   4.072  0.1555 -0.2214 -0.0254
12815TIP3   OH238385   2.881   2.176   0.212  0.0975 -0.4082 -0.0000
12815TIP3    H138386   2.974   2.168   0.188  0.7170  2.1362  1.3254
12815TIP3    H238387   2.834   2.177   0.129  1.4972  0.6709 -0.8021
12816TIP3   OH238388   7.179   7.379   4.625  0.1391  0.7941 -0.5813
12816TIP3    H138389   7.234   7.383   4.546 -0.9673 -0.9036 -1.4897
12816TIP3    H238390   7.175   7.469   4.656  2.3916  1.1471 -1.2135
12817TIP3   OH238391   7.746   5.834   4.764  0.2781  0.2936  0.1258
12817TIP3    H138392   7.707   5.763   4.714  2.2936 -1.7214  1.3160
12817TIP3    H238393   7.837   5.837   4.735  0.5768  1.4445  1.1026
12818TIP3   OH238394   1.607   0.173   4.162  0.6423  0.0937  0.2620
12818TIP3    H138395   1.520   0.212   4.176  0.5469  0.7144 -1.8252
12818TIP3    H238396   1.591   0.079   4.159  0.3434  0.0837  1.8648
12819TIP3   OH238397   8.504   6.835   4.368  0.0387 -0.0923  0.7530
12819TIP3    H138398   8.588   6.864   4.401  0.2478 -0.6250  0.6932
12819TIP3    H238399   8.503   6.741   4.383 -1.0980  0.0896  1.9880
12820TIP3   OH238400   5.878   5.147   5.865  0.0979 -0.3054  0.4072
12820TIP3    H138401   5.957   5.157   5.919 -0.4571  0.2705  1.1181
12820TIP3    H238402   5.831   5.074   5.904  0.4860 -0.9243 -0.2773
12821TIP3   OH238403   6.697   6.603   4.207  0.2123  0.1363 -0.5401
12821TIP3    H138404   6.777   6.648   4.180 -0.5392  0.8992 -1.5508
12821TIP3    H238405   6.726   6.534   4.267  1.2975  2.6182  1.8677
12822TIP3   OH238406   6.160   4.887   4.253 -0.1408  0.4021 -0.3509
12822TIP3    H138407   6.179   4.832   4.330  0.3357  1.4831  0.3192
12822TIP3    H238408   6.169   4.977   4.286 -2.1718  0.8975 -1.1040
12823TIP3   OH238409   5.792   7.806   3.953  0.5110  0.5778 -0.7400
12823TIP3    H138410   5.869   7.751   3.973 -2.5441 -4.2006 -1.2696
12823TIP3    H238411   5.779   7.795   3.859 -2.5436 -1.2209 -0.1749
12824TIP3   OH238412   0.959   0.077   2.734 -0.1107 -0.0864  0.9790
12824TIP3    H138413   0.895   0.052   2.801 -1.2909 -0.5373 -0.2753
12824TIP3    H238414   1.010   0.147   2.774 -1.5045  0.3945  1.9737
12825TIP3   OH238415   0.028   0.824   5.141  0.3752 -0.1929 -0.0208
12825TIP3    H138416   0.033   0.877   5.220  0.8288  0.1312 -0.2651
12825TIP3    H238417   0.119   0.801   5.122  0.0268 -2.8405  1.2828
12826TIP3   OH238418   7.639   5.995   2.518 -0.5441 -0.1888 -0.0101
12826TIP3    H138419   7.707   5.943   2.476 -0.1207  1.8908 -2.0239
12826TIP3    H238420   7.668   6.005   2.608  0.6123 -1.2858 -0.2489
12827TIP3   OH238421   7.016   6.579   3.376 -0.9048 -0.1686  0.1376
12827TIP3    H138422   6.938   6.529   3.352  0.9472 -3.1745  0.1235
12827TIP3    H238423   7.079   6.559   3.306  0.3412  1.1709  0.8450
12828TIP3   OH238424   0.765   0.515   4.100  0.2623  0.2200 -0.3118
12828TIP3    H138425   0.762   0.534   4.007  1.8085  1.9362 -0.0522
12828TIP3    H238426   0.788   0.599   4.141  1.2766 -0.8846  1.4495
12829TIP3   OH238427   5.430   5.399   5.594 -0.6642 -0.1354  0.2641
12829TIP3    H138428   5.380   5.365   5.519 -1.0898  1.7092 -0.3114
12829TIP3    H238429   5.435   5.493   5.579 -0.6433  0.2477  2.5138
12830TIP3   OH238430   7.220   7.654   4.630 -0.0052  0.2743 -0.3514
12830TIP3    H138431   7.178   7.727   4.676  0.5347  1.0688 -1.0987
12830TIP3    H238432   7.309   7.684   4.612  0.4800 -0.8813  0.0225
12831TIP3   OH238433   6.718   6.452   2.779 -0.1184  0.5128 -0.3817
12831TIP3    H138434   6.658   6.505   2.726 -0.0271 -0.4394 -1.4559
12831TIP3    H238435   6.662   6.390   2.825 -0.1216  0.8084  0.0148
12832TIP3   OH238436   5.498   7.870   3.942  0.2212 -0.0359 -0.1185
12832TIP3    H138437   5.418   7.915   3.968  0.6830  1.2879 -0.9349
12832TIP3    H238438   5.473   7.817   3.867  0.2381  0.8802 -0.7833
12833TIP3   OH238439   6.414   6.404   4.381 -0.3932 -0.5451 -0.1518
12833TIP3    H138440   6.454   6.333   4.331  0.8547  0.7603 -1.0545
12833TIP3    H238441   6.437   6.483   4.332 -2.7744  0.3788  0.1709
12834TIP3   OH238442   5.749   4.963   5.300 -0.1787 -0.3603  0.4411
12834TIP3    H138443   5.808   4.893   5.274  0.0031  0.3420 -1.0726
12834TIP3    H238444   5.803   5.020   5.355  0.1712 -0.4323  0.1739
12835TIP3   OH238445   5.014   7.182   3.251 -0.2407  0.1423  0.3261
12835TIP3    H138446   5.066   7.258   3.226  0.2145 -0.5315 -0.8353
12835TIP3    H238447   4.990   7.141   3.168 -2.8721  0.5894  0.8288
12836TIP3   OH238448   6.558   7.388   5.282 -0.2466 -0.0917  0.0725
12836TIP3    H138449   6.609   7.314   5.313 -0.4227 -1.0472 -1.8718
12836TIP3    H238450   6.477   7.385   5.333 -0.5253 -1.6140 -0.4496
12837TIP3   OH238451   5.248   5.801   3.942  0.2378 -0.2938 -0.5517
12837TIP3    H138452   5.202   5.735   3.993  1.2424 -2.0609 -1.8936
12837TIP3    H238453   5.247   5.879   3.998 -0.2279 -1.6715  1.4166
12838TIP3   OH238454   4.066   6.044   5.850  0.1126  0.0962 -0.1686
12838TIP3    H138455   4.064   5.966   5.795 -0.4990 -2.1742  2.9675
12838TIP3    H238456   4.152   6.083   5.833  0.9875 -2.0200 -0.7420
12839TIP3   OH238457   0.070   0.736   4.805  0.0407 -0.8743  0.1243
12839TIP3    H138458   0.150   0.732   4.753  0.1474  1.0431  0.1204
12839TIP3    H238459  -0.000   0.752   4.742 -0.3246 -2.2180  0.1668
12840TIP3   OH238460   5.779   6.903   6.621 -0.1605  0.1149 -0.0089
12840TIP3    H138461   5.810   6.990   6.642 -0.7366  0.5180 -0.7923
12840TIP3    H238462   5.827   6.879   6.541 -0.8091  0.1662 -0.4186
12841TIP3   OH238463   5.631   4.205   4.012 -0.0179 -0.2206  0.3040
12841TIP3    H138464   5.630   4.291   3.971 -0.7755  0.4417  1.6666
12841TIP3    H238465   5.594   4.146   3.947  0.5660  0.4721 -0.6632
12842TIP3   OH238466   4.352   6.577   3.518  0.1825 -0.2221  0.8504
12842TIP3    H138467   4.434   6.625   3.510 -0.7498  1.0749 -1.2899
12842TIP3    H238468   4.361   6.504   3.456  0.6331 -1.4485  2.3305
12843TIP3   OH238469   6.756   6.823   3.848 -0.0152  0.4433  0.1652
12843TIP3    H138470   6.758   6.915   3.822 -0.6404  0.3877 -0.0786
12843TIP3    H238471   6.731   6.825   3.940  2.4294  0.6550  0.8685
12844TIP3   OH238472   5.577   3.828   4.784  0.4886 -0.5811 -0.3042
12844TIP3    H138473   5.565   3.922   4.791  1.3178 -0.4805 -0.2106
12844TIP3    H238474   5.571   3.810   4.690 -4.0668 -1.0486 -0.0024
12845TIP3   OH238475   4.388   7.082   4.577 -0.4976 -0.3371  0.2241
12845TIP3    H138476   4.417   7.024   4.647 -0.9159 -0.8289 -0.0040
12845TIP3    H238477   4.429   7.045   4.498  1.3170  1.1696  0.4267
12846TIP3   OH238478   0.740   2.793   0.637 -0.4082 -0.0530  0.3872
12846TIP3    H138479   0.833   2.793   0.615 -0.6606 -2.8416 -0.8856
12846TIP3    H238480   0.699   2.849   0.570  0.0920 -0.5753 -0.3634
12847TIP3   OH238481   6.657   5.836   6.011  0.2440 -0.9118 -0.2350
12847TIP3    H138482   6.571   5.796   5.994 -1.5418  2.4066  0.5624
12847TIP3    H238483   6.697   5.844   5.924 -1.3523 -0.1475 -0.9125
12848TIP3   OH238484   6.519   7.073   3.270  0.2693  0.4456  0.3017
12848TIP3    H138485   6.611   7.099   3.281  0.5582 -0.3621 -0.2003
12848TIP3    H238486   6.517   6.981   3.296 -0.3101  0.3380 -0.1244
12849TIP3   OH238487   5.916   7.419   5.749  0.1647 -0.0886 -0.6295
12849TIP3    H138488   5.934   7.487   5.684 -1.1960  1.5955  0.6641
12849TIP3    H238489   5.872   7.350   5.700 -1.9053  1.6605 -1.3465
12850TIP3   OH238490   4.575   5.812   5.249 -0.0979  0.2750  0.2725
12850TIP3    H138491   4.505   5.822   5.313 -0.0993  0.1103  0.2960
12850TIP3    H238492   4.599   5.902   5.226 -0.4521  0.3313  0.1171
12851TIP3   OH238493   5.446   6.532   4.539  0.2432 -0.0275  0.2883
12851TIP3    H138494   5.356   6.512   4.512  0.8243  0.7156 -2.3499
12851TIP3    H238495   5.445   6.524   4.634 -2.4983 -0.5149  0.2580
12852TIP3   OH238496   7.838   1.024   7.002  0.2122  0.6444  0.7506
12852TIP3    H138497   7.829   0.938   6.962  1.9406  1.7660 -2.2484
12852TIP3    H238498   7.748   1.058   7.005 -0.3376 -0.7926  0.8484
12853TIP3   OH238499   4.533   6.183   4.245  0.2369  0.9389 -0.2685
12853TIP3    H138500   4.456   6.195   4.190  0.2894 -1.1981 -0.8367
12853TIP3    H238501   4.570   6.099   4.216  0.8136  0.2542  2.3752
12854TIP3   OH238502   5.301   5.756   3.598 -0.3632  0.0777 -0.0903
12854TIP3    H138503   5.382   5.785   3.639 -1.1255  2.0398  0.0824
12854TIP3    H238504   5.235   5.818   3.629 -2.1696 -2.1487  0.6865
12855TIP3   OH238505   6.327   7.086   3.563  0.3111 -0.4543  0.2994
12855TIP3    H138506   6.287   7.134   3.491  2.1868  2.1128  0.8971
12855TIP3    H238507   6.291   6.997   3.556  0.0451 -0.1206 -3.4235
12856TIP3   OH238508   8.320   0.315   4.616  0.7119 -0.0273 -0.5138
12856TIP3    H138509   8.369   0.336   4.536  0.4898 -0.5657 -0.7981
12856TIP3    H238510   8.372   0.351   4.687  1.5214 -0.5842 -0.8163
12857TIP3   OH238511   5.083   6.059   6.574 -0.1922 -0.0323  0.1878
12857TIP3    H138512   5.120   5.998   6.510 -1.4304  0.3275 -0.8707
12857TIP3    H238513   5.009   6.012   6.612 -0.9254  0.6716 -0.3639
12858TIP3   OH238514   6.717   7.072   3.735 -0.0201 -0.0229  0.3347
12858TIP3    H138515   6.637   7.123   3.721 -0.5252 -0.9955 -0.3664
12858TIP3    H238516   6.768   7.084   3.654  1.0807  1.5259  1.2287
12859TIP3   OH238517   6.241   6.186   4.989  0.0449 -0.4281 -0.4334
12859TIP3    H138518   6.256   6.161   4.897  1.1238 -0.4134 -0.2626
12859TIP3    H238519   6.294   6.125   5.039  1.2190  1.0112  0.0804
12860TIP3   OH238520   6.520   5.100   5.931 -0.2225  0.1220  0.8035
12860TIP3    H138521   6.500   5.065   6.017 -2.5562 -1.2027 -0.2370
12860TIP3    H238522   6.584   5.039   5.894  0.4755  0.4721  1.4042
12861TIP3   OH238523   5.770   4.333   5.142 -0.0613 -0.0963  0.4425
12861TIP3    H138524   5.847   4.337   5.198  0.7650 -0.0481 -0.6765
12861TIP3    H238525   5.696   4.343   5.202  0.8056 -0.0023  1.5092
12862TIP3   OH238526   0.195   1.459   6.176 -0.0695 -0.1621 -0.6158
12862TIP3    H138527   0.134   1.512   6.125 -2.4415 -0.6228  1.6566
12862TIP3    H238528   0.236   1.521   6.236 -1.0144 -0.4707  0.3535
12863TIP3   OH238529   7.204   6.080   2.931  0.3035  0.1834  0.2693
12863TIP3    H138530   7.179   6.131   2.853  0.1366  0.5474  0.5598
12863TIP3    H238531   7.123   6.036   2.958  0.9597 -2.0973 -1.3494
12864TIP3   OH238532   4.429   6.388   4.592 -0.2862 -0.6501 -0.0547
12864TIP3    H138533   4.393   6.316   4.540  0.4404 -0.2352 -1.1650
12864TIP3    H238534   4.456   6.453   4.527  2.0847 -0.7901  0.7522
12865TIP3   OH238535   1.642   0.997   0.181 -0.1358  0.4809 -0.0225
12865TIP3    H138536   1.613   1.060   0.115  0.0091  1.0875  0.4929
12865TIP3    H238537   1.579   1.005   0.252 -0.0700  0.1027  0.0824
12866TIP3   OH238538   5.223   3.901   6.305  0.0617 -0.2481  0.4333
12866TIP3    H138539   5.161   3.895   6.233 -1.0941 -0.8478  1.4583
12866TIP3    H238540   5.224   3.994   6.328  2.5593  0.4523 -2.1366
12867TIP3   OH238541   5.384   5.590   6.011 -0.1561  0.2710  0.1865
12867TIP3    H138542   5.301   5.594   6.058 -0.1886 -1.4331  0.2903
12867TIP3    H238543   5.367   5.533   5.936  0.2697  1.8568 -1.1578
12868TIP3   OH238544   4.637   3.925   0.677 -0.1739  0.1032  0.3146
12868TIP3    H138545   4.698   3.998   0.673  0.6035 -0.5640 -0.4069
12868TIP3    H238546   4.596   3.931   0.763  0.5384  0.8603  0.6013
12869TIP3   OH238547   6.597   5.950   6.495  0.0043  0.2607 -0.5477
12869TIP3    H138548   6.644   6.033   6.498  1.0647 -0.2796 -1.8325
12869TIP3    H238549   6.648   5.891   6.550  0.7202 -0.2645 -1.7631
12870TIP3   OH238550   5.199   5.282   6.394 -0.1209  0.4460 -0.3471
12870TIP3    H138551   5.144   5.348   6.353 -0.7348  0.3574  0.3206
12870TIP3    H238552   5.154   5.261   6.476  0.7091  0.1043  0.0307
12871TIP3   OH238553   4.094   4.263   0.207  0.0194 -0.5214 -0.0177
12871TIP3    H138554   4.149   4.192   0.172 -0.8299 -1.4820  0.5625
12871TIP3    H238555   4.045   4.294   0.131  1.4525  0.4379 -0.5673
12872TIP3   OH238556   6.152   6.487   3.368 -0.0702  0.2085  0.0299
12872TIP3    H138557   6.230   6.505   3.315 -0.1815 -1.4923 -0.7456
12872TIP3    H238558   6.184   6.490   3.458  0.6634  0.6266 -0.2420
12873TIP3   OH238559   4.771   7.096   5.169  0.2584  0.0105  0.3907
12873TIP3    H138560   4.797   7.087   5.077 -0.2734  0.6284  0.1754
12873TIP3    H238561   4.826   7.168   5.202  0.2623 -0.0343  0.4825
12874TIP3   OH238562   6.316   7.006   5.957  0.0840  0.1736  0.6247
12874TIP3    H138563   6.236   6.957   5.977  1.3815 -1.4889  1.8806
12874TIP3    H238564   6.352   6.962   5.880  0.0995  0.5733  0.4000
12875TIP3   OH238565   5.273   7.935   5.299  0.5161 -0.1820 -0.0796
12875TIP3    H138566   5.318   8.007   5.255  0.5807 -0.2585 -0.1387
12875TIP3    H238567   5.182   7.966   5.309 -0.0733 -1.1145 -2.4043
12876TIP3   OH238568   1.243   2.505   5.281  0.1060  0.0214 -0.1759
12876TIP3    H138569   1.239   2.588   5.234  1.4103 -0.4343 -1.1370
12876TIP3    H238570   1.188   2.446   5.231 -1.5561  0.5058  1.0087
12877TIP3   OH238571   7.637   5.456   3.869 -0.4485  0.0580  0.7296
12877TIP3    H138572   7.620   5.364   3.889 -2.9527  0.2734 -0.1499
12877TIP3    H238573   7.587   5.472   3.789  1.6930  1.6380 -0.3304
12878TIP3   OH238574   2.607   6.921   3.819  0.1521  0.4013  0.2973
12878TIP3    H138575   2.521   6.879   3.815  1.8287 -3.0750 -1.1323
12878TIP3    H238576   2.611   6.975   3.740 -0.9217  1.0946  0.7007
12879TIP3   OH238577   8.163   5.577   5.585  0.2254 -0.3056  0.6793
12879TIP3    H138578   8.242   5.613   5.545  0.4053  0.0869  1.3866
12879TIP3    H238579   8.134   5.644   5.647 -0.0877 -0.8846  1.1667
12880TIP3   OH238580   5.438   6.912   2.240  0.3158  0.3556 -0.5050
12880TIP3    H138581   5.360   6.965   2.226 -0.2992 -0.6136 -0.8672
12880TIP3    H238582   5.458   6.876   2.154  0.2485 -0.6183 -0.1233
12881TIP3   OH238583   5.860   6.984   5.020 -0.3639  0.3098  0.2872
12881TIP3    H138584   5.826   6.930   4.949 -0.4567 -1.3447  1.5464
12881TIP3    H238585   5.816   6.951   5.098 -0.3086  2.1360  1.1094
12882TIP3   OH238586   7.416   7.992   6.076  0.6421 -0.3087 -0.1856
12882TIP3    H138587   7.329   7.963   6.049 -0.4688  2.1001  0.6945
12882TIP3    H238588   7.437   7.936   6.152 -1.0549  0.4887  0.8970
12883TIP3   OH238589   5.204   7.117   2.546 -0.0568 -0.5140  0.1092
12883TIP3    H138590   5.209   7.102   2.640 -2.6308 -0.0576  0.3346
12883TIP3    H238591   5.292   7.096   2.514  0.4344 -2.0844  2.3908
12884TIP3   OH238592   5.378   5.109   2.311 -0.6166  0.3635  0.3516
12884TIP3    H138593   5.337   5.064   2.385 -0.4669  1.4768  1.1384
12884TIP3    H238594   5.431   5.178   2.352 -1.3116  1.6261 -0.8422
12885TIP3   OH238595   7.330   5.915   5.346  0.0306  0.2673  0.5497
12885TIP3    H138596   7.340   5.870   5.430  2.9618  0.0475  0.1097
12885TIP3    H238597   7.258   5.869   5.303  1.9330 -3.0692  0.7670
12886TIP3   OH238598   2.989   7.486   4.388  0.5622 -0.0907  0.4325
12886TIP3    H138599   3.047   7.486   4.464  1.2179  0.8564 -0.0627
12886TIP3    H238600   3.043   7.521   4.317 -0.1424 -0.6696 -0.3962
12887TIP3   OH238601   0.139   4.472   6.616 -0.7822 -0.1424  0.3628
12887TIP3    H138602   0.104   4.512   6.537 -1.7980 -0.0682  0.8426
12887TIP3    H238603   0.137   4.541   6.682  0.9943  0.0872  0.2069
12888TIP3   OH238604   8.447   6.768   3.527 -0.2635  0.2861 -0.1774
12888TIP3    H138605   8.404   6.723   3.455 -0.3291 -0.1506  0.1308
12888TIP3    H238606   8.406   6.733   3.606 -0.3717  0.9509  0.0634
12889TIP3   OH238607   5.609   6.001   4.522 -0.3627  0.1518 -0.1452
12889TIP3    H138608   5.516   5.982   4.535 -0.7613  1.9807 -0.1817
12889TIP3    H238609   5.632   6.060   4.593  0.5376  0.4798 -0.7053
12890TIP3   OH238610   6.684   6.163   3.900 -0.1776  0.2149 -0.6732
12890TIP3    H138611   6.728   6.209   3.972 -0.6517  0.8068 -0.7524
12890TIP3    H238612   6.753   6.146   3.836  0.5948 -1.9621  0.7372
12891TIP3   OH238613   6.998   6.665   2.300 -0.6289 -0.5357 -0.6587
12891TIP3    H138614   7.077   6.616   2.277 -0.5034 -0.3294 -0.6610
12891TIP3    H238615   6.933   6.638   2.234 -0.1983  0.2492 -1.4038
12892TIP3   OH238616   7.128   7.516   4.205  0.0713 -0.2933  0.1612
12892TIP3    H138617   7.100   7.552   4.289 -0.2093 -1.0513  0.4017
12892TIP3    H238618   7.079   7.434   4.197 -0.9275  0.4375 -1.3777
12893TIP3   OH238619   2.747   6.008   5.840 -0.4717  0.1417 -0.0652
12893TIP3    H138620   2.787   6.041   5.760 -0.3962 -1.9083 -0.9072
12893TIP3    H238621   2.820   5.994   5.900 -0.4183  0.7393  0.0066
12894TIP3   OH238622   7.163   5.994   4.448 -0.0180  0.6655  0.4291
12894TIP3    H138623   7.111   5.930   4.496  0.2170  0.8052  0.8689
12894TIP3    H238624   7.103   6.031   4.384  0.4172 -1.7212 -1.4722
12895TIP3   OH238625   6.126   6.016   4.346 -0.4983  0.9382  0.7238
12895TIP3    H138626   6.062   6.035   4.415 -2.2043  1.4943 -0.9812
12895TIP3    H238627   6.098   6.070   4.272 -0.0451 -1.3334 -1.1727
12896TIP3   OH238628   4.167   5.970   4.349 -0.4473 -0.1229  0.5712
12896TIP3    H138629   4.095   5.916   4.316  1.0148 -2.2140  0.6496
12896TIP3    H238630   4.240   5.909   4.356  1.1181  1.7881  1.2335
12897TIP3   OH238631   1.724   5.353   4.665 -0.5571 -0.6101 -0.6130
12897TIP3    H138632   1.755   5.285   4.725 -2.6537 -1.3288 -0.2777
12897TIP3    H238633   1.787   5.424   4.674  1.5901 -2.4244 -0.8407
12898TIP3   OH238634   7.008   5.428   3.642  0.1656 -0.1393  0.1873
12898TIP3    H138635   6.917   5.454   3.623  0.4997  1.7064  0.9630
12898TIP3    H238636   7.005   5.397   3.732 -0.0797 -2.1448 -0.4861
12899TIP3   OH238637   6.498   5.438   4.742  0.2845  0.0166  0.1398
12899TIP3    H138638   6.566   5.480   4.690  0.6252  0.7938  1.2014
12899TIP3    H238639   6.434   5.507   4.759 -0.6276 -0.6358 -0.6033
12900TIP3   OH238640   4.725   6.121   4.637  0.0550 -0.6425  0.4343
12900TIP3    H138641   4.630   6.115   4.647  0.1027 -2.1054  0.0809
12900TIP3    H238642   4.741   6.213   4.616 -1.3203 -0.4783  0.0682
12901TIP3   OH238643   5.049   5.436   4.501 -0.0102  0.5130 -0.2799
12901TIP3    H138644   5.127   5.469   4.546 -0.5774  0.2574  0.8992
12901TIP3    H238645   5.002   5.386   4.568 -1.4512  1.0955 -0.8463
12902TIP3   OH238646   8.320   0.946   1.019 -0.1016  0.5288 -0.4298
12902TIP3    H138647   8.374   0.920   1.093  0.2014  2.0026 -0.1203
12902TIP3    H238648   8.380   0.988   0.958 -0.5689  0.4609 -0.9483
12903TIP3   OH238649   3.558   7.888   6.395 -0.1861 -0.4669  0.0213
12903TIP3    H138650   3.471   7.928   6.399  0.6800  1.3353  1.4922
12903TIP3    H238651   3.619   7.962   6.398  1.4412 -1.8225  1.3651
12904TIP3   OH238652   1.163   2.249   6.670  0.1607  0.4139  0.5476
12904TIP3    H138653   1.239   2.225   6.618 -0.6558 -1.7953  0.3303
12904TIP3    H238654   1.188   2.331   6.713  1.9727  0.6531 -0.9202
12905TIP3   OH238655   7.219   1.515   3.999  0.7966 -0.2665  0.1089
12905TIP3    H138656   7.232   1.605   3.966  1.6169  0.1576  1.5504
12905TIP3    H238657   7.306   1.474   3.991  0.2462 -1.1979 -1.2786
12906TIP3   OH238658   5.835   4.834   2.635 -0.4088  0.0197  0.1515
12906TIP3    H138659   5.915   4.798   2.598  0.4984 -0.2659  2.3195
12906TIP3    H238660   5.770   4.824   2.566  0.9652 -1.4562 -0.9602
12907TIP3   OH238661   5.138   5.950   5.110  0.3483 -0.1420  0.1878
12907TIP3    H138662   5.195   6.026   5.097 -0.1003  0.2405  0.4696
12907TIP3    H238663   5.198   5.881   5.139  0.6622  0.2862  0.5783
12908TIP3   OH238664   1.076   1.402   4.056  0.3918 -0.3428  0.1960
12908TIP3    H138665   1.051   1.359   4.138  0.9264 -1.8020 -0.3866
12908TIP3    H238666   1.022   1.481   4.053 -0.7821 -1.0910  1.1851
12909TIP3   OH238667   5.537   7.615   5.453  0.1209  0.1305 -0.0789
12909TIP3    H138668   5.594   7.682   5.493 -0.4058  1.0395 -0.8213
12909TIP3    H238669   5.589   7.579   5.382 -0.3068  1.1475 -0.9264
12910TIP3   OH238670   7.023   6.815   3.872 -0.2407  0.4406 -0.6898
12910TIP3    H138671   6.928   6.822   3.873 -0.2571  0.1611 -0.3866
12910TIP3    H238672   7.053   6.896   3.830 -0.6091  0.5379 -0.7620
12911TIP3   OH238673   0.092   1.218   6.527  0.3348 -0.1009  0.0588
12911TIP3    H138674   0.013   1.255   6.489  0.4999  0.5449  0.3367
12911TIP3    H238675   0.107   1.137   6.478  0.5193  0.6854 -1.1938
12912TIP3   OH238676   2.275   6.551   0.197  0.1092  0.5879  0.3689
12912TIP3    H138677   2.195   6.589   0.236 -0.1210 -0.7903  1.2641
12912TIP3    H238678   2.260   6.457   0.198  0.8445  0.4341 -1.5158
12913TIP3   OH238679   6.783   5.797   3.129 -0.4317 -0.1120  0.5363
12913TIP3    H138680   6.810   5.765   3.215 -0.8805 -0.0636  0.6999
12913TIP3    H238681   6.702   5.749   3.110 -0.6314  0.2846  0.3885
12914TIP3   OH238682   5.742   6.371   5.393 -0.5704  0.0621 -0.0384
12914TIP3    H138683   5.784   6.447   5.434  0.1854 -0.1947 -0.3262
12914TIP3    H238684   5.652   6.372   5.427 -0.5162  0.9843  0.0882
12915TIP3   OH238685   6.244   5.802   4.021  0.1352  0.1419  0.2575
12915TIP3    H138686   6.268   5.834   3.935  1.8781 -0.6547  0.4268
12915TIP3    H238687   6.193   5.723   4.004  0.4073  0.0305 -0.0442
12916TIP3   OH238688   3.396   5.440   4.622  0.3268  0.3108  0.7434
12916TIP3    H138689   3.304   5.447   4.648 -0.3282  1.5713 -1.7558
12916TIP3    H238690   3.410   5.515   4.564  2.8459 -0.0503  0.8440
12917TIP3   OH238691   2.307   7.390   6.268  0.6624 -0.1091 -0.3146
12917TIP3    H138692   2.387   7.382   6.216 -0.2911  1.6227 -2.1403
12917TIP3    H238693   2.301   7.483   6.289 -1.9184  0.1763 -2.0105
12918TIP3   OH238694   6.207   7.163   5.234 -0.1663  0.0770 -0.0157
12918TIP3    H138695   6.207   7.094   5.300 -0.4681 -1.0620 -1.1983
12918TIP3    H238696   6.300   7.178   5.214 -0.1726 -1.4439 -1.2553
12919TIP3   OH238697   5.335   6.435   3.778 -0.4523  0.0871  0.1458
12919TIP3    H138698   5.332   6.489   3.857 -0.0257 -1.0775  0.9753
12919TIP3    H238699   5.368   6.494   3.710  2.6257  0.1968  1.6216
12920TIP3   OH238700   0.234   0.286   3.884 -0.0950 -0.3325 -0.5635
12920TIP3    H138701   0.300   0.247   3.941  1.0511 -0.2066 -1.7988
12920TIP3    H238702   0.205   0.213   3.829 -1.5561 -0.5687  0.4808
12921TIP3   OH238703   2.786   7.942   4.634 -0.0278 -0.2806  0.4948
12921TIP3    H138704   2.716   7.918   4.694 -1.0578  0.7931 -0.2567
12921TIP3    H238705   2.786   8.038   4.634 -0.6778 -0.2397 -1.9343
12922TIP3   OH238706   5.946   6.109   3.888  0.1971  0.5038  0.3663
12922TIP3    H138707   5.865   6.152   3.859  0.7428 -0.0707 -2.0929
12922TIP3    H238708   5.945   6.024   3.846  1.5106  0.0026  1.3092
12923TIP3   OH238709   4.931   6.780   4.416 -0.2681  0.9603  0.3767
12923TIP3    H138710   4.943   6.869   4.382  0.1342  1.4909  1.8619
12923TIP3    H238711   4.839   6.777   4.442 -0.4040  0.7784 -0.1201
12924TIP3   OH238712   1.044   0.441   4.262  0.3440 -0.0485 -0.2358
12924TIP3    H138713   0.969   0.470   4.313  0.4731  1.3689 -0.8215
12924TIP3    H238714   1.100   0.396   4.324 -0.1413  0.4666  0.5815
12925TIP3   OH238715   6.500   5.584   6.417  0.2772 -0.1328  0.0220
12925TIP3    H138716   6.574   5.624   6.371 -0.6215  1.0139 -0.4366
12925TIP3    H238717   6.489   5.499   6.375  1.3031 -0.2958  0.0630
12926TIP3   OH238718   7.040   6.806   4.751  0.4581  0.4508 -0.5719
12926TIP3    H138719   7.115   6.764   4.710 -0.1742 -2.4179  1.0420
12926TIP3    H238720   7.076   6.845   4.831  0.0609 -2.2380  0.9984
12927TIP3   OH238721   4.055   5.929   3.971  0.1179  0.3658 -0.1983
12927TIP3    H138722   3.984   5.873   4.002  0.5908 -1.2129 -1.8325
12927TIP3    H238723   4.014   6.015   3.958 -1.4479 -0.4561 -0.8673
12928TIP3   OH238724   7.040   7.358   3.954  0.3571 -0.9485 -0.4196
12928TIP3    H138725   6.965   7.300   3.942  0.6074 -1.2042 -0.7644
12928TIP3    H238726   7.090   7.317   4.026  0.4081 -1.0301 -0.5007
12929TIP3   OH238727   0.859   0.262   4.956 -0.4812 -0.5204  0.2308
12929TIP3    H138728   0.803   0.197   4.914 -1.2260 -0.5672  1.2981
12929TIP3    H238729   0.872   0.230   5.045  1.1731 -0.4705  0.0245
12930TIP3   OH238730   8.115   7.423   3.870 -0.1942  0.6959 -0.9045
12930TIP3    H138731   8.038   7.379   3.906 -0.9409  2.7335  0.0831
12930TIP3    H238732   8.079   7.491   3.813  0.8831  1.5315 -0.5950
12931TIP3   OH238733   7.100   6.245   2.722  0.7281  0.3707 -0.5055
12931TIP3    H138734   7.046   6.182   2.676 -0.7201  1.2935 -0.1127
12931TIP3    H238735   7.132   6.304   2.654 -1.5485  1.8363 -0.3525
12932TIP3   OH238736   6.943   5.824   5.707  0.3441 -0.0578  0.4251
12932TIP3    H138737   6.964   5.826   5.801  1.8671  1.5545  0.0791
12932TIP3    H238738   6.848   5.824   5.704  0.2729 -0.0094  1.9856
12933TIP3   OH238739   6.968   6.674   4.120 -0.1782 -0.2798  0.0852
12933TIP3    H138740   7.030   6.705   4.186 -0.0432 -1.1575  0.3784
12933TIP3    H238741   6.984   6.730   4.044 -1.5012  1.8840  1.3442
12934TIP3   OH238742   6.335   7.531   4.199 -0.3677  0.1311  0.1904
12934TIP3    H138743   6.367   7.619   4.179  0.0617  0.1087  0.7520
12934TIP3    H238744   6.365   7.514   4.288 -0.7844 -0.4331  0.2301
12935TIP3   OH238745   5.586   5.632   3.201 -0.0709 -0.0758  0.0003
12935TIP3    H138746   5.492   5.642   3.188  0.0393 -0.4942 -1.1796
12935TIP3    H238747   5.597   5.627   3.296 -1.4462 -2.0590  0.0820
12936TIP3   OH238748   6.059   3.794   4.875 -1.4343  0.2639  0.1194
12936TIP3    H138749   6.104   3.715   4.906 -3.0058 -0.3117  1.0268
12936TIP3    H238750   6.127   3.846   4.834 -0.6033 -2.2118 -1.7630
12937TIP3   OH238751   0.307   6.895   1.982  0.0025  0.6999 -0.0294
12937TIP3    H138752   0.344   6.895   2.070  0.1200 -0.3186 -0.0706
12937TIP3    H238753   0.365   6.838   1.932 -1.3871 -0.6123 -0.1878
12938TIP3   OH238754   7.977   6.475   2.251  0.5935 -0.3023 -0.1481
12938TIP3    H138755   7.942   6.538   2.190 -0.9362  0.2808  1.2950
12938TIP3    H238756   7.917   6.401   2.247  0.5301 -0.2943  0.5921
12939TIP3   OH238757   1.488   7.228   4.677 -0.6448  0.5800 -0.0279
12939TIP3    H138758   1.568   7.195   4.718  0.1294  2.2682 -0.1398
12939TIP3    H238759   1.514   7.246   4.587 -0.6752  2.6657  0.3439
12940TIP3   OH238760   7.372   6.944   3.000  0.3048 -0.0875 -0.3517
12940TIP3    H138761   7.298   6.947   2.939  0.2799 -1.2470 -0.3813
12940TIP3    H238762   7.352   6.872   3.059  0.2538  1.1281  1.1473
12941TIP3   OH238763   6.825   6.148   2.457 -0.1163 -0.4464 -0.2762
12941TIP3    H138764   6.792   6.094   2.529 -0.0215  0.4315  0.4354
12941TIP3    H238765   6.809   6.238   2.486 -0.0397 -0.0894 -1.3415
12942TIP3   OH238766   8.317   4.967   3.871 -0.0682  0.7632 -0.1599
12942TIP3    H138767   8.231   4.926   3.884 -0.0605  0.2813 -1.5526
12942TIP3    H238768   8.371   4.934   3.943 -0.4252 -0.6625 -0.5471
12943TIP3   OH238769   8.210   6.931   2.865  0.6294  0.0890 -0.0408
12943TIP3    H138770   8.154   6.890   2.798 -0.2363  0.3421  0.5175
12943TIP3    H238771   8.167   6.909   2.948  1.1129  0.6817  0.3669
12944TIP3   OH238772   8.240   7.460   2.179  0.1274  0.2610  0.4050
12944TIP3    H138773   8.188   7.381   2.191 -1.1947  0.6494 -2.2492
12944TIP3    H238774   8.315   7.431   2.125 -1.0666  1.0073 -1.7290
12945TIP3   OH238775   1.693   0.042   3.177  0.2742  0.5562  0.0446
12945TIP3    H138776   1.709  -0.033   3.119 -4.7530 -1.4164  0.9999
12945TIP3    H238777   1.645   0.104   3.123 -2.9684 -0.5889  1.4686
12946TIP3   OH238778   7.611   6.778   4.377 -0.2286  0.5996  0.5737
12946TIP3    H138779   7.638   6.837   4.307 -0.1532  0.6029  0.6064
12946TIP3    H238780   7.676   6.791   4.446  0.7179 -0.7131 -0.0578
12947TIP3   OH238781   7.803   6.824   4.093 -0.3183  0.0588  0.5608
12947TIP3    H138782   7.829   6.755   4.153 -0.3363  0.2620  0.8063
12947TIP3    H238783   7.883   6.873   4.076 -0.4489  0.4137  0.9607
12948TIP3   OH238784   0.460   7.245   3.731  0.0133 -0.3268 -0.8270
12948TIP3    H138785   0.480   7.287   3.648  1.2155  0.9144  0.0762
12948TIP3    H238786   0.366   7.259   3.743  0.0480  0.4664 -1.4366
12949TIP3   OH238787   6.415   7.067   4.082  0.0075 -0.2185  0.1633
12949TIP3    H138788   6.437   7.017   4.004  0.9440  0.4647 -0.0232
12949TIP3    H238789   6.468   7.028   4.151 -2.7186 -2.4886  1.0377
12950TIP3   OH238790   8.372   6.691   1.731 -0.4564 -0.3531 -0.2036
12950TIP3    H138791   8.440   6.695   1.664 -0.9791 -0.7099 -0.7696
12950TIP3    H238792   8.299   6.741   1.693 -1.5112 -2.2978 -0.8140
12951TIP3   OH238793   1.179   7.141   3.523  0.1148 -0.2259  0.2702
12951TIP3    H138794   1.268   7.135   3.558  0.6552 -0.1783 -1.0448
12951TIP3    H238795   1.188   7.115   3.431 -1.4458 -1.4738  0.4425
12952TIP3   OH238796   0.098   7.095   6.963  0.0187  1.2679  0.1623
12952TIP3    H138797   0.109   7.143   7.046  0.4016  0.6261  0.4814
12952TIP3    H238798   0.003   7.097   6.947  0.0147  1.9752  0.2668
12953TIP3   OH238799   5.523   6.345   6.606 -0.0543  0.5269  0.3223
12953TIP3    H138800   5.459   6.296   6.554  1.0531  0.6250 -1.1471
12953TIP3    H238801   5.595   6.284   6.620  0.5264  1.1523  0.0621
12954TIP3   OH238802   1.457   0.701   3.682 -0.1625 -0.2319  0.1167
12954TIP3    H138803   1.494   0.784   3.711  0.7409 -0.1195 -1.2966
12954TIP3    H238804   1.459   0.645   3.759  1.0715  0.4338  0.5763
12955TIP3   OH238805   8.273   5.284   1.363 -0.0100 -0.3825  0.2103
12955TIP3    H138806   8.184   5.260   1.389 -0.4221 -0.1226 -0.9761
12955TIP3    H238807   8.263   5.339   1.285  1.1820 -0.2479  0.1283
12956TIP3   OH238808   4.485   0.360   3.425 -0.2569  0.1007  1.1863
12956TIP3    H138809   4.542   0.373   3.501  0.7519  0.4367  0.3800
12956TIP3    H238810   4.408   0.413   3.444  0.9586  1.9913  0.9667
12957TIP3   OH238811   7.118   3.886   3.322 -0.0887  0.2632  0.0956
12957TIP3    H138812   7.212   3.867   3.329 -0.2113 -0.6791 -0.7019
12957TIP3    H238813   7.095   3.859   3.233 -1.4262 -0.8863  0.7763
12958TIP3   OH238814   1.509   7.155   5.244 -0.3581 -0.4742  0.0728
12958TIP3    H138815   1.518   7.251   5.250 -1.3239 -0.4868  2.1814
12958TIP3    H238816   1.460   7.141   5.162  0.4088  0.7834 -0.6200
12959TIP3   OH238817   0.371   0.168   4.087  0.0797  0.2194  0.4148
12959TIP3    H138818   0.458   0.170   4.126 -0.2270  0.0491  1.1149
12959TIP3    H238819   0.327   0.095   4.130 -0.7938  1.0261  0.9140
12960TIP3   OH238820   1.723   1.158   3.736 -0.2570 -0.2231 -0.6884
12960TIP3    H138821   1.741   1.251   3.741 -0.3562 -0.2219 -0.3606
12960TIP3    H238822   1.664   1.140   3.809 -2.2688 -0.0707 -2.2451
12961TIP3   OH238823   8.317   5.693   3.243 -0.2636  0.2834 -0.1688
12961TIP3    H138824   8.410   5.712   3.233 -0.0209 -0.1541  1.1914
12961TIP3    H238825   8.313   5.622   3.308 -1.5614  0.5827  0.0980
12962TIP3   OH238826   7.960   6.253   2.885  0.5617 -0.0993  0.0843
12962TIP3    H138827   7.978   6.267   2.978  1.8050 -1.2094  0.0315
12962TIP3    H238828   8.046   6.261   2.844  0.2350 -1.0257 -0.7839
12963TIP3   OH238829   3.393   0.912   4.077 -0.3392  0.4566  0.2651
12963TIP3    H138830   3.347   0.848   4.024  0.2551  1.5077 -1.5406
12963TIP3    H238831   3.327   0.978   4.099  0.3114  2.1369 -2.5967
12964TIP3   OH238832   0.644   5.852   4.284  0.3001 -0.3352 -0.1371
12964TIP3    H138833   0.617   5.799   4.359 -0.3611  1.1333  0.6826
12964TIP3    H238834   0.629   5.942   4.311  0.4922  0.2449 -1.8714
12965TIP3   OH238835   3.079   1.747   3.621 -0.1901 -0.5173 -0.1706
12965TIP3    H138836   3.031   1.688   3.679  0.9154 -0.2913  1.0028
12965TIP3    H238837   3.020   1.821   3.608  1.3465  1.7548  4.6491
12966TIP3   OH238838   1.024   5.984   4.491 -0.0098 -0.3277 -0.1453
12966TIP3    H138839   0.945   5.931   4.501  0.2411 -1.0589 -1.8783
12966TIP3    H238840   1.096   5.926   4.517  0.0432  0.0247  0.5025
12967TIP3   OH238841   6.172   7.440   3.610  0.0741  0.2088  0.0319
12967TIP3    H138842   6.188   7.346   3.609 -0.8751  0.0409 -2.4472
12967TIP3    H238843   6.127   7.456   3.693  1.9539 -1.1902  1.3752
12968TIP3   OH238844   0.928   6.093   3.418 -0.3032 -0.3840  0.4709
12968TIP3    H138845   0.834   6.107   3.424 -0.5870 -1.9583 -0.2871
12968TIP3    H238846   0.957   6.153   3.349 -0.6839  0.3431  0.9353
12969TIP3   OH238847   3.952   6.558   2.642 -0.0752  0.0243 -0.2934
12969TIP3    H138848   3.993   6.557   2.556  0.9063  1.3517  0.1510
12969TIP3    H238849   3.887   6.629   2.637 -1.8045 -1.5558 -0.7449
12970TIP3   OH238850   7.790   6.969   1.683  0.0288 -0.0568  0.1516
12970TIP3    H138851   7.713   6.961   1.626  0.0383  1.6359 -0.1482
12970TIP3    H238852   7.778   6.903   1.750 -0.6662 -1.1889 -1.0661
12971TIP3   OH238853   1.543   6.318   3.117 -0.0010  0.2989 -0.6949
12971TIP3    H138854   1.514   6.264   3.191  0.9219  0.5264 -0.1658
12971TIP3    H238855   1.567   6.402   3.156  0.3493  0.4736 -1.2777
12972TIP3   OH238856   6.346   6.051   4.761  0.0731 -0.5368  0.0481
12972TIP3    H138857   6.362   6.095   4.677 -0.4161 -0.7648 -0.1733
12972TIP3    H238858   6.302   5.969   4.736  1.0115 -1.1640  0.4518
12973TIP3   OH238859   5.692   5.522   5.156  0.2111  0.2282  0.3919
12973TIP3    H138860   5.775   5.478   5.172  0.9071  1.6960  0.9282
12973TIP3    H238861   5.694   5.543   5.063  0.5021  0.3698  0.4288
12974TIP3   OH238862   7.672   6.805   3.827 -0.0057 -0.7094  0.1099
12974TIP3    H138863   7.607   6.735   3.821 -2.1022  1.1479  0.5175
12974TIP3    H238864   7.697   6.806   3.920 -0.2388 -0.6892  0.1736
12975TIP3   OH238865   1.496   5.246   1.698 -0.3391  0.0211 -0.3660
12975TIP3    H138866   1.432   5.234   1.768  0.2324  0.4808  0.2364
12975TIP3    H238867   1.472   5.180   1.632 -1.2720  0.0218 -0.0312
12976TIP3   OH238868   0.044   6.291   3.782  0.3230  0.6682  0.4872
12976TIP3    H138869  -0.035   6.345   3.776 -1.3694 -1.6724  0.8757
12976TIP3    H238870   0.029   6.236   3.859  3.0266  1.2215  1.4456
12977TIP3   OH238871   2.641   4.177   3.687 -0.2956 -0.1865 -0.2174
12977TIP3    H138872   2.688   4.204   3.766 -0.8986 -1.7861  0.7122
12977TIP3    H238873   2.560   4.137   3.719 -0.9020 -0.1783 -1.6781
12978TIP3   OH238874   7.729   8.006   2.869 -0.1762  0.5065 -0.3803
12978TIP3    H138875   7.742   7.934   2.930  1.5644 -0.0676 -1.3901
12978TIP3    H238876   7.782   8.077   2.905  0.8282  0.1769 -1.1884
12979TIP3   OH238877   6.649   6.423   5.730  0.4197 -0.4046 -0.5905
12979TIP3    H138878   6.711   6.490   5.760  0.2453 -0.7962  0.6687
12979TIP3    H238879   6.564   6.455   5.759  0.1269 -0.3019 -1.5511
12980TIP3   OH238880   0.156   5.864   3.726 -0.6973  0.0514  0.1528
12980TIP3    H138881   0.137   5.771   3.740 -1.2079  0.1772  0.2989
12980TIP3    H238882   0.092   5.893   3.661  0.0943  0.0702 -0.6290
12981TIP3   OH238883   0.800   5.231   6.548 -0.0404 -0.0426 -0.5948
12981TIP3    H138884   0.747   5.220   6.470 -0.1881  0.4157 -0.5557
12981TIP3    H238885   0.761   5.171   6.612  1.8148 -2.5595 -1.7511
12982TIP3   OH238886   2.514   0.086   2.527  0.2983  0.2729  0.3678
12982TIP3    H138887   2.596   0.037   2.534  1.5528  1.8622 -2.2898
12982TIP3    H238888   2.476   0.059   2.444 -1.3132  0.4141  1.0307
12983TIP3   OH238889   7.191   5.990   5.877  0.2696 -0.1570  0.4783
12983TIP3    H138890   7.154   5.913   5.920  1.0302 -1.2406 -0.7604
12983TIP3    H238891   7.164   6.064   5.932 -0.9899 -1.2377  1.3457
12984TIP3   OH238892   7.218   5.796   2.219 -0.2108  0.6382 -0.0344
12984TIP3    H138893   7.237   5.753   2.303  2.6189  1.5534 -0.1374
12984TIP3    H238894   7.239   5.730   2.153 -3.1249 -0.3258 -0.0402
12985TIP3   OH238895   2.117   0.314   3.662 -0.2736 -0.5173  0.0463
12985TIP3    H138896   2.213   0.320   3.665 -0.3687  2.0828 -0.7263
12985TIP3    H238897   2.099   0.228   3.624  1.7484 -1.2131  0.6100
12986TIP3   OH238898   8.222   5.772   4.815 -0.1728 -0.2333  0.3917
12986TIP3    H138899   8.155   5.766   4.746 -0.3667 -0.4374  0.5943
12986TIP3    H238900   8.199   5.702   4.876  0.1935 -0.2629  0.4947
12987TIP3   OH238901   6.654   6.509   5.259 -0.0244 -0.2724  0.3305
12987TIP3    H138902   6.578   6.528   5.313 -0.1126 -0.5811  0.3160
12987TIP3    H238903   6.627   6.436   5.203 -0.2938  0.7397 -0.8941
12988TIP3   OH238904   6.809   6.584   5.500  0.5842  0.3377 -0.2616
12988TIP3    H138905   6.738   6.523   5.516  1.4577 -0.0946  2.2686
12988TIP3    H238906   6.767   6.670   5.496 -0.1234  0.0507  0.8727
12989TIP3   OH238907   0.358   6.094   4.032  1.0395  0.1742  0.3426
12989TIP3    H138908   0.325   6.135   3.952  0.9992 -2.5316 -1.0801
12989TIP3    H238909   0.331   6.154   4.103 -0.1591  1.8899 -1.5133
12990TIP3   OH238910   0.662   6.669   3.540 -0.0987 -0.3117 -0.5078
12990TIP3    H138911   0.741   6.630   3.579 -0.5997 -0.0315  0.8395
12990TIP3    H238912   0.601   6.678   3.614 -0.0559  2.8522 -0.7791
12991TIP3   OH238913   8.199   5.931   2.198 -0.2460 -0.0568  0.2275
12991TIP3    H138914   8.166   6.020   2.180  0.3262  0.4821  1.7950
12991TIP3    H238915   8.282   5.927   2.150 -1.2089 -0.4505 -1.4558
12992TIP3   OH238916   6.941   5.936   5.036 -0.2670 -0.2561 -0.3771
12992TIP3    H138917   6.911   6.003   5.097 -1.1539 -0.6010 -0.4218
12992TIP3    H238918   6.974   5.985   4.961  2.8707  0.2370  1.2465
12993TIP3   OH238919   7.943   6.591   4.532 -0.2679 -0.6351 -0.1277
12993TIP3    H138920   7.888   6.541   4.591 -1.1075  1.6618  1.0842
12993TIP3    H238921   8.031   6.584   4.569 -0.4071 -1.1330  0.0984
12994TIP3   OH238922   7.599   6.935   2.844  0.3351  0.2014  1.0071
12994TIP3    H138923   7.635   7.009   2.796  0.4383 -2.0830 -2.6603
12994TIP3    H238924   7.523   6.971   2.890 -0.8825  2.1975 -2.3951
12995TIP3   OH238925   7.908   6.495   3.624  0.0810  0.4285 -0.2178
12995TIP3    H138926   7.820   6.475   3.658  0.0379 -0.4980 -0.8569
12995TIP3    H238927   7.963   6.497   3.702 -0.6970  2.1285  0.3161
12996TIP3   OH238928   1.372   6.468   3.737 -0.6403  0.3477 -0.4738
12996TIP3    H138929   1.468   6.469   3.746 -0.6895 -0.2634  0.1278
12996TIP3    H238930   1.341   6.525   3.807 -0.6616  1.6265 -1.4978
12997TIP3   OH238931   1.067   0.752   5.060 -0.2687 -0.1399  0.2196
12997TIP3    H138932   1.010   0.675   5.057 -0.4155 -0.1020  1.5284
12997TIP3    H238933   1.134   0.735   4.994 -0.3381 -1.3698  0.4401
12998TIP3   OH238934   5.171   6.463   3.258  0.0759  0.0359  0.0691
12998TIP3    H138935   5.102   6.524   3.230  0.7446 -0.4848 -2.8434
12998TIP3    H238936   5.250   6.517   3.260  0.3549 -0.3276 -0.8472
12999TIP3   OH238937   7.521   7.196   3.572  0.1159  0.0745 -0.8409
12999TIP3    H138938   7.552   7.277   3.531 -0.1476  0.0839 -1.0248
12999TIP3    H238939   7.437   7.178   3.529 -0.6912  0.6739  0.4551
13000TIP3   OH238940   7.568   6.961   4.140 -0.3157 -0.3445  0.0801
13000TIP3    H138941   7.644   6.915   4.105 -0.9415 -1.1338 -0.2643
13000TIP3    H238942   7.512   6.977   4.063  0.2158  1.6322  0.0761
13001TIP3   OH238943   1.606   6.738   2.548  0.0840 -0.3352 -0.1350
13001TIP3    H138944   1.646   6.757   2.463  2.2074 -1.5304  0.5744
13001TIP3    H238945   1.575   6.648   2.541 -2.0210  0.3845 -0.4711
13002TIP3   OH238946   8.573   0.087   3.293  0.4379 -0.5680 -0.1872
13002TIP3    H138947   8.500   0.046   3.340 -0.3473 -1.5810 -2.2007
13002TIP3    H238948   8.636   0.016   3.279  1.8484  0.3064  1.5578
13003TIP3   OH238949   6.641   6.810   5.506  0.4152  0.1907  0.6580
13003TIP3    H138950   6.606   6.883   5.557  0.1311  0.6131 -0.1441
13003TIP3    H238951   6.565   6.760   5.479  0.4832  0.5958 -0.3023
13004TIP3   OH238952   8.365   6.734   3.257  0.1051 -0.0832 -0.3199
13004TIP3    H138953   8.347   6.686   3.176 -0.2475 -1.7430  0.7147
13004TIP3    H238954   8.293   6.797   3.263 -0.6702 -0.9292 -0.5725
13005TIP3   OH238955   1.121   0.540   3.776 -0.3251 -0.2652 -0.0364
13005TIP3    H138956   1.142   0.542   3.869 -0.8805  1.1697  0.0751
13005TIP3    H238957   1.042   0.594   3.768 -0.5157 -0.7137 -1.2744
13006TIP3   OH238958   8.050   6.928   4.211 -0.1969  0.1560 -0.3188
13006TIP3    H138959   8.115   6.961   4.272  0.5872 -0.2861 -0.9089
13006TIP3    H238960   8.022   6.844   4.249  1.2417 -0.7482 -1.2192
13007TIP3   OH238961   5.957   5.501   5.992 -0.3664 -0.6999 -0.1627
13007TIP3    H138962   5.878   5.480   5.942 -0.2443 -1.0625 -0.2071
13007TIP3    H238963   6.029   5.490   5.929 -0.1384 -1.9485  0.3085
13008TIP3   OH238964   0.312   7.242   3.444 -0.3466 -0.1322  0.0140
13008TIP3    H138965   0.282   7.307   3.507  1.0012 -0.5457  1.1087
13008TIP3    H238966   0.344   7.293   3.370 -1.7368  0.3684 -0.2411
13009TIP3   OH238967   4.067   7.034   5.118  0.2541 -0.0296 -0.0080
13009TIP3    H138968   4.149   7.000   5.154  1.8376  0.5364 -2.8700
13009TIP3    H238969   4.086   7.126   5.099 -1.6650  0.5994  1.0141
13010TIP3   OH238970   2.231   0.626   3.433 -0.3168 -0.8354  0.2988
13010TIP3    H138971   2.191   0.589   3.354  0.1824 -0.2690 -0.2293
13010TIP3    H238972   2.157   0.661   3.483 -0.5239 -0.0616 -0.5261
13011TIP3   OH238973   6.394   8.025   3.422 -0.0241  0.0262  0.1811
13011TIP3    H138974   6.412   7.996   3.512 -1.0180 -0.7151  0.1489
13011TIP3    H238975   6.320   7.972   3.395 -0.9918  1.6526 -0.3777
13012TIP3   OH238976   0.815   5.713   3.157 -0.5054 -0.4465  0.9575
13012TIP3    H138977   0.834   5.638   3.102 -0.2782 -0.5494  1.1723
13012TIP3    H238978   0.898   5.762   3.160 -0.9676  0.4309 -0.1226
13013TIP3   OH238979   0.304   0.261   2.742  0.1693 -0.1348  0.2295
13013TIP3    H138980   0.268   0.336   2.693 -0.5058  0.1624  1.1703
13013TIP3    H238981   0.396   0.284   2.756  0.0691  0.3342  0.1468
13014TIP3   OH238982   8.530   5.397   5.358  0.2388 -0.4225 -0.6416
13014TIP3    H138983   8.577   5.338   5.299  0.9425 -0.3061 -0.2126
13014TIP3    H238984   8.446   5.355   5.373  0.9301 -1.5774  0.0730
13015TIP3   OH238985   8.505   6.102   2.601 -0.1271 -0.0551 -0.6646
13015TIP3    H138986   8.487   6.196   2.607 -1.5526 -0.2962 -0.9383
13015TIP3    H238987   8.536   6.089   2.512 -0.3074  0.1037 -0.7524
13016TIP3   OH238988   5.625   6.144   3.128 -0.2361  0.5016  0.3215
13016TIP3    H138989   5.560   6.215   3.132 -0.4738  0.2384  1.2766
13016TIP3    H238990   5.621   6.103   3.215  2.6499  1.7471  1.0767
13017TIP3   OH238991   7.166   5.407   4.952  0.0730  0.2055  0.3717
13017TIP3    H138992   7.184   5.464   5.027  1.8411 -0.7184  0.6816
13017TIP3    H238993   7.217   5.445   4.881 -0.6875  0.4129 -0.0677
13018TIP3   OH238994   6.924   4.498   3.591 -0.2573  0.2659 -0.0281
13018TIP3    H138995   7.001   4.485   3.647  0.6269  0.1050 -1.2493
13018TIP3    H238996   6.937   4.438   3.518 -0.9966  1.0184 -0.7953
13019TIP3   OH238997   7.054   7.267   4.246 -0.0226  0.0467  0.4969
13019TIP3    H138998   7.126   7.243   4.304  1.1793  0.6243 -0.7177
13019TIP3    H238999   7.001   7.188   4.239  0.8151 -0.5581  0.9642
13020TIP3   OH239000   6.631   5.296   4.944 -0.0748  0.3429  0.1389
13020TIP3    H139001   6.564   5.333   4.887 -0.1844  0.5248  0.3824
13020TIP3    H239002   6.710   5.347   4.926 -0.0409  0.2251 -0.0431
13021TIP3   OH239003   8.183   4.326   3.351  0.1123 -0.1766  0.1926
13021TIP3    H139004   8.247   4.334   3.280  0.9434  1.1042  1.0825
13021TIP3    H239005   8.146   4.238   3.339  1.2459 -0.5142 -0.9792
13022TIP3   OH239006   3.290   0.947   3.685 -0.8351  0.0563 -0.2220
13022TIP3    H139007   3.273   0.854   3.695 -1.0278  0.3263  2.2827
13022TIP3    H239008   3.213   0.990   3.722  0.8801  1.2080  2.1612
13023TIP3   OH239009   8.530   6.545   2.839 -0.5605  0.4279 -1.1860
13023TIP3    H139010   8.520   6.603   2.914  0.0414 -2.0605  0.8676
13023TIP3    H239011   8.623   6.551   2.816 -0.2452 -0.6214 -0.2117
13024TIP3   OH239012   4.428   5.048   5.000 -0.1160 -0.0054 -0.2696
13024TIP3    H139013   4.500   5.012   4.949  0.3372  0.3855  0.0994
13024TIP3    H239014   4.451   5.140   5.013 -0.0640 -0.1865  0.9429
13025TIP3   OH239015   7.336   6.397   4.113  0.1814 -0.3739  0.0565
13025TIP3    H139016   7.292   6.397   4.027  2.3197  0.0822 -1.0676
13025TIP3    H239017   7.332   6.306   4.142  0.4858 -0.7530 -1.0750
13026TIP3   OH239018   5.737   8.040   4.135 -0.3113  0.8662 -0.2755
13026TIP3    H139019   5.762   8.131   4.118  2.0841  0.0638 -1.1980
13026TIP3    H239020   5.755   8.027   4.228 -0.1239  1.1664 -0.2689
13027TIP3   OH239021   2.058   6.904   3.367  0.6833 -0.4551 -0.6709
13027TIP3    H139022   2.136   6.932   3.319  1.2067  0.5999  0.7475
13027TIP3    H239023   2.081   6.816   3.400  2.0551  0.6270  1.3711
13028TIP3   OH239024   7.121   6.563   5.603  0.5521 -0.5741 -0.4021
13028TIP3    H139025   7.032   6.595   5.619  0.7945 -0.3423  0.5267
13028TIP3    H239026   7.114   6.510   5.524 -0.9971 -3.0169  1.3364
13029TIP3   OH239027   7.793   6.485   5.544 -0.1134  0.0962  0.1925
13029TIP3    H139028   7.827   6.400   5.571 -1.6271 -0.4052  0.5655
13029TIP3    H239029   7.699   6.481   5.565  0.0402  2.3171  1.4332
13030TIP3   OH239030   6.468   6.113   2.107  0.5023  0.9319  0.4643
13030TIP3    H139031   6.405   6.179   2.136 -0.1553  0.3200  0.4297
13030TIP3    H239032   6.463   6.116   2.011 -0.5181 -0.1255  0.4864
13031TIP3   OH239033   6.107   6.477   4.460  0.3445  0.4371  0.2252
13031TIP3    H139034   6.017   6.453   4.483 -0.1942 -0.8070 -3.0040
13031TIP3    H239035   6.156   6.463   4.541 -1.8801 -1.4457  1.3185
13032TIP3   OH239036   0.815   7.157   4.704  0.1661  0.5153 -0.1667
13032TIP3    H139037   0.868   7.227   4.742  0.3296  0.2568  0.0823
13032TIP3    H239038   0.734   7.200   4.679  0.5985  0.9739 -0.8003
13033TIP3   OH239039   8.532   5.495   6.243  0.0678 -0.3812 -0.5150
13033TIP3    H139040   8.546   5.517   6.150 -2.1667  1.0545 -0.5600
13033TIP3    H239041   8.440   5.470   6.248 -0.1950  0.8903  1.5655
13034TIP3   OH239042   7.627   8.100   4.116  0.0377  0.4262  0.1905
13034TIP3    H139043   7.613   8.057   4.032  2.3056  1.1189 -0.5789
13034TIP3    H239044   7.633   8.029   4.179 -0.0470 -0.1868 -0.4877
13035TIP3   OH239045   0.084   6.679   1.171 -0.0542 -0.2150 -0.4875
13035TIP3    H139046   0.131   6.659   1.252  0.9023 -0.8580 -1.2042
13035TIP3    H239047   0.088   6.599   1.120 -1.8579 -0.2605 -0.6108
13036TIP3   OH239048   6.475   6.224   4.156 -0.1611  0.0040 -0.0556
13036TIP3    H139049   6.410   6.243   4.088  0.5099  0.2125 -0.6507
13036TIP3    H239050   6.558   6.252   4.117  0.3150 -0.4991  0.6007
13037TIP3   OH239051   1.859   1.724   2.777  0.4726  0.2593  0.3572
13037TIP3    H139052   1.769   1.693   2.780  0.2826  0.7755  0.0274
13037TIP3    H239053   1.895   1.704   2.863 -0.7588  2.4543  1.4247
13038TIP3   OH239054   1.151   6.901   4.425 -0.1260 -0.5110 -0.2874
13038TIP3    H139055   1.121   6.823   4.380 -0.5418 -0.0820 -0.7605
13038TIP3    H239056   1.081   6.922   4.487 -0.8211  0.5139 -1.4195
13039TIP3   OH239057   8.215   7.138   3.150  0.0860  0.4807  0.0199
13039TIP3    H139058   8.157   7.203   3.111 -0.6450 -0.4550 -0.4578
13039TIP3    H239059   8.235   7.173   3.237 -1.5108  0.6155  0.3460
13040TIP3   OH239060   7.820   4.629   6.385 -0.1572  0.3341  0.4631
13040TIP3    H139061   7.892   4.615   6.447 -0.2489 -0.4761  0.3964
13040TIP3    H239062   7.810   4.545   6.340 -1.6265  0.2058  0.9852
13041TIP3   OH239063   0.615   5.953   3.923 -0.2100 -0.3953 -0.2353
13041TIP3    H139064   0.598   5.896   3.997  0.3379  1.7484  1.5821
13041TIP3    H239065   0.565   5.914   3.851 -1.6922 -1.8538  1.5354
13042TIP3   OH239066   7.704   6.091   6.796  0.4488 -0.0791  0.6714
13042TIP3    H139067   7.781   6.036   6.815 -0.4187 -0.8958  1.8880
13042TIP3    H239068   7.708   6.105   6.701  2.1467 -0.0343  0.7244
13043TIP3   OH239069   1.920   1.803   3.025  0.1801  0.0527 -0.1527
13043TIP3    H139070   1.863   1.841   3.092  1.6574 -0.7465  1.6061
13043TIP3    H239071   2.007   1.802   3.066  1.5622  1.5640 -2.8736
13044TIP3   OH239072   1.434   0.026   5.764 -0.6649  0.5791  0.0785
13044TIP3    H139073   1.387  -0.040   5.815 -0.4205 -1.0178 -1.7196
13044TIP3    H239074   1.441   0.101   5.824 -2.3065 -0.4373  1.6189
13045TIP3   OH239075   6.625   6.155   4.894 -0.3516 -0.3510 -0.3176
13045TIP3    H139076   6.716   6.178   4.876 -0.8998  0.6713 -1.8588
13045TIP3    H239077   6.605   6.086   4.830 -1.6208  1.6876 -2.1713
13046TIP3   OH239078   7.663   4.922   5.967 -0.0883 -0.8523 -0.1971
13046TIP3    H139079   7.717   5.000   5.956  0.1851 -1.2219 -1.6202
13046TIP3    H239080   7.613   4.938   6.047  0.9006  0.2228  0.2111
13047TIP3   OH239081   1.673   7.627   2.787  0.0329 -0.1230 -0.6818
13047TIP3    H139082   1.744   7.662   2.734  0.9800 -1.3011 -0.2276
13047TIP3    H239083   1.690   7.661   2.875 -0.3015  0.0594 -0.6845
13048TIP3   OH239084   2.133   6.876   5.564 -0.3691  0.1841  0.6571
13048TIP3    H139085   2.113   6.883   5.657 -2.8656  0.4392  0.1516
13048TIP3    H239086   2.073   6.808   5.532  1.6534 -1.1410 -0.4610
13049TIP3   OH239087   0.410   6.346   4.535 -0.3962 -0.0915 -0.7160
13049TIP3    H139088   0.463   6.278   4.576 -0.2584 -0.9869 -2.3502
13049TIP3    H239089   0.324   6.340   4.578 -0.0604 -0.5790 -0.1168
13050TIP3   OH239090   1.564   6.900   3.140 -0.0339  0.0894 -0.4069
13050TIP3    H139091   1.656   6.892   3.165  0.6502  2.4265 -2.0101
13050TIP3    H239092   1.549   6.830   3.077  1.1019  0.6723 -1.3320
13051TIP3   OH239093   1.032   6.667   2.626  0.1858 -0.1381  0.0244
13051TIP3    H139094   0.977   6.718   2.685 -0.7676  0.7035 -1.5498
13051TIP3    H239095   1.062   6.730   2.560 -0.1950 -1.3766 -1.3770
13052TIP3   OH239096   7.640   6.179   3.462  0.0786  0.6796  0.2080
13052TIP3    H139097   7.556   6.148   3.498 -0.4644  2.0943  0.1807
13052TIP3    H239098   7.642   6.144   3.373  0.0045 -0.2385  0.5587
13053TIP3   OH239099   1.924   6.317   3.796 -0.2676  0.0997  0.0925
13053TIP3    H139100   2.005   6.336   3.748 -0.0723 -1.0338 -0.0276
13053TIP3    H239101   1.939   6.354   3.883  0.3329 -0.0108  0.0399
13054TIP3   OH239102   1.280   5.277   4.791 -0.0169 -0.3630 -0.0324
13054TIP3    H139103   1.329   5.229   4.859 -2.2422 -1.8341  0.5761
13054TIP3    H239104   1.319   5.364   4.792  3.2558 -1.7295 -0.2426
13055TIP3   OH239105   6.896   4.548   3.956 -0.0065 -0.0306  0.4039
13055TIP3    H139106   6.952   4.527   3.881 -1.3240  1.0151 -0.9106
13055TIP3    H239107   6.924   4.488   4.025  0.9613 -1.2751 -1.0450
13056TIP3   OH239108   6.904   7.962   4.155 -0.5595  0.3981 -0.6874
13056TIP3    H139109   6.949   8.018   4.218  0.9031  0.1666 -1.5027
13056TIP3    H239110   6.933   7.994   4.069 -2.3158  0.5458 -1.2540
13057TIP3   OH239111   7.876   6.092   6.263 -0.4103  0.2889 -0.7348
13057TIP3    H139112   7.786   6.061   6.256 -0.3141  0.1580 -1.4154
13057TIP3    H239113   7.911   6.046   6.340 -0.4767 -0.7723 -1.3414
13058TIP3   OH239114   5.528   5.973   5.109  0.3524  0.1097 -0.2611
13058TIP3    H139115   5.583   6.017   5.174  2.0014  0.7967 -2.0453
13058TIP3    H239116   5.441   6.010   5.121  0.5474 -0.0354  1.7617
13059TIP3   OH239117   8.030   6.630   1.733 -0.5949 -0.5639  0.2806
13059TIP3    H139118   7.940   6.607   1.710 -1.0382  2.9023 -1.8759
13059TIP3    H239119   8.021   6.682   1.813 -0.2125 -2.3836  1.5351
13060TIP3   OH239120   6.035   7.643   4.866 -0.1036  0.0932 -0.3272
13060TIP3    H139121   6.045   7.602   4.952 -1.1762 -1.4639 -0.9291
13060TIP3    H239122   6.049   7.572   4.804 -0.8803  0.8685 -1.4112
13061TIP3   OH239123   7.011   6.437   3.988 -0.2008  0.5075  0.1192
13061TIP3    H139124   7.107   6.444   3.985 -0.0698 -0.7198  0.7997
13061TIP3    H239125   6.983   6.505   4.048  0.3495  0.1318  0.8045
13062TIP3   OH239126   8.120   3.684   2.897  0.5333 -0.6954  0.0198
13062TIP3    H139127   8.143   3.639   2.815 -1.3469  1.7048 -1.8998
13062TIP3    H239128   8.202   3.725   2.925  1.5194 -2.6526  0.1166
13063TIP3   OH239129   7.306   6.241   3.142  0.1040  0.2167 -0.1642
13063TIP3    H139130   7.304   6.159   3.191 -0.3855  0.0222 -0.5126
13063TIP3    H239131   7.289   6.215   3.051 -0.3542  0.7381 -0.2293
13064TIP3   OH239132   6.042   7.211   2.824  0.4700 -0.4297  1.0154
13064TIP3    H139133   6.021   7.296   2.862  0.9524  0.8954 -1.5322
13064TIP3    H239134   5.973   7.196   2.759  0.7567 -1.6628  0.9793
13065TIP3   OH239135   6.137   5.843   4.710 -0.1974 -0.0362 -1.0875
13065TIP3    H139136   6.089   5.926   4.709  1.1892  0.7704 -2.0529
13065TIP3    H239137   6.090   5.788   4.647 -1.1375 -0.0204 -0.4238
13066TIP3   OH239138   1.512   0.480   3.854 -0.2323  0.0038  0.3106
13066TIP3    H139139   1.553   0.436   3.780 -1.0396  0.7030 -0.5778
13066TIP3    H239140   1.456   0.413   3.894 -0.1452 -0.2553 -0.0000
13067TIP3   OH239141   7.228   5.063   3.930  0.4231 -0.0318  0.1931
13067TIP3    H139142   7.180   4.994   3.976 -0.6020  1.0203  0.7243
13067TIP3    H239143   7.185   5.071   3.846  1.0257 -0.5537 -0.1731
13068TIP3   OH239144   0.311   4.725   3.934 -0.2568  0.3905 -0.0252
13068TIP3    H139145   0.276   4.802   3.979  0.0875  0.1664  0.6269
13068TIP3    H239146   0.398   4.751   3.905 -1.0207  1.0098 -1.8128
13069TIP3   OH239147   0.940   7.000   4.132 -0.4424  0.0145  0.6067
13069TIP3    H139148   1.028   6.978   4.102 -0.7167 -0.8753  0.4508
13069TIP3    H239149   0.908   7.063   4.067 -0.3499 -0.5341  0.0223
13070TIP3   OH239150   5.966   3.412   4.582 -0.0552  0.5043  0.1895
13070TIP3    H139151   6.043   3.411   4.525  0.2672  0.2304  0.6270
13070TIP3    H239152   5.971   3.329   4.630 -1.3819 -0.1571 -0.7841
13071TIP3   OH239153   7.362   6.780   4.136 -0.1238 -0.2917 -0.2463
13071TIP3    H139154   7.448   6.815   4.158 -0.0756 -0.1614 -0.6371
13071TIP3    H239155   7.345   6.812   4.048 -0.8595  0.2513  0.0805
13072TIP3   OH239156   0.918   4.305   3.090  0.0813  0.1839  0.3846
13072TIP3    H139157   0.933   4.342   3.177  0.7169  1.9778 -0.4675
13072TIP3    H239158   0.908   4.381   3.033 -3.0371 -0.9294 -0.6790
13073TIP3   OH239159   6.482   6.556   3.951  0.4752  0.2128  0.5068
13073TIP3    H139160   6.539   6.607   4.009 -0.4642  0.1491  1.5011
13073TIP3    H239161   6.525   6.561   3.866  0.9735  1.7477  0.8230
13074TIP3   OH239162   5.269   5.167   3.075  0.1377  0.2010 -0.2145
13074TIP3    H139163   5.283   5.257   3.103  0.0096  0.0152  0.4404
13074TIP3    H239164   5.209   5.174   3.001  0.9861  0.7362 -0.8683
13075TIP3   OH239165   7.285   4.184   2.094  0.2516  0.3034 -0.8821
13075TIP3    H139166   7.293   4.167   2.001 -1.6864 -0.0950 -0.9950
13075TIP3    H239167   7.264   4.278   2.100  1.2167  0.5235 -0.7801
13076TIP3   OH239168   7.708   6.505   3.830 -0.5115 -0.2411 -0.1580
13076TIP3    H139169   7.753   6.486   3.912 -0.3168 -4.3492 -1.1101
13076TIP3    H239170   7.615   6.509   3.854 -0.3594 -0.2825  0.4391
13077TIP3   OH239171   7.302   7.464   3.430  0.3215  0.0279  0.0594
13077TIP3    H139172   7.223   7.413   3.410  0.2251  1.1814 -2.7533
13077TIP3    H239173   7.270   7.537   3.485 -0.7694  1.0293 -1.8601
13078TIP3   OH239174   7.731   2.924   5.374 -0.1267  0.0246 -0.6696
13078TIP3    H139175   7.688   2.879   5.447 -0.8296 -0.9831 -1.6762
13078TIP3    H239176   7.705   2.873   5.297  1.8157  0.1857 -1.4427
13079TIP3   OH239177   4.269   0.948   0.167  0.6007 -0.1602  0.2416
13079TIP3    H139178   4.292   1.039   0.185  0.6796  0.0121 -0.6753
13079TIP3    H239179   4.173   0.946   0.170  0.6430 -0.5433  2.5009
13080TIP3   OH239180   3.013   1.303   1.286 -0.2891  0.6202  0.0091
13080TIP3    H139181   3.048   1.276   1.371  0.4829  1.2390 -0.1107
13080TIP3    H239182   2.995   1.220   1.240 -0.3623  0.2887  0.6231
13081TIP3   OH239183   2.780   0.802   3.460  0.3615  0.3871  0.2518
13081TIP3    H139184   2.853   0.803   3.398 -0.1131 -0.3395 -0.3219
13081TIP3    H239185   2.704   0.826   3.407 -0.0052 -0.0004  0.6039
13082TIP3   OH239186   5.890   1.036   6.334  0.6954 -0.2720  0.1205
13082TIP3    H139187   5.888   0.972   6.263 -1.9062  2.2353 -2.2010
13082TIP3    H239188   5.979   1.071   6.332  0.1698  1.1732 -3.3831
13083TIP3   OH239189   1.547   1.691   6.315 -1.1104  0.3810  0.4709
13083TIP3    H139190   1.479   1.733   6.264 -0.1658  0.7600 -0.4968
13083TIP3    H239191   1.627   1.702   6.263 -0.2469  0.2288  1.7255
13084TIP3   OH239192   6.150   1.637   7.021  1.0098  0.0985  0.3175
13084TIP3    H139193   6.134   1.731   7.018 -1.3343 -0.2455  0.9838
13084TIP3    H239194   6.179   1.614   6.932  1.4671  1.4262  0.1256
13085TIP3   OH239195   6.653   3.969   0.684  0.6611 -0.1799 -0.0196
13085TIP3    H139196   6.672   3.878   0.660  0.8426  0.0349 -0.6931
13085TIP3    H239197   6.566   3.986   0.648  0.7457  0.0021 -0.1374
13086TIP3   OH239198   5.164   1.107   7.010 -0.1804  0.5594 -0.5029
13086TIP3    H139199   5.130   1.031   7.057 -3.6235  1.2628 -1.6515
13086TIP3    H239200   5.187   1.073   6.924  0.4921  0.3746 -0.2483
13087TIP3   OH239201   4.029   2.299   6.316 -0.2557  0.5375  0.0470
13087TIP3    H139202   3.963   2.338   6.259 -0.3425  1.1318  0.5430
13087TIP3    H239203   3.982   2.282   6.398 -0.0795 -0.1018  0.0162
13088TIP3   OH239204   5.856   2.853   1.208  0.0959 -0.1179  0.2067
13088TIP3    H139205   5.794   2.801   1.157 -0.0522 -1.1470  1.4033
13088TIP3    H239206   5.928   2.794   1.227 -0.6523 -0.3197  2.6594
13089TIP3   OH239207   1.742   7.289   6.023  0.2898  0.2704  0.1473
13089TIP3    H139208   1.725   7.211   6.075  1.5009 -0.4768 -0.5612
13089TIP3    H239209   1.834   7.283   5.998 -0.3872  0.2956 -2.5638
13090TIP3   OH239210   7.609   3.814   0.066 -0.0490 -0.1079 -0.0254
13090TIP3    H139211   7.538   3.818   0.129 -0.6422  2.6503 -0.7772
13090TIP3    H239212   7.680   3.864   0.106  1.0922 -1.8908  0.2351
13091TIP3   OH239213   7.876   3.982   1.177  0.1227 -0.0932 -0.4908
13091TIP3    H139214   7.942   3.913   1.173 -0.2470 -0.5717  1.3555
13091TIP3    H239215   7.927   4.063   1.174  0.7928 -0.4637  0.5944
13092TIP3   OH239216   1.878   2.208   5.263  0.4406 -0.1187 -0.7499
13092TIP3    H139217   1.910   2.230   5.175  1.6042  1.9487  0.1589
13092TIP3    H239218   1.949   2.233   5.322 -0.6078 -0.8025  0.8510
13093TIP3   OH239219   2.513   0.207   2.920  0.5089 -0.4438 -0.2423
13093TIP3    H139220   2.526   0.120   2.957  0.3080 -0.2913  0.1855
13093TIP3    H239221   2.450   0.193   2.849 -1.0428 -0.3506  1.0742
13094TIP3   OH239222   7.378   4.194   1.358 -0.0606  0.7565 -0.0169
13094TIP3    H139223   7.452   4.133   1.349 -0.7179 -0.1235  0.4637
13094TIP3    H239224   7.401   4.268   1.302  1.5780  0.8653  0.7858
13095TIP3   OH239225   7.714   2.638   1.056  0.0275  0.3933 -0.3662
13095TIP3    H139226   7.652   2.630   1.129 -0.3055  1.6453 -0.5031
13095TIP3    H239227   7.737   2.731   1.055  1.9529 -0.0701 -0.2870
13096TIP3   OH239228   1.859   7.529   4.884  0.5704  0.1982 -0.0987
13096TIP3    H139229   1.914   7.482   4.822 -1.5519 -0.3561 -1.5882
13096TIP3    H239230   1.774   7.538   4.841 -1.4665 -1.5880  3.3006
13097TIP3   OH239231   5.033   0.371   6.057  0.8666  0.1640 -0.1294
13097TIP3    H139232   5.107   0.401   6.109 -0.4630  0.7158  1.4950
13097TIP3    H239233   4.970   0.339   6.122 -0.0839 -0.8121 -1.5110
13098TIP3   OH239234   1.777   6.892   5.481 -0.4108 -0.2027 -0.1421
13098TIP3    H139235   1.786   6.988   5.486  1.2803 -0.2227 -2.4306
13098TIP3    H239236   1.777   6.864   5.572 -1.4596  2.0258  0.5877
13099TIP3   OH239237   1.545   7.505   6.074  0.2495  0.2735 -0.1360
13099TIP3    H139238   1.466   7.472   6.116  1.2900  0.4897  2.0109
13099TIP3    H239239   1.605   7.431   6.073  0.2856  0.3013 -1.1655
13100TIP3   OH239240   1.600   7.310   5.617 -0.5539 -0.2179 -0.0347
13100TIP3    H139241   1.549   7.349   5.546  1.4388  0.4537 -1.1187
13100TIP3    H239242   1.642   7.384   5.661  0.4549 -0.8442  0.0888
13101TIP3   OH239243   1.513   0.868   5.835  0.1233  0.1448  0.3446
13101TIP3    H139244   1.571   0.792   5.835  0.4786  0.4180  0.8200
13101TIP3    H239245   1.445   0.846   5.771 -0.6554 -1.2365  1.6308
13102TIP3   OH239246   4.431   0.898   6.756 -0.0631  0.3787 -0.3462
13102TIP3    H139247   4.382   0.978   6.737 -1.2903 -0.8169 -2.4134
13102TIP3    H239248   4.366   0.839   6.793  0.8835  0.3727  1.3509
13103TIP3   OH239249   0.624   4.051   1.521  0.0724  0.2706  0.3271
13103TIP3    H139250   0.689   3.986   1.547 -0.0449 -0.3794 -0.9620
13103TIP3    H239251   0.672   4.133   1.518  0.7473 -0.1441 -0.2411
13104TIP3   OH239252   5.247   1.768   6.626 -1.0410  0.0867  0.0311
13104TIP3    H139253   5.208   1.831   6.565 -1.1490  1.7139  1.7040
13104TIP3    H239254   5.320   1.815   6.665 -2.1476 -0.1778  2.5478
13105TIP3   OH239255   6.268   2.433   0.792 -0.1009 -0.0490  0.2392
13105TIP3    H139256   6.356   2.405   0.816 -0.3152 -1.0794 -0.1866
13105TIP3    H239257   6.282   2.512   0.739  0.5598 -0.1806  0.2117
13106TIP3   OH239258   1.515   6.932   6.472  0.3770 -0.4280  0.2239
13106TIP3    H139259   1.598   6.899   6.437  0.1746  0.0991 -0.7648
13106TIP3    H239260   1.449   6.900   6.410  0.3555  3.4122 -1.8630
13107TIP3   OH239261   7.120   4.506   0.610 -0.3061 -0.1894  0.0551
13107TIP3    H139262   7.139   4.583   0.556  1.3975  1.1137  2.3703
13107TIP3    H239263   7.026   4.494   0.603 -0.4864  1.6507 -0.9630
13108TIP3   OH239264   7.621   6.028   6.235  0.0712 -0.6238  0.1751
13108TIP3    H139265   7.604   6.044   6.142  1.4393 -2.3267 -0.4094
13108TIP3    H239266   7.561   5.957   6.258 -2.6586  2.0520  1.5073
13109TIP3   OH239267   6.207   4.419   1.111 -0.3541 -0.3208 -0.2696
13109TIP3    H139268   6.237   4.349   1.169  0.0961  0.7239  0.7974
13109TIP3    H239269   6.251   4.402   1.028 -0.9105 -1.7695 -0.2840
13110TIP3   OH239270   3.431   0.671   6.784  0.1444 -0.0430 -0.1478
13110TIP3    H139271   3.344   0.691   6.817  0.7427  0.1527  1.3654
13110TIP3    H239272   3.475   0.756   6.778  1.1369 -0.3994  1.7852
13111TIP3   OH239273   2.208   7.304   5.450 -0.4726 -0.5901 -0.4957
13111TIP3    H139274   2.193   7.242   5.379 -0.8243 -1.0655 -0.0080
13111TIP3    H239275   2.224   7.388   5.406 -2.2944 -0.5453 -1.0826
13112TIP3   OH239276   6.111   4.890   0.421 -0.1835 -0.0481 -0.2537
13112TIP3    H139277   6.118   4.981   0.394  0.1035 -0.2736 -0.9483
13112TIP3    H239278   6.146   4.840   0.347 -0.4003 -0.7226  0.0938
13113TIP3   OH239279   4.535   1.745   5.711 -0.1021  0.1314 -0.6588
13113TIP3    H139280   4.478   1.777   5.640 -0.5543 -0.4887 -0.5770
13113TIP3    H239281   4.514   1.801   5.786  1.2706  1.6142 -1.3460
13114TIP3   OH239282   1.177   6.861   3.998  0.1072 -0.5983  0.7530
13114TIP3    H139283   1.092   6.818   3.991  0.5865 -1.5098  0.5078
13114TIP3    H239284   1.197   6.858   4.092 -0.4466  0.2396  0.9020
13115TIP3   OH239285   7.726   3.681   0.484  0.0487  0.2852  0.4666
13115TIP3    H139286   7.678   3.761   0.508 -0.9791 -0.1760  0.0039
13115TIP3    H239287   7.666   3.610   0.508  0.4601 -0.2972 -0.2171
13116TIP3   OH239288   4.401   0.439   5.937  0.5035 -0.2859 -0.2586
13116TIP3    H139289   4.420   0.504   5.869 -1.4656  0.0708 -0.5005
13116TIP3    H239290   4.353   0.370   5.891 -1.7307  0.4246  0.9269
13117TIP3   OH239291   3.969   0.865   5.667  0.4940  0.3314  0.2180
13117TIP3    H139292   3.884   0.906   5.647 -0.2713 -1.3325 -0.0779
13117TIP3    H239293   3.950   0.806   5.740  1.3955 -0.0067  0.1832
13118TIP3   OH239294   0.593   5.664   4.483 -0.2421 -0.0282 -0.0832
13118TIP3    H139295   0.549   5.682   4.567 -0.7169 -0.1771 -0.2956
13118TIP3    H239296   0.532   5.607   4.436 -0.9360  1.7381 -1.3832
13119TIP3   OH239297   7.995   4.774   0.482  0.2470 -0.1524  0.4689
13119TIP3    H139298   8.008   4.693   0.432  0.0408  0.6875 -0.9681
13119TIP3    H239299   7.953   4.745   0.563 -1.6542 -1.2950 -0.8813
13120TIP3   OH239300   7.091   1.900   5.177  0.9535  0.3827  0.1354
13120TIP3    H139301   7.129   1.964   5.116  0.7637 -0.3609 -0.7614
13120TIP3    H239302   7.021   1.858   5.128  1.4106 -0.8867  0.5632
13121TIP3   OH239303   6.259   0.281   4.211  0.0149 -0.2461  0.6022
13121TIP3    H139304   6.184   0.338   4.190 -0.0435 -0.5468 -0.0213
13121TIP3    H239305   6.266   0.223   4.135  0.0183 -1.1265  1.2717
13122TIP3   OH239306   4.007   0.929   6.218 -0.0322  0.1442  0.1865
13122TIP3    H139307   3.953   0.852   6.239  0.0568 -0.2134 -0.8447
13122TIP3    H239308   4.018   0.925   6.123  2.7968 -0.4529  0.4981
13123TIP3   OH239309   1.022   5.901   6.532  0.1081 -0.3134 -0.1565
13123TIP3    H139310   1.052   5.899   6.441 -1.2395 -0.6284 -0.5993
13123TIP3    H239311   0.930   5.927   6.527  0.0148 -0.3509  1.1190
13124TIP3   OH239312   3.114   7.563   6.571 -0.6004 -0.0377  0.3157
13124TIP3    H139313   3.064   7.572   6.652 -2.4464 -1.4096 -0.6219
13124TIP3    H239314   3.074   7.626   6.511  0.3342  0.5215  0.2816
13125TIP3   OH239315   4.812   1.017   5.657 -0.2617 -0.3225 -0.4260
13125TIP3    H139316   4.754   0.941   5.647 -2.2965  1.0033  0.9021
13125TIP3    H239317   4.771   1.085   5.605 -0.3608  0.8817  1.1879
13126TIP3   OH239318   7.282   5.092   0.476 -0.2051  0.2769  0.4464
13126TIP3    H139319   7.188   5.095   0.492  0.0099  2.0643  1.5203
13126TIP3    H239320   7.290   5.065   0.384 -1.7957  1.4441 -0.0600
13127TIP3   OH239321   5.024   1.117   5.475  0.0781  0.3598 -0.0347
13127TIP3    H139322   4.975   1.125   5.557 -0.1678 -1.1732 -0.0268
13127TIP3    H239323   5.049   1.025   5.471 -1.5048 -0.0011 -2.6017
13128TIP3   OH239324   6.676   3.584   0.556 -0.2282  0.6790  0.3783
13128TIP3    H139325   6.586   3.607   0.531 -1.2136 -0.2196  2.9224
13128TIP3    H239326   6.676   3.489   0.559  0.2711  0.7140  2.1687
13129TIP3   OH239327   5.670   0.107   6.567  0.1380  0.1435  0.0024
13129TIP3    H139328   5.710   0.159   6.498 -0.9828 -1.5452 -1.9796
13129TIP3    H239329   5.743   0.084   6.626  1.3323  0.5485 -1.3142
13130TIP3   OH239330   6.776   2.974   0.190  0.2236  0.2740  0.6114
13130TIP3    H139331   6.863   3.014   0.195  0.5802 -0.3316 -0.7683
13130TIP3    H239332   6.781   2.898   0.248  1.1224 -0.6782 -0.6766
13131TIP3   OH239333   5.161   0.762   6.517  0.3646 -0.1401  0.5207
13131TIP3    H139334   5.115   0.707   6.454  0.4189  0.1501  0.2298
13131TIP3    H239335   5.108   0.842   6.522  1.1786  0.4463 -0.2699
13132TIP3   OH239336   8.072   3.041   0.407  0.1220 -0.4034  0.4417
13132TIP3    H139337   8.105   2.998   0.486  1.6373 -1.3192 -0.6560
13132TIP3    H239338   8.078   3.135   0.425 -3.9372 -0.5332  3.1644
13133TIP3   OH239339   4.827   0.074   6.700  0.6544 -0.4611  0.6945
13133TIP3    H139340   4.899   0.032   6.746  1.0938 -0.9567 -0.4377
13133TIP3    H239341   4.820   0.028   6.617 -0.1418  0.4141  0.2548
13134TIP3   OH239342   0.287   7.032   2.957 -0.2986 -0.2563 -0.2150
13134TIP3    H139343   0.321   6.983   3.032 -0.0796  0.2444  0.0097
13134TIP3    H239344   0.212   7.080   2.991 -0.2672 -0.1178 -0.3409
13135TIP3   OH239345   7.192   0.914   6.826  0.2065 -0.2131 -0.3013
13135TIP3    H139346   7.221   0.927   6.735  2.9625 -0.0369  0.5654
13135TIP3    H239347   7.182   0.820   6.835  2.9110 -0.4991  0.0513
13136TIP3   OH239348   4.188   2.027   6.397  0.0173 -0.0199 -0.5541
13136TIP3    H139349   4.154   2.031   6.308 -1.2334 -1.5170 -0.1565
13136TIP3    H239350   4.187   2.119   6.427  0.4989  0.4864 -2.0842
13137TIP3   OH239351   6.516   4.419   0.532  0.2793 -0.3353 -0.1374
13137TIP3    H139352   6.510   4.510   0.561  1.4324  0.0613 -1.0872
13137TIP3    H239353   6.426   4.395   0.510 -0.0880  0.4549  0.4656
13138TIP3   OH239354   4.139   0.107   6.739 -0.1126  0.6459 -0.4026
13138TIP3    H139355   4.183   0.047   6.800 -2.0229 -1.8514 -1.4152
13138TIP3    H239356   4.050   0.114   6.773 -0.7755  0.4010 -2.0595
13139TIP3   OH239357   6.229   0.704   5.393 -0.4890  0.1173 -0.5686
13139TIP3    H139358   6.190   0.770   5.335  0.3243  1.4816  0.3938
13139TIP3    H239359   6.232   0.747   5.478  1.1616 -0.7254 -0.1878
13140TIP3   OH239360   6.890   2.756   2.285 -0.0115  0.1793  0.1762
13140TIP3    H139361   6.823   2.757   2.354  0.9526  0.6061  1.1121
13140TIP3    H239362   6.893   2.847   2.253 -1.0799 -0.1998 -1.0511
13141TIP3   OH239363   3.129   0.089   2.662 -0.1118  0.2022 -0.1235
13141TIP3    H139364   3.041   0.075   2.697 -0.5868  0.5877 -1.1413
13141TIP3    H239365   3.155   0.175   2.694  0.4167 -0.4427  1.2246
13142TIP3   OH239366   3.176   1.375   4.501  0.0444  0.0538  0.5453
13142TIP3    H139367   3.244   1.385   4.569  0.3962 -1.4044  0.4417
13142TIP3    H239368   3.117   1.309   4.537  0.0595 -0.5014 -0.4156
13143TIP3   OH239369   0.784   7.214   3.701 -0.3068  0.0959  0.6592
13143TIP3    H139370   0.837   7.135   3.703 -1.2974 -0.5506  1.5728
13143TIP3    H239371   0.777   7.242   3.792  1.6829  2.3619  0.1679
13144TIP3   OH239372   3.253   7.441   5.515  0.5452  0.8590 -0.4853
13144TIP3    H139373   3.310   7.446   5.592 -0.0661 -1.3550  0.1603
13144TIP3    H239374   3.175   7.491   5.539 -0.2698 -1.0158  0.9585
13145TIP3   OH239375   4.939   1.070   4.709  0.3386 -0.1508  0.1970
13145TIP3    H139376   4.889   1.151   4.701  1.6107  0.7904  1.6172
13145TIP3    H239377   4.897   1.022   4.781 -0.1904 -0.6164 -0.4075
13146TIP3   OH239378   3.271   4.171   5.799 -0.0365 -0.2610 -0.2717
13146TIP3    H139379   3.205   4.109   5.769  1.5620 -1.3933 -1.5109
13146TIP3    H239380   3.254   4.182   5.893 -1.1235 -1.5834 -0.3145
13147TIP3   OH239381   3.534   1.031   5.449 -0.1941  0.2378  0.1963
13147TIP3    H139382   3.466   0.963   5.443 -1.5748  1.4616  1.4003
13147TIP3    H239383   3.499   1.103   5.396  2.2081 -0.7274 -2.7757
13148TIP3   OH239384   3.825   5.387   4.872 -0.6728  0.4434  0.1422
13148TIP3    H139385   3.865   5.300   4.868  1.1929  1.3118 -0.5652
13148TIP3    H239386   3.731   5.370   4.869 -0.3540 -1.5795  0.6965
13149TIP3   OH239387   5.572   1.124   6.835 -0.3759  0.2701 -0.7007
13149TIP3    H139388   5.490   1.170   6.849 -0.2113  0.1726  0.5819
13149TIP3    H239389   5.636   1.170   6.889  0.3838  0.2438 -1.5603
13150TIP3   OH239390   0.844   5.980   6.120  0.4166 -0.6284 -0.2067
13150TIP3    H139391   0.783   5.917   6.081  0.4482  0.1350 -1.5145
13150TIP3    H239392   0.810   6.066   6.093  0.8362 -0.1117  0.8782
13151TIP3   OH239393   5.987  -0.014   5.341  0.3420  0.4530 -0.6794
13151TIP3    H139394   6.052   0.056   5.347  0.4827  0.3265 -0.7210
13151TIP3    H239395   5.925   0.016   5.275 -0.4976  1.2778  0.4468
13152TIP3   OH239396   3.866   0.716   6.842 -0.1190  0.2601 -0.1097
13152TIP3    H139397   3.815   0.775   6.786  0.0708  1.2930  0.7855
13152TIP3    H239398   3.821   0.632   6.834 -0.4194  0.5226 -1.3758
13153TIP3   OH239399   7.051   0.322   6.940  0.4304  0.0698 -0.1329
13153TIP3    H139400   7.013   0.240   6.971 -2.6523  1.1805 -0.8143
13153TIP3    H239401   7.035   0.385   7.011  0.6374  0.6518 -0.5991
13154TIP3   OH239402   0.820   2.913   3.032 -0.0387  0.3092 -0.5066
13154TIP3    H139403   0.778   2.831   3.007 -0.2873  0.7426 -1.5205
13154TIP3    H239404   0.764   2.981   2.996  1.0381  0.9000 -1.1215
13155TIP3   OH239405   0.705   6.236   4.875  1.0473  0.1251  0.3343
13155TIP3    H139406   0.789   6.204   4.842  1.6488  0.2860  1.6559
13155TIP3    H239407   0.729   6.310   4.932 -0.1423  1.4517 -0.8709
13156TIP3   OH239408   1.007   6.337   5.476  0.2477 -0.1344  0.0878
13156TIP3    H139409   1.046   6.423   5.458 -1.5973  0.9070  0.9380
13156TIP3    H239410   0.960   6.314   5.395  1.9970 -1.0649 -0.6840
13157TIP3   OH239411   0.760   6.190   5.975 -0.6460 -0.2226  0.1357
13157TIP3    H139412   0.700   6.260   6.001 -0.1131  1.0956 -2.0569
13157TIP3    H239413   0.748   6.181   5.880  1.1817 -1.2944 -0.0339
13158TIP3   OH239414   5.947   0.737   4.694  0.1117  0.2562 -0.6160
13158TIP3    H139415   6.004   0.805   4.729  1.0707 -0.9600  0.2217
13158TIP3    H239416   5.900   0.704   4.770  0.9652 -1.2401 -0.7141
13159TIP3   OH239417   0.809   4.759   0.124 -0.2366  0.7567 -0.1340
13159TIP3    H139418   0.718   4.762   0.097 -0.8910 -0.2718  1.8975
13159TIP3    H239419   0.858   4.757   0.041 -1.9768  2.4631 -1.2399
13160TIP3   OH239420   6.387   4.026   0.601 -0.0915  0.5315 -0.3648
13160TIP3    H139421   6.329   4.095   0.633  0.1462 -0.5684  2.6582
13160TIP3    H239422   6.329   3.953   0.581 -0.0317  0.4344 -0.1875
13161TIP3   OH239423   0.340   6.955   6.874  0.0927 -0.1480  0.8984
13161TIP3    H139424   0.256   6.990   6.905 -1.3461 -1.8718 -0.8882
13161TIP3    H239425   0.342   6.866   6.908 -0.1997 -1.1030 -1.5001
13162TIP3   OH239426   6.106   6.006   1.325 -0.1306  0.2659  0.0339
13162TIP3    H139427   6.066   5.978   1.407 -0.8999  2.0793  0.3127
13162TIP3    H239428   6.106   5.928   1.270  1.2041 -1.2109  2.0574
13163TIP3   OH239429   1.928   7.831   4.770 -0.1645 -0.3060  0.0988
13163TIP3    H139430   1.888   7.918   4.771  0.1871 -0.1451  0.3437
13163TIP3    H239431   1.941   7.809   4.862  0.0480 -0.4775  0.0300
13164TIP3   OH239432   3.466   2.000   6.280  0.1454 -0.0064  0.0700
13164TIP3    H139433   3.538   1.938   6.292  0.7270  1.0078  2.0771
13164TIP3    H239434   3.473   2.028   6.189  1.7977 -0.5640  0.0161
13165TIP3   OH239435   2.613   4.506   0.130 -0.0100 -0.1308  0.4357
13165TIP3    H139436   2.632   4.485   0.039 -0.8466 -0.4128  0.3232
13165TIP3    H239437   2.665   4.443   0.180  1.4779  0.8789  0.1862
13166TIP3   OH239438   1.516   7.452   5.156 -0.6027  0.5959  0.3058
13166TIP3    H139439   1.610   7.434   5.157 -0.8204 -0.6034  0.8447
13166TIP3    H239440   1.505   7.522   5.092  0.6730  0.8444  0.3447
13167TIP3   OH239441   2.235   8.006   5.175  0.2867  0.5313  0.3920
13167TIP3    H139442   2.182   8.046   5.106  0.8836  1.0088  0.2079
13167TIP3    H239443   2.200   8.042   5.256 -0.6698 -0.3235  0.3670
13168TIP3   OH239444   6.982   4.776   1.554  0.1256 -0.6285 -0.0439
13168TIP3    H139445   6.975   4.872   1.561  1.3966 -0.4055 -1.5268
13168TIP3    H239446   7.058   4.754   1.607  0.0638 -0.7800 -0.0194
13169TIP3   OH239447   3.182   0.912   4.874 -0.5084  0.5675 -0.6073
13169TIP3    H139448   3.158   0.892   4.784  2.4593 -0.2844 -1.2601
13169TIP3    H239449   3.260   0.859   4.891 -1.4337  0.1537  2.7118
13170TIP3   OH239450   7.216   4.542   0.247 -0.1983  0.4927  0.6019
13170TIP3    H139451   7.175   4.599   0.312 -0.3154  1.0574  0.0419
13170TIP3    H239452   7.155   4.470   0.236 -0.7035  0.9653  0.2954
13171TIP3   OH239453   5.423   6.011   0.078  0.1732 -0.2172 -0.1681
13171TIP3    H139454   5.382   5.979  -0.003 -1.4136  0.2692  0.4339
13171TIP3    H239455   5.509   5.968   0.079 -0.3542 -1.3488 -1.3902
13172TIP3   OH239456   0.617   7.449   3.867 -0.4374  0.0572 -0.0567
13172TIP3    H139457   0.602   7.355   3.870  1.3188 -0.2012  2.8174
13172TIP3    H239458   0.669   7.463   3.788 -1.1675 -1.3136 -0.7850
13173TIP3   OH239459   6.201   4.196   0.737  0.3598 -0.2655 -0.8267
13173TIP3    H139460   6.135   4.265   0.741  0.4286 -0.2082 -0.6930
13173TIP3    H239461   6.183   4.141   0.813  1.4001  0.5976  0.0654
13174TIP3   OH239462   4.784   0.132   5.011 -0.0092  0.0666  0.5927
13174TIP3    H139463   4.849   0.062   5.005  0.0348  0.2111 -0.7785
13174TIP3    H239464   4.808   0.194   4.942 -1.5339  0.1667  0.1252
13175TIP3   OH239465   5.127   0.593   5.320  0.3349 -0.1540  0.5521
13175TIP3    H139466   5.149   0.610   5.228  0.9506 -2.9096  0.1576
13175TIP3    H239467   5.191   0.528   5.348 -0.8829 -0.5518  2.4693
13176TIP3   OH239468   7.473   3.148   0.282 -0.9745 -0.1436  0.1831
13176TIP3    H139469   7.432   3.193   0.208 -0.4878  0.1028  0.0604
13176TIP3    H239470   7.472   3.055   0.256 -0.4858 -0.0216 -0.2936
13177TIP3   OH239471   2.814   6.588   5.558 -0.0818  0.2718  0.1345
13177TIP3    H139472   2.844   6.514   5.506  0.0699 -0.6266  1.4857
13177TIP3    H239473   2.738   6.556   5.606 -0.2573  1.1052  0.4327
13178TIP3   OH239474   0.952   7.676   4.277  0.0819  0.3577  0.4137
13178TIP3    H139475   0.973   7.711   4.364 -0.6963  2.1624 -0.1087
13178TIP3    H239476   0.859   7.694   4.266 -0.4423 -2.2601  0.2707
13179TIP3   OH239477   6.184   0.550   6.144  0.3334 -0.6237  0.6183
13179TIP3    H139478   6.246   0.559   6.216  0.3567  0.7742  0.4263
13179TIP3    H239479   6.100   0.575   6.182  0.3050 -0.1161  0.2268
13180TIP3   OH239480   1.904   7.716   5.473 -0.1984 -0.3032 -0.5003
13180TIP3    H139481   1.890   7.674   5.558 -0.2498 -1.6392 -1.1548
13180TIP3    H239482   1.837   7.678   5.416 -0.7716  1.2955 -0.8969
13181TIP3   OH239483   5.784   1.209   5.987  0.0950  0.7954  0.4491
13181TIP3    H139484   5.865   1.257   5.971 -1.6714  3.5902 -0.5701
13181TIP3    H239485   5.776   1.206   6.082  1.2438  0.8002  0.5469
13182TIP3   OH239486   1.806   6.385   6.906  0.3217  0.1676 -0.1454
13182TIP3    H139487   1.717   6.366   6.936  0.5705  0.7516  0.9967
13182TIP3    H239488   1.821   6.476   6.933  1.0468  0.2661 -0.8676
13183TIP3   OH239489   7.322   5.080   0.213  0.3588  0.4832  0.0619
13183TIP3    H139490   7.260   5.131   0.161  0.0427  0.0520  0.0114
13183TIP3    H239491   7.400   5.136   0.220  1.1832 -0.2585 -2.6043
13184TIP3   OH239492   0.705   7.875   3.581  0.5459 -0.1138  0.2308
13184TIP3    H139493   0.774   7.940   3.569  1.6071 -1.2424  0.0927
13184TIP3    H239494   0.700   7.830   3.497 -1.6703  1.1991 -0.3685
13185TIP3   OH239495   8.159   1.989   0.590 -0.0809  0.4330  0.5273
13185TIP3    H139496   8.093   2.019   0.527 -0.2036  1.0782  0.9622
13185TIP3    H239497   8.111   1.930   0.648  0.6559 -2.5473 -1.7458
13186TIP3   OH239498   5.376   2.357   6.875 -0.8953 -0.3243 -0.5251
13186TIP3    H139499   5.387   2.325   6.785  0.6671  0.2381 -0.5496
13186TIP3    H239500   5.285   2.337   6.896 -0.9927 -1.4132 -1.8618
13187TIP3   OH239501   0.894   0.537   5.051 -0.4983 -0.1266  0.4956
13187TIP3    H139502   0.936   0.455   5.024  0.4857  0.8362 -0.9929
13187TIP3    H239503   0.817   0.510   5.100 -0.6327 -1.9512 -0.6737
13188TIP3   OH239504   4.411   7.481   2.546 -0.3951  0.4939  0.0208
13188TIP3    H139505   4.465   7.543   2.594 -0.1365  0.6920 -0.5167
13188TIP3    H239506   4.472   7.413   2.517 -0.4708  0.5884 -0.3712
13189TIP3   OH239507   2.849   2.618   4.736  0.2498 -0.3162  0.3336
13189TIP3    H139508   2.855   2.650   4.646 -0.7315  1.2987  0.8272
13189TIP3    H239509   2.756   2.600   4.749  0.3229 -0.0727  1.1821
13190TIP3   OH239510   2.837   1.637   3.946  0.1100  0.0194 -0.0489
13190TIP3    H139511   2.755   1.624   3.898 -0.6924 -0.3087  1.3809
13190TIP3    H239512   2.852   1.553   3.989  0.6984  0.3943  0.4704
13191TIP3   OH239513   6.818   4.135   0.512 -0.4952 -0.4741 -0.1206
13191TIP3    H139514   6.900   4.169   0.476 -0.8262 -0.5624 -0.9696
13191TIP3    H239515   6.845   4.083   0.588  0.1058  0.6954  0.4738
13192TIP3   OH239516   3.236   0.919   6.818 -0.2340  0.2864 -0.1513
13192TIP3    H139517   3.298   0.935   6.747 -0.6896  0.6479 -0.4658
13192TIP3    H239518   3.281   0.951   6.897  0.4133 -0.4294 -0.2136
13193TIP3   OH239519   1.072   6.575   6.195  0.1933 -0.3738  0.0278
13193TIP3    H139520   1.004   6.507   6.190 -0.8803  0.6637  0.1117
13193TIP3    H239521   1.089   6.598   6.104 -0.1291 -0.0898  0.0394
13194TIP3   OH239522   1.331   7.996   4.115 -0.9536  0.0181 -0.1276
13194TIP3    H139523   1.408   7.940   4.129 -1.9495 -1.7453 -1.4396
13194TIP3    H239524   1.267   7.938   4.074 -2.2888  1.9816 -0.8812
13195TIP3   OH239525   2.678   7.205   7.008 -0.4821 -0.1276 -0.1931
13195TIP3    H139526   2.593   7.181   7.045 -0.1790  1.6896  1.7469
13195TIP3    H239527   2.660   7.219   6.915 -2.0375 -0.9353 -0.0392
13196TIP3   OH239528   4.713   0.185   6.952 -0.2087  0.5474 -0.1004
13196TIP3    H139529   4.756   0.170   6.868 -0.8789  0.8407 -0.5016
13196TIP3    H239530   4.776   0.236   7.003 -0.4277  1.7326 -0.9986
13197TIP3   OH239531   1.290   7.295   5.551 -0.2785 -0.0299  0.1900
13197TIP3    H139532   1.224   7.314   5.484  0.5109  2.8692  0.1675
13197TIP3    H239533   1.364   7.351   5.528  1.7403 -2.2916  0.9444
13198TIP3   OH239534   1.445   6.027   5.639 -0.0069 -0.0837 -0.4709
13198TIP3    H139535   1.491   5.978   5.708  0.4521 -1.2515 -1.5871
13198TIP3    H239536   1.358   5.987   5.636 -0.5976  1.0715  0.5436
13199TIP3   OH239537   0.922   7.835   4.540 -0.6193 -0.4791  0.2484
13199TIP3    H139538   0.890   7.894   4.608 -0.4269  0.8807 -0.7935
13199TIP3    H239539   0.966   7.893   4.478 -0.4298 -1.7341 -0.8157
13200TIP3   OH239540   3.952   6.415   5.914  0.4127 -0.0545  0.3751
13200TIP3    H139541   3.941   6.380   5.826 -0.2531 -0.8191  0.7578
13200TIP3    H239542   3.918   6.346   5.972  1.6888  0.0544  1.2727
13201TIP3   OH239543   7.999   2.916   0.733 -0.0761 -0.5429  0.0884
13201TIP3    H139544   8.082   2.955   0.704 -0.3785  0.0595  0.0499
13201TIP3    H239545   8.026   2.836   0.780  0.6766  0.9286  2.2441
13202TIP3   OH239546   0.526   8.055   4.177 -0.0687  0.2892 -0.6106
13202TIP3    H139547   0.443   8.102   4.168  0.3300  0.7525 -1.9532
13202TIP3    H239548   0.506   7.965   4.153  0.0082  0.5907 -1.8175
13203TIP3   OH239549   8.108   3.468   0.305  0.0639 -0.6277  0.3938
13203TIP3    H139550   8.109   3.422   0.221  0.3810 -0.0422  0.0735
13203TIP3    H239551   8.032   3.526   0.301  1.5029  1.2375 -0.4994
13204TIP3   OH239552   8.278   3.491   0.530  0.0634 -0.2821  0.6293
13204TIP3    H139553   8.208   3.524   0.586 -0.0722  1.2343 -0.4177
13204TIP3    H239554   8.235   3.467   0.448  0.5578 -0.7397  0.4968
13205TIP3   OH239555   4.958   0.747   5.067  0.3164 -0.3072 -0.4212
13205TIP3    H139556   5.049   0.738   5.038  1.3575  3.8107  1.2295
13205TIP3    H239557   4.963   0.751   5.162 -1.4820  0.7750 -0.3387
13206TIP3   OH239558   0.533   6.433   5.700 -0.2063  0.5893  0.5483
13206TIP3    H139559   0.558   6.525   5.695 -1.2768  0.8669 -0.0469
13206TIP3    H239560   0.560   6.396   5.616  2.2553 -0.1902  1.6586
13207TIP3   OH239561   6.715   0.194   4.887  0.0003  0.6897 -0.3967
13207TIP3    H139562   6.682   0.220   4.801 -0.4641  1.5579  0.0403
13207TIP3    H239563   6.803   0.160   4.869 -0.9618 -1.2550 -1.5030
13208TIP3   OH239564   2.228   7.392   3.546  0.1833 -0.4295 -0.7793
13208TIP3    H139565   2.176   7.372   3.468  0.3151 -1.7772 -0.5269
13208TIP3    H239566   2.172   7.449   3.598 -0.0296  0.2217 -1.6982
13209TIP3   OH239567   3.802   0.929   5.393  0.2954 -0.2729 -0.6867
13209TIP3    H139568   3.845   1.015   5.399  1.5761 -1.0699  2.4731
13209TIP3    H239569   3.715   0.943   5.429  1.4956 -0.8633  2.6202
13210TIP3   OH239570   1.595   7.119   5.845  0.0869 -0.7619 -0.0878
13210TIP3    H139571   1.649   7.188   5.884  0.7746 -1.1491 -0.3516
13210TIP3    H239572   1.580   7.149   5.755  2.2843 -2.0335 -0.9005
13211TIP3   OH239573   4.417   0.610   5.061  0.1643 -0.0133  0.4149
13211TIP3    H139574   4.401   0.611   5.155 -0.2231 -0.3713  0.3556
13211TIP3    H239575   4.466   0.529   5.046 -0.9357 -0.6411  0.1305
13212TIP3   OH239576   0.603   4.769   0.870  0.0002  0.0071  0.1510
13212TIP3    H139577   0.602   4.674   0.863  1.6212  0.1076 -2.6384
13212TIP3    H239578   0.511   4.795   0.863 -0.2701 -1.2661 -1.4374
13213TIP3   OH239579   5.137   0.601   4.193  0.3152 -0.1563  0.7763
13213TIP3    H139580   5.211   0.631   4.246  0.0447 -1.3346  1.8440
13213TIP3    H239581   5.116   0.514   4.228 -0.6768 -0.4165 -0.4409
13214TIP3   OH239582   1.929   5.350   5.616 -0.1437 -0.0231  0.0548
13214TIP3    H139583   1.911   5.401   5.695 -1.8075 -2.7439  1.4659
13214TIP3    H239584   1.862   5.377   5.553 -0.4450  0.1851  0.4709
13215TIP3   OH239585   2.302   7.545   4.716  0.0126  0.1188 -0.7649
13215TIP3    H139586   2.240   7.564   4.646 -1.6272  0.4401  0.7399
13215TIP3    H239587   2.279   7.457   4.745  1.7719 -0.6830 -1.7083
13216TIP3   OH239588   7.771   5.941   1.582  0.5723 -0.0613  0.1555
13216TIP3    H139589   7.762   5.957   1.489  0.9973  0.7182  0.2469
13216TIP3    H239590   7.865   5.948   1.599  0.5945 -1.0788  0.4819
13217TIP3   OH239591   1.878   8.021   5.788  0.3986 -0.2234  0.2008
13217TIP3    H139592   1.877   7.985   5.699 -0.3769 -0.3954  0.2760
13217TIP3    H239593   1.884   8.116   5.775 -1.7208 -0.0989 -0.0930
13218TIP3   OH239594   1.962   7.127   6.745 -0.0761 -0.7559 -0.1128
13218TIP3    H139595   2.042   7.089   6.782 -0.5273 -1.3047  0.2998
13218TIP3    H239596   1.920   7.055   6.699 -1.2004 -0.8881  1.1214
13219TIP3   OH239597   2.023   5.995   6.331  0.3833  0.0612  0.2666
13219TIP3    H139598   2.018   6.086   6.302 -0.5287 -0.0403  0.0966
13219TIP3    H239599   1.982   5.996   6.417  1.3153 -0.0021  0.7166
13220TIP3   OH239600   8.321   3.595   0.144 -0.6187 -0.3302 -0.3472
13220TIP3    H139601   8.275   3.671   0.108 -0.7296 -0.6333 -0.8494
13220TIP3    H239602   8.280   3.580   0.229 -0.6579  0.1147 -0.2868
13221TIP3   OH239603   7.865   3.424   0.619  0.0353 -0.2824  0.2464
13221TIP3    H139604   7.826   3.438   0.532  1.1846 -1.0138 -0.4083
13221TIP3    H239605   7.812   3.354   0.658  0.5591 -1.1363 -0.5562
13222TIP3   OH239606   0.307   4.444   1.703 -0.1648 -0.3036 -0.2560
13222TIP3    H139607   0.353   4.522   1.734  0.2370 -0.2487 -0.9806
13222TIP3    H239608   0.222   4.476   1.674  0.2697 -0.0113 -1.2366
13223TIP3   OH239609   5.576   0.041   6.126  0.3836 -0.0518 -0.3644
13223TIP3    H139610   5.496   0.000   6.094  1.2813 -1.0336 -1.3863
13223TIP3    H239611   5.613  -0.023   6.187  0.2245  0.5374  0.3549
13224TIP3   OH239612   3.027   8.008   5.905  0.2972 -0.2741  0.7968
13224TIP3    H139613   3.040   8.059   5.825  0.4735 -3.4092 -1.2703
13224TIP3    H239614   3.115   7.992   5.938  0.5210 -2.1407 -0.5519
13225TIP3   OH239615   0.764   3.768   2.030  0.1064 -0.0548  0.2365
13225TIP3    H139616   0.696   3.735   1.972  0.7723 -1.2491  0.1273
13225TIP3    H239617   0.797   3.847   1.985  0.6245 -0.9795 -1.0334
13226TIP3   OH239618   0.375   5.660   5.394 -0.3496  0.3884 -0.8976
13226TIP3    H139619   0.348   5.687   5.482  2.3250 -0.5962  0.3033
13226TIP3    H239620   0.422   5.577   5.409  0.8662  0.6512 -3.1429
13227TIP3   OH239621   7.800   0.769   6.881 -0.4268 -0.1080  0.2797
13227TIP3    H139622   7.854   0.692   6.861  0.5952  0.9192 -1.0631
13227TIP3    H239623   7.760   0.749   6.966 -0.0322 -2.0303  0.0431
13228TIP3   OH239624   3.267   7.076   5.625 -0.4721 -0.1084  0.1444
13228TIP3    H139625   3.262   6.981   5.623 -0.9060 -0.0858  0.0446
13228TIP3    H239626   3.361   7.096   5.626 -0.3776 -0.5249 -0.3344
13229TIP3   OH239627   0.568   1.572   1.330 -0.7206  0.1314  0.0595
13229TIP3    H139628   0.536   1.518   1.257 -0.4857 -0.1716  0.1824
13229TIP3    H239629   0.580   1.511   1.402  1.0894  0.0804 -0.2726
13230TIP3   OH239630   5.580   0.192   5.332  0.2207  0.0720 -0.0304
13230TIP3    H139631   5.649   0.142   5.288  1.4452  0.8985  0.8909
13230TIP3    H239632   5.562   0.265   5.273  0.6613  0.2520  0.0500
13231TIP3   OH239633   0.238   1.063   2.448  0.2942  0.2793  0.4074
13231TIP3    H139634   0.202   1.137   2.399 -1.9291 -0.6958  0.4972
13231TIP3    H239635   0.269   1.102   2.530 -0.7472  1.1445  0.4055
13232TIP3   OH239636   8.415   5.198   0.788  0.0535 -0.2897 -0.0216
13232TIP3    H139637   8.505   5.192   0.755  0.2335  0.6650  0.2611
13232TIP3    H239638   8.414   5.143   0.866  0.4497 -0.1450  0.0858
13233TIP3   OH239639   0.905   6.902   4.608 -0.0014  0.5177 -0.1995
13233TIP3    H139640   0.869   6.985   4.640  0.8532  1.1279 -0.7980
13233TIP3    H239641   0.850   6.879   4.533 -0.2138  0.5674 -0.0586
13234TIP3   OH239642   1.623   3.714   0.794 -0.6049 -0.8865  0.1495
13234TIP3    H139643   1.575   3.743   0.871 -0.0722  1.3731 -0.3442
13234TIP3    H239644   1.655   3.626   0.817 -0.9518 -0.4764  2.2641
13235TIP3   OH239645   4.399   7.415   5.893  0.1167  0.0938 -0.6872
13235TIP3    H139646   4.452   7.459   5.959  1.3561 -1.2000 -0.7860
13235TIP3    H239647   4.460   7.393   5.823 -0.8153 -0.2329 -1.4207
13236TIP3   OH239648   3.975   1.934   5.379 -0.4066 -0.2642 -0.0834
13236TIP3    H139649   3.972   1.841   5.400 -1.4227 -0.0636  0.7315
13236TIP3    H239650   4.026   1.973   5.451  0.6516 -0.2800 -0.8115
13237TIP3   OH239651   4.615   0.750   3.923  0.1491 -0.6379  0.4731
13237TIP3    H139652   4.682   0.686   3.945 -0.1178 -1.2149 -0.3694
13237TIP3    H239653   4.660   0.817   3.872 -0.2506 -1.9080 -1.5763
13238TIP3   OH239654   7.795   5.029   0.213  0.0378 -0.1559  0.3791
13238TIP3    H139655   7.884   5.034   0.248  0.8979 -0.2778 -1.7073
13238TIP3    H239656   7.790   4.943   0.172 -1.0635 -0.1731  0.5270
13239TIP3   OH239657   4.677   1.024   6.493  0.1819 -0.4279  0.5498
13239TIP3    H139658   4.740   1.000   6.426  0.3097 -0.6296  0.7398
13239TIP3    H239659   4.688   0.958   6.561 -0.9475 -1.0698  0.1286
13240TIP3   OH239660   4.009   7.893   6.735  0.2490 -0.3148 -0.1518
13240TIP3    H139661   4.022   7.984   6.710  1.8549  0.0576  1.9713
13240TIP3    H239662   4.048   7.885   6.822  0.1740 -3.0404 -0.3108
13241TIP3   OH239663   5.992   0.937   2.729 -0.2050  0.0221 -0.1169
13241TIP3    H139664   6.039   0.878   2.670 -0.2966 -1.5953  1.3667
13241TIP3    H239665   5.901   0.906   2.725 -0.4611  0.7865 -0.1963
13242TIP3   OH239666   5.683   0.776   4.539  0.3493  0.1990 -0.0911
13242TIP3    H139667   5.775   0.781   4.566  0.8745  0.3099 -1.8107
13242TIP3    H239668   5.641   0.721   4.605  1.6662  0.1130  0.6838
13243TIP3   OH239669   2.403   7.593   5.460  0.2611  0.2947 -0.5638
13243TIP3    H139670   2.446   7.673   5.491  0.3923  0.1115 -0.2642
13243TIP3    H239671   2.325   7.624   5.414  0.0760  0.5786 -0.0656
13244TIP3   OH239672   6.380   0.974   6.958 -0.3248 -0.0117  0.6851
13244TIP3    H139673   6.430   1.008   7.032  1.3042  1.0417 -0.8378
13244TIP3    H239674   6.330   0.902   6.994 -0.1676  0.9693  2.9745
13245TIP3   OH239675   1.091   4.525   1.434 -0.5821 -0.3838  0.0858
13245TIP3    H139676   1.081   4.564   1.347  0.1598 -1.5269 -0.5285
13245TIP3    H239677   1.183   4.498   1.438 -1.1194 -2.2818  0.3790
13246TIP3   OH239678   4.923   6.933   6.186 -0.7423  0.6024  0.2843
13246TIP3    H139679   4.834   6.936   6.152 -0.7935 -1.1291  0.2174
13246TIP3    H239680   4.934   7.015   6.234 -1.5551  1.8792 -1.6773
13247TIP3   OH239681   0.132   7.445   3.836 -0.1561 -0.1481  0.3472
13247TIP3    H139682   0.125   7.361   3.791  0.6673 -0.6697  1.1735
13247TIP3    H239683   0.041   7.467   3.858 -0.4064 -0.6730 -0.1407
13248TIP3   OH239684   5.957   4.512   1.035  0.3844 -0.2445 -0.1787
13248TIP3    H139685   5.952   4.607   1.046  1.2980 -0.2829  0.5542
13248TIP3    H239686   6.038   4.486   1.079  0.5881 -1.2542 -1.1277
13249TIP3   OH239687   4.329   1.695   6.781  0.3134  0.1977 -0.1935
13249TIP3    H139688   4.376   1.656   6.854 -1.4972 -0.9720  0.3725
13249TIP3    H239689   4.326   1.626   6.715  2.6228  1.4936 -1.7362
13250TIP3   OH239690   1.449   7.499   2.732 -0.1317 -0.1173  0.1235
13250TIP3    H139691   1.509   7.425   2.726 -0.6097 -0.5067  0.1014
13250TIP3    H239692   1.490   7.559   2.795 -0.1023 -0.7412  0.6972
13251TIP3   OH239693   1.060   7.462   1.385 -0.2996 -0.3421  0.2812
13251TIP3    H139694   1.146   7.439   1.350  0.4380  0.7756  1.3533
13251TIP3    H239695   1.070   7.458   1.480 -1.5338 -0.5356  0.4143
13252TIP3   OH239696   4.127   1.393   4.942  0.1956  0.1882 -0.1312
13252TIP3    H139697   4.059   1.329   4.961  0.8218 -0.2706  0.5691
13252TIP3    H239698   4.119   1.409   4.848 -0.3490 -0.4636 -0.2002
13253TIP3   OH239699   7.626   4.984   0.423  0.2926 -0.2112  0.0917
13253TIP3    H139700   7.662   4.992   0.335 -0.2565  1.5745  0.0040
13253TIP3    H239701   7.578   5.066   0.437  1.0454 -0.1134  2.3512
13254TIP3   OH239702   6.492   0.138   4.343  0.0671  0.7470 -0.0905
13254TIP3    H139703   6.514   0.048   4.321  0.4001  0.4933  1.2661
13254TIP3    H239704   6.432   0.165   4.274 -0.7085 -0.7969 -0.0492
13255TIP3   OH239705   0.222   6.309   5.340  0.4575 -0.2643 -0.1528
13255TIP3    H139706   0.134   6.279   5.318  0.6240 -0.8757  0.0252
13255TIP3    H239707   0.276   6.283   5.265  0.8419 -1.5160  0.5395
13256TIP3   OH239708   1.181   7.043   3.798  0.6049  0.3230 -0.6053
13256TIP3    H139709   1.216   6.985   3.866  0.0349  0.3061 -0.3265
13256TIP3    H239710   1.253   7.104   3.780  0.7588  0.3259  0.0076
13257TIP3   OH239711   2.840   5.851   6.398 -0.3296  0.1808  0.3088
13257TIP3    H139712   2.823   5.913   6.327  0.8107 -0.9037 -0.9246
13257TIP3    H239713   2.898   5.785   6.360  0.4673 -0.3142  2.2914
13258TIP3   OH239714   5.771   2.242   1.028  0.5469 -0.0252 -0.0090
13258TIP3    H139715   5.699   2.296   0.995 -0.4098 -1.9738 -1.2297
13258TIP3    H239716   5.829   2.303   1.072 -0.1769  2.0796 -1.9115
13259TIP3   OH239717   8.443   5.912   4.418 -0.2464  0.2309  0.1325
13259TIP3    H139718   8.395   5.845   4.368  0.8402 -0.4838  0.0360
13259TIP3    H239719   8.459   5.871   4.503 -0.6956  0.8539  0.5225
13260TIP3   OH239720   7.578   1.506   1.470 -0.3651 -0.3196  0.2104
13260TIP3    H139721   7.547   1.538   1.555 -1.1672 -0.1291 -0.1545
13260TIP3    H239722   7.505   1.455   1.435  0.8988 -2.6349  0.8001
13261TIP3   OH239723   2.416   7.668   3.875  0.1605 -0.2414 -0.2596
13261TIP3    H139724   2.350   7.649   3.941  0.1239  1.0891  0.1049
13261TIP3    H239725   2.402   7.602   3.807  0.0124 -1.4378  0.9165
13262TIP3   OH239726   0.337   4.792   4.687 -0.2318  0.3814 -0.4647
13262TIP3    H139727   0.415   4.844   4.701 -0.4419  1.0371 -1.6462
13262TIP3    H239728   0.344   4.762   4.596 -1.4445  0.6253 -0.6520
13263TIP3   OH239729   3.487   1.649   4.422 -0.1028 -0.1644 -0.0977
13263TIP3    H139730   3.520   1.654   4.512  3.5175  0.1386 -1.3628
13263TIP3    H239731   3.442   1.564   4.417  1.5196 -1.1288  1.4123
13264TIP3   OH239732   0.266   5.093   4.477 -0.3593 -0.0730  0.1592
13264TIP3    H139733   0.353   5.106   4.514  0.6695  0.3280 -2.3227
13264TIP3    H239734   0.276   5.018   4.418 -2.0130 -0.8498  0.8358
13265TIP3   OH239735   5.982   2.147   0.625 -0.1140  0.3620 -0.0259
13265TIP3    H139736   5.941   2.115   0.706 -1.8118  0.1551 -0.9566
13265TIP3    H239737   6.047   2.080   0.603 -0.0559  0.1252  0.8442
13266TIP3   OH239738   1.702   6.746   6.383  0.9106  0.2403  0.2981
13266TIP3    H139739   1.717   6.654   6.406 -0.4104 -0.0107  0.2192
13266TIP3    H239740   1.714   6.749   6.288 -0.9203 -0.2715  0.0193
13267TIP3   OH239741   1.877   7.550   6.387  0.0945  0.3525  0.4555
13267TIP3    H139742   1.839   7.463   6.382  1.4590 -0.1554 -2.2362
13267TIP3    H239743   1.920   7.553   6.473 -0.9267 -1.2067  1.0331
13268TIP3   OH239744   6.443   0.291   6.522 -0.0142  0.2095  0.0918
13268TIP3    H139745   6.506   0.355   6.554 -0.1413  0.6530 -0.5352
13268TIP3    H239746   6.456   0.291   6.427 -0.1042 -0.5973  0.0781
13269TIP3   OH239747   8.098   3.311   0.078 -0.2835 -0.2011  0.3484
13269TIP3    H139748   8.109   3.344  -0.011 -1.4730  0.0101  0.2718
13269TIP3    H239749   8.154   3.234   0.083  0.1699  0.0772 -0.4265
13270TIP3   OH239750   2.125   7.899   5.803 -0.2758  0.0695 -0.0092
13270TIP3    H139751   2.080   7.828   5.848  0.0670 -0.1321  0.0232
13270TIP3    H239752   2.069   7.976   5.815  0.4325  0.3216  1.8842
13271TIP3   OH239753   5.861   7.956   4.591  0.4353  0.4806 -0.5109
13271TIP3    H139754   5.792   7.955   4.525 -0.9262 -2.2781  0.8842
13271TIP3    H239755   5.833   8.021   4.655 -0.6268 -0.2803 -0.2015
13272TIP3   OH239756   8.540   4.018   0.424  0.0006  0.2333  0.5332
13272TIP3    H139757   8.495   4.063   0.352 -0.0109 -0.1961  0.2689
13272TIP3    H239758   8.501   3.931   0.426 -0.5840  0.5087  1.6039
13273TIP3   OH239759   5.179   0.112   6.552 -0.2138 -0.2968  0.2884
13273TIP3    H139760   5.266   0.130   6.517 -0.3303 -1.9994 -0.9476
13273TIP3    H239761   5.182   0.020   6.577 -1.1509  0.0647  1.8151
13274TIP3   OH239762   6.245   0.412   5.909 -0.1310  0.2863  0.0920
13274TIP3    H139763   6.199   0.329   5.898  1.8344 -0.9405  0.7345
13274TIP3    H239764   6.201   0.455   5.982  0.2402 -1.2265  1.2230
13275TIP3   OH239765   5.793   7.233   4.568  0.0759 -0.0217  0.0544
13275TIP3    H139766   5.730   7.213   4.637 -2.5362  0.3370 -2.1674
13275TIP3    H239767   5.816   7.148   4.531 -1.9056  0.1103 -1.5228
13276TIP3   OH239768   5.209   6.985   3.992  0.9203  0.1455 -0.0879
13276TIP3    H139769   5.123   6.971   3.952  1.0420  0.4483 -0.4594
13276TIP3    H239770   5.219   7.080   3.994 -0.0172  0.2431  2.6441
13277TIP3   OH239771   3.850   7.465   4.507  0.4179 -0.1039 -0.9293
13277TIP3    H139772   3.855   7.386   4.453 -1.1803  0.6377 -2.1872
13277TIP3    H239773   3.758   7.471   4.533  0.6670  0.9783 -0.2582
13278TIP3   OH239774   4.670   2.957   3.907  0.2334 -0.2075 -0.0523
13278TIP3    H139775   4.605   3.025   3.926 -1.4594 -1.6828 -0.3734
13278TIP3    H239776   4.754   3.002   3.910 -0.9182  2.0669 -1.1119
13279TIP3   OH239777   7.082   0.392   5.491 -0.6935 -0.5601  0.0630
13279TIP3    H139778   7.038   0.435   5.564 -1.6806 -1.3697 -0.0484
13279TIP3    H239779   7.051   0.437   5.413 -0.9254 -0.7980  0.0194
13280TIP3   OH239780   4.421   7.506   3.267  0.6284  0.0806 -0.2052
13280TIP3    H139781   4.384   7.588   3.236  0.3228  0.1545  0.3381
13280TIP3    H239782   4.463   7.467   3.190 -2.0638 -0.8310 -1.3004
13281TIP3   OH239783   0.849   3.436   0.212  0.1122 -0.0610  0.3003
13281TIP3    H139784   0.774   3.494   0.223  1.6127  1.5492  2.4771
13281TIP3    H239785   0.824   3.378   0.140 -2.9651  0.7951  0.6006
13282TIP3   OH239786   5.013   7.117   5.645  0.1464  0.6481  0.3894
13282TIP3    H139787   4.986   7.027   5.627 -1.6650  0.8929  1.7526
13282TIP3    H239788   5.068   7.110   5.723  0.9439  0.6103 -0.1647
13283TIP3   OH239789   5.822   0.449   3.700 -0.3152  0.2418  0.5604
13283TIP3    H139790   5.745   0.445   3.643  1.1943  0.5328 -1.5382
13283TIP3    H239791   5.814   0.532   3.746  0.2320  1.6835 -1.8581
13284TIP3   OH239792   7.715   0.228   4.915  0.7207 -0.2687 -0.6111
13284TIP3    H139793   7.637   0.284   4.906  1.0362  0.1831 -0.5440
13284TIP3    H239794   7.760   0.263   4.992  0.8256 -0.7357 -0.4593
13285TIP3   OH239795   5.768   1.228   6.997  0.5504  0.3071  0.5639
13285TIP3    H139796   5.805   1.310   6.964  3.1477 -1.3406 -0.7753
13285TIP3    H239797   5.730   1.252   7.081  1.2449  2.8970  0.2002
13286TIP3   OH239798   8.243   0.683   4.153  0.0595  0.2102 -0.8090
13286TIP3    H139799   8.164   0.641   4.120 -0.6857  0.5925  0.4809
13286TIP3    H239800   8.242   0.771   4.114 -0.4265  0.3951 -0.3869
13287TIP3   OH239801   4.321   7.031   5.217 -0.4292  0.0765 -0.2259
13287TIP3    H139802   4.309   7.062   5.306  0.2318 -0.5351  0.0897
13287TIP3    H239803   4.392   7.084   5.182  0.0381 -0.4088 -0.0192
13288TIP3   OH239804   5.860   0.783   6.652 -0.2829 -0.1699 -0.1036
13288TIP3    H139805   5.945   0.780   6.696 -0.2600 -0.0989 -0.1432
13288TIP3    H239806   5.844   0.876   6.636 -0.1026 -0.2204 -0.6112
13289TIP3   OH239807   2.520   7.566   5.921 -0.1254  0.0191 -0.5804
13289TIP3    H139808   2.431   7.596   5.900  0.0295 -0.2819 -1.6594
13289TIP3    H239809   2.578   7.628   5.876  0.2087 -0.4935 -0.8499
13290TIP3   OH239810   7.681   0.401   6.294  0.0290  0.3139 -0.1468
13290TIP3    H139811   7.706   0.477   6.242 -1.6415  2.4452  2.0593
13290TIP3    H239812   7.763   0.371   6.334  0.4539  2.0452  0.3378
13291TIP3   OH239813   2.490   7.206   5.418 -0.5308 -0.9668  0.2770
13291TIP3    H139814   2.497   7.270   5.347  0.4357 -1.0696  0.2843
13291TIP3    H239815   2.485   7.260   5.497 -1.9746 -0.8407  0.1146
13292TIP3   OH239816   4.305   7.931   5.256 -0.0805 -0.3618 -0.0184
13292TIP3    H139817   4.311   7.927   5.351  1.3762  1.7539  0.0136
13292TIP3    H239818   4.350   7.852   5.226  1.0723 -0.1202  1.0252
13293TIP3   OH239819   0.882   0.247   6.446  0.2595  0.4451  0.2724
13293TIP3    H139820   0.942   0.174   6.433  0.2743  0.6619 -0.8738
13293TIP3    H239821   0.899   0.306   6.372 -0.8754  0.8388  0.3222
13294TIP3   OH239822   6.221   7.651   6.750  0.0457  0.2005  0.0640
13294TIP3    H139823   6.144   7.661   6.695 -0.4896  0.7688  0.9105
13294TIP3    H239824   6.240   7.739   6.781  0.7191 -0.0221  0.2963
13295TIP3   OH239825   4.160   6.919   3.426  0.1336  0.7093 -0.0258
13295TIP3    H139826   4.109   7.000   3.422 -0.1316  0.5257 -0.4276
13295TIP3    H239827   4.173   6.895   3.334  2.0375  1.4290  0.0476
13296TIP3   OH239828   4.211   1.781   3.960  0.3309  0.7957 -0.6586
13296TIP3    H139829   4.160   1.772   3.879  1.1904  1.0303 -1.2356
13296TIP3    H239830   4.178   1.711   4.017 -1.2354  1.4728 -0.6891
13297TIP3   OH239831   4.493   6.900   4.803  0.4062 -0.6676 -0.4068
13297TIP3    H139832   4.466   6.877   4.892 -1.0096  0.1388 -0.6131
13297TIP3    H239833   4.472   6.823   4.751  1.8324 -1.3881  0.0552
13298TIP3   OH239834   3.332   7.751   4.680  0.4972 -0.6026  0.6900
13298TIP3    H139835   3.392   7.742   4.755 -1.9202 -0.4908  2.7217
13298TIP3    H239836   3.321   7.845   4.670 -3.2007 -0.6176  3.6336
13299TIP3   OH239837   4.111   7.458   6.006 -0.2461  0.2628  0.7006
13299TIP3    H139838   4.051   7.401   5.957  1.3700  0.5671 -1.7687
13299TIP3    H239839   4.158   7.398   6.064 -1.3377 -0.3279  0.9795
13300TIP3   OH239840   5.728   8.068   4.400  1.0374 -0.4320  0.1381
13300TIP3    H139841   5.658   8.124   4.432  0.9503 -0.7793  0.5585
13300TIP3    H239842   5.809   8.112   4.428  0.9858 -0.1915 -0.0825
13301TIP3   OH239843   4.019   6.680   4.744 -0.4881  0.2253  0.2072
13301TIP3    H139844   4.015   6.632   4.662 -1.7606  1.0324 -0.2206
13301TIP3    H239845   4.092   6.641   4.792  0.4110 -0.1006 -1.3964
13302TIP3   OH239846   3.684   5.915   4.772 -0.0936 -0.3801 -1.2498
13302TIP3    H139847   3.757   5.854   4.768  0.4316  0.1753 -0.1399
13302TIP3    H239848   3.697   5.973   4.697 -0.7638 -1.7988 -2.4961
13303TIP3   OH239849   2.577   4.210   0.044  0.1062  0.0346  0.3183
13303TIP3    H139850   2.561   4.207   0.138  0.3448 -1.0978  0.3320
13303TIP3    H239851   2.669   4.185   0.034  0.4062  1.2900 -0.1391
13304TIP3   OH239852   5.886   0.238   4.157 -0.4424  0.4161  0.2412
13304TIP3    H139853   5.942   0.314   4.140 -2.0837  1.4773 -0.5244
13304TIP3    H239854   5.808   0.275   4.199 -1.6431 -0.7385 -0.9531
13305TIP3   OH239855   6.760   0.659   6.699  0.4108  0.0289  0.2668
13305TIP3    H139856   6.810   0.578   6.691  1.1950  0.6056 -0.7609
13305TIP3    H239857   6.711   0.649   6.781  0.3589 -1.5501  0.0548
13306TIP3   OH239858   3.197   6.545   3.452  0.0063  0.3726 -0.1465
13306TIP3    H139859   3.216   6.451   3.460 -0.8232  0.1728 -0.3888
13306TIP3    H239860   3.127   6.549   3.386  0.6985  1.2464 -0.8323
13307TIP3   OH239861   4.859   7.686   3.844  0.0626 -0.1111 -0.1439
13307TIP3    H139862   4.781   7.691   3.789 -0.2665  0.6805  0.3830
13307TIP3    H239863   4.866   7.773   3.883 -0.5070 -1.0871  2.1690
13308TIP3   OH239864   7.513   0.777   6.705 -0.4466  0.1093 -0.2682
13308TIP3    H139865   7.504   0.682   6.701  1.5876 -0.0620 -1.3755
13308TIP3    H239866   7.528   0.796   6.798  0.1500 -0.7697 -0.1796
13309TIP3   OH239867   5.775   0.655   6.879 -0.1896 -0.2415 -0.0425
13309TIP3    H139868   5.679   0.652   6.873 -0.1498  0.1844 -0.9401
13309TIP3    H239869   5.802   0.714   6.809  0.7527 -0.5851  0.0224
13310TIP3   OH239870   6.703   1.360   5.235  0.6502  0.3234 -0.2751
13310TIP3    H139871   6.610   1.365   5.258  1.3963  2.6298  2.5583
13310TIP3    H239872   6.735   1.283   5.282  0.8009  1.3434  1.3389
13311TIP3   OH239873   1.706   0.578   6.328 -0.0184 -0.7673 -0.2099
13311TIP3    H139874   1.623   0.621   6.308 -0.5715 -2.1720 -1.0730
13311TIP3    H239875   1.709   0.503   6.268  1.4699 -1.2226  0.4026
13312TIP3   OH239876   3.697   8.055   5.363  0.0481  0.8306 -0.4855
13312TIP3    H139877   3.671   7.976   5.315 -2.4541  0.7959  0.8319
13312TIP3    H239878   3.714   8.120   5.295  3.0856 -1.0489 -1.6308
13313TIP3   OH239879   2.299   7.570   6.461  0.3626 -0.0315 -0.2560
13313TIP3    H139880   2.316   7.505   6.529 -0.1312 -1.8087 -1.7959
13313TIP3    H239881   2.205   7.588   6.468  0.1901 -0.6859 -0.8744
13314TIP3   OH239882   1.216   3.556   1.139  0.0244  0.4946  0.1029
13314TIP3    H139883   1.197   3.492   1.208  1.9876  1.6509  1.7377
13314TIP3    H239884   1.281   3.513   1.083  1.8156  1.2657  1.5580
13315TIP3   OH239885   3.263   6.403   6.143  0.3815  0.3455  0.6640
13315TIP3    H139886   3.251   6.492   6.176  3.8264  0.2589  2.3864
13315TIP3    H239887   3.313   6.414   6.062 -1.1588  0.0812 -0.3411
13316TIP3   OH239888   5.543   7.963   6.876  1.0051 -0.1535  0.3949
13316TIP3    H139889   5.543   8.054   6.845 -1.3485 -0.4642 -0.6437
13316TIP3    H239890   5.634   7.936   6.871  1.5299  1.7042 -0.6794
13317TIP3   OH239891   6.419   0.990   4.223 -0.2332 -0.0513 -0.5337
13317TIP3    H139892   6.357   1.015   4.292 -0.2139  1.1071 -0.9349
13317TIP3    H239893   6.498   0.963   4.270  0.1471  1.7200 -0.1157
13318TIP3   OH239894   4.101   7.963   3.265 -0.2043  0.1512  0.1853
13318TIP3    H139895   4.054   7.987   3.186 -0.9480  0.2776  0.6670
13318TIP3    H239896   4.035   7.928   3.324  0.7831 -2.7297 -0.3310
13319TIP3   OH239897   3.825   7.664   6.836 -0.5962 -0.0683 -0.0041
13319TIP3    H139898   3.849   7.593   6.895  0.8114 -1.4881 -2.2101
13319TIP3    H239899   3.729   7.669   6.842 -0.5608 -0.9571  1.4770
13320TIP3   OH239900   6.933   0.021   6.624  0.3575 -0.2436  0.1135
13320TIP3    H139901   6.963   0.046   6.537  2.2294 -0.0704  0.7890
13320TIP3    H239902   6.997   0.060   6.684 -1.0925 -0.0600  1.5891
13321TIP3   OH239903   2.327   7.072   3.796  0.8148 -0.1495 -0.4084
13321TIP3    H139904   2.260   7.103   3.734  1.4022 -0.4585 -1.1996
13321TIP3    H239905   2.382   7.148   3.812  0.5113 -0.0028 -0.0757
13322TIP3   OH239906   1.119  -0.002   4.632 -0.5387 -0.1745 -0.3895
13322TIP3    H139907   1.034  -0.041   4.650 -0.8630  0.6930 -0.0072
13322TIP3    H239908   1.098   0.082   4.592  0.0801  1.2851  2.2261
13323TIP3   OH239909   6.640   1.523   6.316  0.5373  0.6062 -0.5990
13323TIP3    H139910   6.673   1.459   6.252  2.4821  1.4295 -0.4398
13323TIP3    H239911   6.700   1.516   6.390 -2.1847 -0.9355  1.5423
13324TIP3   OH239912   7.456   3.501   0.321  0.0644 -0.6453 -0.1646
13324TIP3    H139913   7.381   3.471   0.270 -0.8240 -0.1759  0.8328
13324TIP3    H239914   7.451   3.450   0.402  1.6688 -1.6526 -0.6771
13325TIP3   OH239915   0.409   6.203   3.751  0.2605  0.3718  0.2700
13325TIP3    H139916   0.458   6.257   3.690 -0.9630  2.1030  0.7901
13325TIP3    H239917   0.405   6.117   3.709  3.7114  0.1754  0.2302
13326TIP3   OH239918   6.710   0.970   5.253  0.0698 -0.4373  0.4367
13326TIP3    H139919   6.802   0.991   5.237  0.2801 -0.8442  1.0709
13326TIP3    H239920   6.680   0.929   5.172 -0.3513  2.2407 -0.8059
13327TIP3   OH239921   5.218   0.428   5.745 -0.5567 -0.0852  0.1256
13327TIP3    H139922   5.140   0.481   5.759 -0.3629  1.2713 -3.5115
13327TIP3    H239923   5.290   0.482   5.777 -0.7109  0.2744 -0.1440
13328TIP3   OH239924   3.288   8.001   5.915  0.2561 -0.3666 -0.1939
13328TIP3    H139925   3.362   8.035   5.965  1.4511  0.0431 -2.1527
13328TIP3    H239926   3.327   7.935   5.858 -0.9855 -0.5148 -0.8866
13329TIP3   OH239927   8.275   1.577   5.104 -0.5371 -0.3048  0.2405
13329TIP3    H139928   8.295   1.656   5.054 -0.8085  0.7782  1.8169
13329TIP3    H239929   8.265   1.607   5.194 -0.4149 -2.1798  0.9013
13330TIP3   OH239930   3.690   7.999   4.706 -0.4053 -0.4052  0.0717
13330TIP3    H139931   3.773   8.018   4.663  0.7464 -2.0957  1.4605
13330TIP3    H239932   3.624   8.015   4.639  0.9400  1.9046 -0.7698
13331TIP3   OH239933   7.073   1.711   5.985  0.1557  0.3315 -0.2669
13331TIP3    H139934   7.063   1.805   5.966  1.5094  0.4303 -0.4850
13331TIP3    H239935   7.111   1.674   5.906 -2.0373 -0.7366 -0.8512
13332TIP3   OH239936   4.917   7.123   4.926  0.5754 -0.9601  0.3018
13332TIP3    H139937   4.932   7.067   4.850  1.7648  0.4248 -0.5081
13332TIP3    H239938   4.956   7.207   4.902 -0.4638 -0.0171  1.8104
13333TIP3   OH239939   2.784   7.344   2.251  0.2030 -0.0850 -0.6386
13333TIP3    H139940   2.790   7.250   2.240 -0.5024 -0.3161  0.8444
13333TIP3    H239941   2.865   7.379   2.214  0.2769 -1.2295 -1.5671
13334TIP3   OH239942   3.849   7.553   4.793 -0.5536 -0.2180 -0.2270
13334TIP3    H139943   3.859   7.543   4.698  1.2255 -0.5751 -0.0219
13334TIP3    H239944   3.785   7.624   4.803  0.2459  0.7430 -1.6945
13335TIP3   OH239945   2.251   7.926   5.554  0.0897 -0.7126  0.0527
13335TIP3    H139946   2.255   8.015   5.519  0.6370 -0.6725  0.2041
13335TIP3    H239947   2.196   7.933   5.631 -0.3875 -0.6277 -0.2939
13336TIP3   OH239948   1.940   7.744   5.943 -0.8575 -0.2266 -0.7241
13336TIP3    H139949   2.021   7.714   5.985 -1.0349  0.3051 -0.0038
13336TIP3    H239950   1.876   7.749   6.014 -1.0093  1.2362 -0.9519
13337TIP3   OH239951   3.380   5.997   5.797  0.1475 -0.0627  0.5021
13337TIP3    H139952   3.448   5.933   5.776  0.2175 -0.7490  2.7701
13337TIP3    H239953   3.299   5.946   5.800  0.0317  0.1657  1.1939
13338TIP3   OH239954   0.053   0.372   6.206  0.4678  0.4396  0.4787
13338TIP3    H139955  -0.036   0.352   6.235 -0.3085 -0.7358 -2.5249
13338TIP3    H239956   0.108   0.308   6.252 -0.6204 -0.8838 -0.0361
13339TIP3   OH239957   6.398   0.743   3.059  0.0785  0.6170 -0.4891
13339TIP3    H139958   6.368   0.807   3.124  0.8888 -0.7102  1.2255
13339TIP3    H239959   6.318   0.714   3.016 -0.5554  0.8863  0.4957
13340TIP3   OH239960   6.134   0.487   4.846  0.3175  0.2543 -0.6369
13340TIP3    H139961   6.132   0.414   4.785  0.4160  0.1022 -0.4589
13340TIP3    H239962   6.121   0.564   4.792  1.0901  0.1772 -0.9368
13341TIP3   OH239963   2.608   3.693   0.771  0.2475  0.3081  0.1782
13341TIP3    H139964   2.691   3.713   0.727  0.0303  1.5620  0.3240
13341TIP3    H239965   2.632   3.632   0.840  1.1943  1.3238  0.7750
13342TIP3   OH239966   2.492   8.030   5.047 -0.1473  0.2485 -0.4870
13342TIP3    H139967   2.557   7.987   5.102 -0.4555  1.8295  1.1562
13342TIP3    H239968   2.410   8.026   5.097 -0.9147 -0.1196 -1.7383
13343TIP3   OH239969   2.741   7.747   6.646 -0.4192 -0.0673  0.8274
13343TIP3    H139970   2.670   7.798   6.606 -0.3327 -1.3446 -1.0113
13343TIP3    H239971   2.777   7.696   6.574  0.4302 -1.6524  2.3450
13344TIP3   OH239972   4.487   7.590   3.688 -0.5852 -0.3365  1.0004
13344TIP3    H139973   4.577   7.620   3.697 -1.2790  2.1088  0.2286
13344TIP3    H239974   4.490   7.526   3.616  0.7680 -1.4442  2.0237
13345TIP3   OH239975   2.522   7.719   6.315 -0.2222  0.0476  0.7066
13345TIP3    H139976   2.467   7.797   6.317 -2.8290 -1.7217  2.3403
13345TIP3    H239977   2.469   7.652   6.359  2.4006 -2.3261  0.3825
13346TIP3   OH239978   7.444   0.974   6.521  0.0483 -0.4274 -0.1758
13346TIP3    H139979   7.464   0.904   6.583 -3.2379 -1.2758  0.0093
13346TIP3    H239980   7.468   0.937   6.435  1.2902 -0.5460  0.2029
13347TIP3   OH239981   0.092   5.990   0.537  0.1123 -0.2513 -0.4525
13347TIP3    H139982   0.159   5.923   0.520  0.1262 -0.1381 -0.8480
13347TIP3    H239983   0.068   6.022   0.450  0.6766  0.8210 -0.2265
13348TIP3   OH239984   3.568   7.927   2.926  0.2856 -0.2176 -0.4109
13348TIP3    H139985   3.570   8.005   2.983  0.1494 -1.0668  0.7796
13348TIP3    H239986   3.619   7.861   2.974  2.5002 -0.1334 -2.5285
13349TIP3   OH239987   0.113   0.223   5.464 -0.5076  0.6651 -0.5458
13349TIP3    H139988   0.023   0.251   5.484 -0.4940 -0.4397  1.0422
13349TIP3    H239989   0.168   0.275   5.522 -0.3447 -1.0882  0.8956
13350TIP3   OH239990   8.565   1.490   5.621 -0.2510 -0.6894 -0.4924
13350TIP3    H139991   8.548   1.560   5.558 -2.8427 -0.0886  0.8190
13350TIP3    H239992   8.604   1.535   5.696 -1.5919 -0.6867  0.2110
13351TIP3   OH239993   8.213   1.548   6.829 -0.0021 -0.1196 -0.7613
13351TIP3    H139994   8.151   1.479   6.806  0.2660 -0.4522 -0.4792
13351TIP3    H239995   8.288   1.502   6.867  0.1695  0.3232 -0.5587
13352TIP3   OH239996   1.556   6.891   6.738 -0.8168 -0.1718 -0.4935
13352TIP3    H139997   1.648   6.873   6.718 -0.4134  0.9847  0.2554
13352TIP3    H239998   1.521   6.929   6.657 -0.6649 -0.7205 -0.8162
13353TIP3   OH239999   5.454   0.498   4.437  0.1961  0.7134  0.1277
13353TIP3    H140000   5.431   0.590   4.425  1.6831  0.7041 -3.4966
13353TIP3    H240001   5.523   0.499   4.503  0.7191  2.2771 -0.4253
13354TIP3   OH240002   7.131   1.452   5.337  0.1283  0.1224 -0.0002
13354TIP3    H140003   7.121   1.454   5.432 -0.0040 -0.1344 -0.0108
13354TIP3    H240004   7.165   1.539   5.315  3.5832 -0.9690  0.6700
13355TIP3   OH240005   5.875   7.603   5.521  0.2265 -0.3504  0.4855
13355TIP3    H140006   5.956   7.655   5.524 -0.6135  0.9064  1.7110
13355TIP3    H240007   5.847   7.608   5.430  1.0361 -0.0336  0.2469
13356TIP3   OH240008   7.839   1.058   4.214  0.7559  0.2701  0.2491
13356TIP3    H140009   7.839   1.107   4.133  0.8022  1.6286  1.0629
13356TIP3    H240010   7.929   1.062   4.245  0.5117  0.7058  0.9250
13357TIP3   OH240011   2.158   8.011   7.005 -0.3229 -0.4737  0.2855
13357TIP3    H140012   2.190   8.029   7.094  0.9025  0.5395 -0.3385
13357TIP3    H240013   2.229   8.039   6.948 -0.7355 -1.9537 -1.0007
13358TIP3   OH240014   4.774   7.714   4.682  0.2709  0.1665  0.3053
13358TIP3    H140015   4.768   7.810   4.686  1.1992  0.2669 -0.4558
13358TIP3    H240016   4.820   7.697   4.600 -1.5773 -1.0090 -0.5253
13359TIP3   OH240017   1.939   7.998   4.017  0.4071  0.1781  0.2282
13359TIP3    H140018   1.881   8.065   3.980  1.2828  0.3119 -0.9499
13359TIP3    H240019   1.880   7.930   4.048 -0.3815  0.0393 -1.4941
13360TIP3   OH240020   6.003   5.606   5.048 -0.3819 -0.2316  0.6224
13360TIP3    H140021   6.018   5.519   5.085 -1.7883 -0.0300  1.7067
13360TIP3    H240022   6.064   5.663   5.094  1.3280 -0.8171 -0.8717
13361TIP3   OH240023   7.292   0.916   5.588  0.1329  0.2452  0.3612
13361TIP3    H140024   7.288   0.822   5.603  0.6772 -0.0362 -1.1090
13361TIP3    H240025   7.377   0.930   5.544 -0.4131  1.2533 -0.4104
13362TIP3   OH240026   2.427   6.579   5.090  0.8171  0.0792  0.0044
13362TIP3    H140027   2.447   6.515   5.022  0.4679  0.9582 -0.9464
13362TIP3    H240028   2.512   6.608   5.122  0.9780 -0.6652  0.2541
13363TIP3   OH240029   2.968   6.107   3.402  0.3050  0.4730  0.3538
13363TIP3    H140030   3.026   6.107   3.478  0.2830  1.3256  0.3800
13363TIP3    H240031   3.027   6.101   3.327  0.3323 -0.2706  0.4355
13364TIP3   OH240032   5.134   8.030   3.807  0.1544 -0.4100 -0.4460
13364TIP3    H140033   5.148   8.040   3.901 -0.6885 -0.1960 -0.3354
13364TIP3    H240034   5.198   7.964   3.780  1.3018  0.4974  0.0237
13365TIP3   OH240035   0.400   3.188   0.501  0.5355 -0.6030  0.6028
13365TIP3    H140036   0.350   3.269   0.509  2.5982  0.6258  1.4042
13365TIP3    H240037   0.360   3.142   0.427  0.8352  2.2565 -1.4117
13366TIP3   OH240038   3.735   7.086   2.741 -0.3577 -0.1788  0.4206
13366TIP3    H140039   3.649   7.049   2.721 -1.0154  1.5769 -0.0843
13366TIP3    H240040   3.750   7.151   2.673  0.9089  0.2605  1.1030
13367TIP3   OH240041   5.483   0.049   3.981  0.1628  0.1428  0.0614
13367TIP3    H140042   5.530   0.008   4.054 -0.2517  1.4215  1.0566
13367TIP3    H240043   5.543   0.115   3.947  0.3174 -0.3805 -0.7141
13368TIP3   OH240044   5.533   5.683   5.311 -0.1733  0.2092  0.0662
13368TIP3    H140045   5.558   5.604   5.262 -0.7350  1.3117 -2.0405
13368TIP3    H240046   5.613   5.736   5.313  0.1433 -0.3039  1.2910
13369TIP3   OH240047   3.547   7.749   6.835 -0.0411  0.1780 -0.0424
13369TIP3    H140048   3.509   7.676   6.785  0.3874  0.0976 -0.2583
13369TIP3    H240049   3.516   7.827   6.790  1.1299  0.0930 -1.0432
13370TIP3   OH240050   5.995   0.200   5.036 -0.0050 -0.2692 -0.1133
13370TIP3    H140051   6.000   0.260   5.110  0.3985  3.0931 -2.7409
13370TIP3    H240052   6.084   0.166   5.026  0.5217  1.2323 -0.6026
13371TIP3   OH240053   1.141   7.197   4.479  0.6611 -0.1188 -0.0113
13371TIP3    H140054   1.169   7.289   4.477  0.2304  0.0182  0.1757
13371TIP3    H240055   1.166   7.163   4.393 -2.3123  1.1196 -1.4479
13372TIP3   OH240056   3.653   7.180   3.824  0.2250  0.3593  0.0128
13372TIP3    H140057   3.585   7.226   3.776  1.7967  1.8848 -0.7723
13372TIP3    H240058   3.733   7.196   3.775  1.5845  0.6241  2.2520
13373TIP3   OH240059   7.624   0.085   6.801 -0.0951  0.3633  0.3889
13373TIP3    H140060   7.565   0.091   6.875  1.2508  0.2542  1.4926
13373TIP3    H240061   7.594   0.009   6.751  1.2615 -1.8817  2.8855
13374TIP3   OH240062   6.892   0.493   5.295 -0.1437 -0.1203  0.2047
13374TIP3    H140063   6.810   0.492   5.244 -0.1604 -0.1692  0.2327
13374TIP3    H240064   6.906   0.586   5.315  1.3562  0.2453 -2.3032
13375TIP3   OH240065   2.977   8.047   2.628  0.4455  0.0822  0.1588
13375TIP3    H140066   3.038   7.992   2.578 -0.0533  0.5708 -0.9971
13375TIP3    H240067   2.947   7.990   2.699  0.2655 -1.0047 -0.7656
13376TIP3   OH240068   4.442   7.366   6.422  0.3935 -0.0176 -0.0085
13376TIP3    H140069   4.374   7.343   6.485  0.2894  0.4417  0.0543
13376TIP3    H240070   4.486   7.442   6.461  1.1783 -0.5286  0.1220
13377TIP3   OH240071   7.453   1.111   4.011  0.8766  0.4723 -0.3872
13377TIP3    H140072   7.388   1.040   4.021  0.3192  1.1389  0.8320
13377TIP3    H240073   7.506   1.106   4.090 -0.1564  2.4041  0.4625
13378TIP3   OH240074   4.658   7.785   3.574  0.0879  0.2717  1.0638
13378TIP3    H140075   4.638   7.815   3.485  1.0413  0.3855  0.8756
13378TIP3    H240076   4.611   7.846   3.631 -1.1515 -0.2663  0.6308
13379TIP3   OH240077   2.789   3.665   1.759  0.5950  0.2360 -0.0715
13379TIP3    H140078   2.759   3.756   1.767  0.0310 -0.0978  1.8755
13379TIP3    H240079   2.737   3.628   1.688 -2.1346  0.2807  1.8285
13380TIP3   OH240080   3.378   7.945   3.308 -0.0076 -0.3927 -0.0728
13380TIP3    H140081   3.289   7.934   3.273 -0.4789  0.3256  0.8609
13380TIP3    H240082   3.419   7.860   3.296 -0.5569 -0.5000 -1.2599
13381TIP3   OH240083   4.759   7.707   6.319 -0.1511 -0.1543 -0.3717
13381TIP3    H140084   4.830   7.770   6.334 -2.1368  2.0640  0.0798
13381TIP3    H240085   4.801   7.621   6.326  2.0793  1.0547  1.9127
13382TIP3   OH240086   7.547   0.473   4.618  0.4626  0.5189  0.5167
13382TIP3    H140087   7.601   0.539   4.662  1.5722  0.2440 -0.4362
13382TIP3    H240088   7.485   0.523   4.566  1.7584  0.8122 -0.7548
13383TIP3   OH240089   1.921   0.138   6.301 -0.1728 -0.2608 -0.0059
13383TIP3    H140090   1.975   0.157   6.377 -1.0997  1.0909  0.3340
13383TIP3    H240091   1.979   0.093   6.240  0.7911 -0.6065  1.1651
13384TIP3   OH240092   2.641   7.457   4.341 -0.2788 -0.1009 -1.0796
13384TIP3    H140093   2.712   7.393   4.342 -0.5552 -0.3946 -0.6041
13384TIP3    H240094   2.674   7.529   4.394 -1.0305 -0.9764  0.5983
13385TIP3   OH240095   7.945   0.278   6.710 -0.3647  0.5478  0.2559
13385TIP3    H140096   8.016   0.305   6.768 -0.6849 -1.8431  1.8381
13385TIP3    H240097   7.951   0.183   6.708 -2.6672  0.3975 -0.6737
13386TIP3   OH240098   2.235   3.768   0.244 -0.1659  0.1478 -0.0816
13386TIP3    H140099   2.214   3.837   0.308  0.4394  0.6863 -0.4563
13386TIP3    H240100   2.317   3.798   0.203 -0.2758 -0.4499 -0.7382
13387TIP3   OH240101   7.358   0.271   6.148  0.6704 -0.4439 -0.4738
13387TIP3    H140102   7.264   0.264   6.160  0.4862  1.5295 -0.7165
13387TIP3    H240103   7.384   0.345   6.203  1.9395 -0.3874 -1.1363
13388TIP3   OH240104   7.063   1.985   5.882  0.0680  0.5026  0.1979
13388TIP3    H140105   7.094   2.048   5.947 -1.8244 -0.4302  2.0713
13388TIP3    H240106   6.978   2.018   5.855 -1.1603 -1.4392  1.5509
13389TIP3   OH240107   3.894   7.698   5.682  0.3423  0.0856  0.7907
13389TIP3    H140108   3.861   7.781   5.648 -0.0120 -0.1187  0.6302
13389TIP3    H240109   3.937   7.722   5.764 -0.0941  0.3772  0.9417
13390TIP3   OH240110   2.061   7.656   4.619 -1.1106 -0.2125 -0.3204
13390TIP3    H140111   2.031   7.567   4.639  0.2219 -0.4076  0.8661
13390TIP3    H240112   2.010   7.712   4.678  0.2674 -0.4784  1.1555
13391TIP3   OH240113   3.181   8.075   6.661  0.5985  0.2320  0.1109
13391TIP3    H140114   3.158   8.142   6.725  0.3843  0.9765 -0.7362
13391TIP3    H240115   3.101   8.023   6.650  1.4266 -1.6570  2.5187
13392TIP3   OH240116   0.384   3.018   0.233 -0.2573  0.0414 -0.3114
13392TIP3    H140117   0.382   3.108   0.200 -1.2777 -0.0719 -0.5621
13392TIP3    H240118   0.365   2.965   0.156 -3.8007 -0.1724  0.6520
13393TIP3   OH240119   5.978   7.351   4.726  0.6321 -0.3529  0.2403
13393TIP3    H140120   5.962   7.292   4.799 -3.2802  1.8219  1.2892
13393TIP3    H240121   5.904   7.337   4.667 -0.6582  3.6224  0.7204
13394TIP3   OH240122   6.609   0.721   6.478 -0.4722 -0.6423 -0.1844
13394TIP3    H140123   6.663   0.694   6.552 -0.6026  0.4455  0.3157
13394TIP3    H240124   6.636   0.810   6.459 -2.1052 -0.0614  0.0982
13395TIP3   OH240125   8.516   3.395   1.808 -0.0466  0.7446  0.4220
13395TIP3    H140126   8.447   3.334   1.782  0.3618  0.1985  0.6074
13395TIP3    H240127   8.481   3.440   1.884 -0.1791  0.4194  0.5568
13396TIP3   OH240128   5.380   5.007   5.093 -0.2844  0.3390  0.3852
13396TIP3    H140129   5.425   4.949   5.155  3.3516  2.1599 -0.4227
13396TIP3    H240130   5.317   5.055   5.147 -1.0538 -1.9569  1.6404
13397TIP3   OH240131   5.418   0.925   5.802  0.6000 -0.0540  0.4380
13397TIP3    H140132   5.508   0.922   5.834  0.2282  0.0047  1.5178
13397TIP3    H240133   5.403   1.017   5.782  0.5154  0.0644  1.0401
13398TIP3   OH240134   1.619   3.740   0.058 -0.3216 -0.2360  0.3963
13398TIP3    H140135   1.595   3.809   0.120  0.0824  0.2833 -0.0194
13398TIP3    H240136   1.550   3.743  -0.008  0.4084  0.6700 -0.3328
13399TIP3   OH240137   8.275   1.261   5.561  0.2249 -0.3255  0.3907
13399TIP3    H140138   8.335   1.272   5.635  0.7044  1.1219 -0.2066
13399TIP3    H240139   8.190   1.244   5.602  0.5245  0.2560  1.2719
13400TIP3   OH240140   0.952   0.154   5.193 -0.2162 -0.1597 -0.2362
13400TIP3    H140141   1.008   0.172   5.269  0.0408  1.3844 -0.7630
13400TIP3    H240142   1.012   0.117   5.128 -0.1751 -0.2733 -0.1333
13401TIP3   OH240143   5.560   7.624   3.416  0.2164  0.1017  0.2811
13401TIP3    H140144   5.625   7.562   3.446 -0.7818 -1.1222 -0.0512
13401TIP3    H240145   5.601   7.710   3.429  1.1224 -0.5455  1.9126
13402TIP3   OH240146   6.733   1.332   3.914  0.3169  0.0484 -0.6292
13402TIP3    H140147   6.822   1.318   3.947 -0.2977 -1.7214  0.3540
13402TIP3    H240148   6.745   1.384   3.835  2.1539  0.6546  0.0274
13403TIP3   OH240149   6.157   0.079   3.552  0.2842  0.1856 -0.3833
13403TIP3    H140150   6.089   0.090   3.486  0.3903  1.3306 -0.3164
13403TIP3    H240151   6.232   0.127   3.517  0.3070  0.8941  0.6132
13404TIP3   OH240152   3.747   7.037   5.683  0.2580  0.2062 -0.2761
13404TIP3    H140153   3.698   6.968   5.638 -0.6485  0.8772 -0.3135
13404TIP3    H240154   3.780   6.994   5.762 -0.5145 -0.1988 -0.1723
13405TIP3   OH240155   0.503   5.021   0.252  0.4928  0.1525 -0.4796
13405TIP3    H140156   0.515   4.947   0.192 -0.9535 -0.7810  0.3400
13405TIP3    H240157   0.409   5.039   0.248  0.2073 -0.5788  2.2394
13406TIP3   OH240158   3.139   3.476   1.625  0.0392  0.2448 -0.0332
13406TIP3    H140159   3.096   3.397   1.592 -0.5391  0.2740  0.6307
13406TIP3    H240160   3.107   3.484   1.715  0.1246  1.2126 -0.0904
13407TIP3   OH240161   0.993   3.232   4.754 -0.1175 -0.8478 -0.1044
13407TIP3    H140162   0.960   3.321   4.766  0.9659 -0.3758 -0.6057
13407TIP3    H240163   1.015   3.202   4.843 -2.8118 -1.5547  0.3816
13408TIP3   OH240164   6.827   7.363   5.947  0.2198  0.1536  0.0868
13408TIP3    H140165   6.825   7.459   5.940  0.5306  0.1237 -0.3948
13408TIP3    H240166   6.878   7.346   6.027 -0.6295  0.4095  0.6899
13409TIP3   OH240167   5.055   7.851   5.001  0.6371  0.3145 -0.0921
13409TIP3    H140168   5.055   7.785   4.931 -0.4348  0.3883 -0.1662
13409TIP3    H240169   5.141   7.892   4.995  1.1820 -0.8289 -0.2818
13410TIP3   OH240170   2.458   5.281   0.099 -0.3523 -0.2769 -0.0128
13410TIP3    H140171   2.404   5.357   0.120  1.2784  0.4877  1.5208
13410TIP3    H240172   2.425   5.211   0.155 -0.3287 -0.0578  0.2734
13411TIP3   OH240173   5.715   1.476   4.594 -0.1342 -0.1167  0.3803
13411TIP3    H140174   5.777   1.534   4.640 -0.4560  0.2805  0.3210
13411TIP3    H240175   5.721   1.503   4.503 -2.4608  1.8863  0.7604
13412TIP3   OH240176   5.249   0.281   6.842 -0.3838 -0.3208 -0.0407
13412TIP3    H140177   5.250   0.371   6.874  1.8260 -0.0359 -0.7738
13412TIP3    H240178   5.166   0.273   6.795 -1.4909  0.7084  1.6986
13413TIP3   OH240179   7.340   0.033   5.447  0.0195 -0.1788 -0.0767
13413TIP3    H140180   7.358  -0.041   5.389 -0.4953  0.3517 -0.9170
13413TIP3    H240181   7.281   0.090   5.397 -1.4166 -0.3068  1.4203
13414TIP3   OH240182   4.856   7.976   6.063  0.4007 -0.2445 -0.6609
13414TIP3    H140183   4.848   8.032   5.986 -0.6293  0.9401  0.2886
13414TIP3    H240184   4.767   7.941   6.077  0.5473 -0.3407  0.0641
13415TIP3   OH240185   2.937   7.583   2.838  0.6234  0.0340 -0.2661
13415TIP3    H140186   2.975   7.597   2.925  0.5337 -1.6115  0.0527
13415TIP3    H240187   2.904   7.670   2.813  1.3982  0.7141  0.9695
13416TIP3   OH240188   3.129   7.748   6.327 -0.4730 -0.2307  0.4927
13416TIP3    H140189   3.191   7.719   6.260 -0.4856 -1.0150  0.8175
13416TIP3    H240190   3.101   7.835   6.297  0.4200 -0.0666  0.0986
13417TIP3   OH240191   3.891   5.137   4.701 -0.5821 -0.7632  0.2280
13417TIP3    H140192   3.923   5.152   4.612 -0.5229  1.1883  0.5714
13417TIP3    H240193   3.959   5.084   4.742  0.9994  1.1701  0.1470
13418TIP3   OH240194   6.693   1.035   4.782  0.0657 -0.4598 -0.3016
13418TIP3    H140195   6.671   1.120   4.819  0.2801 -0.5824  0.1063
13418TIP3    H240196   6.623   1.018   4.719 -0.2789 -0.2291  0.0137
13419TIP3   OH240197   4.202   7.015   6.648 -0.1181  0.0583  0.2631
13419TIP3    H140198   4.244   7.098   6.625 -0.5403  0.1765 -0.0837
13419TIP3    H240199   4.194   6.969   6.565  0.6044 -0.5601  0.5325
13420TIP3   OH240200   2.925   7.704   5.499 -0.3686  0.2934  0.2347
13420TIP3    H140201   3.001   7.757   5.473  0.2629  0.2208  1.8816
13420TIP3    H240202   2.962   7.630   5.546 -1.2681 -1.5558 -1.9036
13421TIP3   OH240203   3.345   7.710   6.192  0.1292 -0.6273 -0.1326
13421TIP3    H140204   3.342   7.681   6.100 -0.3788 -0.0818 -0.2894
13421TIP3    H240205   3.407   7.782   6.192  0.0205 -0.5336 -0.0786
13422TIP3   OH240206   0.758  -0.031   5.160 -0.3414  0.4217 -0.1375
13422TIP3    H140207   0.809   0.048   5.178 -2.7179  1.8733  0.3853
13422TIP3    H240208   0.667  -0.005   5.171 -1.3012 -1.8185 -2.1535
13423TIP3   OH240209   2.009   7.397   4.691  0.1379 -0.1752 -0.0578
13423TIP3    H140210   2.025   7.359   4.604 -1.3976 -0.4771 -0.2226
13423TIP3    H240211   2.042   7.330   4.752 -0.8889 -0.9848 -0.3753
13424TIP3   OH240212   4.521   7.830   5.718 -0.2079 -0.2096  0.4388
13424TIP3    H140213   4.560   7.796   5.638 -1.0867 -0.5961  0.1620
13424TIP3    H240214   4.582   7.897   5.748  0.2989 -0.2967 -0.3735
13425TIP3   OH240215   4.414   6.441   3.994 -0.1804 -0.3209 -0.5518
13425TIP3    H140216   4.510   6.441   3.985 -0.2116 -0.4332 -0.9007
13425TIP3    H240217   4.385   6.512   3.938 -0.2864 -0.1593 -0.2889
13426TIP3   OH240218   4.871   0.215   6.267  0.0181 -0.3153 -0.3161
13426TIP3    H140219   4.911   0.244   6.349 -1.0511 -0.5204  0.3021
13426TIP3    H240220   4.779   0.240   6.276 -0.3084 -1.2107 -1.0447
13427TIP3   OH240221   2.142   6.661   3.403  0.2534  0.1049 -0.0211
13427TIP3    H140222   2.086   6.585   3.424 -1.1504  0.9167 -0.7841
13427TIP3    H240223   2.188   6.635   3.324  1.6177 -0.8979  1.0700
13428TIP3   OH240224   4.453   4.193   3.100  0.1194 -0.2855  0.9271
13428TIP3    H140225   4.366   4.177   3.064  0.3918  0.3081 -0.0262
13428TIP3    H240226   4.469   4.286   3.083  1.5380 -0.7222 -0.2742
13429TIP3   OH240227   5.400   7.666   4.599  0.4274  0.6755 -0.1470
13429TIP3    H140228   5.422   7.678   4.691 -3.6777  0.2871  1.0041
13429TIP3    H240229   5.399   7.571   4.588 -0.6468  0.6843 -0.1532
13430TIP3   OH240230   3.298   7.761   4.400 -0.5896 -0.4310 -0.8121
13430TIP3    H140231   3.208   7.791   4.408 -0.6578 -0.7081 -0.5184
13430TIP3    H240232   3.317   7.717   4.483 -0.1819 -0.3664 -0.8676
13431TIP3   OH240233   4.822   0.365   3.416 -0.3677  0.2713  0.0292
13431TIP3    H140234   4.905   0.372   3.367  0.0842 -1.6991  0.4406
13431TIP3    H240235   4.755   0.392   3.353  0.4093 -0.1322 -0.9920
13432TIP3   OH240236   2.255   7.630   4.085  0.2269 -0.8038  0.2876
13432TIP3    H140237   2.164   7.633   4.112  0.2537  0.7818  0.2561
13432TIP3    H240238   2.295   7.564   4.141 -0.5743 -0.3246  1.4358
13433TIP3   OH240239   2.964   3.252   1.636 -0.4520  0.4942 -0.2204
13433TIP3    H140240   2.879   3.290   1.614 -0.8655 -0.5117 -0.4112
13433TIP3    H240241   2.991   3.207   1.555 -0.1977  0.0054  0.1360
13434TIP3   OH240242   1.319   2.636   0.250 -0.2314 -0.4901 -0.2194
13434TIP3    H140243   1.286   2.678   0.329  0.4951 -1.8508  0.8364
13434TIP3    H240244   1.268   2.555   0.243  0.0480 -0.6136 -0.8828
13435TIP3   OH240245   7.179   0.459   3.266  0.2270 -0.0384  0.6240
13435TIP3    H140246   7.098   0.493   3.228  1.1579  1.2523 -0.2480
13435TIP3    H240247   7.197   0.517   3.340 -1.4628 -2.4076  3.0234
13436TIP3   OH240248   0.553   0.616   6.151 -0.4188 -0.6259  0.3408
13436TIP3    H140249   0.599   0.585   6.229 -0.5126  1.8876  1.4206
13436TIP3    H240250   0.479   0.667   6.185  0.4195  1.8001 -1.3487
13437TIP3   OH240251   4.651   7.951   6.869  0.2015 -0.3322 -0.6558
13437TIP3    H140252   4.613   7.904   6.944  1.3842 -0.7305 -0.2914
13437TIP3    H240253   4.585   8.015   6.844  0.4126  0.8608  1.7221
13438TIP3   OH240254   1.025   1.474   3.439 -0.2001  0.2291  0.2302
13438TIP3    H140255   1.018   1.544   3.374 -1.1704  1.0567  1.2015
13438TIP3    H240256   1.007   1.517   3.522 -0.1222 -1.0500  0.9206
13439TIP3   OH240257   6.910   2.661   4.740 -0.4960  0.1546 -0.1236
13439TIP3    H140258   7.004   2.657   4.758 -0.3284 -1.4915 -1.2254
13439TIP3    H240259   6.905   2.674   4.645 -1.3783  2.5254  0.2308
13440TIP3   OH240260   4.485   7.780   4.840 -0.2023  0.0258 -0.2129
13440TIP3    H140261   4.529   7.695   4.850 -1.4235 -0.8711 -2.1988
13440TIP3    H240262   4.404   7.759   4.793 -0.4730  2.3091 -0.7901
13441TIP3   OH240263   4.638   7.567   4.851  0.2299  0.2730 -0.3166
13441TIP3    H140264   4.700   7.611   4.794  0.3763  0.2401 -0.1856
13441TIP3    H240265   4.685   7.489   4.881  1.2040  1.6963  2.0548
13442TIP3   OH240266   7.747   0.638   5.343 -0.3175  0.4756  0.0750
13442TIP3    H140267   7.678   0.689   5.299 -1.2533 -0.0683  0.8937
13442TIP3    H240268   7.758   0.560   5.288 -0.2769  0.6080 -0.1078
13443TIP3   OH240269   0.542   0.750   4.632  0.2695  0.4668 -0.3661
13443TIP3    H140270   0.505   0.703   4.557  0.0468  1.8159 -1.1191
13443TIP3    H240271   0.489   0.722   4.707 -1.3733  1.2930 -1.1980
13444TIP3   OH240272   3.105   7.578   4.729  0.2283  0.6507 -0.3694
13444TIP3    H140273   3.154   7.522   4.668 -0.1974 -0.2307  0.0829
13444TIP3    H240274   3.147   7.663   4.723  0.8833  0.2842 -1.0824
13445TIP3   OH240275   7.162   0.879   4.580 -0.5373 -0.3957 -0.3345
13445TIP3    H140276   7.099   0.913   4.644 -1.1222 -0.7912 -0.7050
13445TIP3    H240277   7.155   0.938   4.505 -0.1183 -0.1528 -0.1829
13446TIP3   OH240278   8.127   0.418   5.623 -0.1091 -0.6981 -0.0634
13446TIP3    H140279   8.186   0.374   5.685 -0.6043 -0.8577  0.2997
13446TIP3    H240280   8.058   0.455   5.679 -0.2748 -0.3948 -0.4717
13447TIP3   OH240281   0.036   2.582   5.188 -0.2583  0.6049  0.3386
13447TIP3    H140282   0.022   2.550   5.099  1.9159  0.0046  0.1908
13447TIP3    H240283  -0.001   2.515   5.245  0.6391 -0.2494 -0.0711
13448TIP3   OH240284   0.730   0.749   4.865 -0.0526 -0.0604  0.2697
13448TIP3    H140285   0.816   0.709   4.859 -0.3607 -0.5116 -1.3508
13448TIP3    H240286   0.691   0.737   4.779 -0.5157  2.9418 -0.0124
13449TIP3   OH240287   6.949   7.318   3.702 -0.5093 -0.1510 -0.0080
13449TIP3    H140288   7.008   7.362   3.762 -0.3138 -1.4808  0.7945
13449TIP3    H240289   6.961   7.225   3.721 -2.3337 -0.4649 -0.3253
13450TIP3   OH240290   8.450   2.632   3.565  0.1122 -0.2909  0.3344
13450TIP3    H140291   8.434   2.666   3.653 -0.6861 -2.7187  1.1518
13450TIP3    H240292   8.510   2.558   3.578 -0.6866 -1.2105 -1.0652
13451TIP3   OH240293   1.252   1.484   6.168 -0.1446  0.1163  0.0794
13451TIP3    H140294   1.259   1.548   6.097 -0.8601  1.2875  1.0473
13451TIP3    H240295   1.234   1.402   6.123  2.9767  0.1228 -1.3475
13452TIP3   OH240296   6.536   7.870   4.413 -0.1327 -0.4058  0.3305
13452TIP3    H140297   6.459   7.813   4.416 -1.7054  1.6624  0.6916
13452TIP3    H240298   6.546   7.900   4.504 -1.2177  2.2491 -0.3649
13453TIP3   OH240299   7.541   0.749   4.669 -0.1094  0.6751 -0.4007
13453TIP3    H140300   7.631   0.781   4.667  0.5243 -1.0747 -1.1814
13453TIP3    H240301   7.493   0.813   4.722  1.2639  2.4145 -1.2417
13454TIP3   OH240302   6.954   7.889   4.481 -0.6713 -0.9069  0.0905
13454TIP3    H140303   6.919   7.928   4.561 -1.4617 -0.3374 -0.5220
13454TIP3    H240304   6.918   7.943   4.411 -0.9153 -2.1080 -0.7203
13455TIP3   OH240305   2.355   6.480   3.758 -0.4864 -0.5786 -0.1978
13455TIP3    H140306   2.425   6.481   3.692  0.9135 -1.0348  1.2292
13455TIP3    H240307   2.274   6.485   3.708  0.6289  4.1144 -1.7330
13456TIP3   OH240308   0.151   1.023   6.332  0.2775  0.3883 -0.5911
13456TIP3    H140309   0.094   1.074   6.275  2.0878  2.5510 -0.5492
13456TIP3    H240310   0.239   1.056   6.314  1.4359 -2.2149  0.0251
13457TIP3   OH240311   7.029   6.897   2.489  0.0823 -0.0725  0.6458
13457TIP3    H140312   7.031   6.803   2.467 -0.3086 -0.2172  1.2516
13457TIP3    H240313   6.986   6.901   2.574 -0.6274  0.7377  0.2481
13458TIP3   OH240314   5.965   8.058   3.526 -0.3170  0.5501  0.6008
13458TIP3    H140315   6.029   8.117   3.485  0.3557 -0.6547 -0.1384
13458TIP3    H240316   5.970   7.978   3.473 -0.9154 -0.3084  1.8208
13459TIP3   OH240317   7.277   2.959   4.157  0.2093  0.1589  0.0171
13459TIP3    H140318   7.275   3.045   4.114 -2.3127  0.6280  1.0276
13459TIP3    H240319   7.344   2.968   4.225 -0.7665  1.6728  0.8023
13460TIP3   OH240320   8.155   0.958   4.007  0.3805 -0.0917  0.1640
13460TIP3    H140321   8.208   0.961   3.927  1.5575  2.4641  0.9820
13460TIP3    H240322   8.084   1.019   3.990  1.8245  2.1261  1.8282
13461TIP3   OH240323   7.297   7.256   6.243 -0.0173  0.3505 -0.2133
13461TIP3    H140324   7.294   7.161   6.244  2.2628  0.2556  2.1632
13461TIP3    H240325   7.224   7.282   6.186 -0.1794 -2.7904 -1.5066
13462TIP3   OH240326   2.438   1.673   4.338 -0.1840 -0.0772 -0.1439
13462TIP3    H140327   2.487   1.754   4.356  1.5099 -1.0474 -0.3101
13462TIP3    H240328   2.350   1.691   4.370 -0.0739  2.1758 -0.9964
13463TIP3   OH240329   6.451   7.737   2.736  0.6162 -0.0897 -0.2288
13463TIP3    H140330   6.542   7.738   2.763  1.8457 -1.0548 -4.0313
13463TIP3    H240331   6.440   7.652   2.692 -1.4048  1.0221 -1.9731
13464TIP3   OH240332   7.052   7.350   3.387  0.2271  0.6214  0.0169
13464TIP3    H140333   6.988   7.416   3.413 -1.1107 -0.5935 -0.1341
13464TIP3    H240334   7.016   7.311   3.308  2.0593  1.1655 -1.1084
13465TIP3   OH240335   3.845   7.872   4.445  0.2997  0.4787 -0.4834
13465TIP3    H140336   3.784   7.917   4.386  1.9842  2.6041 -0.6599
13465TIP3    H240337   3.793   7.801   4.483 -0.4745 -1.8804 -5.5505
13466TIP3   OH240338   0.863   3.264   4.269 -0.0577 -0.2931 -0.4047
13466TIP3    H140339   0.845   3.193   4.332  1.4814 -0.2673  0.0709
13466TIP3    H240340   0.957   3.260   4.255  0.1165  1.9492 -0.0322
13467TIP3   OH240341   2.225   8.126   4.303 -0.3065 -0.0077 -0.9387
13467TIP3    H140342   2.191   8.071   4.374 -3.3805  0.1966 -2.1549
13467TIP3    H240343   2.237   8.065   4.230 -1.4417  0.5078 -1.5694
13468TIP3   OH240344   2.742   5.302   0.136  0.0965 -0.4279  0.0479
13468TIP3    H140345   2.752   5.335   0.047  2.9139  0.1217  0.5256
13468TIP3    H240346   2.652   5.326   0.160  0.0355  1.3840 -1.8359
13469TIP3   OH240347   6.805   7.447   2.158 -0.4781  0.0272 -0.7834
13469TIP3    H140348   6.788   7.355   2.138 -2.6720  0.8076 -2.7264
13469TIP3    H240349   6.883   7.468   2.107  1.0595 -1.1706  1.0068
13470TIP3   OH240350   0.200   1.518   4.541  0.2289 -0.0126  0.5458
13470TIP3    H140351   0.109   1.550   4.545  0.0383 -0.5047  0.1901
13470TIP3    H240352   0.226   1.531   4.450  0.3623 -0.2837  0.5446
13471TIP3   OH240353   6.177   7.538   5.530 -0.1008  0.0927  0.0703
13471TIP3    H140354   6.169   7.539   5.626 -0.2169  0.9972  0.0533
13471TIP3    H240355   6.109   7.478   5.501 -0.8057  0.6852  0.4861
13472TIP3   OH240356   1.170   0.476   3.500  0.2520 -0.7886 -0.7444
13472TIP3    H140357   1.159   0.501   3.592  0.7439 -1.3688 -0.5255
13472TIP3    H240358   1.263   0.488   3.483 -0.1828  1.3954 -1.7917
13473TIP3   OH240359   0.022   0.529   4.992 -0.8008  0.5193  0.1754
13473TIP3    H140360   0.041   0.608   4.942 -0.0408  0.7648  0.8422
13473TIP3    H240361   0.045   0.551   5.082  1.4104 -1.1060  0.0810
13474TIP3   OH240362   0.287   1.628   5.655  0.1689  0.6554  0.5195
13474TIP3    H140363   0.330   1.543   5.646 -0.2759  0.7063 -2.9081
13474TIP3    H240364   0.243   1.624   5.740  1.1218 -2.0799  0.9278
13475TIP3   OH240365   7.344   0.643   4.472 -0.5050  1.1749 -0.6860
13475TIP3    H140366   7.252   0.660   4.491 -0.4654  1.4973 -0.7822
13475TIP3    H240367   7.392   0.687   4.542 -0.3753  2.0591 -1.3241
13476TIP3   OH240368   7.157   3.414   4.232 -0.0853 -0.1407 -0.0680
13476TIP3    H140369   7.214   3.372   4.168  1.1134 -0.1674  1.0061
13476TIP3    H240370   7.216   3.447   4.299 -1.3070  0.1220  0.8967
13477TIP3   OH240371   1.615   3.137   4.850  0.2188 -0.0147  0.2341
13477TIP3    H140372   1.704   3.104   4.861 -0.4833 -2.6348 -1.3313
13477TIP3    H240373   1.616   3.181   4.765 -0.0920 -0.5393 -0.0467
13478TIP3   OH240374   6.365   6.838   2.890 -0.0883 -0.4578  0.3861
13478TIP3    H140375   6.293   6.778   2.912 -1.1943  1.2691  1.5408
13478TIP3    H240376   6.326   6.902   2.831  0.5610  0.3929  0.8793
13479TIP3   OH240377   1.208   1.029   6.215  0.2867 -0.0595 -0.7140
13479TIP3    H140378   1.262   1.051   6.291  0.2816  0.9294 -0.9883
13479TIP3    H240379   1.263   0.970   6.163 -0.4040 -2.2415  0.9434
13480TIP3   OH240380   0.250   0.527   2.632  0.6470  0.1028 -0.0244
13480TIP3    H140381   0.193   0.537   2.556  2.0616 -1.5332 -1.3246
13480TIP3    H240382   0.227   0.601   2.689 -2.6474 -0.4377 -0.5591
13481TIP3   OH240383   7.488   1.624   5.045  0.3430 -0.8319  0.8998
13481TIP3    H140384   7.503   1.529   5.043  1.7750 -0.6791  3.0232
13481TIP3    H240385   7.421   1.636   5.112  1.6885 -0.1890  2.1619
13482TIP3   OH240386   5.071   7.888   6.645  0.6153 -0.1635 -0.6037
13482TIP3    H140387   5.083   7.825   6.573  0.7624 -0.2654 -0.4883
13482TIP3    H240388   5.154   7.885   6.693  1.4618  1.7235 -1.8719
13483TIP3   OH240389   5.756   7.888   5.946 -0.1012 -0.0592  0.5238
13483TIP3    H140390   5.759   7.820   5.878 -0.7554  1.3054 -0.9039
13483TIP3    H240391   5.793   7.846   6.024  3.8826 -0.6693 -1.5513
13484TIP3   OH240392   7.359   1.202   6.343  0.4145 -0.1213  0.0781
13484TIP3    H140393   7.357   1.144   6.420  2.9923  1.0773  1.1090
13484TIP3    H240394   7.402   1.150   6.275 -1.0113 -0.8446 -0.2960
13485TIP3   OH240395   1.703   2.343   5.428 -1.2719 -0.0881 -0.2514
13485TIP3    H140396   1.777   2.366   5.484 -1.4338 -0.3604  0.0749
13485TIP3    H240397   1.741   2.337   5.340 -1.0083  0.2888 -0.1653
13486TIP3   OH240398  -0.011   0.399   3.765  0.1197 -0.1195  0.2957
13486TIP3    H140399   0.003   0.357   3.850  1.1692 -0.2188  0.0734
13486TIP3    H240400   0.053   0.359   3.707 -0.6139 -0.0653 -0.5588
13487TIP3   OH240401   5.273   7.881   6.209  1.1155 -0.0852 -0.5314
13487TIP3    H140402   5.201   7.818   6.212  2.5013 -1.7069 -0.7266
13487TIP3    H240403   5.285   7.908   6.300  0.8993 -0.5349 -0.3679
13488TIP3   OH240404   2.081   7.544   3.751  0.1422 -0.4944 -0.8084
13488TIP3    H140405   2.000   7.520   3.797  0.4765  0.9648  0.5915
13488TIP3    H240406   2.148   7.542   3.819  0.7860  1.0014 -1.3922
13489TIP3   OH240407   3.458   6.956   5.243  0.0850 -0.0002 -0.1500
13489TIP3    H140408   3.457   6.986   5.153  0.3648 -0.8222 -0.4314
13489TIP3    H240409   3.370   6.976   5.276 -0.2139 -0.2415 -0.7886
13490TIP3   OH240410   4.487   0.791   3.354  0.1317  0.5489  0.2361
13490TIP3    H140411   4.451   0.757   3.436  0.4709  1.1131  0.6270
13490TIP3    H240412   4.516   0.714   3.306 -1.0431  0.1381  0.1818
13491TIP3   OH240413   2.773   5.659   0.232  1.2463  0.0810  0.2853
13491TIP3    H140414   2.712   5.591   0.259 -0.3479  1.9032  1.4249
13491TIP3    H240415   2.747   5.681   0.143  1.2448 -0.2335  0.2085
13492TIP3   OH240416   8.218   0.925   5.594 -0.0512  0.1758  0.1203
13492TIP3    H140417   8.282   0.907   5.525  0.1760 -2.3590  0.9384
13492TIP3    H240418   8.134   0.899   5.556 -0.2258  0.8127  0.0578
13493TIP3   OH240419   5.617   7.870   3.069  0.3035 -0.2624  0.5386
13493TIP3    H140420   5.684   7.913   3.016 -0.4413  0.4138  0.1464
13493TIP3    H240421   5.544   7.857   3.009 -0.3914  0.1472  1.2919
13494TIP3   OH240422   4.998   7.495   5.600 -0.8753 -0.1637 -0.5277
13494TIP3    H140423   5.039   7.447   5.528  0.9105  0.8952 -0.2190
13494TIP3    H240424   5.066   7.501   5.667 -2.1704 -0.1651  0.8174
13495TIP3   OH240425   8.441   0.787   5.409  0.6039  0.3199  0.0011
13495TIP3    H140426   8.369   0.826   5.359  0.5038  0.9501  0.6266
13495TIP3    H240427   8.486   0.730   5.346 -0.0766  0.3866 -0.5525
13496TIP3   OH240428   5.166   7.706   3.536 -0.4551  0.4162 -0.0845
13496TIP3    H140429   5.107   7.671   3.603 -0.9136  0.0013 -0.6911
13496TIP3    H240430   5.210   7.629   3.500 -0.0622  0.6561 -0.1167
13497TIP3   OH240431   5.245   7.585   5.748  0.2322 -0.0892  0.0644
13497TIP3    H140432   5.306   7.634   5.693 -0.0181  0.1835  0.0277
13497TIP3    H240433   5.261   7.617   5.836 -0.5385  0.6985 -0.0718
13498TIP3   OH240434   3.340   7.411   6.211 -0.3096  0.4012 -0.2871
13498TIP3    H140435   3.298   7.496   6.221 -0.8056  0.1603 -0.3021
13498TIP3    H240436   3.354   7.402   6.117 -0.7338  0.2449 -0.3394
13499TIP3   OH240437   6.534   0.344   6.269 -0.4552 -0.0036  0.0357
13499TIP3    H140438   6.523   0.439   6.268 -1.8096 -0.1420  0.4783
13499TIP3    H240439   6.518   0.317   6.179 -0.5819  0.1316  0.0175
13500TIP3   OH240440   5.053   5.945   2.744 -0.0299 -0.1091  0.0889
13500TIP3    H140441   5.058   5.998   2.665  0.0193  0.3845  0.4260
13500TIP3    H240442   4.974   5.975   2.788 -0.4436 -0.8721 -0.1238
13501TIP3   OH240443   7.919   0.374   6.430  0.7017  0.3289  0.6774
13501TIP3    H140444   7.954   0.336   6.510  0.6659  1.1612  1.0898
13501TIP3    H240445   7.917   0.468   6.446  1.0251  0.5370 -0.4268
13502TIP3   OH240446   5.465   5.715   4.455  0.1579 -0.3960  0.1442
13502TIP3    H140447   5.395   5.781   4.455  0.2627 -0.2837 -0.0861
13502TIP3    H240448   5.489   5.706   4.548 -1.8387 -2.2363  0.5285
13503TIP3   OH240449   1.169   3.023   4.593 -0.0671  0.3875 -0.2215
13503TIP3    H140450   1.083   3.053   4.620 -0.0765 -1.2825  1.6820
13503TIP3    H240451   1.225   3.101   4.600 -0.8985  0.8995  0.8819
13504TIP3   OH240452   6.375   7.246   5.788  0.5225 -0.0057  0.2490
13504TIP3    H140453   6.284   7.268   5.810  0.0852  0.7248 -2.1377
13504TIP3    H240454   6.411   7.328   5.753  2.2485 -0.1692  1.6031
13505TIP3   OH240455   6.276   8.080   3.695  0.4234 -0.3079 -0.2431
13505TIP3    H140456   6.240   7.994   3.718  0.6083  0.2066  2.0702
13505TIP3    H240457   6.202   8.127   3.655  0.0363 -1.1485 -0.5240
13506TIP3   OH240458   4.834   7.987   5.115  0.0845  0.1516 -0.0467
13506TIP3    H140459   4.910   7.936   5.086  0.1170 -0.1309  0.5096
13506TIP3    H240460   4.773   7.984   5.042 -0.0002 -0.8769  0.0557
13507TIP3   OH240461   6.327   7.322   4.019 -0.5709  0.0022 -0.7336
13507TIP3    H140462   6.325   7.247   4.078  0.1191 -1.1083 -2.0896
13507TIP3    H240463   6.324   7.399   4.076  1.8819 -1.0230  0.8576
13508TIP3   OH240464   7.669   0.355   6.736 -0.3544  0.3436  0.0544
13508TIP3    H140465   7.764   0.359   6.732 -0.3147  0.3163  0.8843
13508TIP3    H240466   7.650   0.270   6.775 -0.7601 -0.2521 -1.3923
13509TIP3   OH240467   8.281   2.706   6.448 -0.5108  0.0665 -0.4767
13509TIP3    H140468   8.357   2.689   6.392 -0.8264  0.1315 -0.9271
13509TIP3    H240469   8.215   2.643   6.420  0.0009 -1.2324  1.1602
13510TIP3   OH240470   5.277   7.651   5.355  0.2819  0.3738 -0.2093
13510TIP3    H140471   5.355   7.655   5.410 -1.1505  0.6384  1.8468
13510TIP3    H240472   5.259   7.742   5.331  0.7109  0.2903 -0.8740
13511TIP3   OH240473   7.357   1.546   3.317 -0.4036  0.3788 -0.1835
13511TIP3    H140474   7.351   1.563   3.223 -0.3159  0.4053 -0.1846
13511TIP3    H240475   7.442   1.504   3.328 -1.4509 -1.8440 -0.4333
13512TIP3   OH240476   7.413   7.944   3.531 -0.3441 -0.0521  0.3404
13512TIP3    H140477   7.346   7.988   3.583  2.6505  2.5891  2.1219
13512TIP3    H240478   7.449   8.013   3.476  0.9370 -1.4417 -0.5920
13513TIP3   OH240479   0.468   1.859   4.391  0.5890  0.1648  0.2428
13513TIP3    H140480   0.388   1.898   4.428 -0.5390 -1.5643 -0.3415
13513TIP3    H240481   0.491   1.790   4.452  0.5716 -0.5642 -0.5711
13514TIP3   OH240482   0.584   1.280   4.958 -0.1574 -0.4964 -0.1129
13514TIP3    H140483   0.561   1.295   5.050 -2.6521 -0.6872 -0.6508
13514TIP3    H240484   0.595   1.368   4.922  3.8461 -0.4338  0.9946
13515TIP3   OH240485   6.667   7.290   4.263 -0.0749 -0.1743  0.2202
13515TIP3    H140486   6.739   7.235   4.231  1.2635  1.8425 -0.2949
13515TIP3    H240487   6.693   7.379   4.240 -2.1897  0.6911  1.1134
13516TIP3   OH240488   0.945   2.902   5.753 -0.2693  0.4715  0.0600
13516TIP3    H140489   0.995   2.846   5.813  0.1175  1.5385  0.7368
13516TIP3    H240490   1.002   2.977   5.737 -1.1512  1.1010 -0.1563
13517TIP3   OH240491   0.247   1.772   3.333  0.3964  0.1557  0.5176
13517TIP3    H140492   0.263   1.686   3.371  1.6687 -0.8405 -2.1466
13517TIP3    H240493   0.157   1.768   3.301  0.3582 -0.0834  0.6572
13518TIP3   OH240494   8.533   7.982   1.616 -0.4656 -0.1565 -0.7453
13518TIP3    H140495   8.538   7.890   1.590  0.9906 -0.6789  1.1612
13518TIP3    H240496   8.448   7.990   1.659 -1.1238 -0.2951 -2.0074
13519TIP3   OH240497   6.433   0.953   2.865  0.3967 -0.4729  0.1843
13519TIP3    H140498   6.511   0.953   2.810  1.1584 -0.2828  1.2482
13519TIP3    H240499   6.448   0.882   2.927  0.0874  0.0874  0.8972
13520TIP3   OH240500   8.279   1.320   3.445 -0.6092  0.7784 -0.2660
13520TIP3    H140501   8.373   1.304   3.435 -0.8134 -0.8180  0.2031
13520TIP3    H240502   8.265   1.325   3.540 -1.4603 -2.1747 -0.1766
13521TIP3   OH240503   2.114   8.062   4.913 -0.0191  0.1603  0.0124
13521TIP3    H140504   2.111   8.079   4.819 -1.1241 -4.1130 -0.7995
13521TIP3    H240505   2.190   8.006   4.926 -1.2024 -1.1876  1.3287
13522TIP3   OH240506   2.449   1.391   5.083 -0.4198  0.2320  0.2148
13522TIP3    H140507   2.416   1.302   5.089 -0.6262  0.3739  1.1734
13522TIP3    H240508   2.398   1.431   5.013  0.5598 -0.7863 -1.0994
13523TIP3   OH240509   3.350   6.172   3.838  0.0911 -0.1610 -1.0935
13523TIP3    H140510   3.297   6.221   3.775  1.9565 -0.2846 -2.8102
13523TIP3    H240511   3.350   6.227   3.917 -1.7323  0.3183 -1.4031
13524TIP3   OH240512   4.573   7.311   5.729 -0.0230 -0.2674  0.3442
13524TIP3    H140513   4.659   7.348   5.708 -0.5309 -0.4129 -2.0761
13524TIP3    H240514   4.588   7.217   5.735 -0.2910 -0.4611 -1.6829
13525TIP3   OH240515   5.517   7.911   5.445  0.0846 -0.0991  0.9766
13525TIP3    H140516   5.447   7.881   5.387  0.3237 -0.3567  0.8240
13525TIP3    H240517   5.532   8.002   5.421  1.4673 -0.7368 -0.6190
13526TIP3   OH240518   4.454   6.851   5.933 -0.1248  0.5590  0.1742
13526TIP3    H140519   4.363   6.872   5.915 -0.1281  0.8628  0.5261
13526TIP3    H240520   4.465   6.761   5.902 -0.3966  0.7138 -0.3738
13527TIP3   OH240521   0.929   1.294   4.652  0.9437  0.3692  0.4377
13527TIP3    H140522   0.927   1.206   4.613  0.4136  0.5988 -0.0718
13527TIP3    H240523   0.961   1.280   4.741  0.0735 -0.4453  0.6301
13528TIP3   OH240524   7.909   7.240   3.914  0.2335  0.3141 -0.0785
13528TIP3    H140525   7.948   7.152   3.912  2.0857  1.1277 -0.1602
13528TIP3    H240526   7.843   7.238   3.844 -1.9877 -1.9975  1.9330
13529TIP3   OH240527   7.258   7.225   2.714  0.1600  0.6075 -0.0321
13529TIP3    H140528   7.247   7.245   2.621 -1.6700  3.1323  0.6621
13529TIP3    H240529   7.217   7.299   2.760 -0.5551 -1.4369  2.7837
13530TIP3   OH240530   7.653   2.060   3.878 -0.6652 -0.3251 -0.3120
13530TIP3    H140531   7.617   1.972   3.884 -2.3419  0.3386 -0.4697
13530TIP3    H240532   7.622   2.094   3.794  0.9416  0.0151 -0.8012
13531TIP3   OH240533   7.729   0.120   5.220 -0.4414 -0.5904  0.0533
13531TIP3    H140534   7.709   0.051   5.157  1.3124 -1.6437  0.6193
13531TIP3    H240535   7.650   0.127   5.274 -0.5456 -2.3627  0.1664
13532TIP3   OH240536   0.887   0.068   4.431  0.1413 -0.0266  0.5384
13532TIP3    H140537   0.851   0.145   4.476 -2.2030 -0.1973 -0.9659
13532TIP3    H240538   0.881  -0.003   4.495  0.7614  0.6589  1.3680
13533TIP3   OH240539   2.273   4.002   1.092  0.0216  0.3248 -0.7418
13533TIP3    H140540   2.204   3.942   1.119 -0.2426  0.3774 -1.2812
13533TIP3    H240541   2.263   4.078   1.149  0.2436 -0.0642 -0.1777
13534TIP3   OH240542   0.714   0.678   5.421  0.2162  0.5653 -0.0835
13534TIP3    H140543   0.741   0.696   5.511  1.6720 -0.7119 -0.2460
13534TIP3    H240544   0.787   0.710   5.368 -0.2269  0.4585 -0.7615
13535TIP3   OH240545   3.863   6.223   0.234  0.4608 -0.0313  0.1752
13535TIP3    H140546   3.823   6.272   0.162 -1.6124 -0.4406  1.0193
13535TIP3    H240547   3.947   6.267   0.249  0.5304  0.6080 -1.8798
13536TIP3   OH240548   8.106   1.665   4.718 -0.6462  0.2209  0.2812
13536TIP3    H140549   8.104   1.745   4.665  0.2094 -0.1928 -0.3887
13536TIP3    H240550   8.027   1.670   4.772 -0.2336  1.8673  0.7686
13537TIP3   OH240551   8.057   6.930   3.112  0.1645 -0.0362 -0.1142
13537TIP3    H140552   8.034   7.020   3.088  0.8278  0.5027  1.2416
13537TIP3    H240553   8.117   6.939   3.185  0.3223 -1.5943 -0.0338
13538TIP3   OH240554   0.061   0.377   4.343  0.0639  0.5617 -0.3683
13538TIP3    H140555   0.080   0.459   4.298  1.4940  0.5104  0.1120
13538TIP3    H240556   0.104   0.387   4.428 -1.0933 -0.0551  0.2959
13539TIP3   OH240557   7.481   0.507   5.260 -0.2221  0.4708  0.1028
13539TIP3    H140558   7.477   0.474   5.350  1.8477 -2.4255 -0.8178
13539TIP3    H240559   7.459   0.432   5.205 -0.5356  1.9717 -1.8762
13540TIP3   OH240560   7.958   1.469   3.584  0.0966  0.6942 -0.3169
13540TIP3    H140561   7.962   1.532   3.512 -0.6892 -0.5486 -1.4588
13540TIP3    H240562   7.869   1.435   3.582  0.4695 -0.3571  0.3906
13541TIP3   OH240563   7.927   1.788   3.886 -0.2361 -0.2762  0.2245
13541TIP3    H140564   8.016   1.765   3.859 -0.7225 -0.3539 -1.4090
13541TIP3    H240565   7.895   1.709   3.930  1.2012  0.4817  2.7170
13542TIP3   OH240566   7.581   6.500   3.003 -0.1843 -0.6319  0.1130
13542TIP3    H140567   7.516   6.483   2.935 -1.2208 -0.3281  1.0226
13542TIP3    H240568   7.665   6.481   2.960 -0.6786  1.3668 -1.8050
13543TIP3   OH240569   6.346   1.117   4.469  0.0364 -0.4123  0.7581
13543TIP3    H140570   6.258   1.138   4.499 -0.4615 -0.5156 -0.6192
13543TIP3    H240571   6.393   1.200   4.470 -0.8785  0.1546 -1.1482
13544TIP3   OH240572   1.107   1.678   5.753 -0.0666 -0.3804  0.4774
13544TIP3    H140573   1.104   1.656   5.660  0.9494 -0.2456  0.3982
13544TIP3    H240574   1.030   1.733   5.768 -0.0231 -0.0871 -0.3713
13545TIP3   OH240575   4.242   7.786   4.693  0.1917  0.3738 -0.5715
13545TIP3    H140576   4.231   7.692   4.709 -0.7392  0.4131 -0.9023
13545TIP3    H240577   4.159   7.825   4.723 -0.2166  0.8490 -2.2465
13546TIP3   OH240578   1.097   1.595   6.368  0.1242 -0.0788 -0.4052
13546TIP3    H140579   1.137   1.682   6.370 -0.5676  0.2340  0.1876
13546TIP3    H240580   1.120   1.560   6.282 -1.5861  1.6581 -1.6292
13547TIP3   OH240581   4.781   6.231   3.239  0.1896 -0.0117  0.1064
13547TIP3    H140582   4.738   6.295   3.183  0.4136 -1.3668 -1.6327
13547TIP3    H240583   4.712   6.203   3.300 -0.1331  1.2375  0.3240
13548TIP3   OH240584   1.470   1.319   5.925 -0.2547 -0.5137 -0.3134
13548TIP3    H140585   1.536   1.347   5.988  1.0636 -2.6579 -0.6643
13548TIP3    H240586   1.393   1.299   5.978  0.5365 -1.3886  0.5368
13549TIP3   OH240587   5.163   6.548   5.240 -0.0010  0.3010  0.1392
13549TIP3    H140588   5.094   6.594   5.289  1.5999 -0.0796  2.8770
13549TIP3    H240589   5.118   6.475   5.198 -1.9257  2.2198 -1.2819
13550TIP3   OH240590   5.712   6.941   5.264  0.1099 -0.4403 -0.0869
13550TIP3    H140591   5.658   6.947   5.342 -0.4232 -1.6716 -0.3442
13550TIP3    H240592   5.652   6.958   5.191  0.6114  0.7399 -0.2356
13551TIP3   OH240593   4.374   7.014   4.049  0.8675  0.0519 -0.3997
13551TIP3    H140594   4.401   7.106   4.052 -1.0721  0.6112  0.7101
13551TIP3    H240595   4.313   7.009   3.975 -0.0781 -0.0328  0.3750
13552TIP3   OH240596   0.381   1.709   3.827  0.0175 -0.2775 -0.1861
13552TIP3    H140597   0.431   1.740   3.752 -1.5005  2.1428 -0.2670
13552TIP3    H240598   0.436   1.727   3.903  0.3243 -0.0110 -0.4749
13553TIP3   OH240599   0.037   1.220   5.559 -0.3121  0.3334  0.6084
13553TIP3    H140600   0.013   1.300   5.606  0.0676  0.1211  1.1758
13553TIP3    H240601   0.121   1.193   5.598  0.6992  0.8846 -1.0930
13554TIP3   OH240602   2.208   0.825   6.785  0.0156  0.3567  0.0801
13554TIP3    H140603   2.119   0.792   6.785 -0.2848  1.1023 -1.2252
13554TIP3    H240604   2.215   0.874   6.702  1.5304  0.5440  0.3053
13555TIP3   OH240605   1.021   1.502   2.293 -0.5155  0.2748  0.0292
13555TIP3    H140606   1.094   1.461   2.339 -1.2031 -0.5191  0.4168
13555TIP3    H240607   1.036   1.596   2.304  0.7440  0.1338 -0.3626
13556TIP3   OH240608   8.271   7.247   3.407 -0.6132  0.1579 -0.1161
13556TIP3    H140609   8.326   7.183   3.452  0.2243 -0.0359 -1.3925
13556TIP3    H240610   8.301   7.332   3.440 -0.3107  0.0014  0.0097
13557TIP3   OH240611   6.170   6.874   3.793 -0.4842 -0.6380 -0.2742
13557TIP3    H140612   6.150   6.933   3.866 -1.5588 -0.6540 -0.5506
13557TIP3    H240613   6.209   6.797   3.834  0.2144 -0.0737  0.1550
13558TIP3   OH240614   6.456   2.599   4.624  0.2128  0.5170 -0.6678
13558TIP3    H140615   6.396   2.535   4.585  0.5051  0.5167 -1.1092
13558TIP3    H240616   6.492   2.647   4.550 -0.6094  1.7320 -0.2926
13559TIP3   OH240617   6.283   8.008   2.942  0.3465 -0.3053 -0.3293
13559TIP3    H140618   6.336   7.943   2.896  1.4348 -0.1482  0.6800
13559TIP3    H240619   6.347   8.067   2.982 -0.6295  1.1291 -0.8756
13560TIP3   OH240620   7.222   7.505   5.758  0.2022  0.5440 -0.1402
13560TIP3    H140621   7.305   7.487   5.716 -0.3326 -1.0131 -0.5453
13560TIP3    H240622   7.156   7.474   5.696 -0.6449  0.6548  0.6914
13561TIP3   OH240623   1.502   0.263   5.535  0.2953 -0.5613  0.0991
13561TIP3    H140624   1.514   0.168   5.542 -1.1596 -0.8569 -1.1294
13561TIP3    H240625   1.563   0.290   5.466  1.2386 -0.4726  0.9502
13562TIP3   OH240626   5.688   5.829   5.496  0.3219 -0.9418  0.6493
13562TIP3    H140627   5.624   5.841   5.566  1.4504 -1.3230  1.7668
13562TIP3    H240628   5.736   5.750   5.522  1.7716 -0.2054  0.2483
13563TIP3   OH240629   1.177   3.687   0.200  0.2552  0.1804  0.3720
13563TIP3    H140630   1.216   3.600   0.207 -0.2095 -0.1367 -0.8594
13563TIP3    H240631   1.192   3.712   0.109  0.2510  1.3319  0.6807
13564TIP3   OH240632   6.787   6.782   3.105  0.0163  0.4036 -0.4049
13564TIP3    H140633   6.704   6.754   3.143  1.0720 -2.5860 -0.1597
13564TIP3    H240634   6.819   6.705   3.059  3.3706  1.0234  0.7765
13565TIP3   OH240635   5.461   7.415   5.945  0.0945  0.3055  0.6180
13565TIP3    H140636   5.553   7.429   5.968  0.0150 -0.5804  1.5074
13565TIP3    H240637   5.413   7.483   5.992 -0.1237 -1.8052  3.5806
13566TIP3   OH240638   3.875   7.994   5.600 -0.3205 -0.7510 -0.0860
13566TIP3    H140639   3.827   8.011   5.519 -0.2255 -1.5152 -0.3063
13566TIP3    H240640   3.826   8.042   5.667  0.0381  0.4973 -0.7145
13567TIP3   OH240641   0.499   1.170   4.698 -0.4008 -0.1706  0.2772
13567TIP3    H140642   0.520   1.195   4.787 -0.8330  1.1045  0.0273
13567TIP3    H240643   0.412   1.130   4.704 -1.3256  1.7409  0.1576
13568TIP3   OH240644   3.678   6.817   4.610 -0.8930  0.6670  0.5031
13568TIP3    H140645   3.687   6.753   4.680 -1.2596  0.7062  0.5863
13568TIP3    H240646   3.764   6.858   4.603 -0.2402 -0.7986 -0.4729
13569TIP3   OH240647   6.367   7.721   4.791 -0.4815 -0.2646 -0.1851
13569TIP3    H140648   6.330   7.678   4.713  0.9538  0.1170 -1.1008
13569TIP3    H240649   6.291   7.748   4.842 -1.4854  0.9431 -2.2649
13570TIP3   OH240650   4.347   7.772   6.390  0.7955 -0.4217  0.0785
13570TIP3    H140651   4.410   7.713   6.431  0.2942 -1.2225 -0.2889
13570TIP3    H240652   4.346   7.745   6.298 -0.3352 -0.6589  0.1473
13571TIP3   OH240653   6.974   6.347   7.001 -0.0901 -0.2715  0.8028
13571TIP3    H140654   6.951   6.387   7.085  1.5531 -2.1809  2.2008
13571TIP3    H240655   7.050   6.397   6.970 -0.3514  0.0697  0.7017
13572TIP3   OH240656   5.068   6.933   5.053  0.3317  0.1263  0.7326
13572TIP3    H140657   4.989   6.984   5.036  0.1106 -1.0568 -2.0507
13572TIP3    H240658   5.139   6.997   5.051 -0.1523  0.6277 -0.6029
13573TIP3   OH240659   0.220   3.156   6.200 -0.3258  0.5689  0.1496
13573TIP3    H140660   0.145   3.142   6.257 -1.5496 -0.3199 -1.6439
13573TIP3    H240661   0.248   3.068   6.175  1.3193  0.8890  0.8141
13574TIP3   OH240662   0.613   1.553   4.913 -0.4436 -0.2991 -0.3365
13574TIP3    H140663   0.668   1.616   4.866 -0.8752  1.4408  1.4423
13574TIP3    H240664   0.528   1.559   4.869 -1.1593  2.1364  1.3333
13575TIP3   OH240665   5.670   7.300   2.944  0.4516  0.1277  0.3330
13575TIP3    H140666   5.664   7.319   2.851 -0.8064  0.5253  0.4810
13575TIP3    H240667   5.646   7.208   2.952 -2.0359  0.7515  0.5163
13576TIP3   OH240668   6.943   0.511   5.696  0.5070 -0.1291 -0.1328
13576TIP3    H140669   6.856   0.479   5.716 -0.8628  2.4517 -1.6195
13576TIP3    H240670   6.941   0.604   5.721  2.0203  0.5794 -2.4564
13577TIP3   OH240671   5.670   6.820   4.738 -0.2858 -0.1953 -0.5131
13577TIP3    H140672   5.700   6.882   4.671 -1.1014 -1.2534 -1.9042
13577TIP3    H240673   5.730   6.746   4.732 -0.1291 -0.1251  0.1923
13578TIP3   OH240674   1.163   1.677   4.620 -0.7099  0.0789  0.5759
13578TIP3    H140675   1.078   1.675   4.665 -1.2680  2.8511 -0.2464
13578TIP3    H240676   1.197   1.764   4.638  1.8650 -0.9062  0.6366
13579TIP3   OH240677   0.746   1.124   5.512 -0.7621  0.0972  0.2030
13579TIP3    H140678   0.716   1.215   5.518  2.7835  1.2895  1.1726
13579TIP3    H240679   0.814   1.117   5.579  1.0086 -2.4560 -1.7734
13580TIP3   OH240680   5.866   6.583   6.644 -0.0350  0.0730  0.1952
13580TIP3    H140681   5.815   6.664   6.645  1.9585  1.3682 -0.3678
13580TIP3    H240682   5.879   6.564   6.551 -1.3303 -1.4597  0.3054
13581TIP3   OH240683   6.270   5.957   5.895  0.0523 -0.5856 -0.0095
13581TIP3    H140684   6.224   5.874   5.882 -0.5199 -0.5288  1.5201
13581TIP3    H240685   6.328   5.940   5.969 -0.4215  0.5050  0.6276
13582TIP3   OH240686   6.572   7.858   5.001 -0.0225 -0.2718 -0.3536
13582TIP3    H140687   6.602   7.808   5.077 -0.4384 -1.9279 -1.2290
13582TIP3    H240688   6.552   7.945   5.035 -1.7249 -1.4230  1.7471
13583TIP3   OH240689   5.207   6.563   6.152 -0.7088 -0.3260  0.4358
13583TIP3    H140690   5.174   6.542   6.064 -1.2510 -1.6354  0.9319
13583TIP3    H240691   5.135   6.609   6.194 -0.2445  0.8074  0.0201
13584TIP3   OH240692   1.789   0.335   4.064  0.4666  0.2843  0.4451
13584TIP3    H140693   1.719   0.287   4.108  1.9393 -0.7227  1.7170
13584TIP3    H240694   1.847   0.267   4.030  1.7085  1.1270  0.8332
13585TIP3   OH240695   0.456   0.580   3.962  0.0133 -0.7188 -0.1199
13585TIP3    H140696   0.462   0.675   3.977  2.3187 -1.0290  1.2472
13585TIP3    H240697   0.523   0.562   3.897 -0.0453 -1.4839  0.0310
13586TIP3   OH240698   7.184   7.779   4.111  0.9334  0.4795 -0.1825
13586TIP3    H140699   7.130   7.818   4.042  0.2968  0.1531  0.1311
13586TIP3    H240700   7.153   7.689   4.119  0.8475  0.5732  0.6739
13587TIP3   OH240701   8.348   1.241   4.463  0.1669 -0.5089  0.0654
13587TIP3    H140702   8.297   1.314   4.500  2.3317  1.1285 -0.1149
13587TIP3    H240703   8.439   1.262   4.485  0.9868 -2.2370 -1.5912
13588TIP3   OH240704   4.222   6.023   3.757  0.5815 -0.0215 -0.0752
13588TIP3    H140705   4.184   5.983   3.835  1.7880  2.0836  1.6576
13588TIP3    H240706   4.252   5.949   3.705 -2.7362 -1.5865  0.1127
13589TIP3   OH240707   0.368   7.244   4.470 -0.4761 -0.0901  0.0917
13589TIP3    H140708   0.342   7.153   4.466 -1.1544  0.0856  0.5111
13589TIP3    H240709   0.300   7.291   4.422  0.3169  0.1062 -0.8670
13590TIP3   OH240710   8.350   3.415   3.836 -0.4166 -0.2112  0.3685
13590TIP3    H140711   8.436   3.378   3.857  0.3706  2.5933  2.4707
13590TIP3    H240712   8.368   3.485   3.773 -1.0177  1.0444  1.5656
13591TIP3   OH240713   8.374   1.107   2.965 -0.3400 -0.8835 -0.3978
13591TIP3    H140714   8.370   1.184   3.022  1.4542 -0.7665 -0.3745
13591TIP3    H240715   8.293   1.109   2.914 -1.1461 -0.0106  0.9114
13592TIP3   OH240716   2.441   1.456   4.625  0.5599 -0.1392 -0.0916
13592TIP3    H140717   2.534   1.459   4.602  0.3428 -1.8419 -1.2401
13592TIP3    H240718   2.418   1.548   4.643  1.9758  0.5532 -1.6774
13593TIP3   OH240719   5.261   7.105   4.961  0.3190  0.3217  0.5460
13593TIP3    H140720   5.254   7.038   4.894 -0.4076  0.5993  0.3361
13593TIP3    H240721   5.347   7.145   4.946  0.7135 -0.4912  0.6145
13594TIP3   OH240722   2.917   0.379   1.574  0.1082  0.2362 -0.4122
13594TIP3    H140723   3.006   0.360   1.543  1.2519 -1.6028  3.7284
13594TIP3    H240724   2.918   0.473   1.592  1.0322  0.3358 -0.9146
13595TIP3   OH240725   7.420   4.967   3.392  0.0053 -0.5390 -0.1525
13595TIP3    H140726   7.326   4.950   3.381 -0.0851 -0.3696  0.3716
13595TIP3    H240727   7.425   5.059   3.418  0.1712 -1.1522  2.0594
13596TIP3   OH240728   2.206   2.412   3.455  0.2505 -0.4824  0.0073
13596TIP3    H140729   2.146   2.378   3.389  0.0598  0.3468 -0.2501
13596TIP3    H240730   2.162   2.398   3.539  0.1912 -0.9017 -0.0967
13597TIP3   OH240731   8.362   7.696   2.802  0.1381  0.6527  0.0522
13597TIP3    H140732   8.427   7.651   2.748  0.5422  1.6803 -0.3310
13597TIP3    H240733   8.412   7.728   2.877 -0.4169 -0.7435  1.0337
13598TIP3   OH240734   8.521   7.707   3.424 -0.4519  0.0515  0.2306
13598TIP3    H140735   8.554   7.631   3.377 -2.2658 -0.8718  0.3895
13598TIP3    H240736   8.583   7.777   3.405  0.6490 -1.1897 -0.7921
13599TIP3   OH240737   6.154   6.403   4.187 -0.3967 -0.3121 -0.3163
13599TIP3    H140738   6.124   6.313   4.189 -2.8211  0.4603  0.4596
13599TIP3    H240739   6.169   6.425   4.279 -1.7214  0.6641 -0.3252
13600TIP3   OH240740   0.736   0.946   3.977  0.2196  0.2222 -0.0573
13600TIP3    H140741   0.744   1.038   3.999 -2.1402  1.1169 -2.6444
13600TIP3    H240742   0.743   0.943   3.881  0.1327 -2.2550 -0.0286
13601TIP3   OH240743   2.477   1.018   4.759 -1.1810 -0.0179  0.4192
13601TIP3    H140744   2.451   1.013   4.667  0.2559 -0.1290  0.0015
13601TIP3    H240745   2.471   0.927   4.790 -0.2291 -0.2269  0.0146
13602TIP3   OH240746   2.008   0.234   4.533  0.2316  0.1699  0.0668
13602TIP3    H140747   1.926   0.278   4.511  0.2656  0.2655  0.1349
13602TIP3    H240748   2.047   0.213   4.448  0.4734  0.7474  0.0331
13603TIP3   OH240749   8.250   7.880   3.446  0.6246 -0.5380  0.0660
13603TIP3    H140750   8.249   7.960   3.393  1.2736 -0.2229  0.5284
13603TIP3    H240751   8.307   7.900   3.520 -0.0397 -1.0740  0.7400
13604TIP3   OH240752   0.575   0.732   2.159 -0.0929  0.2168  0.3380
13604TIP3    H140753   0.530   0.649   2.175  0.7761 -0.3777 -0.1866
13604TIP3    H240754   0.511   0.800   2.182 -0.3713 -0.5864  1.9984
13605TIP3   OH240755   3.040   0.508   3.954  0.5542 -0.1626  0.2857
13605TIP3    H140756   2.968   0.457   3.915 -0.8149  1.5643  0.4991
13605TIP3    H240757   3.091   0.444   4.003 -0.8304 -1.4274  0.1164
13606TIP3   OH240758   6.446   7.719   1.692  0.0342  0.6896  0.1155
13606TIP3    H140759   6.461   7.671   1.773  0.3485 -0.9366 -0.8777
13606TIP3    H240760   6.384   7.788   1.716  0.0596  0.1802  1.7064
13607TIP3   OH240761   6.880   0.261   3.236  0.3534  0.3203  0.6049
13607TIP3    H140762   6.972   0.237   3.226 -0.4459 -1.9132 -1.8544
13607TIP3    H240763   6.873   0.346   3.192  0.9951 -0.0956 -0.3081
13608TIP3   OH240764   7.787   7.824   3.066  0.2607 -0.0245 -0.0056
13608TIP3    H140765   7.865   7.811   3.119  0.1172 -1.5106 -0.1418
13608TIP3    H240766   7.715   7.792   3.120 -0.2838  1.4065  0.1535
13609TIP3   OH240767   7.105   7.354   1.793  0.5622  0.1744 -0.0750
13609TIP3    H140768   7.066   7.387   1.874 -0.1130 -0.5114 -0.1096
13609TIP3    H240769   7.179   7.412   1.776  1.0984 -0.0670  1.3892
13610TIP3   OH240770   0.761   0.919   3.679  0.6467  0.6676 -0.5270
13610TIP3    H140771   0.835   0.967   3.642  0.8625  1.9436  1.4932
13610TIP3    H240772   0.786   0.827   3.670  1.9290  1.0455 -1.0140
13611TIP3   OH240773   5.784   4.613   6.523  0.0798 -0.0393  0.0100
13611TIP3    H140774   5.726   4.566   6.464 -0.7173  1.3375 -0.3195
13611TIP3    H240775   5.735   4.618   6.606  0.8935 -1.3197  0.5910
13612TIP3   OH240776   5.227   3.003   5.959 -0.0774  0.2348  0.9574
13612TIP3    H140777   5.150   3.038   5.914 -0.1069 -0.8564  0.1141
13612TIP3    H240778   5.298   3.062   5.934  0.2714 -1.3261 -2.0167
13613TIP3   OH240779   1.913   1.835   6.363 -0.1938 -0.2422 -0.4636
13613TIP3    H140780   1.909   1.782   6.284  0.9123  0.8880 -1.3102
13613TIP3    H240781   1.911   1.925   6.332  0.6984  0.2209  0.7498
13614TIP3   OH240782   6.003   7.451   3.372 -0.3171 -0.2172  0.1410
13614TIP3    H140783   6.066   7.421   3.437  0.5916 -0.2020 -0.7115
13614TIP3    H240784   5.994   7.545   3.388  3.1818  0.6806 -2.4107
13615TIP3   OH240785   0.399   0.621   4.435 -0.4308  0.3286  0.2557
13615TIP3    H140786   0.340   0.674   4.382 -0.2381 -0.2292 -0.5318
13615TIP3    H240787   0.436   0.557   4.373  0.2345  0.0383  0.9407
13616TIP3   OH240788   7.377   7.453   4.348 -0.0311 -0.5266  1.0082
13616TIP3    H140789   7.296   7.447   4.297  0.4929  1.0152 -0.0627
13616TIP3    H240790   7.424   7.372   4.328 -1.8002 -1.9908  2.5688
13617TIP3   OH240791   6.015   6.078   5.412 -0.4190  0.7966  0.0535
13617TIP3    H140792   5.985   6.032   5.490 -0.4852  0.3541 -0.2346
13617TIP3    H240793   5.935   6.099   5.364 -0.2520 -0.9403 -1.0307
13618TIP3   OH240794   0.624   7.332   4.557 -0.5871  0.5412  0.0543
13618TIP3    H140795   0.620   7.412   4.505 -0.4388  0.5624  0.0777
13618TIP3    H240796   0.532   7.303   4.562 -0.8016  1.3603  1.0597
13619TIP3   OH240797   5.749   5.731   4.459  0.4908  0.1598 -0.4747
13619TIP3    H140798   5.669   5.733   4.405 -0.5542 -1.6526  0.9601
13619TIP3    H240799   5.730   5.791   4.531  0.0839 -0.8685  0.2919
13620TIP3   OH240800   6.921   7.592   2.465  0.0830  0.1275 -0.5349
13620TIP3    H140801   6.979   7.657   2.425  1.9870  0.3549  2.4624
13620TIP3    H240802   6.958   7.507   2.440 -0.7395  0.1973 -2.0561
13621TIP3   OH240803   2.083   0.497   4.174 -0.4578  0.2838 -0.0974
13621TIP3    H140804   2.023   0.425   4.192 -0.0492 -0.1487 -0.4618
13621TIP3    H240805   2.170   0.457   4.174 -0.2103  0.8066 -0.1322
13622TIP3   OH240806   0.358   6.826   3.439  0.2463 -0.4152  0.1208
13622TIP3    H140807   0.432   6.886   3.431 -1.6717  1.9682 -0.4310
13622TIP3    H240808   0.393   6.752   3.488  3.5754 -0.3814 -2.0440
13623TIP3   OH240809   6.656   7.644   2.917 -0.1756 -0.1298 -0.3358
13623TIP3    H140810   6.685   7.710   2.980 -0.8779 -1.2844  1.2330
13623TIP3    H240811   6.596   7.589   2.967 -1.1373 -0.7662 -2.1709
13624TIP3   OH240812   0.461   5.245   1.354 -0.0317 -0.3841 -0.6200
13624TIP3    H140813   0.497   5.286   1.275  1.6829 -1.1214 -0.2436
13624TIP3    H240814   0.407   5.174   1.321 -1.7902  1.1899 -1.2246
13625TIP3   OH240815   3.966   1.685   6.483 -0.1504  0.0425 -0.4580
13625TIP3    H140816   3.944   1.605   6.531  0.0789  0.0132 -0.4019
13625TIP3    H240817   3.974   1.752   6.550 -0.2040  0.0826 -0.4915
13626TIP3   OH240818   2.964   1.784   5.928 -0.7555  0.4037  0.2684
13626TIP3    H140819   2.940   1.730   5.853 -1.0115  0.6484  0.1723
13626TIP3    H240820   2.910   1.752   6.000 -0.3473  0.0200  0.4050
13627TIP3   OH240821   0.131   5.179   0.857 -0.0017  0.2515 -0.0209
13627TIP3    H140822   0.113   5.270   0.884  0.3367  0.6027 -0.9706
13627TIP3    H240823   0.078   5.126   0.917 -0.4887  1.0910  0.3067
13628TIP3   OH240824   6.914   5.470   1.652 -0.0857  0.4094  0.2632
13628TIP3    H140825   6.877   5.463   1.740 -1.4555 -0.8905 -0.3908
13628TIP3    H240826   7.007   5.453   1.664 -0.5806 -1.8598  1.2045
13629TIP3   OH240827   6.265   7.561   0.467 -1.2380 -0.6356  0.2313
13629TIP3    H140828   6.206   7.486   0.475 -2.2783  0.2125  0.5983
13629TIP3    H240829   6.327   7.535   0.399 -1.6095 -1.8085  0.3204
13630TIP3   OH240830   5.769   4.663   0.822 -0.3863 -0.6564  0.0628
13630TIP3    H140831   5.742   4.592   0.879 -1.0640 -0.5022 -0.0712
13630TIP3    H240832   5.705   4.733   0.837 -0.4294 -0.5247 -0.6992
13631TIP3   OH240833   6.053   5.696   2.592 -0.3005 -0.5739  0.6556
13631TIP3    H140834   6.065   5.791   2.586 -0.2736 -0.6530 -0.5828
13631TIP3    H240835   6.099   5.660   2.516 -0.8528 -1.5345  0.7589
13632TIP3   OH240836   7.254   3.250   0.426  0.0931 -0.1724 -0.1594
13632TIP3    H140837   7.178   3.256   0.368 -1.2738  0.8964  1.6754
13632TIP3    H240838   7.328   3.234   0.368 -1.2814  0.5730 -2.1557
13633TIP3   OH240839   6.925   5.127   0.837  0.0975  0.3913 -0.4519
13633TIP3    H140840   6.908   5.074   0.915  0.8308 -0.0601 -0.5892
13633TIP3    H240841   6.909   5.217   0.865  2.3891  0.4330  0.8202
13634TIP3   OH240842   6.642   5.310   0.841 -0.5699 -0.2776  0.2662
13634TIP3    H140843   6.623   5.221   0.810  0.3457 -0.1501 -0.7045
13634TIP3    H240844   6.676   5.297   0.929 -1.3017 -0.8197  0.4743
13635TIP3   OH240845   5.772   3.982   2.702 -0.3098  0.5937 -0.1637
13635TIP3    H140846   5.836   4.047   2.730 -0.5472  1.0679 -0.6967
13635TIP3    H240847   5.701   4.034   2.664  0.0602 -0.0204 -1.7472
13636TIP3   OH240848   7.309   7.357   1.420 -0.7498  0.5296  0.1708
13636TIP3    H140849   7.373   7.417   1.382 -0.7530  0.5069  0.1293
13636TIP3    H240850   7.256   7.413   1.478 -2.1031  0.9925 -1.4679
13637TIP3   OH240851   0.535   4.755   2.829  0.2961 -0.2565  0.3140
13637TIP3    H140852   0.456   4.750   2.775  0.8722 -2.1352 -0.4259
13637TIP3    H240853   0.518   4.695   2.902  0.2050  0.9442  1.2770
13638TIP3   OH240854   0.719   0.246   0.476 -0.8560  0.3107  0.0318
13638TIP3    H140855   0.682   0.299   0.547 -2.9521 -0.8537 -0.1184
13638TIP3    H240856   0.751   0.167   0.520 -0.1124  0.5696 -0.0484
13639TIP3   OH240857   1.568   0.600   1.427  0.0888 -0.1471 -0.1232
13639TIP3    H140858   1.523   0.682   1.449  0.8143 -0.1304  1.3907
13639TIP3    H240859   1.512   0.532   1.466  0.9988 -0.1660  1.1910
13640TIP3   OH240860   8.479   5.443   2.131 -0.5746 -0.2145  0.0989
13640TIP3    H140861   8.462   5.481   2.217  1.7242 -1.4740  1.1501
13640TIP3    H240862   8.523   5.513   2.082 -0.0545 -0.1652  0.6331
13641TIP3   OH240863   7.983   5.674   0.806  0.0927 -1.0643 -0.3716
13641TIP3    H140864   7.908   5.732   0.788  1.0557  0.3294 -0.0108
13641TIP3    H240865   8.030   5.670   0.723 -0.3239 -1.8492 -0.5681
13642TIP3   OH240866   8.299   6.985   0.059  0.1388  0.4127  0.0730
13642TIP3    H140867   8.207   6.985   0.033  0.2733  1.2101 -0.4312
13642TIP3    H240868   8.300   6.945   0.145 -0.6754  0.3314  0.0473
13643TIP3   OH240869   7.905   7.369   1.509  0.3701  0.3619 -0.0747
13643TIP3    H140870   7.912   7.395   1.417  0.8689  1.0672  0.1532
13643TIP3    H240871   7.962   7.431   1.555  2.4078 -1.7939  0.3836
13644TIP3   OH240872   8.089   7.199   0.641  0.0447  0.4656 -0.4538
13644TIP3    H140873   8.061   7.283   0.677  0.6996  0.5634 -0.1565
13644TIP3    H240874   8.012   7.164   0.596  0.0014  1.6022 -1.2770
13645TIP3   OH240875   0.230   6.218   2.603 -0.2792  0.0155 -0.2054
13645TIP3    H140876   0.266   6.230   2.515 -1.0654 -0.2096 -0.5619
13645TIP3    H240877   0.201   6.305   2.629 -0.4390  0.0026 -0.3411
13646TIP3   OH240878   1.871   3.573   3.232 -0.6613  0.0713  0.1854
13646TIP3    H140879   1.924   3.640   3.275  1.1045  0.2134 -2.1156
13646TIP3    H240880   1.898   3.491   3.274 -1.5480  0.5684  1.7784
13647TIP3   OH240881   0.741   6.063   1.610  0.0643 -0.1483 -0.2895
13647TIP3    H140882   0.820   6.026   1.571  1.6375  0.4448  2.2300
13647TIP3    H240883   0.770   6.100   1.693 -2.9630 -0.2909  0.8975
13648TIP3   OH240884   7.614   3.824   1.976  0.6763 -0.1198  0.3073
13648TIP3    H140885   7.597   3.745   2.027 -0.4135  0.9504  1.6405
13648TIP3    H240886   7.686   3.867   2.022  0.2981  0.3891  0.4271
13649TIP3   OH240887   8.378   5.547   1.548 -0.4099  0.2972  0.0618
13649TIP3    H140888   8.429   5.598   1.486  0.2382  0.7500  0.9572
13649TIP3    H240889   8.435   5.473   1.572 -0.8218 -0.1101 -0.2098
13650TIP3   OH240890   8.396   5.133   2.052  0.1662  0.8086  0.0812
13650TIP3    H140891   8.412   5.207   2.111 -0.3720  0.5204  0.5961
13650TIP3    H240892   8.301   5.121   2.055  0.3566 -0.5626  0.8051
13651TIP3   OH240893   2.601   0.663   0.244 -0.0508 -0.2921  0.4265
13651TIP3    H140894   2.671   0.618   0.293 -0.3464 -0.8580  0.3299
13651TIP3    H240895   2.643   0.741   0.209  0.7767 -1.0912 -0.3991
13652TIP3   OH240896   8.125   4.852   1.510 -0.0107  0.1365 -0.1526
13652TIP3    H140897   8.190   4.911   1.473 -0.4024  1.4212  1.1521
13652TIP3    H240898   8.175   4.795   1.569  0.3009 -0.5869 -1.0914
13653TIP3   OH240899   7.203   0.508   5.942 -0.3909 -0.4103  0.3981
13653TIP3    H140900   7.175   0.464   6.022 -2.9216 -0.7003 -0.5833
13653TIP3    H240901   7.128   0.562   5.917 -0.5373 -2.0810 -3.0030
13654TIP3   OH240902   0.368   4.115   1.417 -0.3130  0.2369  0.2244
13654TIP3    H140903   0.415   4.198   1.426 -0.0872  0.2858 -1.3498
13654TIP3    H240904   0.433   4.048   1.438 -0.0415  0.3862 -0.1437
13655TIP3   OH240905   0.891   5.086   0.730  0.0184 -0.4148 -1.1288
13655TIP3    H140906   0.903   4.996   0.760  0.3881 -0.0882 -0.2813
13655TIP3    H240907   0.849   5.078   0.644  0.2581 -1.3978 -1.1533
13656TIP3   OH240908   7.639   5.212   0.805 -0.0029  0.0531 -0.4258
13656TIP3    H140909   7.556   5.164   0.806  0.0626 -0.1195  2.3874
13656TIP3    H240910   7.698   5.157   0.753 -1.1426 -0.7579 -0.8769
13657TIP3   OH240911   2.043   4.774   1.554  0.6659 -0.0469  0.7749
13657TIP3    H140912   2.029   4.854   1.504  3.9789 -0.1956 -0.5096
13657TIP3    H240913   2.016   4.796   1.643 -0.4544  1.8381 -0.0035
13658TIP3   OH240914   1.640   5.931   1.137 -0.0073  0.0313  0.3395
13658TIP3    H140915   1.609   5.841   1.138 -1.1802  0.4218 -0.0193
13658TIP3    H240916   1.729   5.927   1.172 -0.0315 -1.2691  0.2541
13659TIP3   OH240917   1.906   3.646   0.493  0.2061 -0.7701 -0.0891
13659TIP3    H140918   1.943   3.589   0.426 -1.4276  1.4688 -2.9716
13659TIP3    H240919   1.811   3.630   0.489 -0.1991  1.5122 -0.4066
13660TIP3   OH240920   1.016   5.610   2.369 -0.0771 -0.2821 -0.0646
13660TIP3    H140921   0.931   5.584   2.334  0.1318  0.9591 -1.5674
13660TIP3    H240922   1.076   5.542   2.339 -0.4107 -0.7629  0.3591
13661TIP3   OH240923   8.153   5.476   0.911 -1.1440 -0.1729  0.0267
13661TIP3    H140924   8.098   5.548   0.878 -0.7949  0.4589  0.7916
13661TIP3    H240925   8.190   5.436   0.833 -3.2305 -1.0471 -0.5614
13662TIP3   OH240926   0.804   5.182   1.879 -0.0712  0.2859  0.1309
13662TIP3    H140927   0.798   5.242   1.804  1.1024 -0.7208 -0.7842
13662TIP3    H240928   0.883   5.209   1.925  1.6370 -1.8302 -1.4498
13663TIP3   OH240929   8.060   2.780   1.260 -0.1305 -0.3417  0.2608
13663TIP3    H140930   7.966   2.765   1.250 -0.2534 -1.2274  2.4365
13663TIP3    H240931   8.101   2.715   1.202 -0.8448 -0.6523  0.0992
13664TIP3   OH240932   0.264   5.262   0.465 -0.0389  0.4361 -0.0354
13664TIP3    H140933   0.189   5.312   0.497  0.1379 -0.2161  1.4449
13664TIP3    H240934   0.292   5.210   0.540  0.3116 -1.2443 -1.2865
13665TIP3   OH240935   0.673   3.100   1.421 -0.1626 -0.1113  0.1118
13665TIP3    H140936   0.723   3.037   1.370 -0.4698  0.5589 -1.0463
13665TIP3    H240937   0.653   3.170   1.358 -1.5213  0.1801  0.8637
13666TIP3   OH240938   8.541   4.709   0.323 -0.0847 -0.0574 -0.0782
13666TIP3    H140939   8.561   4.691   0.415 -1.6096 -1.5849 -0.0094
13666TIP3    H240940   8.454   4.749   0.325  1.1585  2.7196 -0.6508
13667TIP3   OH240941   1.597   5.401   0.724  0.5318 -0.3009  0.1986
13667TIP3    H140942   1.588   5.489   0.687  3.7109  0.4044  1.0043
13667TIP3    H240943   1.511   5.383   0.763 -0.4768  2.0135 -0.8233
13668TIP3   OH240944   0.161   6.972   0.895  0.5732  0.0711  0.4662
13668TIP3    H140945   0.070   6.993   0.915  0.4440 -0.5679  0.5558
13668TIP3    H240946   0.184   7.031   0.823 -0.0755 -0.1192  0.0957
13669TIP3   OH240947   8.535   4.673   1.488 -0.0127 -0.3834 -0.6850
13669TIP3    H140948   8.562   4.669   1.396 -1.9393 -0.4152 -1.2726
13669TIP3    H240949   8.452   4.721   1.486  1.3418  2.1565  1.3704
13670TIP3   OH240950   1.605   4.639   0.275  0.0314  0.2924 -0.1868
13670TIP3    H140951   1.595   4.733   0.265 -1.2444 -0.0780 -2.7274
13670TIP3    H240952   1.519   4.609   0.306  0.4543 -0.0434  0.6823
13671TIP3   OH240953   0.025   5.056   2.184  0.1719 -0.2512  0.5308
13671TIP3    H140954   0.055   5.141   2.151  0.6881  0.0136  1.6766
13671TIP3    H240955  -0.027   5.020   2.112  0.1235  0.9399 -0.0455
13672TIP3   OH240956   6.276   0.718   6.638 -0.8565 -0.3343 -0.4489
13672TIP3    H140957   6.365   0.752   6.640 -0.6880 -0.8276  1.4797
13672TIP3    H240958   6.224   0.782   6.685 -1.4252 -0.3144 -1.0997
13673TIP3   OH240959   0.309   7.013   2.685  0.8542  0.0848 -0.4434
13673TIP3    H140960   0.334   7.046   2.771 -1.2854 -0.5469  0.4655
13673TIP3    H240961   0.314   6.917   2.693 -0.0626 -0.0010 -0.7899
13674TIP3   OH240962   0.716   6.407   1.059  0.1252  0.6516 -0.0526
13674TIP3    H140963   0.708   6.341   1.128  0.0786  0.8383  0.1200
13674TIP3    H240964   0.629   6.411   1.020  0.0559  0.8091  0.1179
13675TIP3   OH240965   3.640   3.962   0.641  0.5813  0.0548 -0.1082
13675TIP3    H140966   3.598   4.046   0.621 -1.4092 -0.0565  3.2207
13675TIP3    H240967   3.637   3.914   0.558 -0.4284  2.3693 -1.4710
13676TIP3   OH240968   7.709   4.437   1.166 -0.1885  0.2443  0.2647
13676TIP3    H140969   7.722   4.438   1.261  2.4785 -3.2445  0.0720
13676TIP3    H240970   7.778   4.494   1.132 -1.0887  1.4240  0.3775
13677TIP3   OH240971   4.685   1.174   6.738 -0.3107  0.0825 -0.2262
13677TIP3    H140972   4.705   1.153   6.647 -1.6169 -1.2035 -0.2191
13677TIP3    H240973   4.709   1.267   6.746  2.8176 -0.5913 -1.0088
13678TIP3   OH240974   1.207   4.870   2.758  0.5698 -0.3548  0.3161
13678TIP3    H140975   1.147   4.913   2.698  0.5509 -0.3775  0.3184
13678TIP3    H240976   1.177   4.779   2.761  0.6821 -0.3962  0.2167
13679TIP3   OH240977   8.290   5.823   1.081 -0.4881 -0.1611 -0.1503
13679TIP3    H140978   8.288   5.820   0.986 -1.2875 -2.1778 -0.0817
13679TIP3    H240979   8.383   5.829   1.103 -0.3433  1.3550 -1.0475
13680TIP3   OH240980   2.186   1.439   1.682 -0.0065  0.0487  0.3983
13680TIP3    H140981   2.141   1.463   1.601 -1.2880 -1.0446  0.7714
13680TIP3    H240982   2.155   1.502   1.747  0.9604  0.8758  0.0775
13681TIP3   OH240983   0.243   3.356   2.215 -0.5578  0.2300  0.1149
13681TIP3    H140984   0.156   3.351   2.176 -0.4357 -1.7576  0.0316
13681TIP3    H240985   0.276   3.442   2.190 -1.1051 -0.3813 -2.8239
13682TIP3   OH240986   5.551   0.849   6.718  0.0719 -0.1653  0.3024
13682TIP3    H140987   5.574   0.937   6.749 -1.9349 -0.1497  1.8137
13682TIP3    H240988   5.600   0.839   6.636  1.8033  1.6186  1.0846
13683TIP3   OH240989   2.344   3.368   2.420  0.0298 -0.9143  0.1842
13683TIP3    H140990   2.345   3.293   2.361  0.1388 -1.0006  0.2934
13683TIP3    H240991   2.323   3.331   2.506  0.6584 -0.9016  0.3484
13684TIP3   OH240992   8.625   4.960   1.263 -0.2001 -0.5338 -0.1629
13684TIP3    H140993   8.576   5.025   1.314 -0.0870  1.2515 -2.2829
13684TIP3    H240994   8.568   4.884   1.260 -1.5491  0.4644 -0.0371
13685TIP3   OH240995   0.283   5.658   2.134  0.0996 -0.5190  0.3420
13685TIP3    H140996   0.306   5.702   2.052  1.6118 -0.4317  0.7986
13685TIP3    H240997   0.187   5.665   2.139  0.3518  3.9485  1.0787
13686TIP3   OH240998   8.171   6.978   0.356 -0.5247  0.3796 -0.1390
13686TIP3    H140999   8.216   7.056   0.388  0.1802 -0.4580  0.9299
13686TIP3    H241000   8.079   7.003   0.351 -0.4312  0.9888  1.1062
13687TIP3   OH241001   6.601   2.474   6.194  0.2022  0.6316 -0.0973
13687TIP3    H141002   6.539   2.413   6.231 -0.9968  0.1235 -2.8328
13687TIP3    H241003   6.548   2.535   6.143  1.7255  1.6239 -0.5425
13688TIP3   OH241004   6.851   1.434   6.496  0.0707  0.0300 -0.1748
13688TIP3    H141005   6.920   1.381   6.456 -0.6600 -0.2159 -1.1320
13688TIP3    H241006   6.896   1.484   6.564  1.2358  0.0592 -0.9444
13689TIP3   OH241007   1.975   5.035   1.484 -0.2928 -0.3011 -0.7248
13689TIP3    H141008   1.959   5.090   1.560 -2.6064 -0.4777 -1.0442
13689TIP3    H241009   2.029   5.089   1.426  1.0030  0.0432  0.7646
13690TIP3   OH241010   7.884   7.120   0.432 -0.5161 -1.1899  0.5941
13690TIP3    H141011   7.878   7.055   0.362 -1.3701  0.1214 -0.5653
13690TIP3    H241012   7.796   7.156   0.439  0.6658  2.0717 -0.9199
13691TIP3   OH241013   1.251   3.705   3.412 -0.0317 -0.4665 -0.0097
13691TIP3    H141014   1.346   3.711   3.410 -0.0933  0.2856 -0.8271
13691TIP3    H241015   1.230   3.640   3.344 -0.1971  0.7255 -1.1235
13692TIP3   OH241016   7.343   0.049   6.849 -0.4638  0.3937 -0.2348
13692TIP3    H141017   7.345   0.077   6.941 -1.8996 -0.3587  0.0449
13692TIP3    H241018   7.262   0.087   6.814  0.6403  1.6173 -1.5141
13693TIP3   OH241019   7.719   5.048   1.051  0.1620 -0.2442 -0.1357
13693TIP3    H141020   7.625   5.033   1.041  0.1949 -1.0544  0.7664
13693TIP3    H241021   7.737   5.124   0.995 -0.7113 -1.1232 -1.6544
13694TIP3   OH241022   5.863   0.828   6.139  0.1558 -0.1569  0.1855
13694TIP3    H141023   5.898   0.779   6.214 -0.0859  0.1446  0.4934
13694TIP3    H241024   5.799   0.768   6.099  0.7078 -0.5429 -0.1279
13695TIP3   OH241025   6.863   5.646   0.667  0.2386 -0.5154  0.2868
13695TIP3    H141026   6.828   5.734   0.675 -0.4258 -0.7786  0.3259
13695TIP3    H241027   6.945   5.647   0.716 -1.2141 -0.7266  2.7625
13696TIP3   OH241028   0.436   4.611   1.347  0.0074 -0.3877  0.4840
13696TIP3    H141029   0.521   4.625   1.306 -0.4808  1.8594  0.1786
13696TIP3    H241030   0.382   4.571   1.278  0.4854 -0.8356  0.3616
13697TIP3   OH241031   0.881   5.375   1.227 -0.0597  0.3772 -0.3146
13697TIP3    H141032   0.937   5.380   1.305  0.4573  0.7088 -0.7013
13697TIP3    H241033   0.856   5.283   1.222  0.9610  0.1043 -0.4895
13698TIP3   OH241034   1.910   2.150   1.778 -0.2457  1.2300  0.4315
13698TIP3    H141035   1.869   2.115   1.700 -0.1560  0.5086  0.7028
13698TIP3    H241036   2.000   2.171   1.751  0.5137 -1.1966  0.8996
13699TIP3   OH241037   0.814   4.688   0.464  0.0295  0.4399 -0.0957
13699TIP3    H141038   0.872   4.644   0.525 -0.1879 -0.7816 -0.7537
13699TIP3    H241039   0.853   4.775   0.452  0.2733  0.5644  1.4685
13700TIP3   OH241040   2.251   0.686   0.428 -0.3492 -0.1709 -0.1312
13700TIP3    H141041   2.162   0.657   0.450  0.0730 -1.4522 -0.0809
13700TIP3    H241042   2.289   0.711   0.512 -0.6491  0.3658 -0.1503
13701TIP3   OH241043   8.164   6.759   1.546 -0.1624 -0.2274 -0.2035
13701TIP3    H141044   8.098   6.820   1.512 -0.1088 -0.1755 -0.2160
13701TIP3    H241045   8.120   6.712   1.617 -0.6400 -1.1373 -1.0802
13702TIP3   OH241046   0.490   4.030   0.818 -0.7802  0.2257 -0.9389
13702TIP3    H141047   0.473   3.989   0.733  1.6838 -2.8519 -0.0535
13702TIP3    H241048   0.583   4.054   0.814 -0.7373  0.3788  0.7682
13703TIP3   OH241049   1.891   6.506   1.099 -0.5403  0.1070  0.2179
13703TIP3    H141050   1.938   6.430   1.063  0.4084  0.6153  0.3513
13703TIP3    H241051   1.802   6.475   1.112 -0.2519 -0.8819 -0.0754
13704TIP3   OH241052   7.609   5.282   2.688  0.0031 -0.2728 -0.2537
13704TIP3    H141053   7.605   5.232   2.770  1.2305  0.6378  0.3686
13704TIP3    H241054   7.519   5.312   2.675 -0.4086 -1.2645  0.2344
13705TIP3   OH241055   8.319   6.183   1.685 -0.3383 -0.1147 -0.6996
13705TIP3    H141056   8.374   6.244   1.635 -0.5299  0.3767 -0.3129
13705TIP3    H241057   8.232   6.193   1.648  0.0620 -1.8351 -2.1848
13706TIP3   OH241058   6.410   4.865   0.518 -0.0903 -0.6808  0.3287
13706TIP3    H141059   6.331   4.810   0.513 -0.8401  0.4764 -0.8186
13706TIP3    H241060   6.384   4.940   0.572  0.1941 -0.2473 -0.1357
13707TIP3   OH241061   6.528   0.039   6.661  0.1700  0.3406 -0.1289
13707TIP3    H141062   6.452  -0.017   6.676 -0.4853  0.9415 -1.1103
13707TIP3    H241063   6.491   0.121   6.628  1.2878  0.2735 -1.6336
13708TIP3   OH241064   5.315   5.558   1.590  0.2208  0.1193 -0.1602
13708TIP3    H141065   5.390   5.571   1.647  1.0897 -0.3223 -1.1865
13708TIP3    H241066   5.292   5.466   1.601  0.4952 -0.0097 -0.6411
13709TIP3   OH241067   1.698   0.349   0.510  0.3419  0.5039 -0.2727
13709TIP3    H141068   1.735   0.395   0.586  0.3432  1.2998 -0.7453
13709TIP3    H241069   1.607   0.332   0.535  0.7048 -0.4234  0.4327
13710TIP3   OH241070   0.716   6.562   0.480 -0.0435  0.0935 -0.0050
13710TIP3    H141071   0.812   6.556   0.471 -0.2032 -0.6835 -1.2807
13710TIP3    H241072   0.701   6.650   0.515  1.0632  0.7827 -1.2108
13711TIP3   OH241073   7.250   2.493   6.568  0.6616  0.3958 -0.2040
13711TIP3    H141074   7.238   2.551   6.493  1.3290  1.5792  0.5927
13711TIP3    H241075   7.191   2.420   6.551 -0.6427  1.5885 -0.9115
13712TIP3   OH241076   2.420   5.967   2.349 -0.0709  0.1078  0.0828
13712TIP3    H141077   2.350   5.939   2.289 -0.3924 -0.2705  0.6322
13712TIP3    H241078   2.440   5.889   2.400  0.1973  0.4350  0.4754
13713TIP3   OH241079   8.307   2.163   6.448  0.2386  0.3834  0.2324
13713TIP3    H141080   8.234   2.156   6.508 -0.1803  0.5484 -0.2562
13713TIP3    H241081   8.267   2.174   6.361  0.8334  0.5462 -0.0286
13714TIP3   OH241082   2.153   5.267   2.594 -0.1290  0.2968 -0.1952
13714TIP3    H141083   2.114   5.320   2.525 -0.5606  0.0048 -0.1789
13714TIP3    H241084   2.243   5.251   2.565 -0.1868  0.5196 -0.4916
13715TIP3   OH241085   3.698   3.857   1.513 -0.0515  0.0327  0.8416
13715TIP3    H141086   3.736   3.789   1.458 -3.4222 -0.8564 -0.5050
13715TIP3    H241087   3.691   3.933   1.456 -0.1371  0.2389  1.1264
13716TIP3   OH241088   1.534   4.799   1.099 -0.3681 -0.3297  0.0953
13716TIP3    H141089   1.504   4.719   1.055  2.4712 -1.2826 -0.2061
13716TIP3    H241090   1.509   4.786   1.190 -0.0358 -1.5164  0.0309
13717TIP3   OH241091   0.643   4.552   1.634  0.2030  0.1029  0.6457
13717TIP3    H141092   0.671   4.630   1.682 -3.1973  0.9246  1.4130
13717TIP3    H241093   0.588   4.585   1.563 -0.7207 -1.5159  0.5663
13718TIP3   OH241094   3.861   7.611   6.243 -0.5500 -0.0597 -1.1465
13718TIP3    H141095   3.850   7.644   6.154 -0.4204  2.0571 -0.3979
13718TIP3    H241096   3.915   7.677   6.286  1.0866 -2.0681 -0.0561
13719TIP3   OH241097   1.100   4.726   0.327  0.0357 -0.6683  0.2552
13719TIP3    H141098   1.027   4.786   0.314 -0.1052 -1.0551 -0.8170
13719TIP3    H241099   1.134   4.748   0.414 -0.3205  0.6257  0.0804
13720TIP3   OH241100   6.405   0.967   6.460 -0.0829  0.6425  0.6047
13720TIP3    H141101   6.437   0.940   6.546 -0.4088  1.0648  0.8594
13720TIP3    H241102   6.459   1.043   6.437  2.2559 -1.4297 -1.0326
13721TIP3   OH241103   8.091   3.931   0.924  0.4365 -0.1021  0.1880
13721TIP3    H141104   8.170   3.910   0.974  0.3321 -1.5532 -0.2404
13721TIP3    H241105   8.125   3.955   0.837  0.5031  0.7239  0.4393
13722TIP3   OH241106   8.570   3.453   6.565 -0.5176 -0.0008 -0.2423
13722TIP3    H141107   8.655   3.495   6.583 -2.3113  2.6127  2.5881
13722TIP3    H241108   8.544   3.487   6.479  0.1167  1.2067  0.0356
13723TIP3   OH241109   8.321   6.394   1.384 -0.0323 -0.3696 -0.4448
13723TIP3    H141110   8.344   6.310   1.342  1.2915 -0.4250  0.3912
13723TIP3    H241111   8.375   6.398   1.462 -1.9979  0.0646  0.9427
13724TIP3   OH241112   3.767   3.510   2.111  0.3873 -0.0399 -0.0153
13724TIP3    H141113   3.823   3.436   2.089 -2.8835 -1.8816 -2.5705
13724TIP3    H241114   3.750   3.553   2.027  0.8488  2.6402  1.2128
13725TIP3   OH241115   2.059   4.977   0.379  0.1092  0.4995  0.2800
13725TIP3    H141116   2.010   4.896   0.390  0.7144  0.4230  2.7483
13725TIP3    H241117   2.146   4.957   0.414 -0.2431  2.6867  2.5274
13726TIP3   OH241118   1.500   2.012   5.353 -0.2560 -0.5054 -0.1921
13726TIP3    H141119   1.447   2.062   5.291 -0.8103 -0.8532 -0.0077
13726TIP3    H241120   1.489   2.057   5.437 -0.4631 -0.7131 -0.1041
13727TIP3   OH241121   3.063   6.565   2.000  0.5606  0.1227 -0.3350
13727TIP3    H141122   3.016   6.629   2.054  1.4901  0.0149  0.6059
13727TIP3    H241123   3.023   6.481   2.023  1.4355 -0.0125  0.7224
13728TIP3   OH241124   7.707   4.046   1.011 -0.0034  0.2058 -0.2885
13728TIP3    H141125   7.721   4.038   0.916  0.0470  0.3196 -0.2915
13728TIP3    H241126   7.790   4.019   1.050 -0.7181 -1.9054 -0.1908
13729TIP3   OH241127   2.944   6.688   0.448 -0.2135 -0.1119 -0.0657
13729TIP3    H141128   2.970   6.723   0.533 -0.4192  0.6242 -0.3016
13729TIP3    H241129   2.853   6.662   0.459 -0.2178 -0.0848 -0.0359
13730TIP3   OH241130   2.604   6.237   0.667  0.4516  0.3224 -0.2760
13730TIP3    H141131   2.618   6.224   0.573  0.6107  0.1943 -0.2341
13730TIP3    H241132   2.587   6.150   0.702 -0.6875  0.5058 -0.3648
13731TIP3   OH241133   8.106   4.495   0.529 -0.3625  0.4923 -0.1827
13731TIP3    H141134   8.030   4.436   0.527  0.2037 -0.2552  0.0274
13731TIP3    H241135   8.175   4.443   0.570  0.0752  1.3939  0.2435
13732TIP3   OH241136   0.755   5.767   1.469 -0.0676 -0.0049 -0.1185
13732TIP3    H141137   0.837   5.763   1.517  0.2923  1.1568 -0.6121
13732TIP3    H241138   0.708   5.688   1.495  0.5274  0.1219  1.3920
13733TIP3   OH241139   5.425   2.682   6.330 -0.6017 -0.1169  0.7357
13733TIP3    H141140   5.504   2.628   6.338 -0.2526  0.4845  1.4929
13733TIP3    H241141   5.393   2.666   6.242  0.8756  0.3019  0.1062
13734TIP3   OH241142   6.686   0.144   6.888 -0.6621  0.1799  0.4155
13734TIP3    H141143   6.634   0.216   6.923 -0.8148  0.4481 -0.3428
13734TIP3    H241144   6.650   0.130   6.800 -1.6250 -1.7986  1.1030
13735TIP3   OH241145   1.605   5.552   0.476 -0.3331 -0.9529 -0.4198
13735TIP3    H141146   1.554   5.629   0.452  0.6958 -0.0562  0.2270
13735TIP3    H241147   1.691   5.566   0.437  0.9507 -0.0878  2.5943
13736TIP3   OH241148  -0.001   3.518   0.433  0.2952 -0.2870  0.8426
13736TIP3    H141149  -0.059   3.449   0.403 -1.4062  1.0737  0.9312
13736TIP3    H241150   0.065   3.526   0.364  0.1573 -1.5602  0.5544
13737TIP3   OH241151   1.349   5.557   1.184  0.3252 -0.3369 -0.4698
13737TIP3    H141152   1.355   5.619   1.257  1.9576 -0.1065 -0.7933
13737TIP3    H241153   1.350   5.471   1.227  1.0383 -0.1972 -0.1952
13738TIP3   OH241154   5.576   7.068   3.079  0.0260 -0.0955  0.5721
13738TIP3    H141155   5.534   7.049   2.995  1.2201  0.1450 -0.0928
13738TIP3    H241156   5.506   7.106   3.132 -0.3672  1.2506 -0.8671
13739TIP3   OH241157   5.106   7.945   1.496  0.1580 -0.1723  0.1497
13739TIP3    H141158   5.085   7.873   1.436 -1.0509  0.0425  0.2976
13739TIP3    H241159   5.049   8.016   1.467 -0.1926  0.0355  1.3577
13740TIP3   OH241160   6.417   6.152   1.832  0.1973 -0.6493 -0.5127
13740TIP3    H141161   6.467   6.161   1.750  1.5168  0.4178  0.3780
13740TIP3    H241162   6.343   6.211   1.822  0.6607 -0.0978 -0.7285
13741TIP3   OH241163   4.759   6.105   1.627 -0.5475  0.4732  0.1513
13741TIP3    H141164   4.725   6.151   1.704 -1.3826 -0.2230  0.2126
13741TIP3    H241165   4.823   6.165   1.590 -1.6190  1.7003  0.2262
13742TIP3   OH241166   1.120   1.136   3.168 -0.1924  0.0992 -0.3214
13742TIP3    H141167   1.052   1.068   3.167  0.3417 -0.4431  0.3224
13742TIP3    H241168   1.116   1.172   3.256  0.0289  0.3958 -0.4340
13743TIP3   OH241169   3.103   4.855   6.978 -0.0804  0.2184  0.9563
13743TIP3    H141170   3.197   4.851   6.958 -0.3782  2.7423 -1.1969
13743TIP3    H241171   3.060   4.835   6.895 -1.4174  2.4165  1.0832
13744TIP3   OH241172   1.978   0.348   1.734  0.5014 -0.1523  1.0995
13744TIP3    H141173   1.955   0.346   1.827 -1.5327  0.5653  0.6471
13744TIP3    H241174   1.929   0.275   1.696  1.4690 -0.5598  0.6119
13745TIP3   OH241175   4.748   7.266   2.782 -0.2259  0.4953 -0.5046
13745TIP3    H141176   4.656   7.257   2.809 -0.4795  0.9138 -1.1970
13745TIP3    H241177   4.754   7.215   2.702  0.2701  0.0668 -0.1898
13746TIP3   OH241178   6.048   4.577   6.611  1.0621 -0.6931  0.0558
13746TIP3    H141179   5.960   4.592   6.576  0.4721 -1.3295  1.2463
13746TIP3    H241180   6.037   4.581   6.706  2.4253 -0.1939  0.2007
13747TIP3   OH241181   3.687   3.552   6.801 -0.2218 -0.5745 -0.4863
13747TIP3    H141182   3.686   3.609   6.878  0.0378 -2.6299  1.1101
13747TIP3    H241183   3.610   3.496   6.812  0.7064 -1.9608 -0.8668
13748TIP3   OH241184   2.225   1.378   0.803  0.4409 -0.1202 -0.1688
13748TIP3    H141185   2.165   1.434   0.851  0.5401  1.7895 -2.2121
13748TIP3    H241186   2.173   1.343   0.731  1.1414 -0.3404 -0.5783
13749TIP3   OH241187   7.299   0.507   3.014  0.2581  0.3353  0.6342
13749TIP3    H141188   7.384   0.473   3.043 -1.3771 -1.8975  3.0454
13749TIP3    H241189   7.242   0.498   3.090 -1.6375  3.8474 -0.2524
13750TIP3   OH241190   6.918   7.460   0.362  0.6762 -0.4762 -0.7032
13750TIP3    H141191   6.861   7.413   0.302 -1.5933  1.4051 -0.1196
13750TIP3    H241192   7.002   7.465   0.317  0.0892 -2.3689 -2.0623
13751TIP3   OH241193   4.772   6.673   0.358  0.1095 -0.7170  0.0034
13751TIP3    H141194   4.853   6.627   0.378 -0.2028 -1.8011 -1.1197
13751TIP3    H241195   4.717   6.659   0.435  1.1038  0.3293  0.9201
13752TIP3   OH241196   3.918   2.347   6.791 -0.0340  0.5607  0.3589
13752TIP3    H141197   3.838   2.397   6.775 -0.5048  1.5340  5.2046
13752TIP3    H241198   3.916   2.325   6.884  3.8917 -2.0062 -0.0035
13753TIP3   OH241199   1.477   1.116   2.867  0.0491 -0.1219 -0.3394
13753TIP3    H141200   1.518   1.103   2.952  0.9299 -1.1078 -0.9037
13753TIP3    H241201   1.402   1.173   2.885 -0.4488 -1.2429  1.2708
13754TIP3   OH241202   7.978   4.666   0.171  0.0192  0.4760  0.7224
13754TIP3    H141203   8.014   4.749   0.202  1.6695 -0.9501  2.7015
13754TIP3    H241204   8.031   4.644   0.094  0.1978  0.7712  0.7611
13755TIP3   OH241205   5.048   5.101   5.843  0.3633 -0.6362 -0.6084
13755TIP3    H141206   5.028   5.118   5.935  1.1312  0.7505 -0.6866
13755TIP3    H241207   4.986   5.032   5.818 -0.1492 -0.7228  0.8175
13756TIP3   OH241208   1.553   1.904   2.370 -0.1565  0.0456  0.3047
13756TIP3    H141209   1.581   1.994   2.352  0.6082 -0.2946 -0.2358
13756TIP3    H241210   1.633   1.859   2.395 -0.5207 -0.5102  0.4695
13757TIP3   OH241211   5.980   7.508   2.634  0.9169  0.6947 -0.0863
13757TIP3    H141212   5.983   7.591   2.588  0.9442  0.9948  0.4469
13757TIP3    H241213   5.967   7.532   2.726 -0.6627  0.0643 -0.1228
13758TIP3   OH241214   3.371   0.141   1.973  0.8098 -0.6692 -0.0444
13758TIP3    H141215   3.358   0.062   2.026 -0.0595 -0.7449 -0.3633
13758TIP3    H241216   3.283   0.167   1.948  1.0859  0.4923  0.1750
13759TIP3   OH241217   1.064   0.818   2.732  0.3480 -0.3790 -0.2899
13759TIP3    H141218   1.003   0.865   2.788  0.2553  0.1939 -0.8549
13759TIP3    H241219   1.023   0.733   2.716 -0.6462  0.2612 -1.2344
13760TIP3   OH241220   8.151   4.123   1.165  0.1856 -0.3946 -0.0969
13760TIP3    H141221   8.204   4.177   1.224 -0.5187 -0.5382  0.6752
13760TIP3    H241222   8.198   4.040   1.160 -0.2783 -0.7402  1.0822
13761TIP3   OH241223   1.642   1.249   0.067 -0.2218 -0.2144  0.0105
13761TIP3    H141224   1.570   1.237   0.005  0.5663  2.2562 -1.4526
13761TIP3    H241225   1.620   1.329   0.114  1.5530  0.5922 -0.4796
13762TIP3   OH241226   7.119   7.195   2.120  0.4575 -0.2450  0.2422
13762TIP3    H141227   7.174   7.154   2.054  1.6641  0.8402  0.5511
13762TIP3    H241228   7.103   7.283   2.087 -0.1739 -0.1801  0.6976
13763TIP3   OH241229   4.359   6.070   2.387  0.1728 -0.6853  0.7030
13763TIP3    H141230   4.387   6.158   2.411 -1.3741  0.3665 -1.1906
13763TIP3    H241231   4.335   6.029   2.470 -0.2239  1.0911  1.4993
13764TIP3   OH241232   5.816   6.715   1.882  0.8846 -0.4006 -0.5788
13764TIP3    H141233   5.808   6.620   1.867  2.6489 -0.5133 -0.9577
13764TIP3    H241234   5.874   6.745   1.812 -1.8016  1.4442 -2.0837
13765TIP3   OH241235   5.936   1.331   6.529 -0.3351 -0.2294 -0.4708
13765TIP3    H141236   5.852   1.377   6.525  0.0172  0.3290 -1.5736
13765TIP3    H241237   5.977   1.363   6.609 -0.3869  0.8726 -0.8736
13766TIP3   OH241238   8.232   7.285   1.825 -0.4443  0.6401  0.6669
13766TIP3    H141239   8.302   7.221   1.828  0.0265  1.1831  1.3889
13766TIP3    H241240   8.152   7.233   1.828 -0.1781 -0.1893 -3.0614
13767TIP3   OH241241   8.102   5.692   2.266 -0.8895  0.7842  0.6390
13767TIP3    H141242   8.088   5.664   2.175  0.6246 -0.4595  0.7826
13767TIP3    H241243   8.134   5.782   2.258 -0.6919  0.6576 -0.0532
13768TIP3   OH241244   7.360   6.740   0.958  0.3792  0.0050 -0.1497
13768TIP3    H141245   7.359   6.835   0.965 -0.7663 -0.0862  1.0789
13768TIP3    H241246   7.386   6.710   1.045 -2.0525 -0.8565  0.3342
13769TIP3   OH241247   7.524   2.352   2.115 -0.0568 -0.0889  0.0944
13769TIP3    H141248   7.448   2.397   2.153  1.6114  2.5270  0.5267
13769TIP3    H241249   7.563   2.418   2.057  2.7294 -0.8431  1.0608
13770TIP3   OH241250   6.192   5.548   0.884  0.1296  0.1108  0.3216
13770TIP3    H141251   6.276   5.505   0.897 -0.3055 -0.3579  1.5876
13770TIP3    H241252   6.127   5.478   0.891 -0.4382  0.6349  0.3503
13771TIP3   OH241253   5.288   7.431   0.990 -0.1677  0.0546 -0.2299
13771TIP3    H141254   5.294   7.442   0.895  1.2797  0.1372 -0.1311
13771TIP3    H241255   5.378   7.435   1.021 -0.5718 -0.6782  1.0848
13772TIP3   OH241256   0.725   1.120   1.588  0.0888  0.5889  0.1071
13772TIP3    H141257   0.820   1.110   1.594  0.0959 -0.1094 -0.8919
13772TIP3    H241258   0.691   1.038   1.624 -0.1449  1.0064  0.8324
13773TIP3   OH241259   1.580   0.139   1.808  0.2461 -0.1103  0.4469
13773TIP3    H141260   1.557   0.050   1.783  0.8412 -0.4673  1.1532
13773TIP3    H241261   1.673   0.135   1.831  0.6614  0.9938 -0.9088
13774TIP3   OH241262   8.312   6.366   3.105 -0.2846  0.4937 -0.2933
13774TIP3    H141263   8.288   6.360   3.198 -0.6932  0.0109 -0.4265
13774TIP3    H241264   8.389   6.309   3.097 -1.2794 -0.8443 -0.5878
13775TIP3   OH241265   3.800   3.259   6.781  0.0010  0.4380  0.2895
13775TIP3    H141266   3.761   3.226   6.700 -1.6694  1.9055  0.4742
13775TIP3    H241267   3.830   3.347   6.760 -0.3766  0.8025  1.2557
13776TIP3   OH241268   2.166   5.669   6.385 -0.3151 -0.0250  0.8388
13776TIP3    H141269   2.109   5.674   6.308  0.6375  0.6665  0.1751
13776TIP3    H241270   2.237   5.730   6.367  0.1546 -0.1877  2.0763
13777TIP3   OH241271   7.904   5.626   0.347  0.2482  0.3534  0.2101
13777TIP3    H141272   7.931   5.717   0.338  2.2990 -0.4254 -2.1039
13777TIP3    H241273   7.969   5.588   0.406  1.2930 -0.3319 -1.3521
13778TIP3   OH241274   0.728   0.889   1.780  0.1420 -0.3567  0.6078
13778TIP3    H141275   0.664   0.818   1.771 -1.2000  0.8036  0.6928
13778TIP3    H241276   0.687   0.950   1.842  1.8673 -0.1616  1.5861
13779TIP3   OH241277   2.028   0.193   0.893  0.4807  0.3939  0.2701
13779TIP3    H141278   1.984   0.130   0.836 -0.2517 -0.6539  1.9796
13779TIP3    H241279   2.112   0.153   0.914 -0.3785 -0.5012  2.1459
13780TIP3   OH241280   2.998   5.610   6.828  0.5543 -0.0711  0.4531
13780TIP3    H141281   3.001   5.517   6.804  4.6751 -0.3211  1.4826
13780TIP3    H241282   2.992   5.609   6.924 -1.4451  0.8031  0.3672
13781TIP3   OH241283   0.871   7.206   1.475 -0.9288 -0.5224 -0.0213
13781TIP3    H141284   0.930   7.258   1.529  1.5398 -1.2869 -1.8991
13781TIP3    H241285   0.847   7.264   1.403 -0.9477 -0.8230 -0.2603
13782TIP3   OH241286   6.349   4.331   6.018 -0.0435 -0.4955  0.3957
13782TIP3    H141287   6.291   4.350   6.092  0.5728 -0.1014  0.7889
13782TIP3    H241288   6.437   4.336   6.056  0.1876 -4.5868  0.6418
13783TIP3   OH241289   7.976   0.302   2.484 -0.0705 -0.6522  0.5157
13783TIP3    H141290   7.961   0.397   2.479 -0.1664 -0.6866  0.1712
13783TIP3    H241291   7.926   0.275   2.562  0.9069 -0.2394  1.2997
13784TIP3   OH241292   6.598   5.681   1.406  0.1297  0.5788 -0.2914
13784TIP3    H141293   6.617   5.772   1.431 -0.1504  0.3209  0.8797
13784TIP3    H241294   6.505   5.670   1.426 -0.1199  0.3843 -1.5372
13785TIP3   OH241295   6.650   7.375   0.535  0.6423 -0.5968 -0.6086
13785TIP3    H141296   6.720   7.349   0.595 -0.5572 -1.0625  0.6189
13785TIP3    H241297   6.670   7.330   0.453  1.2040 -1.5721  0.0566
13786TIP3   OH241298   6.796   6.302   4.113 -0.4356 -0.2032  0.4335
13786TIP3    H141299   6.797   6.310   4.208 -1.1555 -0.0585  0.4307
13786TIP3    H241300   6.877   6.344   4.084 -0.9177  1.0377  0.8818
13787TIP3   OH241301   3.748   2.043   6.175 -0.2766  1.2533  0.5723
13787TIP3    H141302   3.707   2.108   6.233 -0.1059  0.6542  1.3792
13787TIP3    H241303   3.688   2.037   6.101 -2.5333 -0.7748  2.4660
13788TIP3   OH241304   7.483   7.392   0.257  0.0385  0.4239  0.5150
13788TIP3    H141305   7.540   7.374   0.331  1.0103  0.8968 -0.1125
13788TIP3    H241306   7.533   7.364   0.180 -0.8562  0.1744  0.0176
13789TIP3   OH241307   7.948   0.161   2.236 -0.2075  0.0341  0.4038
13789TIP3    H141308   7.894   0.085   2.214  0.4020 -0.2141 -0.2647
13789TIP3    H241309   7.899   0.207   2.304 -2.1566  0.8315 -1.4953
13790TIP3   OH241310   8.162   0.514   1.068 -0.0826  0.2198  0.0619
13790TIP3    H141311   8.109   0.530   1.146  0.5869 -0.9601  0.7688
13790TIP3    H241312   8.144   0.589   1.011 -0.2096  1.3308  1.5434
13791TIP3   OH241313   4.855   5.664   6.729  0.2202 -0.4710  0.2174
13791TIP3    H141314   4.782   5.619   6.687 -0.5126  1.2964 -0.4412
13791TIP3    H241315   4.870   5.614   6.810 -0.9529 -1.5250 -0.1839
13792TIP3   OH241316   1.530   0.656   1.787 -0.0433  0.4701  0.0650
13792TIP3    H141317   1.623   0.630   1.782 -0.2478 -0.1816 -0.4734
13792TIP3    H241318   1.522   0.728   1.725 -0.9705 -2.7891 -3.8404
13793TIP3   OH241319   1.858   0.575   1.444  0.3106  0.3339  0.1021
13793TIP3    H141320   1.764   0.581   1.460  0.3500 -0.1894  0.5433
13793TIP3    H241321   1.897   0.568   1.531  0.5898 -1.5387 -0.1350
13794TIP3   OH241322   0.232   0.807   1.153 -0.0972 -0.4927  0.4129
13794TIP3    H141323   0.214   0.882   1.097  0.1945  0.7499  1.9733
13794TIP3    H241324   0.150   0.757   1.154 -0.6433  0.4013  0.3031
13795TIP3   OH241325   6.909   8.121   2.594  0.6447  0.1775 -0.1111
13795TIP3    H141326   6.901   8.031   2.625 -0.9122  1.2389  2.7019
13795TIP3    H241327   6.826   8.163   2.617  1.8136  2.6808 -0.2316
13796TIP3   OH241328   2.059   1.039   1.545  0.2277 -0.0433  0.7649
13796TIP3    H141329   2.048   1.053   1.451  0.2476 -1.4669  0.5464
13796TIP3    H241330   2.126   1.102   1.571 -1.7138  2.2669  0.3679
13797TIP3   OH241331   0.290   5.986   1.858  0.2687  0.0238  0.0570
13797TIP3    H141332   0.359   6.040   1.897  0.3942 -0.3327  0.3291
13797TIP3    H241333   0.217   6.047   1.844  0.6638  0.4149 -0.3041
13798TIP3   OH241334   3.833   3.054   6.983  0.2124  0.2048 -0.0659
13798TIP3    H141335   3.803   2.967   6.957  0.6774 -0.2955  1.0383
13798TIP3    H241336   3.824   3.107   6.904 -1.9759 -0.3406 -0.2080
13799TIP3   OH241337   7.147   6.291   2.092 -0.3607 -0.6634  0.3080
13799TIP3    H141338   7.060   6.304   2.128 -0.5792 -0.8629 -0.1459
13799TIP3    H241339   7.204   6.285   2.169 -0.3038  2.3987  0.5406
13800TIP3   OH241340   7.576   7.648   0.940  0.9618 -0.0325  0.4324
13800TIP3    H141341   7.579   7.610   0.853  0.5640 -2.9752  1.6452
13800TIP3    H241342   7.489   7.624   0.974  0.9266  1.4619  1.4899
13801TIP3   OH241343   4.403   1.763   6.432  0.0098  0.4808 -0.7273
13801TIP3    H141344   4.338   1.695   6.447  1.6561 -1.6310 -2.8405
13801TIP3    H241345   4.352   1.839   6.405 -1.6870 -0.6789 -0.8362
13802TIP3   OH241346   7.249   6.772   2.070  0.1345 -0.2226  0.7452
13802TIP3    H141347   7.169   6.805   2.112  0.3783  1.4262 -0.0399
13802TIP3    H241348   7.286   6.848   2.025  2.6143 -0.7422  1.7930
13803TIP3   OH241349   8.170   8.052   0.464  0.6974 -0.0753 -0.1763
13803TIP3    H141350   8.232   8.108   0.418  0.6415 -1.0220 -1.4030
13803TIP3    H241351   8.220   7.975   0.490  0.5844  0.1806  0.8344
13804TIP3   OH241352   6.493   5.538   1.182 -0.8607  0.0293  0.6870
13804TIP3    H141353   6.575   5.570   1.220 -1.8306  3.5740 -0.0690
13804TIP3    H241354   6.447   5.497   1.255  1.2004 -1.3093  1.2837
13805TIP3   OH241355   5.787   5.741   1.722  0.6716  0.4417  0.4019
13805TIP3    H141356   5.816   5.817   1.671 -0.5249 -1.3120 -3.0750
13805TIP3    H241357   5.864   5.717   1.774  1.7069  2.7803  0.0401
13806TIP3   OH241358   3.773   5.404   6.429 -0.3470  0.5420  0.3456
13806TIP3    H141359   3.718   5.355   6.368  0.0337 -0.5712  0.8992
13806TIP3    H241360   3.716   5.419   6.505 -0.7686  1.7922 -0.1867
13807TIP3   OH241361   3.503   3.415   5.950 -0.3230  0.0788 -0.2545
13807TIP3    H141362   3.415   3.411   5.913 -0.1153  1.0458 -0.8594
13807TIP3    H241363   3.512   3.333   5.999 -1.4097 -0.2028 -0.5126
13808TIP3   OH241364   4.261   5.094   6.684 -0.0748 -0.6147 -0.1564
13808TIP3    H141365   4.313   5.018   6.659  0.1176 -0.5299 -0.0203
13808TIP3    H241366   4.256   5.148   6.605 -0.2004 -0.7603 -0.2492
13809TIP3   OH241367   5.451   6.785   1.939  0.1011  0.3853  0.4538
13809TIP3    H141368   5.461   6.866   1.888  0.0041 -0.2083 -0.5312
13809TIP3    H241369   5.376   6.741   1.899  1.5190 -1.2520 -0.4804
13810TIP3   OH241370   1.769   1.697   0.486 -0.2285  0.3485  0.3009
13810TIP3    H141371   1.768   1.778   0.435 -1.4569 -0.1403 -0.4485
13810TIP3    H241372   1.679   1.666   0.484  0.0782 -0.6281  1.2646
13811TIP3   OH241373   8.577   6.329   0.827 -0.6066 -0.9917 -0.0099
13811TIP3    H141374   8.639   6.263   0.795 -1.1025 -0.9552 -1.0574
13811TIP3    H241375   8.491   6.290   0.811 -0.8920 -0.3260 -0.1135
13812TIP3   OH241376   1.351   0.211   2.134  0.0827  0.1686 -0.0656
13812TIP3    H141377   1.434   0.201   2.180 -0.1552 -0.4218  0.2488
13812TIP3    H241378   1.356   0.296   2.092  0.1378  0.9155  1.4150
13813TIP3   OH241379   4.938   0.514   0.092  0.0704 -0.3154 -1.0432
13813TIP3    H141380   5.025   0.476   0.079  0.2207 -0.3694  0.1149
13813TIP3    H241381   4.878   0.443   0.069  0.3483 -1.3971  1.4341
13814TIP3   OH241382   3.619   0.170   1.123  0.1618  0.5772  0.0857
13814TIP3    H141383   3.679   0.198   1.192 -1.1705  1.2589  0.9791
13814TIP3    H241384   3.676   0.131   1.056  1.5859  1.1391  0.9531
13815TIP3   OH241385   4.308   3.368   6.915  0.4446  0.1353  0.2341
13815TIP3    H141386   4.358   3.308   6.970  0.3334  0.9278  1.2175
13815TIP3    H241387   4.230   3.318   6.890 -0.0833  0.1677  1.7795
13816TIP3   OH241388   7.710   5.901   1.321 -0.4832 -0.1575  0.3828
13816TIP3    H141389   7.651   5.830   1.293 -0.9005  0.5264 -0.4749
13816TIP3    H241390   7.656   5.980   1.314  0.8313  0.6077 -1.3527
13817TIP3   OH241391   7.126   7.457   0.172 -0.0432 -0.2526 -0.3587
13817TIP3    H141392   7.166   7.542   0.190 -0.1633 -0.1852 -0.4129
13817TIP3    H241393   7.118   7.454   0.076 -0.8792  0.0540 -0.2978
13818TIP3   OH241394   0.327   7.134   1.870  0.1632  0.3961 -0.0826
13818TIP3    H141395   0.249   7.141   1.815 -0.0391  1.1638  0.3011
13818TIP3    H241396   0.310   7.057   1.925  0.0491  0.0570 -0.5875
13819TIP3   OH241397   7.158   1.859   6.451  0.2240  0.0862  0.1742
13819TIP3    H141398   7.211   1.842   6.528  1.3116  0.0546 -0.5659
13819TIP3    H241399   7.069   1.836   6.477  0.8258 -1.4322  0.9266
13820TIP3   OH241400   3.319   0.210   0.777 -0.4016  0.4130  0.0167
13820TIP3    H141401   3.355   0.139   0.723 -0.5399 -0.3587  0.9212
13820TIP3    H241402   3.272   0.165   0.847  0.1154  1.4059  1.0068
13821TIP3   OH241403   8.469   7.543   0.443 -0.0283 -0.0091  0.8501
13821TIP3    H141404   8.553   7.522   0.402 -0.0820  1.0053  0.2109
13821TIP3    H241405   8.409   7.476   0.411  0.4095 -0.4089  0.8697
13822TIP3   OH241406   7.460   5.009   0.673  0.4888  0.0933 -0.0720
13822TIP3    H141407   7.462   4.919   0.704  0.5223  0.1891  0.2061
13822TIP3    H241408   7.426   5.003   0.584  0.9899 -0.2474 -0.2435
13823TIP3   OH241409   7.995   5.369   2.081  0.2754  1.0789 -0.8489
13823TIP3    H141410   7.960   5.351   2.168  1.0352 -0.3501 -0.8341
13823TIP3    H241411   7.922   5.410   2.034 -0.8907 -0.3459 -0.3031
13824TIP3   OH241412   1.152   0.235   1.224  0.1786 -0.3112 -0.0028
13824TIP3    H141413   1.116   0.323   1.228 -0.3818 -0.5338 -0.1190
13824TIP3    H241414   1.096   0.183   1.282 -0.1173 -0.7983 -0.7132
13825TIP3   OH241415   7.387   7.354   0.729 -0.2403  0.1668  0.0585
13825TIP3    H141416   7.448   7.313   0.666 -1.3928  1.4682 -1.9546
13825TIP3    H241417   7.313   7.293   0.733 -0.4876  0.4288 -0.4240
13826TIP3   OH241418   1.723   0.796   2.460  0.2911  0.4261 -0.3286
13826TIP3    H141419   1.755   0.843   2.383 -2.2060  0.1482 -1.5867
13826TIP3    H241420   1.713   0.863   2.527  2.5708  0.6573 -0.1720
13827TIP3   OH241421   2.175   7.000   1.127 -0.0553 -0.0085 -0.6964
13827TIP3    H141422   2.207   6.955   1.049  0.5792 -0.8951  0.0796
13827TIP3    H241423   2.218   7.086   1.124 -0.3150  0.0965 -1.5145
13828TIP3   OH241424   7.820   7.598   2.927 -0.2372 -0.1150  0.5067
13828TIP3    H141425   7.911   7.587   2.902 -0.7662  0.1371 -1.6730
13828TIP3    H241426   7.807   7.693   2.929 -0.9990 -0.1573 -1.4184
13829TIP3   OH241427   1.626   5.493   3.854 -0.3955  0.1933 -0.2407
13829TIP3    H141428   1.706   5.543   3.838 -0.7758  0.5016 -1.2153
13829TIP3    H241429   1.555   5.555   3.837 -0.8675 -0.5866 -1.1528
13830TIP3   OH241430   7.054   2.198   6.736 -0.6557 -0.3488 -0.4759
13830TIP3    H141431   7.114   2.181   6.664  1.1197 -0.2888  0.9506
13830TIP3    H241432   7.099   2.264   6.789 -1.5728 -0.9838  1.1112
13831TIP3   OH241433   2.826   0.420   1.187  0.3749  0.3918 -0.7504
13831TIP3    H141434   2.784   0.406   1.271  0.9940  1.4025 -0.2727
13831TIP3    H241435   2.904   0.364   1.189  1.5802  2.0983  0.2259
13832TIP3   OH241436   0.627   6.839   0.840  0.4642 -0.2024  0.2741
13832TIP3    H141437   0.547   6.811   0.885 -0.1766  0.3668 -0.4801
13832TIP3    H241438   0.614   6.809   0.750  0.2334  1.5648 -0.3034
13833TIP3   OH241439   7.431   7.161   1.579  0.3444 -0.5065  0.4949
13833TIP3    H141440   7.395   7.222   1.515 -0.7592 -0.6721  0.9469
13833TIP3    H241441   7.513   7.202   1.609 -0.7621  1.1363  1.3581
13834TIP3   OH241442   2.823   1.334   0.528  0.1276  0.2333 -0.1588
13834TIP3    H141443   2.775   1.276   0.587  0.2490 -0.1737 -0.4539
13834TIP3    H241444   2.784   1.420   0.542 -0.9966 -0.1769 -0.7281
13835TIP3   OH241445   8.355   7.943   0.004  0.1816 -0.3837  0.4564
13835TIP3    H141446   8.264   7.961  -0.019  0.3695  1.2526  0.8927
13835TIP3    H241447   8.350   7.898   0.089 -0.2400 -1.0001  0.1114
13836TIP3   OH241448   6.253   4.406   6.713 -0.8440 -0.1846 -0.3254
13836TIP3    H141449   6.313   4.474   6.741  1.0068 -1.1701 -1.7750
13836TIP3    H241450   6.186   4.452   6.662  0.8577  0.4879 -2.0223
13837TIP3   OH241451   8.093   5.454   0.505  0.0000 -0.0708 -0.3221
13837TIP3    H141452   8.158   5.408   0.558 -0.2752 -0.2460 -0.1378
13837TIP3    H241453   8.027   5.387   0.485  0.9663 -0.4783 -2.3361
13838TIP3   OH241454   7.344   7.369   1.041  0.0307 -0.1123 -0.1847
13838TIP3    H141455   7.327   7.415   0.959 -0.0415  1.8320  0.8987
13838TIP3    H241456   7.350   7.438   1.107 -0.2505 -1.6656  1.5135
13839TIP3   OH241457   0.117   7.515   0.337 -0.5917 -0.5695 -0.0467
13839TIP3    H141458   0.179   7.566   0.390 -1.3560 -0.5569  0.8354
13839TIP3    H241459   0.151   7.426   0.340 -0.6188 -0.5648  0.4447
13840TIP3   OH241460   8.057   6.309   2.017 -0.0970  0.0742 -0.1586
13840TIP3    H141461   8.095   6.394   1.993  0.2755  0.3960  1.5035
13840TIP3    H241462   7.963   6.326   2.022  0.1664  0.9680  2.3509
13841TIP3   OH241463   1.319   5.811   2.332 -0.0561  0.3302 -0.0025
13841TIP3    H141464   1.318   5.907   2.343  1.0226  0.2875  0.5692
13841TIP3    H241465   1.291   5.777   2.417  0.5986  0.1303  0.1407
13842TIP3   OH241466   0.580   6.557   0.248 -0.0440  0.8618 -0.1602
13842TIP3    H141467   0.621   6.552   0.334 -0.8616  0.5917  0.2063
13842TIP3    H241468   0.511   6.623   0.257 -0.0201  0.9580 -0.6531
13843TIP3   OH241469   5.508   3.615   6.702 -0.1838 -0.0653 -0.2585
13843TIP3    H141470   5.453   3.661   6.638 -0.1911  0.3978  0.0770
13843TIP3    H241471   5.479   3.524   6.698  0.5425 -0.2406 -1.6797
13844TIP3   OH241472   7.387   2.811   5.583  0.4099 -0.0809  0.0480
13844TIP3    H141473   7.365   2.878   5.518 -1.0721 -0.6636 -0.0620
13844TIP3    H241474   7.310   2.808   5.641  2.1711  1.2814  2.5496
13845TIP3   OH241475   1.543   5.803   0.328 -0.2366 -0.6699  0.3006
13845TIP3    H141476   1.496   5.786   0.246  1.3095 -0.4597 -0.6564
13845TIP3    H241477   1.608   5.870   0.305  0.0246 -0.4107  1.7621
13846TIP3   OH241478   6.538   2.921   5.363  0.1083  0.0060  0.4172
13846TIP3    H141479   6.511   3.005   5.325  0.7772  0.6584  1.3650
13846TIP3    H241480   6.574   2.872   5.290  0.1374  0.7273 -0.0585
13847TIP3   OH241481   8.149   6.548   0.931  0.3207 -0.3995 -0.4546
13847TIP3    H141482   8.062   6.587   0.938 -0.1451 -1.5881  0.6496
13847TIP3    H241483   8.196   6.579   1.008  1.2016  0.9554 -1.4993
13848TIP3   OH241484   8.154   6.921   1.238 -0.2723  0.0630 -0.4905
13848TIP3    H141485   8.179   6.832   1.215 -3.2595 -0.3735 -2.4154
13848TIP3    H241486   8.183   6.974   1.164  2.6984  0.9800  1.2460
13849TIP3   OH241487   7.393   1.859   4.304 -0.4420  0.4737  0.1782
13849TIP3    H141488   7.352   1.853   4.390 -1.3702  1.1521 -0.2096
13849TIP3    H241489   7.349   1.932   4.261  1.3327  1.3804 -0.1751
13850TIP3   OH241490   4.598   2.367   6.197  0.1399  0.0609 -0.0536
13850TIP3    H141491   4.631   2.431   6.261 -0.2376 -0.5931  0.8014
13850TIP3    H241492   4.514   2.403   6.168  0.2808  0.3230 -0.1402
13851TIP3   OH241493   6.905   2.590   5.823 -0.4010 -0.6879  0.2792
13851TIP3    H141494   6.933   2.590   5.914  0.1615 -1.3812  0.1113
13851TIP3    H241495   6.952   2.516   5.783  1.1767  1.0382 -1.1419
13852TIP3   OH241496   2.355   0.794   1.951  0.0134  0.0603 -0.4876
13852TIP3    H141497   2.300   0.856   1.999 -0.7080  0.3128 -1.6184
13852TIP3    H241498   2.294   0.725   1.923  0.3517  0.1296 -1.3966
13853TIP3   OH241499   3.955   0.328   2.548 -0.3759 -0.0199 -0.2616
13853TIP3    H141500   3.926   0.256   2.603 -2.7526  1.6759  0.7890
13853TIP3    H241501   4.036   0.297   2.507 -1.4216 -3.2844  0.0609
13854TIP3   OH241502   8.353   7.060   1.732  0.1516 -0.3281 -0.3079
13854TIP3    H141503   8.434   7.036   1.689  0.4707  1.5282 -0.7984
13854TIP3    H241504   8.297   7.093   1.662 -0.1949  0.4874  0.3313
13855TIP3   OH241505   0.924   7.433   0.662 -0.4727 -0.1808 -0.1446
13855TIP3    H141506   1.014   7.436   0.695  0.3353  1.3173 -2.3887
13855TIP3    H241507   0.873   7.479   0.729  0.8663  1.4018 -0.1758
13856TIP3   OH241508   5.893   7.151   0.414  0.8941 -0.1594 -0.0942
13856TIP3    H141509   5.885   7.056   0.413  1.7016 -0.2546  1.0826
13856TIP3    H241510   5.806   7.183   0.391  1.1199 -1.1676 -2.4436
13857TIP3   OH241511   7.645   6.332   0.020 -0.2394 -0.1869  0.3354
13857TIP3    H141512   7.552   6.354   0.030 -0.0468  1.0043 -0.3193
13857TIP3    H241513   7.645   6.250  -0.029 -0.9419  0.3704 -0.6159
13858TIP3   OH241514   7.176   6.958   2.829 -0.2522 -0.2166 -0.1740
13858TIP3    H141515   7.094   6.927   2.791 -0.8734  0.9314  0.2085
13858TIP3    H241516   7.196   7.038   2.780  1.3925 -1.2379 -1.2344
13859TIP3   OH241517   1.597   6.728   1.286  0.1840  0.2254  0.1744
13859TIP3    H141518   1.546   6.804   1.312 -2.3984 -2.1778  2.4265
13859TIP3    H241519   1.656   6.712   1.360  0.2741 -0.3460 -0.0210
13860TIP3   OH241520   7.017   5.989   2.642  0.2239  0.1027  0.0320
13860TIP3    H141521   7.089   5.939   2.680 -0.6168 -1.6472 -0.6004
13860TIP3    H241522   7.037   5.990   2.548 -0.0096  0.5669 -0.0125
13861TIP3   OH241523   7.562   6.511   0.241  0.3408 -0.4964  0.2323
13861TIP3    H141524   7.589   6.596   0.277 -1.8127  0.3452 -0.0532
13861TIP3    H241525   7.477   6.529   0.200 -1.3171 -3.2984  2.2943
13862TIP3   OH241526   7.223   2.150   4.798  0.1937 -0.0745 -0.1779
13862TIP3    H141527   7.219   2.234   4.843  1.7737 -1.2615  2.2520
13862TIP3    H241528   7.296   2.159   4.737  0.7828  0.1189  0.5464
13863TIP3   OH241529   1.888   0.385   1.980  0.1701  0.3958  0.0759
13863TIP3    H141530   1.906   0.438   2.057  0.7134  0.7162 -0.2739
13863TIP3    H241531   1.799   0.411   1.953 -0.2954 -0.2166  0.9944
13864TIP3   OH241532   7.598   6.502   0.923 -0.1950 -0.3201  0.3689
13864TIP3    H141533   7.506   6.476   0.931 -0.1411 -0.4901  0.4514
13864TIP3    H241534   7.597   6.581   0.871 -0.4444  0.0184  0.8846
13865TIP3   OH241535   6.979   6.402   0.403 -0.4990  0.2696 -0.0079
13865TIP3    H141536   6.981   6.477   0.462 -3.1701 -0.7024  1.4067
13865TIP3    H241537   7.019   6.331   0.454  1.5145  0.5514 -1.1404
13866TIP3   OH241538   1.198   7.348   0.482  0.2806 -0.3255 -0.2003
13866TIP3    H141539   1.202   7.439   0.510  0.0944 -0.8498  1.6147
13866TIP3    H241540   1.110   7.338   0.445 -0.0213  0.0073  0.4238
13867TIP3   OH241541   0.312   6.097   1.611 -0.0331  0.5690 -0.0431
13867TIP3    H141542   0.246   6.029   1.613  0.7441 -0.2244 -0.9611
13867TIP3    H241543   0.391   6.055   1.646 -0.0450  1.5512  1.2127
13868TIP3   OH241544   6.504   7.056   1.272 -0.0255 -0.2634  0.0316
13868TIP3    H141545   6.508   7.016   1.358  0.3050  0.1332  0.2003
13868TIP3    H241546   6.459   7.140   1.286  2.8860  1.3191  0.4019
13869TIP3   OH241547   3.862   2.067   6.638 -0.4185 -0.4948 -0.0197
13869TIP3    H141548   3.917   1.994   6.609  0.6099  0.2750 -0.0466
13869TIP3    H241549   3.913   2.109   6.707 -1.5164 -0.4840  0.7948
13870TIP3   OH241550   3.170   0.886   2.812  0.1412  0.1241  0.1946
13870TIP3    H141551   3.103   0.854   2.751 -1.6291 -0.3369  2.3338
13870TIP3    H241552   3.196   0.971   2.776 -0.3342 -0.4588 -1.5965
13871TIP3   OH241553   7.181   2.935   6.347  0.1176 -0.1445 -0.5196
13871TIP3    H141554   7.118   2.923   6.418 -0.2758 -0.8024 -0.9689
13871TIP3    H241555   7.242   2.862   6.358  0.8077  0.4874 -0.0895
13872TIP3   OH241556   8.570   5.578   0.314  0.5031 -0.1323 -0.5339
13872TIP3    H141557   8.604   5.518   0.381  1.9264 -0.3238 -1.4140
13872TIP3    H241558   8.525   5.520   0.251 -0.8223  0.0454  0.2295
13873TIP3   OH241559   0.346   4.844   1.479 -0.4352  0.0247 -0.2235
13873TIP3    H141560   0.356   4.750   1.466 -1.7596 -0.2603  0.7635
13873TIP3    H241561   0.309   4.876   1.396 -2.2076 -0.7013  0.2662
13874TIP3   OH241562   0.885   5.586   1.031  0.4312 -0.6755 -0.6300
13874TIP3    H141563   0.913   5.577   0.940  0.2221 -2.3769 -0.5458
13874TIP3    H241564   0.919   5.508   1.074  0.3627  0.0232  0.7138
13875TIP3   OH241565   4.833   3.543   6.133  0.3405  0.1490 -0.5011
13875TIP3    H141566   4.921   3.564   6.167 -0.2559  1.0075  0.5451
13875TIP3    H241567   4.800   3.477   6.193 -0.0897  0.5132 -0.3328
13876TIP3   OH241568   6.526   3.312   5.887  0.0258 -0.4282 -0.3147
13876TIP3    H141569   6.579   3.238   5.918 -1.0580 -0.7364  0.8089
13876TIP3    H241570   6.436   3.289   5.910 -0.4568  0.7230 -1.0031
13877TIP3   OH241571   0.666   6.682   1.456 -0.7571  0.4725 -1.0235
13877TIP3    H141572   0.745   6.629   1.449 -0.0309  1.1735  1.5789
13877TIP3    H241573   0.594   6.620   1.444  0.1268 -0.6716 -0.4382
13878TIP3   OH241574   1.982   5.290   1.629  0.5490 -0.4216  0.1879
13878TIP3    H141575   2.044   5.342   1.681 -0.7575  1.0013  0.3610
13878TIP3    H241576   1.962   5.345   1.553 -1.0688 -0.5240  0.5107
13879TIP3   OH241577   0.330   8.128   0.953  0.0049 -0.0957  0.0365
13879TIP3    H141578   0.330   8.064   0.882 -3.2530 -0.1678  0.0008
13879TIP3    H241579   0.336   8.076   1.033 -1.1695 -0.3687 -0.0447
13880TIP3   OH241580   4.183   2.548   6.887 -0.1486 -0.9858 -0.5915
13880TIP3    H141581   4.230   2.520   6.808 -0.8026  1.7939 -2.0508
13880TIP3    H241582   4.245   2.603   6.934 -0.8563  0.0578 -0.8654
13881TIP3   OH241583   7.853   6.598   2.483  0.1172  0.1363 -0.0102
13881TIP3    H141584   7.838   6.692   2.482 -0.7884 -0.0019 -1.8991
13881TIP3    H241585   7.921   6.584   2.416  1.3898 -0.3812  1.3671
13882TIP3   OH241586   1.456   5.389   2.715  0.2758 -0.3725  0.4434
13882TIP3    H141587   1.445   5.329   2.641  0.7878 -0.0314  0.0896
13882TIP3    H241588   1.385   5.365   2.776 -0.0005 -0.8118 -0.0469
13883TIP3   OH241589   0.932   7.919   1.775  0.1216 -0.0426  0.2157
13883TIP3    H141590   0.934   7.997   1.830  0.1883 -0.2108  0.4527
13883TIP3    H241591   0.889   7.853   1.829  0.6543 -0.3542  0.2565
13884TIP3   OH241592   1.919   1.184   0.974 -0.0080 -0.5465 -0.3473
13884TIP3    H141593   2.000   1.184   0.923 -0.2681  0.5486 -0.7642
13884TIP3    H241594   1.906   1.275   0.999 -0.6583 -0.8505  0.4547
13885TIP3   OH241595   6.848   5.590   1.089  0.2311 -0.2404  0.1171
13885TIP3    H141596   6.795   5.658   1.047  1.7275  0.3123 -0.9105
13885TIP3    H241597   6.864   5.526   1.020 -0.6078 -1.3173  0.9071
13886TIP3   OH241598   2.545   5.003   0.277 -0.0053 -0.3779  0.5249
13886TIP3    H141599   2.584   5.043   0.200  2.1002  0.0591  1.7887
13886TIP3    H241600   2.582   4.914   0.279  0.1588 -0.2983  1.1664
13887TIP3   OH241601   7.538   3.601   6.788 -0.3570  0.0262 -0.1714
13887TIP3    H141602   7.567   3.580   6.877 -1.7408 -2.0931 -0.1825
13887TIP3    H241603   7.608   3.655   6.752  0.7927 -0.1077  1.7892
13888TIP3   OH241604   7.109   6.016   0.077 -0.2369  0.6771 -0.1037
13888TIP3    H141605   7.119   6.107   0.104  0.4483  0.1287  1.6272
13888TIP3    H241606   7.162   6.008  -0.002  2.3320  1.0478  1.5076
13889TIP3   OH241607   7.097   5.293   6.910 -0.0643  0.1808 -0.5126
13889TIP3    H141608   7.061   5.359   6.851  1.5748 -0.3741 -2.1934
13889TIP3    H241609   7.068   5.209   6.873  0.1411 -0.1454  0.0536
13890TIP3   OH241610   0.888   1.925   0.047  0.2700  0.6581  0.8832
13890TIP3    H141611   0.957   1.970  -0.002 -0.2358 -0.3988 -0.8396
13890TIP3    H241612   0.814   1.985   0.046  0.5390  0.9913  1.0723
13891TIP3   OH241613   7.709   7.655   2.358 -0.0253 -0.9975  0.4696
13891TIP3    H141614   7.722   7.719   2.429 -1.1382 -1.3865  1.0418
13891TIP3    H241615   7.615   7.640   2.357  0.1160 -1.8532 -0.3580
13892TIP3   OH241616   7.345   6.376   0.038 -0.2918  0.1263  0.3023
13892TIP3    H141617   7.264   6.346   0.080 -1.0709 -2.2865 -2.7701
13892TIP3    H241618   7.344   6.471   0.051 -2.4490 -0.0912  2.2686
13893TIP3   OH241619   0.067   7.772   0.795  0.2713  0.6323 -0.1197
13893TIP3    H141620   0.079   7.841   0.729  2.8625 -1.1265 -1.5657
13893TIP3    H241621   0.153   7.731   0.802 -0.8325 -1.4151  1.9204
13894TIP3   OH241622   2.895   1.061   0.625 -0.4399 -0.1760 -0.2578
13894TIP3    H141623   2.847   1.099   0.699  1.7291  0.7819  0.6828
13894TIP3    H241624   2.900   0.968   0.644 -2.0084 -0.3093 -0.4225
13895TIP3   OH241625   1.652   0.582   1.169 -0.1387  0.0328 -0.0880
13895TIP3    H141626   1.622   0.573   1.259 -0.2117 -0.6554 -0.1781
13895TIP3    H241627   1.743   0.551   1.171 -0.1303  0.0479 -0.2405
13896TIP3   OH241628   8.282   7.410   0.859 -0.5062 -0.2710  0.5601
13896TIP3    H141629   8.323   7.354   0.925  0.2648 -0.8779 -0.4195
13896TIP3    H241630   8.354   7.460   0.822 -0.8364 -0.3724 -0.2395
13897TIP3   OH241631   7.486   3.301   5.564 -0.1758  0.3309 -0.0520
13897TIP3    H141632   7.434   3.268   5.636 -0.8080 -1.6477 -1.3756
13897TIP3    H241633   7.576   3.279   5.587 -0.1939  1.2201  0.9042
13898TIP3   OH241634   1.692   7.548   0.527  0.4993  0.0226  0.0571
13898TIP3    H141635   1.707   7.586   0.614 -0.8036  0.9095 -0.0937
13898TIP3    H241636   1.649   7.465   0.544  1.1072 -0.2512  0.2888
13899TIP3   OH241637   0.994   5.924   0.967 -0.0147 -0.0179  0.3611
13899TIP3    H141638   0.899   5.909   0.977 -0.2387  0.0117 -1.5099
13899TIP3    H241639   1.026   5.936   1.057 -1.5421 -1.4912  1.1451
13900TIP3   OH241640   6.033   1.795   6.460 -0.0609 -0.1903 -0.6847
13900TIP3    H141641   6.078   1.877   6.481 -0.3295  0.4396 -2.4931
13900TIP3    H241642   6.071   1.731   6.521 -0.6585  1.4945  1.5269
13901TIP3   OH241643   2.699   7.460   1.383 -0.2312 -0.0297 -0.1056
13901TIP3    H141644   2.632   7.442   1.448  0.9956 -0.0760  1.1813
13901TIP3    H241645   2.728   7.374   1.352  0.4345 -0.0726  0.6131
13902TIP3   OH241646   6.803   6.226   1.283 -0.0257 -0.1845 -0.3706
13902TIP3    H141647   6.734   6.168   1.252 -0.7941  0.0182  0.9454
13902TIP3    H241648   6.772   6.314   1.259 -0.0085 -0.1272 -0.1791
13903TIP3   OH241649   6.443   6.401   0.661 -0.7191  0.1533  0.1540
13903TIP3    H141650   6.395   6.405   0.578  0.8617 -0.7187 -0.8222
13903TIP3    H241651   6.464   6.492   0.680 -1.0512  0.3610 -0.4321
13904TIP3   OH241652   5.228   6.078   2.559  0.3583 -0.4712 -0.1012
13904TIP3    H141653   5.223   6.060   2.465 -1.5775  1.6694 -0.4585
13904TIP3    H241654   5.297   6.021   2.591  0.9516 -1.3363 -2.8132
13905TIP3   OH241655   3.638   0.039   1.492 -0.0913  0.4332  0.2373
13905TIP3    H141656   3.627   0.037   1.587  0.1423  2.0984  0.3232
13905TIP3    H241657   3.733   0.037   1.479 -0.1530 -1.7143 -0.0488
13906TIP3   OH241658   8.195   6.300   0.432  0.2835 -0.3670 -0.8347
13906TIP3    H141659   8.290   6.296   0.431  0.3823  1.1746  0.8515
13906TIP3    H241660   8.171   6.284   0.524 -1.0555 -0.2227 -1.1445
13907TIP3   OH241661   7.145   0.399   6.464  0.5269 -0.8610 -0.3469
13907TIP3    H141662   7.100   0.379   6.382 -0.9224  0.9665 -0.0134
13907TIP3    H241663   7.238   0.391   6.443  0.1346 -2.0543 -1.7159
13908TIP3   OH241664   7.786   6.328   2.482  0.3938 -1.0154 -0.4789
13908TIP3    H141665   7.801   6.237   2.507  0.0491 -1.3569 -1.4727
13908TIP3    H241666   7.782   6.326   2.386  1.7300  0.2592 -0.5790
13909TIP3   OH241667   6.459   6.677   1.203 -0.2381 -0.6747  0.2600
13909TIP3    H141668   6.406   6.626   1.142 -0.9787  1.0759 -0.6137
13909TIP3    H241669   6.463   6.764   1.163  2.1837 -0.4256  0.9880
13910TIP3   OH241670   1.272   0.364   2.518  0.5559  0.0980  0.5465
13910TIP3    H141671   1.202   0.370   2.452  0.0621  0.5231  1.1071
13910TIP3    H241672   1.321   0.285   2.494 -0.1020 -0.1912  0.1368
13911TIP3   OH241673   7.918   6.031   0.034  0.3843 -0.3201 -0.2309
13911TIP3    H141674   7.975   6.102   0.062  0.3908  0.1765 -1.4959
13911TIP3    H241675   7.907   6.044  -0.060 -0.9385 -1.0404 -0.1874
13912TIP3   OH241676   0.464   4.356   1.483  0.1941  0.5015  0.1760
13912TIP3    H141677   0.437   4.425   1.422 -0.6448 -1.1515 -1.3829
13912TIP3    H241678   0.420   4.378   1.565  0.4960  2.1853 -0.0908
13913TIP3   OH241679   4.312   0.925   3.170 -0.6594 -0.1616 -0.5855
13913TIP3    H141680   4.370   0.892   3.239 -2.7987 -0.3829  1.1588
13913TIP3    H241681   4.246   0.856   3.160 -0.5315 -0.0089 -2.6896
13914TIP3   OH241682   4.434   1.951   6.886  0.0294 -0.2877  0.2543
13914TIP3    H141683   4.514   1.938   6.935  1.2468  1.5918 -1.1747
13914TIP3    H241684   4.433   1.879   6.822 -0.9299 -1.9914  2.1042
13915TIP3   OH241685   5.219   3.391   7.024  0.3353 -0.3033 -0.9614
13915TIP3    H141686   5.272   3.364   6.949  0.1470 -1.5404 -0.6530
13915TIP3    H241687   5.226   3.487   7.024  1.5575 -0.3737 -1.6635
13916TIP3   OH241688   6.103   5.876   0.197 -0.4969 -0.3006  0.0068
13916TIP3    H141689   6.057   5.890   0.114 -0.8752 -1.1018  0.0829
13916TIP3    H241690   6.121   5.783   0.200  0.8731 -0.0330  0.1241
13917TIP3   OH241691   2.666   0.210   0.856 -0.5004 -0.1340 -0.4526
13917TIP3    H141692   2.750   0.167   0.868 -0.6872 -0.7380 -1.2396
13917TIP3    H241693   2.677   0.264   0.777 -0.6127  0.3894 -0.1153
13918TIP3   OH241694   2.371   7.419   3.222 -0.5416 -0.3928 -0.5707
13918TIP3    H141695   2.442   7.448   3.166  1.7707 -2.7480  0.9809
13918TIP3    H241696   2.415   7.377   3.296 -3.5401 -0.8275  1.0495
13919TIP3   OH241697   1.110   0.713   0.775  0.0717 -0.0143 -0.0879
13919TIP3    H141698   1.115   0.797   0.820 -2.4105 -0.0698  0.3661
13919TIP3    H241699   1.193   0.670   0.794  0.1429  1.0893  2.1680
13920TIP3   OH241700   6.023   3.718   5.784 -0.6980 -0.1273  0.0059
13920TIP3    H141701   6.020   3.663   5.863  0.3014  0.3601  0.3910
13920TIP3    H241702   5.935   3.711   5.747 -0.7228 -1.6091  0.3083
13921TIP3   OH241703   7.980   7.909   1.243 -0.5610 -0.3732  0.3251
13921TIP3    H141704   7.908   7.962   1.278  0.2419  1.7442 -1.1441
13921TIP3    H241705   8.039   7.897   1.317 -0.6088  1.0293  0.5930
13922TIP3   OH241706   3.319   0.418   0.030  0.3076 -0.3152  0.0575
13922TIP3    H141707   3.262   0.341   0.026 -0.3283  0.1372  0.3480
13922TIP3    H241708   3.337   0.430   0.124  0.1392  0.0805  0.0409
13923TIP3   OH241709   7.895   6.932   0.223 -0.0735 -0.0335 -0.1294
13923TIP3    H141710   7.807   6.896   0.213 -0.0968  0.0501 -0.2246
13923TIP3    H241711   7.931   6.932   0.134  0.3937 -1.0130  0.0592
13924TIP3   OH241712   8.127   2.212   6.246 -0.3505 -0.4283  0.3297
13924TIP3    H141713   8.108   2.245   6.158 -0.6396  0.3003  0.6554
13924TIP3    H241714   8.042   2.184   6.280  0.0557 -2.4699 -0.3220
13925TIP3   OH241715   8.487   6.135   1.279  0.0303  0.2854 -0.2986
13925TIP3    H141716   8.570   6.159   1.318 -1.2124 -0.0760  2.7184
13925TIP3    H241717   8.481   6.188   1.199  2.1224  1.9522  0.6127
13926TIP3   OH241718   5.297   2.672   6.864  0.5376 -0.2171  0.5462
13926TIP3    H141719   5.244   2.617   6.806 -1.8678  1.2390  1.2786
13926TIP3    H241720   5.369   2.615   6.893 -0.1613 -1.9947 -1.1260
13927TIP3   OH241721   0.649   7.148   0.186 -0.0212 -0.4791 -0.2976
13927TIP3    H141722   0.620   7.088   0.254 -0.7916 -1.6124 -1.6133
13927TIP3    H241723   0.720   7.102   0.142 -0.2875 -0.2242 -1.0010
13928TIP3   OH241724   4.866   7.462   6.314  0.0493  0.0468 -0.0575
13928TIP3    H141725   4.840   7.413   6.392  0.5427  0.0313  0.0981
13928TIP3    H241726   4.851   7.402   6.241 -1.8103  0.5634 -0.1279
13929TIP3   OH241727   0.298   6.598   0.714 -0.3978  0.1073  0.4588
13929TIP3    H141728   0.290   6.693   0.704 -0.5824  0.2268  1.7193
13929TIP3    H241729   0.365   6.586   0.781 -1.9041 -0.6002  1.8829
13930TIP3   OH241730   5.567   4.449   6.982  0.0179  0.5139 -0.4138
13930TIP3    H141731   5.620   4.381   7.024  0.5381  0.4712 -1.1301
13930TIP3    H241732   5.478   4.430   7.010  0.1931 -0.3028 -0.3720
13931TIP3   OH241733   6.438   5.818   0.302  0.2948  0.7851  0.4058
13931TIP3    H141734   6.530   5.838   0.316  0.7160 -1.1241  0.5387
13931TIP3    H241735   6.437   5.761   0.224 -0.5449 -0.8162  1.5509
13932TIP3   OH241736   6.920   6.610   1.071  0.2871 -0.4575  0.3725
13932TIP3    H141737   6.964   6.595   1.155  0.7063  2.1202  0.6573
13932TIP3    H241738   6.976   6.674   1.026 -0.1638 -1.4655 -1.7075
13933TIP3   OH241739   5.205   3.911   6.931 -0.5317  0.8847 -0.5303
13933TIP3    H141740   5.190   3.830   6.979 -2.1879  0.6245 -1.4490
13933TIP3    H241741   5.180   3.980   6.991 -2.6979  0.5585 -1.0389
13934TIP3   OH241742   3.323   2.787   0.195 -0.1219  0.1452  0.2507
13934TIP3    H141743   3.263   2.756   0.264 -0.6741  0.9505  0.1421
13934TIP3    H241744   3.331   2.713   0.135 -1.0814  0.0610  0.2201
13935TIP3   OH241745   7.826   2.169   5.670 -0.2760 -0.4601  0.4910
13935TIP3    H141746   7.759   2.157   5.737 -1.4927 -0.1341 -0.6240
13935TIP3    H241747   7.845   2.080   5.639 -1.4408 -0.4426 -0.3384
13936TIP3   OH241748   2.493   8.063   1.208  0.5638 -0.0098  0.4100
13936TIP3    H141749   2.578   8.105   1.225 -0.0166  1.0398  0.8016
13936TIP3    H241750   2.481   8.003   1.281  1.5326 -1.0954 -0.3003
13937TIP3   OH241751   1.890   7.444   0.343 -0.1684 -0.2822  0.0345
13937TIP3    H141752   1.809   7.461   0.392  0.4998 -0.9649  1.4005
13937TIP3    H241753   1.863   7.383   0.275 -0.9132 -0.0890  0.1404
13938TIP3   OH241754   8.206   3.803   0.437  0.2843  0.0571  0.1295
13938TIP3    H141755   8.176   3.729   0.490  0.0390  0.0311 -0.0501
13938TIP3    H241756   8.132   3.824   0.381 -0.0548  1.1782  0.9799
13939TIP3   OH241757   4.569   0.104   2.855 -0.3731 -0.1811  0.1081
13939TIP3    H141758   4.634   0.050   2.900 -0.4870  0.2575  0.8220
13939TIP3    H241759   4.594   0.101   2.763  1.0505  0.4978  0.4475
13940TIP3   OH241760   1.404   7.369   2.411  0.2317  0.3249 -0.0017
13940TIP3    H141761   1.451   7.287   2.422  1.6722  0.9687 -1.1856
13940TIP3    H241762   1.460   7.435   2.453  0.5791  1.1421 -1.6792
13941TIP3   OH241763   3.314   0.672   1.632  0.0847  0.5038 -0.0363
13941TIP3    H141764   3.251   0.713   1.692 -1.0898  0.1514 -1.0111
13941TIP3    H241765   3.372   0.744   1.606 -0.4734  1.0230  0.1459
13942TIP3   OH241766   0.359   5.353   0.081 -0.5068  0.7668 -0.4221
13942TIP3    H141767   0.311   5.286   0.130  0.0833  1.0158  0.5211
13942TIP3    H241768   0.354   5.324  -0.010 -0.4185 -0.4644 -0.0514
13943TIP3   OH241769   0.814   7.767   1.334 -0.0382  0.0680  0.1511
13943TIP3    H141770   0.779   7.844   1.289 -2.0199 -0.1813  1.1951
13943TIP3    H241771   0.763   7.762   1.415  0.8704 -1.6676  0.6244
13944TIP3   OH241772   8.291   7.569   1.870 -0.4376 -0.0414  0.0713
13944TIP3    H141773   8.239   7.649   1.877 -0.8080 -0.3699  1.1315
13944TIP3    H241774   8.235   7.500   1.906  0.5041 -0.5004  0.7016
13945TIP3   OH241775   4.969   0.763   3.951 -0.3195  0.0078  0.1496
13945TIP3    H141776   4.909   0.697   3.986 -1.6590  0.5765 -1.0240
13945TIP3    H241777   4.996   0.729   3.865  0.6446  0.0025  0.4435
13946TIP3   OH241778   0.550   7.497   1.924 -0.5912 -0.1426  0.6289
13946TIP3    H141779   0.638   7.509   1.889 -0.3097 -1.3994  0.8600
13946TIP3    H241780   0.563   7.453   2.008 -1.3335  1.7314  1.7564
13947TIP3   OH241781   5.551   2.236   6.285  0.1165 -0.2599 -0.5535
13947TIP3    H141782   5.577   2.218   6.375 -3.4907 -0.7689  0.4662
13947TIP3    H241783   5.604   2.176   6.232  3.2240  0.9718  1.0699
13948TIP3   OH241784   0.631   5.701   0.795  0.0218 -0.4175  0.4328
13948TIP3    H141785   0.585   5.630   0.751 -1.1648  1.8377 -2.1352
13948TIP3    H241786   0.724   5.680   0.783 -0.3104 -1.4192 -0.5255
13949TIP3   OH241787   4.238   2.133   5.248 -0.2741  0.3074  0.0823
13949TIP3    H141788   4.183   2.075   5.195 -1.4610 -0.0054  1.6023
13949TIP3    H241789   4.176   2.191   5.292  0.8870  2.5818 -1.2026
13950TIP3   OH241790   7.669   7.385   1.133 -0.0263  0.1618 -0.6759
13950TIP3    H141791   7.632   7.416   1.050 -4.0468 -0.5393  0.7292
13950TIP3    H241792   7.642   7.293   1.138  0.5740  0.0702  1.2062
13951TIP3   OH241793   0.568   6.940   1.357  0.2426 -0.1567  0.1961
13951TIP3    H141794   0.521   6.973   1.279 -1.1449  0.6008  1.3286
13951TIP3    H241795   0.582   6.847   1.339  0.6609  0.1824 -1.3203
13952TIP3   OH241796   7.035   6.610   0.569 -0.8158  0.4533  0.3751
13952TIP3    H141797   6.956   6.634   0.617 -0.6452  0.1722  0.8048
13952TIP3    H241798   7.107   6.649   0.619 -0.5312 -1.0436  1.1589
13953TIP3   OH241799   0.143   6.497   0.946  0.5674 -0.1389  0.5594
13953TIP3    H141800   0.205   6.534   0.884 -0.2522  1.3861  0.6358
13953TIP3    H241801   0.099   6.426   0.898 -1.1511  2.0130 -1.1424
13954TIP3   OH241802   1.222   7.767   1.483  0.6246  0.2179  0.1206
13954TIP3    H141803   1.216   7.838   1.547  1.6203 -0.7511  1.3041
13954TIP3    H241804   1.152   7.707   1.507  1.8365 -0.8055  1.1370
13955TIP3   OH241805   1.095   6.036   0.338  0.3593  0.2275 -0.0012
13955TIP3    H141806   1.022   6.081   0.296 -0.2059  0.1639  0.9046
13955TIP3    H241807   1.057   5.995   0.415  1.3499  0.1819  0.4722
13956TIP3   OH241808   8.155   5.741   0.588  0.0374  0.0610 -0.4277
13956TIP3    H141809   8.141   5.656   0.546 -0.7352 -0.7093  1.3802
13956TIP3    H241810   8.250   5.753   0.587  0.0981 -0.4220 -1.4321
13957TIP3   OH241811   7.899   6.060   0.879 -0.2081 -0.8647  0.2341
13957TIP3    H141812   7.852   6.076   0.797  1.5378  1.4705 -0.3995
13957TIP3    H241813   7.869   6.130   0.937  0.3034 -1.0920  0.7716
13958TIP3   OH241814   0.130   7.840   2.111  0.3057  0.6183  0.0141
13958TIP3    H141815   0.204   7.785   2.084 -0.4910 -1.0095  1.1275
13958TIP3    H241816   0.054   7.802   2.068 -0.6057 -0.5525  2.5491
13959TIP3   OH241817   0.734   7.912   3.289  0.6567 -0.1198  0.0945
13959TIP3    H141818   0.714   7.857   3.214 -1.0030  1.4219 -0.6278
13959TIP3    H241819   0.826   7.938   3.275  0.1546  0.7447 -1.8149
13960TIP3   OH241820   8.321   6.562   0.240 -0.3859  0.0399  0.3590
13960TIP3    H141821   8.228   6.579   0.248 -0.4138  0.1085 -0.1042
13960TIP3    H241822   8.363   6.647   0.256 -0.4508  0.2128 -0.3402
13961TIP3   OH241823   7.414   5.111   1.897 -0.0040  0.2943  0.5620
13961TIP3    H141824   7.425   5.165   1.819 -0.4182  0.0399  0.3285
13961TIP3    H241825   7.495   5.124   1.947 -0.3130  1.5219  0.7506
13962TIP3   OH241826   2.263   0.501   2.956  0.5744  0.0893  0.3538
13962TIP3    H141827   2.295   0.451   3.031  0.4286 -0.9659 -0.2703
13962TIP3    H241828   2.341   0.516   2.902  0.5617  0.2469  0.3800
13963TIP3   OH241829   0.890   1.293   2.145 -0.2933 -0.0137 -0.8926
13963TIP3    H141830   0.926   1.342   2.219 -0.8281 -0.2289 -0.4885
13963TIP3    H241831   0.806   1.260   2.176 -0.7345  0.2747 -1.7460
13964TIP3   OH241832   3.807   0.261   1.304  0.1726  0.3828 -0.7594
13964TIP3    H141833   3.875   0.196   1.289 -1.0248 -1.1765  0.4228
13964TIP3    H241834   3.853   0.345   1.300  1.9319 -0.5730 -1.1866
13965TIP3   OH241835  -0.018   5.878   1.155 -0.0962  0.3406  0.1912
13965TIP3    H141836  -0.046   5.968   1.172  1.8377  1.2840 -1.3225
13965TIP3    H241837   0.066   5.888   1.110  1.4993 -2.3116  2.4827
13966TIP3   OH241838   1.468   0.937   2.353  0.2531 -0.4097 -0.1147
13966TIP3    H141839   1.408   0.935   2.428  1.5436 -0.2197  0.9390
13966TIP3    H241840   1.529   0.865   2.369 -0.4259 -1.3929 -1.8148
13967TIP3   OH241841   7.969   7.312   3.395 -0.1625  0.1709  0.1928
13967TIP3    H141842   8.056   7.282   3.420 -0.9641 -1.9311  0.4962
13967TIP3    H241843   7.985   7.374   3.323  1.5933  0.1983  0.5821
13968TIP3   OH241844   1.169   0.960   1.708  0.0640  0.4188 -0.5008
13968TIP3    H141845   1.117   1.031   1.669  1.9014  1.1378 -1.6614
13968TIP3    H241846   1.110   0.884   1.706 -1.0059  1.2539 -1.6387
13969TIP3   OH241847   2.907   0.094   0.867 -0.6256 -0.3394 -0.7946
13969TIP3    H141848   2.893   0.049   0.950 -0.1417  0.1823 -0.4307
13969TIP3    H241849   3.000   0.079   0.847 -0.9978 -1.4309 -1.8150
13970TIP3   OH241850   0.639   5.400   0.108 -0.1153 -0.2879 -0.5675
13970TIP3    H141851   0.544   5.399   0.098 -0.2356 -0.3977  0.5741
13970TIP3    H241852   0.668   5.474   0.055 -1.0672  1.3634  1.1651
13971TIP3   OH241853   7.427   7.051   0.952  0.0556 -0.4473 -0.0909
13971TIP3    H141854   7.418   7.125   1.013  0.4751 -0.9931  0.6500
13971TIP3    H241855   7.521   7.032   0.952  0.0298 -0.5779 -0.7614
13972TIP3   OH241856   0.746   4.489   0.207 -0.3882 -0.0685 -0.7198
13972TIP3    H141857   0.797   4.570   0.206 -0.4702  0.0149  1.1057
13972TIP3    H241858   0.700   4.491   0.290 -0.8217 -1.7345 -0.9143
13973TIP3   OH241859   0.161   6.688   2.138 -0.0288  0.1194  0.0315
13973TIP3    H141860   0.171   6.720   2.049 -0.0417 -1.0252 -0.3868
13973TIP3    H241861   0.076   6.645   2.139  0.1556 -0.2351  0.4884
13974TIP3   OH241862   7.515   6.453   2.187  0.9682 -0.1226 -0.0018
13974TIP3    H141863   7.460   6.419   2.116  1.0172 -0.2545  0.0235
13974TIP3    H241864   7.460   6.517   2.232  0.4861 -0.9806  0.6459
13975TIP3   OH241865   0.950   6.808   0.600 -0.0307  0.0453  0.8162
13975TIP3    H141866   0.900   6.888   0.591  0.6197  0.2687 -1.0075
13975TIP3    H241867   1.036   6.829   0.563 -0.0619 -1.6644 -0.2706
13976TIP3   OH241868   6.195   1.608   6.552 -0.2317  0.0946 -1.1196
13976TIP3    H141869   6.224   1.528   6.596 -1.5470  0.4792  0.4958
13976TIP3    H241870   6.268   1.631   6.495  1.5625 -0.4417  0.8666
13977TIP3   OH241871   2.310   0.030   0.127  0.4612  0.9579 -0.2964
13977TIP3    H141872   2.276  -0.041   0.182  1.0318  1.0790  0.2186
13977TIP3    H241873   2.240   0.095   0.127  0.5365  1.0440  0.4555
13978TIP3   OH241874   2.439   0.499   1.129  0.2360  0.1798 -0.3668
13978TIP3    H141875   2.492   0.419   1.128 -1.3510 -0.9290  0.9005
13978TIP3    H241876   2.428   0.520   1.221  0.3377  1.6631 -0.6818
13979TIP3   OH241877   7.469   4.301   1.088  0.0118 -0.6149  0.3617
13979TIP3    H141878   7.489   4.218   1.045  0.2393  0.2054 -1.1336
13979TIP3    H241879   7.554   4.343   1.101 -0.2046 -0.0334 -0.0801
13980TIP3   OH241880   5.810   1.951   6.437 -0.5264 -0.3023 -0.4565
13980TIP3    H141881   5.799   1.981   6.347  0.6126 -3.6133 -1.8025
13980TIP3    H241882   5.884   1.891   6.434 -1.2197 -1.4422  2.4446
13981TIP3   OH241883   7.253   7.727   1.402  0.0517 -0.5355 -0.2732
13981TIP3    H141884   7.171   7.679   1.409 -0.3822 -0.1338 -2.2694
13981TIP3    H241885   7.315   7.676   1.454 -1.6771 -0.2723  2.1359
13982TIP3   OH241886   1.754   6.325   0.484  0.3157 -0.5373 -0.3582
13982TIP3    H141887   1.724   6.234   0.483  1.0323 -0.7657 -1.6918
13982TIP3    H241888   1.829   6.327   0.424 -0.5069  1.1902 -1.3781
13983TIP3   OH241889   6.961   6.180   1.494 -0.5747  0.4518 -0.4222
13983TIP3    H141890   6.925   6.223   1.416  0.8375  0.7791 -0.8965
13983TIP3    H241891   6.911   6.217   1.567 -1.5488  0.5240 -1.1138
13984TIP3   OH241892   8.420   7.733   2.173 -0.9720 -0.2339  0.5050
13984TIP3    H141893   8.461   7.808   2.129  0.5342  0.1493  2.4869
13984TIP3    H241894   8.346   7.710   2.117  2.3245 -1.4343 -3.6377
13985TIP3   OH241895   0.305   1.480   6.431  0.5459 -0.1126 -0.1172
13985TIP3    H141896   0.254   1.400   6.423 -2.0743  1.7004 -2.6085
13985TIP3    H241897   0.249   1.540   6.480  1.2315  1.1163 -0.7881
13986TIP3   OH241898   6.593   2.097   6.977  0.5286  0.5811 -0.1910
13986TIP3    H141899   6.524   2.139   6.925  1.6546  2.4551 -0.2102
13986TIP3    H241900   6.675   2.121   6.932  1.3922  0.7204  1.4219
13987TIP3   OH241901   0.348   7.074   0.652  0.5467  0.4323 -0.8247
13987TIP3    H141902   0.280   7.132   0.687 -0.4230 -0.1762 -1.6962
13987TIP3    H241903   0.305   6.989   0.642  0.8601  0.5166 -3.2198
13988TIP3   OH241904   6.634   2.156   6.002  0.2730  0.3660 -0.3630
13988TIP3    H141905   6.696   2.229   5.996  0.5788  0.2796  1.4957
13988TIP3    H241906   6.685   2.084   6.038 -0.6553 -0.0181  0.2076
13989TIP3   OH241907   0.071   5.444   0.918  0.5844 -0.5103  0.8577
13989TIP3    H141908   0.017   5.457   0.996  0.4284  0.8171  0.5280
13989TIP3    H241909   0.018   5.476   0.845  0.2008 -2.9446  0.0099
13990TIP3   OH241910   0.982   7.672   1.606 -0.1652  0.1797 -0.1895
13990TIP3    H141911   0.899   7.627   1.588 -0.1551 -0.4210  1.2585
13990TIP3    H241912   0.961   7.765   1.595 -0.8494 -0.0110 -0.5319
13991TIP3   OH241913   1.545   5.103   0.596  0.0661 -0.2994  0.0363
13991TIP3    H141914   1.634   5.129   0.623  0.6365 -0.7755 -1.3711
13991TIP3    H241915   1.503   5.185   0.571  0.6484 -0.2628 -0.8399
13992TIP3   OH241916   7.483   0.838   6.261  0.4049  0.1388 -0.4504
13992TIP3    H141917   7.474   0.906   6.195 -0.2267  1.1725  0.6751
13992TIP3    H241918   7.399   0.791   6.259  0.0271  0.7623  0.2350
13993TIP3   OH241919   3.039   6.802   0.040 -0.5098  0.3465 -0.3072
13993TIP3    H141920   3.034   6.875  -0.020 -0.9975  0.6269  0.0676
13993TIP3    H241921   2.986   6.829   0.115 -0.4879 -0.2849 -0.0596
13994TIP3   OH241922   8.168   3.194   5.920  0.2411  0.4643  0.0046
13994TIP3    H141923   8.193   3.273   5.874  1.0974  1.1416  1.6001
13994TIP3    H241924   8.248   3.142   5.925  0.5541  1.0991  2.0812
13995TIP3   OH241925   6.798   1.433   6.869 -0.3692 -0.4242  0.0426
13995TIP3    H141926   6.828   1.490   6.940  0.1395  1.3387 -1.5719
13995TIP3    H241927   6.863   1.443   6.800  0.2956 -3.7767  0.0957
13996TIP3   OH241928   8.635   2.450   6.688  0.2044  0.2981  0.1817
13996TIP3    H141929   8.580   2.482   6.616  0.8867  2.5931  0.6664
13996TIP3    H241930   8.573   2.420   6.754 -0.4667  2.3696  0.4997
13997TIP3   OH241931   5.648   4.041   6.497 -0.4014  0.7729 -0.4983
13997TIP3    H141932   5.615   4.122   6.535  0.9514  1.3884 -0.5977
13997TIP3    H241933   5.703   4.069   6.424 -0.2707 -0.2539 -0.8033
13998TIP3   OH241934   1.483   6.037   0.135  0.3383 -0.1867  0.2222
13998TIP3    H141935   1.398   6.051   0.093  1.8315 -0.3211 -2.9810
13998TIP3    H241936   1.465   6.044   0.229 -3.3221 -0.9235 -0.3643
13999TIP3   OH241937   0.949   6.218   1.280 -0.2603  0.2035  0.1883
13999TIP3    H141938   0.919   6.186   1.365  0.7274  0.3400  0.5978
13999TIP3    H241939   0.929   6.146   1.219 -0.6213 -0.0488  0.6002
14000TIP3   OH241940   6.799   2.238   6.812  0.0642 -0.5593 -0.4123
14000TIP3    H141941   6.755   2.301   6.755 -0.0494 -1.5375 -1.4283
14000TIP3    H241942   6.884   2.222   6.770  0.2591 -0.7652  0.0536
14001TIP3   OH241943   7.903   3.457   6.783 -0.4902  0.1501  0.0307
14001TIP3    H141944   7.914   3.495   6.870 -0.1956  0.3636 -0.1006
14001TIP3    H241945   7.886   3.364   6.800 -0.4241  0.1887  0.3133
14002TIP3   OH241946   1.252   6.792   0.102 -0.2678 -0.2418 -0.3659
14002TIP3    H141947   1.257   6.696   0.097  0.2793 -0.2259 -0.1632
14002TIP3    H241948   1.334   6.818   0.143 -0.6507  0.2832  0.0685
14003TIP3   OH241949   0.860   6.442   1.662 -0.1018 -0.1496 -0.1543
14003TIP3    H141950   0.901   6.382   1.725  0.3250  1.2959  0.9830
14003TIP3    H241951   0.845   6.522   1.712 -0.1607  0.8787 -1.7798
14004TIP3   OH241952   0.413   7.742   1.640  0.1010  0.3030  0.1733
14004TIP3    H141953   0.360   7.788   1.705  0.0162  1.0705 -0.4365
14004TIP3    H241954   0.351   7.686   1.594  0.0464  0.2488  0.3109
14005TIP3   OH241955   5.371   1.421   1.509 -0.5103 -0.1730 -0.7183
14005TIP3    H141956   5.347   1.504   1.549 -0.7411 -0.8814  0.6349
14005TIP3    H241957   5.355   1.434   1.415 -2.4204  0.6743 -0.3071
14006TIP3   OH241958   8.423   6.270   1.061 -0.2343  0.2339  0.1728
14006TIP3    H141959   8.452   6.344   1.007 -2.2759 -0.0312 -1.3337
14006TIP3    H241960   8.333   6.254   1.033 -1.1799 -0.2387  3.3083
14007TIP3   OH241961   8.503   2.636   7.041 -0.6303  0.4077 -0.0182
14007TIP3    H141962   8.440   2.589   6.986 -0.1613 -0.2345 -0.0074
14007TIP3    H241963   8.572   2.665   6.981  1.0935 -2.3360  0.5664
14008TIP3   OH241964   2.715   6.294   0.378 -0.4515  0.9483  0.9964
14008TIP3    H141965   2.777   6.323   0.445 -0.9778  1.2828  1.3425
14008TIP3    H241966   2.768   6.285   0.298  0.4193 -0.6366  1.7340
14009TIP3   OH241967   1.717   4.429   0.154 -0.2864 -0.5083 -0.5439
14009TIP3    H141968   1.805   4.452   0.124 -0.1328 -0.8266 -0.3436
14009TIP3    H241969   1.696   4.497   0.219  0.5706 -1.4781  0.7861
14010TIP3   OH241970   1.101   7.622   0.473  0.4189  0.0305 -0.2346
14010TIP3    H141971   1.016   7.659   0.448  0.5361 -0.5120 -1.4363
14010TIP3    H241972   1.146   7.606   0.391  1.0484 -1.2034  0.3323
14011TIP3   OH241973   6.618   4.854   5.845 -0.0174 -0.0272 -0.2627
14011TIP3    H141974   6.612   4.826   5.754  0.0449 -0.1581 -0.2267
14011TIP3    H241975   6.695   4.808   5.879 -0.2591 -0.2713 -0.0403
14012TIP3   OH241976   0.256   3.537   6.170  0.5443 -0.3344  0.3573
14012TIP3    H141977   0.284   3.495   6.251  1.0808 -1.5603 -0.4588
14012TIP3    H241978   0.254   3.630   6.192  1.8098 -0.5449  1.4470
14013TIP3   OH241979   3.718   6.580   0.644 -0.2669  0.3668 -0.4555
14013TIP3    H141980   3.753   6.669   0.649 -3.6230  1.6787  1.0933
14013TIP3    H241981   3.673   6.577   0.559 -3.0714  1.3668  0.9234
14014TIP3   OH241982   7.116   0.607   6.797 -0.3609  0.1235  0.0275
14014TIP3    H141983   7.051   0.537   6.800  0.9653 -1.1299  0.1877
14014TIP3    H241984   7.195   0.568   6.835 -0.1631  2.3439  1.9843
14015TIP3   OH241985   7.961   3.535   5.997  0.3371 -0.2127 -0.7064
14015TIP3    H141986   7.872   3.520   6.029  0.7789 -1.0821  0.1633
14015TIP3    H241987   8.001   3.448   5.996  1.6465  0.3517  0.3603
14016TIP3   OH241988   4.245   0.589   2.029  0.0610 -0.7317  0.4267
14016TIP3    H141989   4.323   0.644   2.027 -0.3820 -0.1084 -1.6258
14016TIP3    H241990   4.270   0.510   1.980 -0.1063 -1.2213  1.1275
14017TIP3   OH241991   3.789   6.002   1.728 -0.5026 -0.2337 -0.1891
14017TIP3    H141992   3.729   6.076   1.733  0.0603  0.2551 -0.5644
14017TIP3    H241993   3.841   6.019   1.649  1.1324  0.1124  0.9402
14018TIP3   OH241994   7.978   4.990   2.883  0.6937 -0.1592 -0.2127
14018TIP3    H141995   7.927   5.007   2.804  0.3534 -2.1416 -0.4557
14018TIP3    H241996   8.052   5.051   2.878 -1.3550  2.4227 -0.0801
14019TIP3   OH241997   7.934   3.514   6.511 -0.2299 -0.1248 -0.5569
14019TIP3    H141998   7.920   3.483   6.600  0.3735 -1.0730 -0.7793
14019TIP3    H241999   8.027   3.539   6.509 -0.2769  0.0238 -0.8829
14020TIP3   OH242000   3.845   0.567   2.609 -0.2956  0.3457 -0.7094
14020TIP3    H142001   3.910   0.574   2.679 -0.2624 -0.8370 -0.6033
14020TIP3    H242002   3.860   0.480   2.571 -0.4577  0.8843 -2.0394
14021TIP3   OH242003   7.499   3.129   6.012  0.1157 -0.1213 -0.7308
14021TIP3    H142004   7.556   3.118   5.936  1.6377 -3.0302  0.7442
14021TIP3    H242005   7.557   3.164   6.080 -1.0987  1.8798 -0.6754
14022TIP3   OH242006   7.762   1.125   6.430  0.3436 -0.0707 -0.0336
14022TIP3    H142007   7.801   1.060   6.489 -0.1656 -0.2576  0.0955
14022TIP3    H242008   7.706   1.178   6.487  0.3275  0.1347 -0.2406
14023TIP3   OH242009   8.256   4.121   5.315 -0.0718 -0.0234  0.1795
14023TIP3    H142010   8.180   4.065   5.330 -0.6150  0.4766 -0.6537
14023TIP3    H242011   8.331   4.062   5.321 -0.6631 -0.9247 -1.0559
14024TIP3   OH242012   2.167   7.183   3.013 -0.2300  0.0838 -0.0192
14024TIP3    H142013   2.119   7.107   2.981  1.4893 -2.1078  2.4047
14024TIP3    H242014   2.258   7.155   3.015  0.5825  2.5702 -0.0241
14025TIP3   OH242015   3.933   1.287   1.106 -0.0705  0.1485 -0.3293
14025TIP3    H142016   3.945   1.221   1.037 -2.0252 -0.2111 -0.3572
14025TIP3    H242017   3.849   1.327   1.085  0.5557  1.8393  0.3761
14026TIP3   OH242018   2.136   8.016   2.471 -0.1768  0.5341 -0.0116
14026TIP3    H142019   2.175   8.002   2.385 -0.7843 -1.0898 -0.0426
14026TIP3    H242020   2.053   8.060   2.453  0.2337  1.2408 -0.1689
14027TIP3   OH242021   7.713   1.182   5.713  0.3111 -0.5154  0.2181
14027TIP3    H142022   7.732   1.088   5.718  0.1736 -0.4840  1.3147
14027TIP3    H242023   7.679   1.205   5.799 -1.8293  0.0655 -0.7464
14028TIP3   OH242024   7.225   2.635   5.862 -0.0487 -0.0797 -0.4622
14028TIP3    H142025   7.178   2.614   5.942  1.7137 -1.6315  0.1903
14028TIP3    H242026   7.287   2.704   5.888  1.5340 -1.6049 -0.1283
14029TIP3   OH242027   7.673   1.312   5.971  0.2854  0.3122  0.1089
14029TIP3    H142028   7.682   1.298   6.066 -0.9739  0.9194  0.3308
14029TIP3    H242029   7.696   1.404   5.958  0.0210  0.3467 -0.1100
14030TIP3   OH242030   6.919   3.511   5.326 -0.2030  0.2528 -0.0407
14030TIP3    H142031   6.916   3.436   5.385 -0.6414 -0.0762 -0.4781
14030TIP3    H242032   7.000   3.557   5.350 -1.1488  1.0084  1.8864
14031TIP3   OH242033   1.341   5.514   0.824  0.4732 -0.1191 -0.2525
14031TIP3    H142034   1.261   5.486   0.869  0.7712  1.0815  1.0535
14031TIP3    H242035   1.394   5.555   0.892  1.0906  1.4273 -1.6292
14032TIP3   OH242036   0.658   4.715   1.858  0.4685  0.6586  0.6659
14032TIP3    H142037   0.694   4.786   1.911  0.1810  1.2289  0.0977
14032TIP3    H242038   0.564   4.714   1.879  0.3708  0.8216  0.2515
14033TIP3   OH242039   6.655   3.720   5.961  1.0448  0.1042  0.4172
14033TIP3    H142040   6.620   3.743   5.875  0.9950 -0.2917  0.3290
14033TIP3    H242041   6.708   3.642   5.945  0.6141 -0.2749  0.8339
14034TIP3   OH242042   7.098   2.652   6.864 -0.1460  0.0467 -0.0094
14034TIP3    H142043   7.016   2.667   6.913  0.0859  1.6133 -0.0582
14034TIP3    H242044   7.104   2.557   6.855 -1.4337 -0.1359  0.9080
14035TIP3   OH242045   7.773   3.174   5.268 -0.2855  0.3254  0.2249
14035TIP3    H142046   7.789   3.090   5.311 -0.5660  0.5046  0.6859
14035TIP3    H242047   7.858   3.198   5.230 -0.2290 -0.2110  0.0099
14036TIP3   OH242048   1.033   6.978   2.894 -0.2238  0.1602 -0.4072
14036TIP3    H142049   0.995   6.949   2.977  1.5633  0.7189  0.6394
14036TIP3    H242050   1.126   6.989   2.913 -0.0669  1.9628 -2.0297
14037TIP3   OH242051   6.525   3.914   6.752  0.0303  0.1148  0.2095
14037TIP3    H142052   6.461   3.937   6.686  0.0528  0.4131  0.2926
14037TIP3    H242053   6.563   3.831   6.721  1.0061  0.9449 -0.8385
14038TIP3   OH242054   2.088   6.676   0.946 -0.4091 -0.3284  0.7390
14038TIP3    H142055   2.096   6.592   0.992 -0.3172 -0.7150  0.0294
14038TIP3    H242056   2.151   6.669   0.874 -0.0908  0.5217  0.9324
14039TIP3   OH242057   1.737   7.814   2.268 -0.0725  0.0415 -0.0981
14039TIP3    H142058   1.690   7.878   2.323  0.3863  1.1960 -1.0188
14039TIP3    H242059   1.820   7.801   2.313 -0.3633 -0.2832  0.3505
14040TIP3   OH242060   2.093   4.375   0.888  0.5472 -0.1877  0.2585
14040TIP3    H142061   2.153   4.448   0.902 -0.0522  0.5465 -0.9523
14040TIP3    H242062   2.086   4.367   0.793  1.4211 -2.5165  0.3714
14041TIP3   OH242063   7.999   1.450   6.106  0.4898  0.2559  0.0328
14041TIP3    H142064   8.022   1.370   6.060  1.4275  0.3452  0.3215
14041TIP3    H242065   7.915   1.431   6.149  1.5644 -1.1965  1.5598
14042TIP3   OH242066   0.496   7.129   0.433 -0.0348  0.4062  0.2147
14042TIP3    H142067   0.446   7.104   0.511  2.3627 -0.2666  1.5881
14042TIP3    H242068   0.546   7.206   0.461 -0.6666  1.3857 -1.2957
14043TIP3   OH242069   4.010   6.924   1.019  0.2476  0.3543 -0.1298
14043TIP3    H142070   3.947   6.853   1.027 -0.8508  1.5650  2.3865
14043TIP3    H242071   3.958   6.999   0.989  0.7355  1.0187  0.6705
14044TIP3   OH242072   7.170   3.584   5.407  0.4448 -0.1715  0.3461
14044TIP3    H142073   7.248   3.627   5.443  0.2052  0.5936 -0.0277
14044TIP3    H242074   7.204   3.505   5.365  0.8817 -0.4198  1.1543
14045TIP3   OH242075   7.960   3.830   6.402  0.1645 -0.0071 -0.2755
14045TIP3    H142076   8.044   3.799   6.435 -0.7367 -0.8654  1.3058
14045TIP3    H242077   7.945   3.779   6.322  1.4343  0.6298 -0.9309
14046TIP3   OH242078   6.428   1.839   6.188  0.5950  0.3145  0.0585
14046TIP3    H142079   6.485   1.901   6.236 -0.4062  0.9148  0.4841
14046TIP3    H242080   6.341   1.878   6.193  0.2182 -0.3864 -0.9769
14047TIP3   OH242081   2.342   4.943   0.464 -0.2941 -0.2062  0.5890
14047TIP3    H142082   2.399   4.913   0.394  0.1516 -1.7756  1.5813
14047TIP3    H242083   2.337   5.038   0.453  1.3038 -0.2265 -0.3949
14048TIP3   OH242084   7.754   2.227   6.640 -0.3295  0.7874 -0.0317
14048TIP3    H142085   7.769   2.165   6.711  0.5024 -0.3815 -1.1995
14048TIP3    H242086   7.730   2.308   6.683 -0.0992  0.0167  1.5690
14049TIP3   OH242087   7.379   2.473   6.184 -0.3650 -0.4997 -0.4203
14049TIP3    H142088   7.352   2.388   6.219 -0.2699 -1.0657 -1.6778
14049TIP3    H242089   7.472   2.462   6.163  0.1281  0.5260  1.1974
14050TIP3   OH242090   4.855   1.841   6.723  0.0690 -0.3486 -0.0638
14050TIP3    H142091   4.899   1.757   6.738  0.5578  0.0097  0.4711
14050TIP3    H242092   4.800   1.824   6.646 -1.3286 -1.7326  1.1819
14051TIP3   OH242093   6.419   2.848   6.009 -0.4592 -0.3392  0.4568
14051TIP3    H142094   6.440   2.924   6.063  1.7172 -0.5219 -0.0673
14051TIP3    H242095   6.349   2.878   5.951  0.7794  1.4721 -0.1510
14052TIP3   OH242096   1.674   6.526   1.547 -0.1069  0.1013 -0.1667
14052TIP3    H142097   1.627   6.471   1.486 -0.4950  0.6597 -0.3798
14052TIP3    H242098   1.754   6.551   1.501 -0.3136  0.3727 -0.3840
14053TIP3   OH242099   7.996   1.245   5.883  0.2584  0.0742 -0.7875
14053TIP3    H142100   8.077   1.208   5.850 -0.6395 -0.5549 -2.3112
14053TIP3    H242101   7.929   1.179   5.862 -0.5293  0.1972  1.1892
14054TIP3   OH242102   8.115   4.555   5.124  0.3503  0.4018 -0.1492
14054TIP3    H142103   8.188   4.510   5.166 -0.4988 -0.0353  0.9028
14054TIP3    H242104   8.134   4.552   5.031  1.9226  0.7324  0.1459
14055TIP3   OH242105   1.118   5.885   1.701  0.0087 -0.5701  0.0871
14055TIP3    H142106   1.211   5.867   1.713  0.0122 -1.9572 -1.7148
14055TIP3    H242107   1.074   5.826   1.761  0.2422 -1.5502 -0.6894
14056TIP3   OH242108   2.948   4.948   0.122  0.5414 -0.3431 -0.1882
14056TIP3    H142109   3.000   4.982   0.049  0.2919 -1.2818 -0.8116
14056TIP3    H242110   2.945   5.020   0.185  1.6902  0.0911 -0.6142
14057TIP3   OH242111   2.228   7.102   0.501 -0.4267 -0.0912  0.5564
14057TIP3    H142112   2.229   7.187   0.545 -0.4922 -0.2562  0.8725
14057TIP3    H242113   2.162   7.111   0.432 -2.5044 -0.8081  2.4044
14058TIP3   OH242114   7.085   2.326   6.326  0.3911 -0.1313  0.0929
14058TIP3    H142115   7.059   2.269   6.253 -1.0470  0.3227  0.2489
14058TIP3    H242116   7.099   2.411   6.286 -0.8344  0.2243  0.4227
14059TIP3   OH242117   5.422   4.150   6.864  0.0111 -0.5234  0.1086
14059TIP3    H142118   5.416   4.218   6.931 -0.4976 -1.6631  1.2394
14059TIP3    H242119   5.498   4.099   6.889  0.6503 -0.1088 -0.9916
14060TIP3   OH242120   2.682   7.423   0.763 -0.2935  0.1162 -0.2739
14060TIP3    H142121   2.680   7.493   0.699 -1.4052  1.6916  1.4212
14060TIP3    H242122   2.690   7.468   0.848 -2.0916 -1.7370  0.9244
14061TIP3   OH242123   0.104   1.748   6.295 -0.0623 -0.0280  0.3340
14061TIP3    H142124   0.066   1.664   6.323  0.0696 -0.2534 -0.1546
14061TIP3    H242125   0.140   1.786   6.375  1.1128 -1.0780  0.3238
14062TIP3   OH242126   6.715   3.443   6.585 -0.4556  0.2646 -0.3345
14062TIP3    H142127   6.666   3.415   6.507 -0.2362 -0.3026 -0.2739
14062TIP3    H242128   6.804   3.457   6.554 -0.2142 -0.6214 -0.0567
14063TIP3   OH242129   6.897   1.978   5.442  0.5618 -0.0015 -0.3299
14063TIP3    H142130   6.898   2.009   5.352  1.3134  0.1436 -0.2743
14063TIP3    H242131   6.896   2.058   5.495  2.9281 -0.0262 -0.1796
14064TIP3   OH242132   1.850   5.537   0.319 -0.4522 -0.3239 -0.0946
14064TIP3    H142133   1.930   5.500   0.357  0.9992  2.3437 -0.4192
14064TIP3    H242134   1.821   5.472   0.256  0.9072 -1.7821  0.7462
14065TIP3   OH242135   8.019   1.849   6.574  0.4124  0.4123  0.8230
14065TIP3    H142136   7.937   1.833   6.527  0.2957  2.7014  0.2200
14065TIP3    H242137   8.000   1.824   6.664 -0.0255 -1.9117  0.1239
14066TIP3   OH242138   5.592   0.079   0.670 -0.0564 -0.2334  0.4430
14066TIP3    H142139   5.514   0.034   0.638 -1.0300  0.8783  1.2291
14066TIP3    H242140   5.595   0.060   0.763  0.3525  0.1125  0.5022
14067TIP3   OH242141   0.095   4.144   6.951 -0.7532 -0.0641 -0.3320
14067TIP3    H142142   0.098   4.216   6.888 -0.2943  1.1519  1.0719
14067TIP3    H242143   0.004   4.113   6.947 -0.7761  0.1228 -1.4426
14068TIP3   OH242144   7.105   1.310   6.425  0.7406 -0.1783 -0.4626
14068TIP3    H142145   7.175   1.268   6.375  1.2556  0.4462 -0.2747
14068TIP3    H242146   7.145   1.331   6.509  0.5484  0.8504 -0.6181
14069TIP3   OH242147   2.499   6.507   1.069  0.3009  0.2904 -0.0247
14069TIP3    H142148   2.539   6.573   1.013 -0.6160  0.3026 -0.6658
14069TIP3    H242149   2.533   6.526   1.157  1.1456  0.7312 -0.4509
14070TIP3   OH242150   7.292   3.730   6.807  0.2448  0.6128 -0.4673
14070TIP3    H142151   7.359   3.667   6.780  0.5378  0.8716 -0.3469
14070TIP3    H242152   7.336   3.815   6.804  0.0093  0.7495 -0.0889
14071TIP3   OH242153   7.199   5.754   6.719  0.6872 -0.1824 -0.2138
14071TIP3    H142154   7.138   5.788   6.654  1.5821  0.8410 -0.5424
14071TIP3    H242155   7.186   5.809   6.796  1.5701  0.3976 -0.4722
14072TIP3   OH242156   8.252   3.174   3.910 -0.9389  0.4120  0.4858
14072TIP3    H142157   8.287   3.256   3.876  0.4520  0.7210  2.5796
14072TIP3    H242158   8.299   3.160   3.992 -1.7025 -2.0930  0.5353
14073TIP3   OH242159   1.309   4.917   0.239  0.2287  0.0418  0.2717
14073TIP3    H142160   1.283   4.988   0.298  0.9012  0.6601 -0.1571
14073TIP3    H242161   1.259   4.841   0.268 -0.0687  0.5537  1.1062
14074TIP3   OH242162   6.151   4.305   6.226 -0.3969  0.3564 -0.0414
14074TIP3    H142163   6.099   4.225   6.230 -0.6530  0.4724 -0.8915
14074TIP3    H242164   6.213   4.297   6.298  0.8720 -1.5200 -1.2873
14075TIP3   OH242165   0.385   7.376   1.753  0.1356  0.8049  0.3083
14075TIP3    H142166   0.433   7.437   1.809 -0.5920  0.4895  1.2945
14075TIP3    H242167   0.388   7.293   1.800 -2.2087  1.0142  0.8643
14076TIP3   OH242168   0.386   7.639   0.460  0.1518 -0.4673 -0.0176
14076TIP3    H142169   0.399   7.733   0.444 -0.3609 -0.7061 -1.9374
14076TIP3    H242170   0.359   7.634   0.552 -0.7052  1.3433 -0.1532
14077TIP3   OH242171   7.159   2.370   6.918  0.2800  0.1257 -0.2928
14077TIP3    H142172   7.222   2.441   6.929 -0.2185  0.4190  0.7311
14077TIP3    H242173   7.099   2.380   6.991 -0.2786 -0.8592 -0.6099
14078TIP3   OH242174   7.436   3.156   6.571  0.9200  0.3265  0.5518
14078TIP3    H142175   7.497   3.194   6.634  0.0186  1.9572  0.4655
14078TIP3    H242176   7.421   3.225   6.507  0.4960 -0.7240 -0.5131
14079TIP3   OH242177   1.863   4.215   0.899  0.4883  0.4420 -0.0667
14079TIP3    H142178   1.872   4.182   0.988 -0.3842  1.7663  0.5154
14079TIP3    H242179   1.944   4.264   0.883  1.7866 -1.9004 -0.9305
14080TIP3   OH242180   0.169   7.265   1.313  0.7207 -0.2217 -0.5434
14080TIP3    H142181   0.191   7.188   1.261  2.1962 -0.2675  0.1137
14080TIP3    H242182   0.219   7.336   1.271 -1.1497  0.5217 -1.5552
14081TIP3   OH242183   6.701   3.199   5.172  0.1065 -0.3468 -0.8681
14081TIP3    H142184   6.688   3.197   5.266 -1.8950 -1.7354 -1.1492
14081TIP3    H242185   6.622   3.159   5.135  0.4476  0.9749 -3.1759
14082TIP3   OH242186   1.108   5.934   1.224  0.0458  0.2238  0.4936
14082TIP3    H142187   1.105   5.838   1.230  0.9661  0.2945  2.5871
14082TIP3    H242188   1.179   5.959   1.284  2.2974  1.9977 -2.7513
14083TIP3   OH242189   2.030   6.880   1.546 -0.0771  0.0089 -0.1147
14083TIP3    H142190   2.105   6.892   1.488  0.6628  1.4699  1.0800
14083TIP3    H242191   2.061   6.912   1.632 -1.6617 -0.5248  0.6769
14084TIP3   OH242192   0.798   6.038   0.203 -0.3359 -0.2995  0.0048
14084TIP3    H142193   0.839   6.050   0.117  0.3205 -0.1972  0.3253
14084TIP3    H242194   0.709   6.071   0.193  0.1373  0.8927 -0.2857
14085TIP3   OH242195   1.990   6.943   0.735 -0.0582 -0.1368 -0.2594
14085TIP3    H142196   1.931   6.895   0.678  0.0065 -0.6032  0.0584
14085TIP3    H242197   1.952   7.030   0.742 -0.5017 -0.3225 -0.3637
14086TIP3   OH242198   8.370   6.146   0.761  0.0289  0.3850 -0.0007
14086TIP3    H142199   8.308   6.212   0.730 -0.0708 -0.5208 -1.7597
14086TIP3    H242200   8.315   6.075   0.793  0.1296 -0.3566 -1.4248
14087TIP3   OH242201   0.605   7.959   0.818  0.0721  0.3902 -0.1250
14087TIP3    H142202   0.569   8.047   0.822 -1.5165 -0.2931  1.0497
14087TIP3    H242203   0.664   7.961   0.743  0.3223  2.5388  0.0970
14088TIP3   OH242204   1.727   7.664   0.810 -0.3387 -0.5072  0.6434
14088TIP3    H142205   1.640   7.650   0.847 -1.0160  1.2515 -0.2389
14088TIP3    H242206   1.738   7.759   0.809  0.8154 -0.6391 -1.0309
14089TIP3   OH242207   0.855   5.062   1.273  0.4121 -0.2935  0.3480
14089TIP3    H142208   0.797   5.037   1.345  1.3970 -3.3223  0.1576
14089TIP3    H242209   0.816   5.020   1.196  1.3773 -0.1250 -0.2369
14090TIP3   OH242210   0.750   7.444   0.219  0.3545 -0.2638 -0.0103
14090TIP3    H142211   0.704   7.364   0.244  1.9581 -1.7902 -1.8447
14090TIP3    H242212   0.823   7.450   0.280  0.0992 -0.0557  0.2780
14091TIP3   OH242213   2.366   1.251   1.446 -0.0471 -0.5244 -0.0183
14091TIP3    H142214   2.380   1.207   1.530 -1.2134 -0.0161  0.4387
14091TIP3    H242215   2.443   1.308   1.436  0.5886 -1.3197  0.2231
14092TIP3   OH242216   4.666   0.195   0.590 -0.4075 -0.1924  0.5832
14092TIP3    H142217   4.712   0.239   0.518 -1.9956 -1.4923 -1.3108
14092TIP3    H242218   4.693   0.242   0.669  3.4550 -0.4144 -0.5237
14093TIP3   OH242219   4.515   0.931   1.197  0.2174  0.2439  0.0881
14093TIP3    H142220   4.455   0.978   1.139  0.5630  1.1023  0.4021
14093TIP3    H242221   4.466   0.855   1.227 -0.1432  0.0758 -0.9196
14094TIP3   OH242222   3.553   1.569   2.801  0.3237  0.2417  0.0269
14094TIP3    H142223   3.513   1.592   2.717 -1.0365 -1.6660  0.1231
14094TIP3    H242224   3.498   1.611   2.866  1.7920  2.3251 -0.0145
14095TIP3   OH242225   2.781   2.682   2.769 -0.3021  0.6090 -0.0407
14095TIP3    H142226   2.707   2.736   2.799 -0.0150  0.5347  0.7968
14095TIP3    H242227   2.756   2.656   2.680 -1.3268  0.5233  0.2625
14096TIP3   OH242228   0.104   2.545   4.526 -0.3979  0.0684  0.6920
14096TIP3    H142229   0.130   2.581   4.611 -1.1485  0.7798  0.6301
14096TIP3    H242230   0.172   2.575   4.466 -0.4326  0.4665  0.8464
14097TIP3   OH242231   6.586   1.335   2.048  0.1395  0.4903 -0.2495
14097TIP3    H142232   6.522   1.309   2.114  0.5849 -2.3920 -0.8874
14097TIP3    H242233   6.667   1.350   2.096 -0.0334  0.3156  0.0958
14098TIP3   OH242234   8.367   4.037   6.571 -0.0157  0.8944  0.2241
14098TIP3    H142235   8.297   4.069   6.514 -1.3084  0.4094  1.5036
14098TIP3    H242236   8.440   4.019   6.512 -0.6112  2.4107 -1.0067
14099TIP3   OH242237   2.339   7.798   0.294  0.1374  0.1211  0.2803
14099TIP3    H142238   2.283   7.868   0.326 -0.0017  0.7847 -1.4000
14099TIP3    H242239   2.283   7.745   0.238  0.5070 -0.7579  0.7252
14100TIP3   OH242240   6.955   2.561   6.562  0.1450 -0.2471 -0.6625
14100TIP3    H142241   6.889   2.598   6.503  1.2383  0.9690 -1.1301
14100TIP3    H242242   6.939   2.466   6.558 -1.4423  0.0096 -0.9178
14101TIP3   OH242243   1.031   6.415   0.047 -0.3600  0.1585  0.5215
14101TIP3    H142244   0.940   6.445   0.045 -0.4901 -0.2869 -1.2205
14101TIP3    H242245   1.044   6.373  -0.038  1.2657 -0.4166  1.0378
14102TIP3   OH242246   4.443   0.238   2.513  0.2927 -0.3310 -0.3478
14102TIP3    H142247   4.357   0.279   2.503  0.6859  0.1109 -1.9390
14102TIP3    H242248   4.506   0.308   2.496  0.9644 -1.2124 -1.5830
14103TIP3   OH242249   7.023   0.184   5.777 -0.0364  0.2464  0.1700
14103TIP3    H142250   7.119   0.184   5.785 -0.0029 -1.0387 -0.2023
14103TIP3    H242251   7.006   0.175   5.684 -0.5305 -0.1682  0.2979
14104TIP3   OH242252   7.087   4.793   6.153  0.2702 -0.0090  0.4574
14104TIP3    H142253   7.180   4.789   6.175  0.7728 -0.2341 -1.5674
14104TIP3    H242254   7.064   4.886   6.158  1.3877  0.4383 -1.9751
14105TIP3   OH242255   4.023   0.414   1.307  0.0377  0.1343 -0.3183
14105TIP3    H142256   3.980   0.496   1.331 -1.3852 -0.3883 -1.0278
14105TIP3    H242257   4.064   0.432   1.222  0.6914  0.4481  0.0637
14106TIP3   OH242258   4.600   1.031   0.332 -0.3539 -0.0166 -0.4298
14106TIP3    H142259   4.641   1.007   0.249  0.5718  1.0989 -0.3057
14106TIP3    H242260   4.580   1.124   0.323  2.3694  0.8229  1.6421
14107TIP3   OH242261   6.917   2.886   6.903  0.3527 -0.1799  0.2464
14107TIP3    H142262   6.953   2.859   6.987  1.0161 -0.8099 -0.2237
14107TIP3    H242263   6.841   2.940   6.924  0.4103 -0.4886  1.2394
14108TIP3   OH242264   3.398   0.116   0.113 -0.0971 -0.6038  0.2555
14108TIP3    H142265   3.443   0.145   0.034 -0.6562 -0.1412  0.1043
14108TIP3    H242266   3.305   0.112   0.088 -0.2427 -0.7487  0.8019
14109TIP3   OH242267   1.086   0.429   0.076 -0.0084  0.1280  0.1720
14109TIP3    H142268   1.096   0.524   0.073 -0.6884  0.2457  1.4001
14109TIP3    H242269   1.062   0.410   0.167  0.9872 -1.3065  0.1518
14110TIP3   OH242270   8.232   0.537   0.614 -1.2945  0.3101 -0.3181
14110TIP3    H142271   8.199   0.595   0.546  1.3176  1.1238 -0.9346
14110TIP3    H242272   8.165   0.540   0.683 -2.7238  1.4901 -1.7296
14111TIP3   OH242273   7.463   3.950   6.633 -0.8899  0.5522  0.5253
14111TIP3    H142274   7.449   4.018   6.568 -2.3421 -0.6358 -0.4356
14111TIP3    H242275   7.547   3.910   6.609 -1.4238  0.1144 -0.6209
14112TIP3   OH242276   5.879   3.842   6.310  0.9902 -0.3518 -0.2377
14112TIP3    H142277   5.829   3.818   6.388  0.7122  0.3199 -0.1998
14112TIP3    H242278   5.953   3.781   6.308  0.9960 -0.3742  0.5514
14113TIP3   OH242279   0.733   3.975   6.991  0.2347 -0.2619  0.3200
14113TIP3    H142280   0.643   3.956   6.963 -0.5425  0.3327  2.3396
14113TIP3    H242281   0.773   3.888   7.000  0.5414 -0.4684 -2.6383
14114TIP3   OH242282   5.471   1.211   2.317 -0.0196  0.1524 -0.2604
14114TIP3    H142283   5.482   1.133   2.261  0.6718  0.3563 -0.4256
14114TIP3    H242284   5.386   1.246   2.293  0.5121  0.5534 -1.6077
14115TIP3   OH242285   6.593   2.676   4.416 -0.6138 -0.8211 -0.4406
14115TIP3    H142286   6.568   2.725   4.338  0.3715  0.4838  0.0483
14115TIP3    H242287   6.641   2.738   4.470  1.0534 -2.4338  0.0076
14116TIP3   OH242288   1.362   6.706   0.831 -0.1859  0.0740 -0.3631
14116TIP3    H142289   1.314   6.657   0.898  1.3767 -0.4224  0.4217
14116TIP3    H242290   1.309   6.785   0.817 -0.5070  0.2421  1.5377
14117TIP3   OH242291   0.222   3.244   5.948  0.3376 -0.2070 -0.3435
14117TIP3    H142292   0.300   3.191   5.937  0.2730 -0.3141 -0.2809
14117TIP3    H242293   0.211   3.252   6.043 -0.0505 -0.6659 -0.3464
14118TIP3   OH242294   7.163   7.254   0.641  0.2155 -0.2857 -0.0695
14118TIP3    H142295   7.192   7.257   0.550 -1.6125 -2.2277 -0.7707
14118TIP3    H242296   7.072   7.283   0.638  0.0394 -0.6915  1.0851
14119TIP3   OH242297   7.672   2.734   6.328 -0.2473 -0.2401  0.5323
14119TIP3    H142298   7.722   2.736   6.410 -0.1157  1.2248  0.4341
14119TIP3    H242299   7.581   2.748   6.356 -0.3130 -0.6178  0.5076
14120TIP3   OH242300   8.008   2.472   6.483 -0.3433 -0.0680  0.4834
14120TIP3    H142301   7.919   2.447   6.459 -0.4646  0.5931  0.2332
14120TIP3    H242302   8.006   2.480   6.578 -0.3339 -0.8978  0.5489
14121TIP3   OH242303   2.402   6.836   0.299  0.2725  0.1976 -0.2625
14121TIP3    H142304   2.490   6.810   0.272  0.2856  0.8198 -0.8242
14121TIP3    H242305   2.380   6.909   0.242 -0.9437 -0.4872 -0.6993
14122TIP3   OH242306   6.137   0.183   5.827 -0.6620 -0.2262 -0.6540
14122TIP3    H142307   6.216   0.175   5.774 -0.9092 -1.6251 -0.8199
14122TIP3    H242308   6.098   0.096   5.826 -0.6824 -0.2655  1.8253
14123TIP3   OH242309   3.318   5.304   2.289 -0.1461 -0.7570 -0.2381
14123TIP3    H142310   3.410   5.288   2.268 -0.2953 -1.1465 -0.6162
14123TIP3    H242311   3.304   5.396   2.268  0.7615 -0.0712  2.0559
14124TIP3   OH242312   1.904   0.326   3.256 -0.1112  0.6354  0.5928
14124TIP3    H142313   1.883   0.336   3.349  0.3799 -0.4645  0.8356
14124TIP3    H242314   1.958   0.246   3.253 -0.4367  0.4655 -0.6826
14125TIP3   OH242315   2.175   5.895   0.928  0.4097  0.4258 -0.1507
14125TIP3    H142316   2.164   5.810   0.970  0.2327  0.4620 -0.1250
14125TIP3    H242317   2.133   5.957   0.987  0.2644  0.4918 -0.3247
14126TIP3   OH242318   7.215   5.204   1.525 -0.0548  0.1229 -0.1385
14126TIP3    H142319   7.207   5.274   1.590  1.2929 -1.6349  1.9912
14126TIP3    H242320   7.300   5.164   1.543  0.4613 -0.2516 -3.2012
14127TIP3   OH242321   4.939   0.745   0.805 -0.3149 -0.1635  0.1721
14127TIP3    H142322   4.850   0.719   0.783  0.4161 -2.5308 -0.1253
14127TIP3    H242323   4.992   0.666   0.791  1.6778  0.9159  1.2851
14128TIP3   OH242324   4.045   0.578   2.781 -0.2799  0.6394 -0.2256
14128TIP3    H142325   4.106   0.648   2.756  0.1544  0.5330  0.5204
14128TIP3    H242326   4.099   0.500   2.787 -1.0375 -0.0677 -2.5060
14129TIP3   OH242327   6.109   3.296   6.180  0.1005  0.0023  0.0783
14129TIP3    H142328   6.027   3.294   6.131 -0.3942 -1.0041  0.9185
14129TIP3    H242329   6.085   3.264   6.267  1.5867 -1.3433  0.0104
14130TIP3   OH242330   0.540   5.948   0.749 -0.2849  0.1822 -0.6135
14130TIP3    H142331   0.557   5.864   0.793  0.0687  1.4511  1.7352
14130TIP3    H242332   0.452   5.973   0.778 -0.7777  0.1949 -2.0681
14131TIP3   OH242333   4.340   2.439   1.547  0.0309  0.1776 -0.0916
14131TIP3    H142334   4.291   2.521   1.548  1.9511  1.3827 -1.2549
14131TIP3    H242335   4.387   2.440   1.463  1.1900 -1.4350  0.5085
14132TIP3   OH242336   4.493   0.578   2.295  0.1226  0.2888 -0.7900
14132TIP3    H142337   4.583   0.606   2.308  0.2860  0.1071 -1.4962
14132TIP3    H242338   4.444   0.659   2.280  0.1493  0.3969 -0.2791
14133TIP3   OH242339   7.548   8.049   1.185 -0.1174  0.2237 -0.3697
14133TIP3    H142340   7.559   8.140   1.155  1.7761 -0.0557 -0.5782
14133TIP3    H242341   7.465   8.021   1.147  0.5296  1.0363 -2.4283
14134TIP3   OH242342   5.026   1.841   2.607  0.5235 -0.8404 -0.2019
14134TIP3    H142343   5.050   1.928   2.573 -0.1739 -1.7725 -3.2465
14134TIP3    H242344   5.099   1.815   2.662  1.1489  1.2956  0.0175
14135TIP3   OH242345   4.777   0.044   2.354 -0.4604 -0.3475 -0.1590
14135TIP3    H142346   4.719   0.025   2.280 -0.7243 -0.4153  0.0629
14135TIP3    H242347   4.813   0.131   2.335 -0.5802 -0.3341 -0.3303
14136TIP3   OH242348   3.299   1.956  -0.008 -0.0963  0.1431 -0.5141
14136TIP3    H142349   3.323   1.962   0.084  0.4066  1.6394 -0.7188
14136TIP3    H242350   3.380   1.929  -0.052 -0.1564  0.0839 -0.5874
14137TIP3   OH242351   5.052   0.512   0.381 -0.4564 -0.3853 -0.3882
14137TIP3    H142352   4.981   0.540   0.323 -1.5014 -1.4016  0.3539
14137TIP3    H242353   5.030   0.551   0.466  0.7204  0.5712 -0.5031
14138TIP3   OH242354   3.521   1.237   1.166  0.1215  0.0327  0.4176
14138TIP3    H142355   3.579   1.312   1.178  0.1191  0.2834 -1.0818
14138TIP3    H242356   3.433   1.272   1.178  0.1843 -0.0693  1.2794
14139TIP3   OH242357   2.083   0.197   0.184 -0.8555 -0.5568 -0.2777
14139TIP3    H142358   2.139   0.211   0.260  0.1445  0.9153 -1.2596
14139TIP3    H242359   1.994   0.208   0.219 -0.3766  1.0394  0.5096
14140TIP3   OH242360   2.183   6.249   1.812 -0.2261 -0.0219 -0.4266
14140TIP3    H142361   2.262   6.223   1.764 -1.7716 -1.4728 -2.2498
14140TIP3    H242362   2.149   6.168   1.848 -1.7756  0.3360 -1.0365
14141TIP3   OH242363   4.027   7.453   0.870 -0.0438  0.1023 -0.7813
14141TIP3    H142364   4.051   7.414   0.786  0.1412  0.3067 -0.8244
14141TIP3    H242365   4.110   7.483   0.907 -0.1968  0.5601 -0.8039
14142TIP3   OH242366   2.919   5.484   0.475 -0.0609  0.0615 -0.6369
14142TIP3    H142367   2.979   5.464   0.403  0.4876  0.4994 -0.3035
14142TIP3    H242368   2.836   5.507   0.432  0.9016  2.5905 -1.2348
14143TIP3   OH242369   2.278   4.607   0.155  0.1481 -0.3507  0.0407
14143TIP3    H142370   2.340   4.678   0.145  0.6526 -0.8792 -0.6262
14143TIP3    H242371   2.308   4.539   0.095 -0.2238 -1.2007  0.7906
14144TIP3   OH242372   2.897   4.692   0.170 -0.5819 -0.3554 -0.1923
14144TIP3    H142373   2.918   4.784   0.154  1.4335 -0.7161  0.2696
14144TIP3    H242374   2.822   4.695   0.229  0.6868  1.0429  1.4303
14145TIP3   OH242375   0.091   0.803   5.793 -0.1341 -0.6410  0.3688
14145TIP3    H142376   0.050   0.716   5.790  1.1985 -1.2429 -1.5613
14145TIP3    H242377   0.105   0.826   5.701  0.9184  0.9563  0.9065
14146TIP3   OH242378   2.332   3.995   6.736  0.2518  0.1400  0.1894
14146TIP3    H142379   2.406   3.953   6.693  0.7123  1.3851 -0.2717
14146TIP3    H242380   2.308   4.067   6.677 -1.6539 -0.5560  0.0692
14147TIP3   OH242381   8.272   4.873   1.102  0.0971  0.0436 -0.1277
14147TIP3    H142382   8.292   4.834   1.017 -0.5620  0.5927 -0.5432
14147TIP3    H242383   8.178   4.892   1.098  0.3948  1.5845  0.0991
14148TIP3   OH242384   0.643   1.624   5.742 -0.5407  0.0082 -0.1418
14148TIP3    H142385   0.572   1.673   5.784 -1.3503 -0.2081 -1.2520
14148TIP3    H242386   0.706   1.691   5.715 -0.5624  0.2432  0.3840
14149TIP3   OH242387   5.022   1.849   2.272 -0.2783  0.1624  0.0460
14149TIP3    H142388   5.047   1.843   2.364  1.6427 -1.5361 -0.5477
14149TIP3    H242389   4.931   1.822   2.270  0.0919 -1.2185  1.2743
14150TIP3   OH242390   8.560   4.031   6.358 -0.4191 -0.7215  0.3872
14150TIP3    H142391   8.521   4.110   6.320 -1.5648 -1.8060 -0.7549
14150TIP3    H242392   8.654   4.041   6.342 -0.4834  0.6756  0.7883
14151TIP3   OH242393   4.645   1.772   0.021 -0.3629 -0.1151 -0.0448
14151TIP3    H142394   4.649   1.676   0.014 -1.4875 -0.1513 -0.1949
14151TIP3    H242395   4.552   1.793   0.016 -0.0032  1.1389 -2.0778
14152TIP3   OH242396   3.611   0.903   2.258 -0.4709 -0.5142 -0.5188
14152TIP3    H142397   3.694   0.873   2.296  0.0878 -0.2940 -1.5272
14152TIP3    H242398   3.545   0.882   2.324  0.5260  0.2531  0.7454
14153TIP3   OH242399   8.305   7.299   0.355 -0.4959 -0.7304  0.1848
14153TIP3    H142400   8.360   7.237   0.307 -0.4008  0.1809 -0.8998
14153TIP3    H242401   8.218   7.289   0.315 -0.4135  0.0334 -0.1947
14154TIP3   OH242402   7.813   0.929   6.650  0.7803  0.1241 -0.0537
14154TIP3    H142403   7.746   0.881   6.601 -0.2888  2.4349 -0.9289
14154TIP3    H242404   7.798   0.905   6.741  0.4305 -1.4096 -0.5105
14155TIP3   OH242405   0.658   3.079   6.740  0.3367  0.1373  0.1902
14155TIP3    H142406   0.603   3.066   6.663  1.7902  1.4547 -1.1099
14155TIP3    H242407   0.604   3.132   6.799 -0.5836 -0.4325 -0.1327
14156TIP3   OH242408   7.672   1.599   6.852 -0.5003 -0.1860  0.4447
14156TIP3    H142409   7.705   1.687   6.870 -0.9204  0.4065 -1.5901
14156TIP3    H242410   7.733   1.541   6.898 -0.3218  1.1489  1.9401
14157TIP3   OH242411   0.170   3.622   6.597 -0.5661  0.7179  0.0028
14157TIP3    H142412   0.237   3.669   6.547  1.8620 -1.2154  1.3651
14157TIP3    H242413   0.163   3.672   6.678  2.7261 -1.6838  1.8699
14158TIP3   OH242414   3.543   1.091   1.396  0.5121  0.3086  0.0290
14158TIP3    H142415   3.605   1.099   1.324 -0.1725  2.0208 -0.3917
14158TIP3    H242416   3.489   1.170   1.391 -2.5892 -1.7396 -0.4361
14159TIP3   OH242417   8.213   3.444   6.976 -0.0164  0.0693  0.1384
14159TIP3    H142418   8.237   3.526   7.019  0.6888 -0.7479  1.3167
14159TIP3    H242419   8.119   3.435   6.991 -0.2772  1.1192 -0.7909
14160TIP3   OH242420   0.922   3.475   6.247 -0.4063 -0.2677  0.0951
14160TIP3    H142421   0.944   3.388   6.281 -0.2808 -1.2053 -2.2503
14160TIP3    H242422   0.954   3.536   6.313  0.3110 -1.9861  1.3622
14161TIP3   OH242423   7.578   3.410   5.908 -0.0874  0.0413  0.4379
14161TIP3    H142424   7.529   3.481   5.868  2.3077  0.8521 -1.1420
14161TIP3    H242425   7.511   3.354   5.947 -2.0762  2.5876  0.8095
14162TIP3   OH242426   7.476   2.394   0.983  0.0854  0.3087  0.3567
14162TIP3    H142427   7.466   2.299   0.978  0.7384  0.2354  0.3707
14162TIP3    H242428   7.439   2.427   0.902  0.5854 -0.0185 -0.0050
14163TIP3   OH242429   1.448   7.909   0.128 -0.2742  0.2510 -0.1507
14163TIP3    H142430   1.528   7.857   0.125  0.6632  1.6564  0.0275
14163TIP3    H242431   1.457   7.972   0.056 -0.2707  1.7387  1.1220
14164TIP3   OH242432   7.671   5.739   5.906 -0.7059 -0.4639 -0.0158
14164TIP3    H142433   7.586   5.709   5.874 -0.6008  1.8061 -2.5572
14164TIP3    H242434   7.659   5.747   6.001 -2.1724 -3.6472  0.1500
14165TIP3   OH242435   0.911   4.225   6.512  0.4989  0.3112  0.2661
14165TIP3    H142436   0.959   4.148   6.482  0.7528  0.5270  0.1123
14165TIP3    H242437   0.860   4.194   6.587 -0.5377 -0.3528 -0.6961
14166TIP3   OH242438   7.791   2.486   6.955 -0.2284 -0.7687  0.1653
14166TIP3    H142439   7.795   2.393   6.929 -2.2940 -1.1244  1.0509
14166TIP3    H242440   7.730   2.488   7.028  0.4679  1.1900  0.7204
14167TIP3   OH242441   1.930   5.689   2.305 -0.2770 -0.1243 -0.2023
14167TIP3    H142442   1.885   5.771   2.325 -0.8349 -0.5240  0.2042
14167TIP3    H242443   1.906   5.630   2.377  1.9924  0.0691  0.7565
14168TIP3   OH242444   7.528   0.770   6.970  0.0744  0.4551 -0.0249
14168TIP3    H142445   7.442   0.770   7.012  0.4094 -1.1470  0.6927
14168TIP3    H242446   7.581   0.710   7.024  0.9553 -0.4232 -1.8371
14169TIP3   OH242447   0.403   1.932   7.000 -0.0063  0.1375  0.1924
14169TIP3    H142448   0.451   1.873   6.943  0.6942 -1.6708  2.5716
14169TIP3    H242449   0.321   1.950   6.954  0.4033 -1.5045 -1.2065
14170TIP3   OH242450   8.546   3.531   5.818 -0.1403 -0.1434  0.4633
14170TIP3    H142451   8.584   3.446   5.794  0.1300  0.4653 -1.3879
14170TIP3    H242452   8.595   3.594   5.765 -0.9631  1.0705  1.1387
14171TIP3   OH242453   0.533   3.744   6.743 -0.4159  0.2932 -0.6200
14171TIP3    H142454   0.464   3.760   6.680 -0.3575 -0.9618 -1.0184
14171TIP3    H242455   0.588   3.677   6.702 -1.4096 -1.8963  1.5182
14172TIP3   OH242456   1.761   4.490   6.422  0.0126  0.8944  0.8468
14172TIP3    H142457   1.780   4.581   6.443  0.4115  0.9852  0.0927
14172TIP3    H242458   1.835   4.461   6.368  0.1482 -0.0225  1.5047
14173TIP3   OH242459   5.636   0.392   1.917  0.4153 -0.5044  0.3169
14173TIP3    H142460   5.682   0.374   1.834 -0.9211 -0.0754 -0.5246
14173TIP3    H242461   5.544   0.391   1.894  0.0222 -0.5786  1.8598
14174TIP3   OH242462   4.585   1.230   0.592  0.3327  0.2806 -0.1881
14174TIP3    H142463   4.551   1.240   0.503  0.0312  1.0813  0.0135
14174TIP3    H242464   4.508   1.228   0.648  0.5272 -0.0594  0.0723
14175TIP3   OH242465   2.282   7.364   0.582 -0.4027 -0.3979  0.0400
14175TIP3    H142466   2.220   7.426   0.542  0.2070  0.0284 -0.2450
14175TIP3    H242467   2.295   7.398   0.671 -0.0076 -0.0635 -0.1416
14176TIP3   OH242468   5.164   1.397   0.833 -0.3012 -0.5715 -0.0755
14176TIP3    H142469   5.094   1.388   0.898  0.4165 -0.8611  0.6665
14176TIP3    H242470   5.231   1.334   0.861  0.6201  0.2953 -0.2946
14177TIP3   OH242471   0.499   4.162   6.740  0.4356 -0.5387  0.3718
14177TIP3    H142472   0.454   4.103   6.801 -0.4959 -1.1762 -0.9020
14177TIP3    H242473   0.471   4.250   6.766 -1.6929 -0.9296 -0.4755
14178TIP3   OH242474   3.102   7.904   0.272  0.0225  0.2476 -0.4342
14178TIP3    H142475   3.060   7.833   0.321 -0.0665  0.0893 -0.7371
14178TIP3    H242476   3.138   7.961   0.339  0.2472 -0.1763 -0.1914
14179TIP3   OH242477   6.794   0.819   0.787 -0.6286 -0.2445  0.3329
14179TIP3    H142478   6.717   0.875   0.794 -0.4443  0.0581 -0.0554
14179TIP3    H242479   6.766   0.748   0.728 -0.6926 -0.2776  0.4026
14180TIP3   OH242480   5.191   0.174   0.810  0.4670 -0.0745 -0.3069
14180TIP3    H142481   5.118   0.148   0.753 -0.7335 -1.1891  1.6373
14180TIP3    H242482   5.259   0.108   0.794 -0.2664 -0.9903  0.2722
14181TIP3   OH242483   0.826   3.122   6.032 -1.1069 -0.2874 -0.0502
14181TIP3    H142484   0.752   3.159   5.985 -1.6957 -1.2440  0.1217
14181TIP3    H242485   0.881   3.198   6.053 -1.4599  0.2914 -1.1706
14182TIP3   OH242486   0.314   4.548   6.177  0.0941 -0.3417  0.1655
14182TIP3    H142487   0.393   4.597   6.153  0.9969 -1.6061  0.5076
14182TIP3    H242488   0.248   4.577   6.113  0.9639  0.3691 -0.4278
14183TIP3   OH242489   7.591   2.593   6.571  0.4159 -0.2316 -0.4578
14183TIP3    H142490   7.651   2.668   6.578  1.6763 -1.1566 -1.1550
14183TIP3    H242491   7.623   2.544   6.495 -1.4165 -0.5841 -1.0137
14184TIP3   OH242492   8.444   3.628   6.977  0.2650  0.6034 -0.1961
14184TIP3    H142493   8.446   3.689   6.903  2.9723  0.3008 -0.3992
14184TIP3    H242494   8.444   3.541   6.936 -0.2608  0.4285  0.1568
14185TIP3   OH242495   4.767   7.870   0.619  0.1627 -0.0915 -0.0333
14185TIP3    H142496   4.746   7.788   0.573 -0.1709 -0.2965  0.4843
14185TIP3    H242497   4.757   7.938   0.552 -2.3367 -0.1578  0.2599
14186TIP3   OH242498   0.084   2.225   6.034  0.4546  0.4400 -0.5460
14186TIP3    H142499   0.053   2.154   6.091  0.1052  0.6477 -0.4767
14186TIP3    H242500   0.015   2.236   5.970 -0.6705  2.4160  0.9443
14187TIP3   OH242501   1.659   4.045   5.939 -0.0317 -0.0389  0.0170
14187TIP3    H142502   1.679   4.101   6.013 -0.5033 -1.3411  1.1556
14187TIP3    H242503   1.639   4.105   5.867  0.4676  1.2304  0.9286
14188TIP3   OH242504   8.178   3.658   5.093 -0.1315  0.7206 -0.2799
14188TIP3    H142505   8.204   3.575   5.054  0.4991  0.1858  1.2241
14188TIP3    H242506   8.236   3.668   5.169 -2.1866  1.0319  1.3186
14189TIP3   OH242507   5.847   3.950   5.847  0.0749  0.3109 -0.2991
14189TIP3    H142508   5.807   3.915   5.768 -0.2498 -2.1211  0.8920
14189TIP3    H242509   5.937   3.971   5.822 -0.3500  0.6339 -1.5749
14190TIP3   OH242510   6.970   2.106   6.134 -0.3148 -0.3200  0.3467
14190TIP3    H142511   6.940   2.183   6.085 -0.1137 -2.0531 -2.6475
14190TIP3    H242512   6.894   2.049   6.138 -0.2510 -0.3122  1.8797
14191TIP3   OH242513   8.299   3.419   5.817 -0.5032  0.3846  0.5731
14191TIP3    H142514   8.255   3.475   5.753 -0.2588  0.6989  0.6810
14191TIP3    H242515   8.381   3.463   5.835  0.8285 -1.2878 -1.2317
14192TIP3   OH242516   1.270   6.930   0.476  0.4235 -0.0460 -0.2250
14192TIP3    H142517   1.325   6.958   0.550 -1.3837 -0.4228  1.2894
14192TIP3    H242518   1.299   6.840   0.458  2.0592  0.6380 -1.1428
14193TIP3   OH242519   7.317   5.162   6.393  0.9397  0.2833  0.5597
14193TIP3    H142520   7.255   5.129   6.458  1.0603  1.7925  1.4629
14193TIP3    H242521   7.263   5.189   6.319  0.4905  1.7866  1.4234
14194TIP3   OH242522   5.432   0.247   0.132  0.3625 -0.2118  0.4971
14194TIP3    H142523   5.337   0.240   0.123  0.5190  0.0938 -1.7143
14194TIP3    H242524   5.448   0.240   0.226 -1.6730 -2.4367  0.7244
14195TIP3   OH242525   7.407   4.402   6.835 -0.2677  0.0821  0.1463
14195TIP3    H142526   7.416   4.309   6.814  1.8473  0.3495 -0.2879
14195TIP3    H242527   7.387   4.443   6.750 -1.6980 -0.0231  0.4228
14196TIP3   OH242528   6.490   3.680   4.089  0.4356  0.3967  0.1549
14196TIP3    H142529   6.535   3.597   4.104 -0.7349 -0.0955  1.0674
14196TIP3    H242530   6.397   3.656   4.083 -0.1625  1.8600  2.6070
14197TIP3   OH242531   4.861   0.125   0.175 -0.3304  0.6173 -0.3506
14197TIP3    H142532   4.797   0.054   0.171  1.8428 -1.3225 -1.1980
14197TIP3    H242533   4.895   0.122   0.264  0.6511 -0.2186 -0.7463
14198TIP3   OH242534   5.020   1.097   0.472 -0.3445 -0.6626  0.3877
14198TIP3    H142535   5.067   1.077   0.553 -0.6944  0.7477  0.9468
14198TIP3    H242536   4.970   1.176   0.492 -0.3856 -0.2635 -1.2277
14199TIP3   OH242537   7.478   2.648   4.269 -0.5021  0.8985  0.0932
14199TIP3    H142538   7.393   2.618   4.300 -0.9966  0.5516 -1.5327
14199TIP3    H242539   7.510   2.706   4.338 -1.3384 -0.2114  1.4455
14200TIP3   OH242540   0.179   1.399   1.995  0.8257  0.1661 -0.0832
14200TIP3    H142541   0.170   1.343   2.071  2.0412  0.7949  0.5319
14200TIP3    H242542   0.245   1.464   2.020 -0.1016  1.4865 -1.0052
14201TIP3   OH242543   3.891   2.025   0.638 -0.5689 -0.4860  0.1663
14201TIP3    H142544   3.836   1.999   0.713  2.8543  0.3081  3.1065
14201TIP3    H242545   3.882   2.121   0.634 -0.8311 -0.5362 -0.5591
14202TIP3   OH242546   7.332   0.680   1.602 -0.5658  0.2118 -0.2031
14202TIP3    H142547   7.307   0.695   1.693 -0.1224  1.4906 -0.2728
14202TIP3    H242548   7.266   0.727   1.551 -0.3634  0.1643 -0.5066
14203TIP3   OH242549   1.856   4.988   6.825  0.2101  0.3399 -0.1404
14203TIP3    H142550   1.799   5.016   6.754  0.9536 -0.3066 -1.0023
14203TIP3    H242551   1.838   5.050   6.896  0.4218  1.8078 -1.3503
14204TIP3   OH242552   0.061   0.476   3.216 -0.0116  0.2920  0.0329
14204TIP3    H142553   0.094   0.529   3.143  0.8587  0.7914  0.7727
14204TIP3    H242554  -0.009   0.423   3.177 -0.7405  1.8138 -0.7770
14205TIP3   OH242555   7.575   2.910   2.413 -0.2710  0.0111 -1.0984
14205TIP3    H142556   7.564   2.978   2.480 -0.6085 -2.3169  1.3149
14205TIP3    H242557   7.495   2.858   2.420  1.1145 -2.1398 -1.0946
14206TIP3   OH242558   4.626   1.699   2.668 -0.2627  0.2059  0.0500
14206TIP3    H142559   4.625   1.606   2.688  1.1245  0.3935  1.1023
14206TIP3    H242560   4.668   1.705   2.582 -1.2557 -0.2095 -0.4657
14207TIP3   OH242561   7.554   1.249   1.049 -0.4456 -0.4039 -0.4411
14207TIP3    H142562   7.573   1.178   1.109 -1.3555  0.9898  1.5633
14207TIP3    H242563   7.634   1.301   1.046 -0.4128 -0.4519 -0.3821
14208TIP3   OH242564   0.860   0.188   1.845 -0.0752  0.2355 -0.2717
14208TIP3    H142565   0.914   0.265   1.830  0.6936 -0.0695  0.8758
14208TIP3    H242566   0.797   0.215   1.912  0.8170 -0.4068  0.8464
14209TIP3   OH242567   0.508   4.243   6.473 -0.4384  0.1375  0.9482
14209TIP3    H142568   0.510   4.214   6.564 -0.2336 -1.2567  0.5086
14209TIP3    H242569   0.478   4.334   6.477  0.0168  0.2280  2.4387
14210TIP3   OH242570   5.514   6.122   1.635  0.1127  0.3451 -0.4316
14210TIP3    H142571   5.531   6.076   1.717  2.0358 -0.0876 -1.0463
14210TIP3    H242572   5.597   6.120   1.589 -0.6965  1.4306 -1.9843
14211TIP3   OH242573   6.561   0.634   2.577  0.0871 -0.4331  0.2946
14211TIP3    H142574   6.598   0.597   2.496  0.2437 -1.1243  0.6768
14211TIP3    H242575   6.493   0.694   2.547  0.0770 -0.7591 -0.3452
14212TIP3   OH242576   6.758   0.405   0.676 -0.0601  0.0444  0.0739
14212TIP3    H142577   6.821   0.477   0.672 -0.9271  0.7277 -1.4257
14212TIP3    H242578   6.770   0.358   0.593  0.3924 -1.4660  0.9726
14213TIP3   OH242579   6.391   7.419   0.270 -0.3164  0.0582  0.2631
14213TIP3    H142580   6.408   7.485   0.203 -1.3101  0.2756  0.2146
14213TIP3    H242581   6.453   7.348   0.251 -1.1248 -0.2281 -1.3803
14214TIP3   OH242582   6.358   7.753   0.644 -0.2772 -0.3227  0.6569
14214TIP3    H142583   6.434   7.785   0.595  0.4904 -1.5056  1.0565
14214TIP3    H242584   6.315   7.692   0.584 -1.3216  0.8587  0.1734
14215TIP3   OH242585   0.677   6.088   6.772 -0.1795 -0.2866  0.7211
14215TIP3    H142586   0.602   6.031   6.788 -1.0118  1.4433  3.2804
14215TIP3    H242587   0.665   6.161   6.832  1.1305  2.3605 -2.0951
14216TIP3   OH242588   6.260   0.579   0.091  0.1283 -0.3961  0.6771
14216TIP3    H142589   6.318   0.596   0.165 -0.1465 -0.0184  0.8066
14216TIP3    H242590   6.315   0.590   0.014  0.5012 -1.1282  0.8351
14217TIP3   OH242591   6.211   8.003   2.028  0.5403  0.0424 -0.5421
14217TIP3    H142592   6.156   8.049   2.091  0.2746  0.7656 -1.3008
14217TIP3    H242593   6.286   7.972   2.080 -0.6399 -1.0943  0.5283
14218TIP3   OH242594   0.054   6.361   6.934  0.2624 -0.0081 -0.5644
14218TIP3    H142595   0.050   6.370   6.839  1.7529  1.2275 -0.5286
14218TIP3    H242596   0.110   6.284   6.948 -0.2339 -0.3943 -0.6853
14219TIP3   OH242597   7.349   0.507   0.267  0.3650 -0.2944 -0.2631
14219TIP3    H142598   7.441   0.481   0.262  0.9772  1.5216  1.0365
14219TIP3    H242599   7.324   0.487   0.357 -0.5026 -0.7038 -0.5922
14220TIP3   OH242600   7.071   1.232   0.873  0.0001 -0.1945 -0.3458
14220TIP3    H142601   7.092   1.253   0.963  1.9299  1.1393 -1.0678
14220TIP3    H242602   6.975   1.236   0.868 -0.1355 -0.5136  1.6600
14221TIP3   OH242603   5.669   0.944   1.930  0.0154 -0.2773  0.5908
14221TIP3    H142604   5.700   0.860   1.898  2.3997  0.0448  2.0109
14221TIP3    H242605   5.724   1.009   1.886 -1.4801  0.5585 -0.1224
14222TIP3   OH242606   3.541   0.994   0.733 -0.2520 -0.5087 -0.1314
14222TIP3    H142607   3.516   0.975   0.643  0.3397 -0.4187 -0.3133
14222TIP3    H242608   3.605   0.927   0.755 -0.9332 -0.9740  0.4687
14223TIP3   OH242609   2.333   7.013   0.088  0.4451 -0.4818 -0.6482
14223TIP3    H142610   2.279   6.952   0.036 -1.2820 -0.1736  0.7291
14223TIP3    H242611   2.295   7.099   0.070  1.2547 -0.1033 -0.5746
14224TIP3   OH242612   7.050   1.176   1.256  0.5057  0.0488  0.4480
14224TIP3    H142613   7.123   1.163   1.195  0.3485  0.0775  0.2515
14224TIP3    H242614   6.972   1.158   1.203  0.3048  1.2955  0.3184
14225TIP3   OH242615   7.580   0.382   0.162  0.1881  0.3130  0.0048
14225TIP3    H142616   7.603   0.474   0.147  0.3384  0.4813  1.2259
14225TIP3    H242617   7.659   0.334   0.135 -0.7322  0.3409 -2.9169
14226TIP3   OH242618   6.951   2.147   2.136  0.1923 -0.5635  0.1080
14226TIP3    H142619   6.913   2.154   2.048  0.6882  1.3166  0.0254
14226TIP3    H242620   6.906   2.214   2.187  0.4467 -1.1343  1.0956
14227TIP3   OH242621   4.444   7.227   2.174  0.0504 -0.0675 -0.0041
14227TIP3    H142622   4.421   7.161   2.108  0.2570  0.1113 -0.2569
14227TIP3    H242623   4.528   7.262   2.144 -0.0286  0.2649  0.1677
14228TIP3   OH242624   8.407   1.291   0.357 -0.1475 -0.7279  0.2318
14228TIP3    H142625   8.455   1.280   0.275  0.5187 -1.3969  0.7016
14228TIP3    H242626   8.324   1.245   0.342  1.1541 -3.3979  0.9185
14229TIP3   OH242627   5.103   2.799   2.318 -0.2142  0.3678  0.2646
14229TIP3    H142628   5.039   2.765   2.256 -0.1114  0.7697 -0.0681
14229TIP3    H242629   5.134   2.881   2.278  0.4692  0.2024  0.4428
14230TIP3   OH242630   0.666   1.169   2.266  0.0543  0.4885  0.2084
14230TIP3    H142631   0.693   1.202   2.352 -1.6285  1.3694  0.4252
14230TIP3    H242632   0.570   1.171   2.268 -0.0242 -0.4985 -1.3079
14231TIP3   OH242633   7.754   2.033   2.455  0.4565 -0.1745 -0.0526
14231TIP3    H142634   7.781   2.088   2.529 -0.5189 -1.3957  1.2344
14231TIP3    H242635   7.669   2.067   2.429  0.4205 -0.2749 -0.0654
14232TIP3   OH242636   3.964   4.589   6.287  0.2702  0.0010  0.3889
14232TIP3    H142637   4.024   4.573   6.360 -0.3807  0.3324  1.0110
14232TIP3    H242638   3.910   4.510   6.283 -0.9078  0.7292  1.4667
14233TIP3   OH242639   6.536   1.959   0.900  0.3950  0.1421 -0.0782
14233TIP3    H142640   6.586   1.881   0.878  0.6236 -0.0642  1.1278
14233TIP3    H242641   6.522   1.953   0.995 -2.5642 -0.1666 -0.4845
14234TIP3   OH242642   5.824   1.038   0.205  0.1210  0.2784 -0.2555
14234TIP3    H142643   5.761   1.063   0.137  0.5050  2.2771  0.0803
14234TIP3    H242644   5.770   1.001   0.275 -0.3386 -1.2273 -1.3772
14235TIP3   OH242645   7.255   1.763   1.297  0.5703 -0.7553 -0.0821
14235TIP3    H142646   7.266   1.856   1.276 -1.0975 -0.9210 -1.8874
14235TIP3    H242647   7.214   1.763   1.383 -1.1895  0.2732 -0.8929
14236TIP3   OH242648   7.877   2.373   1.886  0.4649 -0.9533 -0.0423
14236TIP3    H142649   7.878   2.423   1.967  0.4850 -1.4816  0.2848
14236TIP3    H242650   7.815   2.419   1.830 -0.4382 -1.2612  0.6979
14237TIP3   OH242651   5.104   5.646   6.977 -0.5272  0.1263 -0.1840
14237TIP3    H142652   5.196   5.629   6.999 -1.0122 -2.7232 -0.2340
14237TIP3    H242653   5.062   5.663   7.061 -0.2421  0.0554 -0.0248
14238TIP3   OH242654   8.375   1.249   1.453 -0.1889  0.1301 -0.8941
14238TIP3    H142655   8.400   1.255   1.545 -0.6020 -0.0001 -0.7724
14238TIP3    H242656   8.340   1.336   1.432 -0.4943  0.0269 -0.8103
14239TIP3   OH242657   8.077   1.773   1.082 -0.0745  0.6781  0.1739
14239TIP3    H142658   8.152   1.714   1.091 -0.9411 -0.4047  0.3733
14239TIP3    H242659   8.113   1.860   1.098  1.2811  0.2411 -0.4168
14240TIP3   OH242660   0.290   2.579   2.308  0.1363 -0.0579  0.2325
14240TIP3    H142661   0.278   2.511   2.242  3.4250  0.2074 -0.7232
14240TIP3    H242662   0.281   2.532   2.392  0.2146 -1.2418 -0.4073
14241TIP3   OH242663   2.398   0.360   3.162  0.4037 -0.0383  0.0951
14241TIP3    H142664   2.443   0.426   3.214 -0.8634 -0.4136  1.6976
14241TIP3    H242665   2.467   0.321   3.108  1.7031  0.4845  1.3494
14242TIP3   OH242666   2.494   1.866   4.607 -0.3602 -0.3223 -0.1510
14242TIP3    H142667   2.569   1.806   4.609 -0.0895  0.0239  1.1392
14242TIP3    H242668   2.431   1.827   4.668  0.0381  0.9615  1.1115
14243TIP3   OH242669   6.407   7.463   1.872  0.0040 -0.2070 -0.0444
14243TIP3    H142670   6.421   7.405   1.946  0.0322 -0.0320  0.0891
14243TIP3    H242671   6.313   7.460   1.855 -0.0039 -0.2384  0.0072
14244TIP3   OH242672   7.655   1.693   1.257  0.5032 -0.0778  0.4137
14244TIP3    H142673   7.742   1.719   1.287  0.7002 -0.9140  0.5758
14244TIP3    H242674   7.640   1.608   1.298 -1.2247  0.9589  2.0284
14245TIP3   OH242675   7.283   2.703   1.790 -0.2061 -0.2325  0.5505
14245TIP3    H142676   7.214   2.684   1.727 -1.3842  0.3365  1.6449
14245TIP3    H242677   7.297   2.797   1.783  0.5292 -0.3650  0.2517
14246TIP3   OH242678   0.686   0.288   1.337 -0.8178  0.9282  0.2395
14246TIP3    H142679   0.602   0.333   1.328 -0.0045  3.5532  4.5552
14246TIP3    H242680   0.688   0.260   1.429  3.0895  1.0435  0.2511
14247TIP3   OH242681   0.120   0.551   2.356  0.5624  0.4757  0.3132
14247TIP3    H142682   0.143   0.562   2.263  0.9398  0.0163  0.3462
14247TIP3    H242683   0.109   0.640   2.389  1.4453  0.6773  0.0716
14248TIP3   OH242684   2.750   1.023   1.493  0.0716 -0.0689  0.5141
14248TIP3    H142685   2.685   1.043   1.560 -0.6567  2.5130 -0.8872
14248TIP3    H242686   2.834   1.034   1.537 -0.4042  1.0543  1.1765
14249TIP3   OH242687   6.418   7.243   2.057  0.7627  0.4596  0.2925
14249TIP3    H142688   6.437   7.153   2.030 -0.6889  0.6283 -1.3869
14249TIP3    H242689   6.484   7.263   2.124  0.7908 -2.0121  1.0282
14250TIP3   OH242690   5.449   7.317   1.662  0.1377 -0.6303 -0.0619
14250TIP3    H142691   5.441   7.372   1.740  1.5996 -0.8502  0.2576
14250TIP3    H242692   5.428   7.376   1.589 -2.0166 -0.6168  0.5227
14251TIP3   OH242693   2.924   0.629   1.659  0.4387  0.8168  0.5434
14251TIP3    H142694   2.895   0.685   1.730 -0.7163  2.0937 -0.9164
14251TIP3    H242695   2.992   0.679   1.614  0.3711  0.4969  0.0724
14252TIP3   OH242696   0.042   1.201   1.794  0.7671  0.0615 -0.4235
14252TIP3    H142697   0.072   1.254   1.720  0.7329 -0.9195 -1.1492
14252TIP3    H242698   0.120   1.191   1.849  0.5905  1.4844  0.0986
14253TIP3   OH242699   8.268   0.997   3.227  0.1441 -0.0327  0.5545
14253TIP3    H142700   8.306   1.074   3.183 -0.6549 -0.1043 -0.2745
14253TIP3    H242701   8.249   0.936   3.156  0.9118 -1.0680  1.2283
14254TIP3   OH242702   0.520   2.190   0.877 -0.0542  0.2605  0.4252
14254TIP3    H142703   0.432   2.213   0.908 -0.0627 -0.9641  1.3265
14254TIP3    H242704   0.579   2.233   0.939 -0.0594 -1.2277  1.4848
14255TIP3   OH242705   0.935   1.026   0.387  0.7430 -0.0192  0.0349
14255TIP3    H142706   1.004   0.981   0.338  0.8788  1.6553 -1.3489
14255TIP3    H242707   0.912   0.964   0.457  2.2224 -1.4437 -0.6847
14256TIP3   OH242708   0.216   3.509   2.900 -0.5202  0.5418 -0.2166
14256TIP3    H142709   0.180   3.597   2.892  1.2485  1.4343  1.1406
14256TIP3    H242710   0.142   3.456   2.931 -1.8978  1.2676 -2.1281
14257TIP3   OH242711   7.650   0.509   1.912  0.1453  0.3742 -0.2097
14257TIP3    H142712   7.695   0.550   1.839  0.9473 -0.0861  0.0284
14257TIP3    H242713   7.582   0.573   1.937  1.3192  1.5189  0.0969
14258TIP3   OH242714   8.273   1.508   2.307 -0.2453 -0.0638 -0.0461
14258TIP3    H142715   8.239   1.553   2.229  0.2794 -0.5086 -0.5467
14258TIP3    H242716   8.212   1.436   2.322 -0.0635 -0.2948 -0.3772
14259TIP3   OH242717   3.735   3.787   6.934  0.6276 -0.3134 -0.1066
14259TIP3    H142718   3.821   3.792   6.975  0.9790 -2.4807 -0.5521
14259TIP3    H242719   3.727   3.870   6.886  2.3606  0.0082  0.1249
14260TIP3   OH242720   8.404   0.680   2.614 -0.5808  1.1704  0.3896
14260TIP3    H142721   8.421   0.756   2.557 -0.7995  0.5234 -0.5456
14260TIP3    H242722   8.427   0.711   2.701  2.0901  1.4568 -0.3510
14261TIP3   OH242723   1.371   0.313   0.872 -0.1316 -1.0082 -0.0465
14261TIP3    H142724   1.355   0.374   0.944  2.2044 -3.0747  2.3421
14261TIP3    H242725   1.328   0.232   0.899 -0.2398 -1.4689 -1.5523
14262TIP3   OH242726   2.608   1.607   2.371 -0.3454  0.1174  0.2723
14262TIP3    H142727   2.601   1.693   2.413  0.7825  0.3107  0.0760
14262TIP3    H242728   2.613   1.545   2.444 -1.4189  0.1820  0.4169
14263TIP3   OH242729   6.378   7.326   1.194  0.1273  0.3989 -0.0539
14263TIP3    H142730   6.296   7.312   1.242 -0.5743 -0.5678 -1.4736
14263TIP3    H242731   6.352   7.320   1.102  1.5065  1.8552 -0.5464
14264TIP3   OH242732   7.967   1.812   2.069  0.0181  0.3484  0.4143
14264TIP3    H142733   7.999   1.767   1.991 -2.3041 -0.8245  0.0724
14264TIP3    H242734   8.002   1.901   2.062  1.7492 -0.3872 -0.7455
14265TIP3   OH242735   1.427   0.323   0.616  0.1245 -0.5159 -0.3687
14265TIP3    H142736   1.426   0.320   0.712  1.7324  0.0674 -0.3178
14265TIP3    H242737   1.362   0.389   0.593 -2.0073 -2.3559  0.2123
14266TIP3   OH242738   2.916   4.247   6.598  0.6508  0.2595 -0.0703
14266TIP3    H142739   2.909   4.326   6.544  1.4142  1.0914  1.0176
14266TIP3    H242740   2.829   4.238   6.638  0.1595 -0.2221 -1.2385
14267TIP3   OH242741   1.555   1.551   0.040 -0.1561  0.2406 -0.0139
14267TIP3    H142742   1.551   1.480  -0.025  0.7957  0.9234 -0.8491
14267TIP3    H242743   1.614   1.616   0.000 -0.4587  1.1796  1.0482
14268TIP3   OH242744   7.768   7.840   2.131 -0.4260 -0.2913  0.0465
14268TIP3    H142745   7.678   7.814   2.149 -0.4871 -0.7332 -0.8967
14268TIP3    H242746   7.819   7.760   2.141 -0.2053 -0.1513  0.0533
14269TIP3   OH242747   1.437   0.556   3.448 -0.3558  0.4441  0.4171
14269TIP3    H142748   1.429   0.609   3.527 -1.1899 -0.6274  1.0459
14269TIP3    H242749   1.481   0.614   3.385 -0.9641  1.7755  1.2054
14270TIP3   OH242750   7.691   0.377   2.173 -0.6344  0.0462  0.7635
14270TIP3    H142751   7.759   0.441   2.194 -0.3533 -0.7184  2.2552
14270TIP3    H242752   7.669   0.394   2.081  0.7782  1.0317  0.5954
14271TIP3   OH242753   1.441   2.096   0.786 -0.2981  0.2754  0.0920
14271TIP3    H142754   1.383   2.126   0.856  0.9263  0.4149  1.0482
14271TIP3    H242755   1.398   2.018   0.751 -1.7741  1.1718 -0.1340
14272TIP3   OH242756   5.293   7.760   1.985 -0.6329 -0.2150 -0.2037
14272TIP3    H142757   5.338   7.792   2.064  0.2405 -1.7306 -0.0521
14272TIP3    H242758   5.257   7.838   1.944  1.0411  0.8921  0.3798
14273TIP3   OH242759   5.887   5.284   6.964  0.1279 -0.6706  0.2046
14273TIP3    H142760   5.862   5.200   6.924  1.0462 -1.0903  0.5051
14273TIP3    H242761   5.915   5.261   7.052 -0.5933  0.0917  0.6442
14274TIP3   OH242762   6.120   7.370   1.350  0.0295  0.2174  0.2404
14274TIP3    H142763   6.053   7.339   1.290  1.1580 -0.4908 -0.6784
14274TIP3    H242764   6.108   7.465   1.354 -0.6533  0.1516 -0.3566
14275TIP3   OH242765   6.390   1.498   2.452  0.0268 -0.3563  0.0770
14275TIP3    H142766   6.445   1.576   2.445 -1.3508  0.5200 -1.6169
14275TIP3    H242767   6.396   1.457   2.365 -2.2408 -0.0477 -0.2460
14276TIP3   OH242768   8.404   1.798   3.593 -0.4397  0.1872 -0.3046
14276TIP3    H142769   8.329   1.746   3.563 -0.8265 -0.0055  0.9545
14276TIP3    H242770   8.391   1.884   3.551 -1.5763  0.2748  0.2003
14277TIP3   OH242771   1.791   0.900   1.360 -0.1719 -0.4155 -0.3144
14277TIP3    H142772   1.810   0.898   1.454  1.9197  1.4183 -0.6546
14277TIP3    H242773   1.867   0.858   1.320 -0.9195 -0.9145 -1.2381
14278TIP3   OH242774   8.403   0.063   0.895 -0.0195  0.3310 -0.4082
14278TIP3    H142775   8.361   0.141   0.861 -0.0828  0.1965 -0.6370
14278TIP3    H242776   8.361  -0.010   0.849 -0.5932  0.1078  0.4600
14279TIP3   OH242777   1.881   1.716   1.767  0.5166 -0.3158 -0.3937
14279TIP3    H142778   1.935   1.793   1.785 -0.1613 -0.0712  0.6417
14279TIP3    H242779   1.803   1.727   1.822 -0.6215 -0.6413 -1.8813
14280TIP3   OH242780   6.980   2.300   1.431 -0.3237 -0.7020  0.2784
14280TIP3    H142781   7.049   2.365   1.442 -0.1288 -0.3601 -2.6247
14280TIP3    H242782   6.979   2.252   1.514  1.7581  0.8413  1.2434
14281TIP3   OH242783   3.379   5.699   5.567 -0.1425 -0.7120  0.1442
14281TIP3    H142784   3.327   5.770   5.531  0.4905 -1.0070 -1.3710
14281TIP3    H242785   3.468   5.736   5.574  0.4828 -1.7527 -1.9295
14282TIP3   OH242786   5.932   5.787   6.028  0.4156 -0.1187 -0.1080
14282TIP3    H142787   6.000   5.747   5.974  2.8251 -0.2418  2.8681
14282TIP3    H242788   5.865   5.719   6.037  1.3044 -1.0770 -0.6610
14283TIP3   OH242789   0.344   0.867   0.319  0.5822  0.4601  0.3457
14283TIP3    H142790   0.289   0.839   0.246  1.1689  0.2445 -0.0214
14283TIP3    H242791   0.294   0.843   0.398 -0.1530  0.8985  0.0189
14284TIP3   OH242792   8.062   0.829   1.086  0.1248  0.5448 -0.0814
14284TIP3    H142793   8.126   0.879   1.136  0.3142  0.8213 -0.6014
14284TIP3    H242794   7.989   0.816   1.147 -0.3414  2.2741 -0.2408
14285TIP3   OH242795   1.396   0.617   0.791  0.4036  0.1272  0.3010
14285TIP3    H142796   1.387   0.522   0.797  0.4158  0.0139 -1.1990
14285TIP3    H242797   1.469   0.639   0.849 -0.6369 -0.5766  1.9174
14286TIP3   OH242798   8.064   1.141   3.283 -0.1309 -0.1138  0.0578
14286TIP3    H142799   8.090   1.226   3.319  0.1655  0.3832 -1.2925
14286TIP3    H242800   8.136   1.082   3.308  0.6138  0.4735 -0.6472
14287TIP3   OH242801  -0.011   0.113   0.697  0.4338  0.0555  0.2406
14287TIP3    H142802  -0.044   0.118   0.787  0.0581  1.6979  0.0212
14287TIP3    H242803   0.080   0.143   0.704 -0.5702  3.4216 -0.4221
14288TIP3   OH242804   4.915   6.937   0.898  0.2112 -0.0371 -0.0415
14288TIP3    H142805   4.957   6.930   0.812 -0.0688  0.6179 -0.2334
14288TIP3    H242806   4.893   6.847   0.921  1.6470 -0.3956  0.0183
14289TIP3   OH242807   0.145   1.291   2.276 -0.3481  0.6221  0.3378
14289TIP3    H142808   0.107   1.372   2.309  0.2503  0.9635  0.1965
14289TIP3    H242809   0.071   1.244   2.237 -0.5712  1.4001 -0.1784
14290TIP3   OH242810   6.475   7.889   0.274  0.0816 -0.1999 -0.2318
14290TIP3    H142811   6.412   7.957   0.297  0.7104  0.6501 -1.0059
14290TIP3    H242812   6.556   7.914   0.319  0.1302 -0.7920  0.0149
14291TIP3   OH242813   1.012   1.062   2.378  0.5138  0.0388  0.2178
14291TIP3    H142814   0.930   1.100   2.410  0.3170 -1.4287  1.5297
14291TIP3    H242815   1.072   1.068   2.452  1.5117  0.8268 -0.6422
14292TIP3   OH242816   7.494   1.941   1.342 -0.6459  0.2399  0.0070
14292TIP3    H142817   7.484   1.846   1.336 -2.1575  0.4394 -1.1190
14292TIP3    H242818   7.506   1.959   1.435  2.7618 -1.3058 -0.0612
14293TIP3   OH242819   0.860   1.873   0.440  0.2244  0.4320  0.2163
14293TIP3    H142820   0.844   1.939   0.507 -0.7184  0.7508 -0.3091
14293TIP3    H242821   0.776   1.829   0.429  0.0501  1.1719 -1.5837
14294TIP3   OH242822   2.906   5.635   6.575  0.8145  0.4829  0.4123
14294TIP3    H142823   2.864   5.714   6.541 -0.5508 -0.1889  0.4952
14294TIP3    H242824   2.921   5.653   6.667  0.8847  0.8090  0.3360
14295TIP3   OH242825   3.248   0.844   2.165  0.5052 -0.1921  0.3511
14295TIP3    H142826   3.297   0.914   2.122  0.5221 -1.3643 -1.5812
14295TIP3    H242827   3.163   0.842   2.121  1.0576 -2.3832 -0.6801
14296TIP3   OH242828   5.770   7.674   1.908 -0.3607  0.1113  0.0393
14296TIP3    H142829   5.849   7.704   1.953 -0.4193 -2.5945  2.0362
14296TIP3    H242830   5.699   7.720   1.952 -0.2101 -0.5188  0.9498
14297TIP3   OH242831   8.138   0.701   2.029 -0.1276 -0.5025  0.3523
14297TIP3    H142832   8.183   0.624   1.994 -0.4074 -1.6078  2.3659
14297TIP3    H242833   8.085   0.733   1.956  0.1031 -2.1312 -0.5490
14298TIP3   OH242834   8.330   1.778   0.621  1.3899  0.2142  0.0119
14298TIP3    H142835   8.330   1.804   0.714  0.0287 -0.9096  0.3307
14298TIP3    H242836   8.283   1.848   0.577 -0.9437 -0.8930  0.6649
14299TIP3   OH242837   1.419   0.125   2.537 -0.1711  0.1881  0.4214
14299TIP3    H142838   1.466   0.042   2.532 -0.2131  0.1683  0.3481
14299TIP3    H242839   1.327   0.100   2.542 -0.1600  0.2192  0.8225
14300TIP3   OH242840   0.494   7.595   0.182  0.9276  0.2225 -0.4915
14300TIP3    H142841   0.450   7.555   0.257 -0.2818  2.4434  0.0295
14300TIP3    H242842   0.587   7.575   0.194  0.5934 -0.4953  0.9269
14301TIP3   OH242843   8.513   0.333   1.326  0.7314 -0.4206 -0.2190
14301TIP3    H142844   8.422   0.335   1.355  0.4757 -1.0691 -0.9349
14301TIP3    H242845   8.508   0.351   1.232  1.4986  1.1910  0.0329
14302TIP3   OH242846   8.423   2.113   0.622  0.0772  0.7107  0.3035
14302TIP3    H142847   8.413   2.208   0.617  1.1772  0.8245  0.2353
14302TIP3    H242848   8.334   2.080   0.636 -0.2916  1.7535  0.4166
14303TIP3   OH242849   5.092   4.658   6.299  0.1190  0.1585  0.1873
14303TIP3    H142850   5.100   4.711   6.379  0.6606  0.0737  0.1891
14303TIP3    H242851   5.179   4.660   6.260  0.4760 -1.7096  0.8123
14304TIP3   OH242852   1.770   0.258   1.362  0.3823 -0.0673 -0.6659
14304TIP3    H142853   1.786   0.234   1.271  0.0290  1.7550 -1.2205
14304TIP3    H242854   1.857   0.269   1.400  0.5689 -2.1746 -0.3719
14305TIP3   OH242855   2.711   5.503   6.918  0.7057 -0.7587  0.0104
14305TIP3    H142856   2.781   5.537   6.973  0.0638  0.1235  0.2947
14305TIP3    H242857   2.716   5.556   6.838 -0.3412  0.0723  0.4827
14306TIP3   OH242858   1.776   0.944   0.999  0.0891 -0.3973  0.0698
14306TIP3    H142859   1.841   1.014   1.008 -0.2650 -0.3206  2.3742
14306TIP3    H242860   1.826   0.868   0.971  1.2083 -0.3131  1.7128
14307TIP3   OH242861   7.708   4.873   6.475 -0.5132 -0.4562  0.0251
14307TIP3    H142862   7.800   4.897   6.470 -1.3957  3.4101  1.0725
14307TIP3    H242863   7.706   4.781   6.448  3.2509  0.1816 -2.9022
14308TIP3   OH242864   0.020   1.578   0.072  0.2272 -0.3059 -0.7632
14308TIP3    H142865   0.085   1.584   0.142 -0.0597  1.3694 -0.6199
14308TIP3    H242866  -0.055   1.627   0.105 -0.0676  0.1494 -2.0789
14309TIP3   OH242867   5.369   1.196   0.545 -0.3522 -0.3318  0.1434
14309TIP3    H142868   5.379   1.119   0.490 -1.0354  0.0221 -0.5006
14309TIP3    H242869   5.309   1.253   0.495  1.9501  1.6220 -0.4874
14310TIP3   OH242870   7.545   1.500   1.755  0.1655 -0.1826 -0.2299
14310TIP3    H142871   7.628   1.504   1.802 -0.3447  1.4456  0.5524
14310TIP3    H242872   7.490   1.565   1.798 -1.7337 -1.6883 -0.3375
14311TIP3   OH242873   7.741   2.521   2.696 -0.2684  0.4991  0.1852
14311TIP3    H142874   7.819   2.531   2.641  0.1047 -0.7645  0.4739
14311TIP3    H242875   7.668   2.516   2.633 -0.4389  4.1361 -0.0150
14312TIP3   OH242876   3.512   3.967   5.712  0.5866  0.1460 -0.3357
14312TIP3    H142877   3.452   4.009   5.773  2.0835 -0.2211  1.4404
14312TIP3    H242878   3.570   4.037   5.682 -0.1125  0.3159 -1.3318
14313TIP3   OH242879   7.673   7.341   3.116  0.7132  0.0927  0.3092
14313TIP3    H142880   7.644   7.305   3.200  1.6055 -0.6981  0.2916
14313TIP3    H242881   7.644   7.432   3.117 -0.7024 -0.3555  0.7842
14314TIP3   OH242882   0.513   2.735   1.552 -0.0890 -0.8773 -0.3477
14314TIP3    H142883   0.454   2.788   1.605  2.2006  0.4802  0.9678
14314TIP3    H242884   0.515   2.779   1.466  0.8724  0.5399  0.3688
14315TIP3   OH242885   1.348   2.758   2.671  0.4214  0.0762 -0.0417
14315TIP3    H142886   1.398   2.766   2.590  1.0480 -1.2490  0.1848
14315TIP3    H242887   1.415   2.744   2.738 -0.2106 -0.9822  0.3805
14316TIP3   OH242888   4.284   5.361   6.003 -0.2860  0.5147  0.1109
14316TIP3    H142889   4.268   5.386   6.094 -0.0559  0.1198  0.2653
14316TIP3    H242890   4.307   5.443   5.959 -2.0884  0.9789  0.0176
14317TIP3   OH242891   3.279   6.758   6.437 -0.2823 -0.2504  0.4232
14317TIP3    H142892   3.361   6.807   6.430  0.4812 -1.5582  0.1206
14317TIP3    H242893   3.244   6.756   6.348 -0.2292 -0.4010  0.4057
14318TIP3   OH242894   2.974   6.551   6.334 -1.4343 -0.1722  0.2069
14318TIP3    H142895   3.024   6.590   6.262 -1.2795 -2.3083 -0.8963
14318TIP3    H242896   2.928   6.625   6.374 -0.5474  1.2443 -1.3006
14319TIP3   OH242897   0.409   1.328   2.233  0.4449 -0.8617 -0.1621
14319TIP3    H142898   0.314   1.317   2.245  0.2089  0.8165 -0.4055
14319TIP3    H242899   0.442   1.347   2.321  0.6404 -1.9492  0.0083
14320TIP3   OH242900   0.219   0.889   0.667  0.0502  0.3474 -0.1187
14320TIP3    H142901   0.231   0.960   0.730 -1.0202  0.2502  0.2054
14320TIP3    H242902   0.296   0.833   0.679  1.1080  1.6559 -0.6672
14321TIP3   OH242903   7.850   0.919   0.051 -0.0402 -0.5172 -0.6610
14321TIP3    H142904   7.822   0.853  -0.013  0.2360 -1.3034  0.0127
14321TIP3    H242905   7.903   0.980   0.001 -0.3009 -0.8066 -1.2995
14322TIP3   OH242906   6.064   7.961   3.110  0.2128  0.1012  0.1093
14322TIP3    H142907   6.016   8.042   3.092 -0.4427 -0.3112 -0.0252
14322TIP3    H242908   6.138   7.963   3.049 -0.2537  0.2190 -0.4576
14323TIP3   OH242909   1.133   0.816   3.508  0.1875 -0.8417  0.1978
14323TIP3    H142910   1.069   0.866   3.559 -0.0271  1.4229 -2.1805
14323TIP3    H242911   1.201   0.793   3.571 -0.9770  0.2489  1.9075
14324TIP3   OH242912   0.052   1.976   0.687 -0.0672 -0.0346 -0.0649
14324TIP3    H142913   0.044   1.934   0.772 -1.0375 -0.4890 -0.3668
14324TIP3    H242914  -0.027   2.029   0.679 -0.1359 -0.2354 -0.8064
14325TIP3   OH242915   1.155   1.099   2.641  0.0654  0.4246  0.0175
14325TIP3    H142916   1.090   1.139   2.699 -1.0931 -0.2152 -0.8172
14325TIP3    H242917   1.155   1.007   2.666  2.4143  0.8276  1.6402
14326TIP3   OH242918   0.541   1.073   2.012 -0.0313 -0.0485  0.7359
14326TIP3    H142919   0.554   1.155   2.060 -1.6337  1.3931 -1.2446
14326TIP3    H242920   0.449   1.050   2.028  0.3741 -1.4443  1.1918
14327TIP3   OH242921   0.482   0.618   2.519  0.1096 -0.5685  0.4407
14327TIP3    H142922   0.416   0.571   2.569 -0.3193  0.9509  1.3595
14327TIP3    H242923   0.441   0.703   2.499  1.8181  0.4558  1.1612
14328TIP3   OH242924   8.310   0.640   0.309  0.5133  0.8170 -0.2792
14328TIP3    H142925   8.316   0.700   0.384  0.5225 -0.1197  0.4666
14328TIP3    H242926   8.314   0.553   0.347  3.0688  0.3291 -1.5730
14329TIP3   OH242927   0.307   0.769   1.987 -0.1266 -0.0652 -0.1217
14329TIP3    H142928   0.273   0.683   2.013  1.9599 -0.7024  0.5584
14329TIP3    H242929   0.335   0.809   2.068  1.3979  0.1564 -0.7487
14330TIP3   OH242930   1.755   1.831   0.900  0.1212  0.6418  0.5747
14330TIP3    H142931   1.673   1.852   0.856  0.5337 -0.5820 -0.8200
14330TIP3    H242932   1.758   1.891   0.975 -2.0387  0.6809  0.6572
14331TIP3   OH242933   4.011   7.487   3.212 -0.2659 -0.5671 -0.2495
14331TIP3    H142934   3.938   7.541   3.241 -0.1308 -1.5008  1.8908
14331TIP3    H242935   4.088   7.543   3.225 -0.3153 -0.5816  0.0939
14332TIP3   OH242936   8.436   6.150   5.885  0.1240 -0.1379  0.0447
14332TIP3    H142937   8.350   6.184   5.911  0.7039  1.9981 -0.7465
14332TIP3    H242938   8.483   6.139   5.968 -0.1555  0.7815  0.3313
14333TIP3   OH242939   0.633   0.199   0.217 -0.0311 -0.4544  0.2579
14333TIP3    H142940   0.664   0.207   0.307  0.8263 -0.3554 -0.0469
14333TIP3    H242941   0.548   0.155   0.225 -0.9892  1.5111  1.2883
14334TIP3   OH242942   3.642   6.447   6.050 -0.8084 -0.5563 -0.3440
14334TIP3    H142943   3.555   6.437   6.013 -0.6707 -2.6438 -0.1650
14334TIP3    H242944   3.701   6.410   5.985 -0.2399 -0.8511  0.3241
14335TIP3   OH242945   1.761   0.760   4.796  0.2108 -0.5238  0.1610
14335TIP3    H142946   1.847   0.732   4.765  0.7941  0.0813  1.2059
14335TIP3    H242947   1.712   0.678   4.810 -0.2803 -0.7950 -2.8917
14336TIP3   OH242948   1.351   5.387   5.508  0.3559 -0.0971 -0.0972
14336TIP3    H142949   1.356   5.299   5.472  0.1175  0.8498 -2.4934
14336TIP3    H242950   1.257   5.402   5.520  0.4452 -0.5218  1.2899
14337TIP3   OH242951   7.046   1.060   3.511  0.4921  0.1485  0.0339
14337TIP3    H142952   7.004   1.048   3.425 -0.1965  0.5783  0.3073
14337TIP3    H242953   7.000   0.999   3.568  0.9225 -0.1043  0.1164
14338TIP3   OH242954   3.729   5.281   4.385 -0.0016 -0.6598  0.0577
14338TIP3    H142955   3.809   5.229   4.398  0.9877  0.4769 -1.3066
14338TIP3    H242956   3.751   5.342   4.314 -1.6702  0.5320  0.5300
14339TIP3   OH242957   7.539   0.745   0.820 -0.2635  0.1141 -0.3113
14339TIP3    H142958   7.514   0.658   0.851 -0.6486  0.2887 -0.1243
14339TIP3    H242959   7.570   0.731   0.730  0.5389 -0.3435  0.0301
14340TIP3   OH242960   3.303   6.700   6.713  0.7905 -0.2886  0.5883
14340TIP3    H142961   3.345   6.785   6.698 -0.3047  0.1299 -0.2451
14340TIP3    H242962   3.263   6.679   6.628  1.7012 -2.0107  0.5650
14341TIP3   OH242963   4.114   4.711   6.768 -0.4487  0.7714 -0.2251
14341TIP3    H142964   4.024   4.716   6.799 -0.4409 -1.1566  0.1745
14341TIP3    H242965   4.164   4.680   6.843  0.1139 -0.6598 -1.1589
14342TIP3   OH242966   1.118   3.058   0.771 -0.2989  0.3163 -0.0226
14342TIP3    H142967   1.111   2.965   0.754  0.5384  0.3571 -0.5877
14342TIP3    H242968   1.181   3.065   0.843 -0.3775  0.4461  0.0350
14343TIP3   OH242969   0.393   2.845   1.890 -0.1412 -0.3589 -0.0541
14343TIP3    H142970   0.394   2.866   1.983  2.5187 -0.8695  0.0901
14343TIP3    H242971   0.414   2.927   1.846 -0.7783 -0.2598 -0.1818
14344TIP3   OH242972   4.357   5.466   6.833 -0.0574 -0.6142 -0.0424
14344TIP3    H142973   4.342   5.466   6.738 -0.5848  0.2274  0.0323
14344TIP3    H242974   4.285   5.415   6.869  0.9554 -2.1916 -0.1985
14345TIP3   OH242975   3.766   5.662   5.202 -0.0022 -0.2380 -0.8286
14345TIP3    H142976   3.693   5.625   5.252  1.8148 -1.2680  1.1095
14345TIP3    H242977   3.745   5.755   5.195 -1.0605 -0.3613  0.5023
14346TIP3   OH242978   2.032   0.264   1.423  0.1005 -0.5101 -0.0579
14346TIP3    H142979   2.065   0.301   1.505  0.6383 -1.2908  0.0894
14346TIP3    H242980   2.095   0.292   1.357  2.0297 -3.3392  0.4791
14347TIP3   OH242981   0.402   1.568   0.402 -0.3735  0.1015  0.2032
14347TIP3    H142982   0.431   1.597   0.489  0.8568  0.3325 -0.2748
14347TIP3    H242983   0.414   1.473   0.403  0.0454  0.1526  0.1401
14348TIP3   OH242984   2.453   0.587   1.415 -0.0943  0.3184 -0.6057
14348TIP3    H142985   2.530   0.630   1.452 -0.6276 -1.7235  3.1359
14348TIP3    H242986   2.382   0.648   1.429 -0.5705 -0.9839  3.3310
14349TIP3   OH242987   6.701   7.895   0.792  0.4510 -0.8019 -0.5723
14349TIP3    H142988   6.786   7.938   0.806 -0.2891  0.2139  1.0104
14349TIP3    H242989   6.646   7.929   0.863 -1.4942 -0.8978 -2.0063
14350TIP3   OH242990   0.762   1.844   2.938 -0.1061 -0.1495  0.3181
14350TIP3    H142991   0.832   1.780   2.923 -0.0880 -0.0036 -0.2196
14350TIP3    H242992   0.776   1.874   3.028  0.0694 -0.6756  0.4692
14351TIP3   OH242993   3.020   4.048   6.142  0.3047  0.0446 -0.9009
14351TIP3    H142994   3.113   4.054   6.164 -0.1472  0.8099  0.8397
14351TIP3    H242995   2.992   4.138   6.128 -0.5076 -0.0501  0.0143
14352TIP3   OH242996   6.600   7.865   0.540 -0.4978  0.2713 -0.0780
14352TIP3    H142997   6.630   7.794   0.483 -2.0015 -1.3320  1.0881
14352TIP3    H242998   6.658   7.859   0.616 -1.1952 -0.2603  0.4075
14353TIP3   OH242999   0.716   2.304   1.053 -0.5907  0.4655 -0.0518
14353TIP3    H143000   0.671   2.380   1.090 -0.7603  0.6741 -0.6831
14353TIP3    H243001   0.776   2.341   0.988 -0.4238  0.0866 -0.1129
14354TIP3   OH243002   7.342   7.994   2.570  0.1027 -0.0826 -0.1821
14354TIP3    H143003   7.258   7.954   2.593 -0.3684  0.8466 -0.2875
14354TIP3    H243004   7.407   7.931   2.600 -0.6446 -1.0870 -0.6240
14355TIP3   OH243005   7.819   1.678   1.712 -0.7830  0.2654 -0.7736
14355TIP3    H143006   7.766   1.751   1.681 -0.2915  1.1611  0.4770
14355TIP3    H243007   7.777   1.650   1.793  0.2993  0.6120 -0.0722
14356TIP3   OH243008   1.608   0.713   0.910 -0.3245  0.0764 -0.1426
14356TIP3    H143009   1.615   0.691   1.003 -1.9978  0.0391 -0.0089
14356TIP3    H243010   1.669   0.786   0.897 -0.5574  0.5016  1.1174
14357TIP3   OH243011   1.971   4.785   6.052  0.1587  0.0090 -0.0846
14357TIP3    H143012   1.930   4.784   5.966 -0.4062  1.3230  0.1591
14357TIP3    H243013   1.968   4.877   6.079  0.2853 -0.3973  1.3562
14358TIP3   OH243014   1.427   1.408   1.316 -0.0124 -0.2443  0.0813
14358TIP3    H143015   1.479   1.358   1.253  1.1222  2.4107 -1.1206
14358TIP3    H243016   1.340   1.411   1.277 -0.2141 -1.6039  0.3720
14359TIP3   OH243017   0.894   2.845   4.802 -0.4291 -0.0034  0.1296
14359TIP3    H143018   0.871   2.821   4.892  1.0771 -0.8839  0.2913
14359TIP3    H243019   0.903   2.761   4.756  1.3994  0.3316 -0.1698
14360TIP3   OH243020   5.228   8.105   1.227 -0.7758 -0.0576 -0.0140
14360TIP3    H143021   5.322   8.114   1.218 -0.5731 -1.0340  1.0800
14360TIP3    H243022   5.204   8.037   1.164 -0.6301 -0.4277  0.3318
14361TIP3   OH243023   3.119   1.140   0.446 -0.2110 -0.1527  0.7831
14361TIP3    H143024   3.147   1.218   0.493 -2.6735  1.0863  0.2614
14361TIP3    H243025   3.052   1.100   0.502 -1.5758  0.1340 -0.5909
14362TIP3   OH243026   7.990   5.646   6.380 -0.5072 -0.1722 -0.5211
14362TIP3    H143027   8.045   5.700   6.437 -1.0232  0.6120 -0.7547
14362TIP3    H243028   8.038   5.564   6.370  0.1365  0.1280  0.0942
14363TIP3   OH243029   6.097   5.483   4.760  0.4406 -0.3694 -0.1017
14363TIP3    H143030   6.158   5.540   4.807  0.0054 -1.5609  1.9852
14363TIP3    H243031   6.019   5.537   4.747  0.5825 -0.0029  0.5304
14364TIP3   OH243032   6.819   1.944   1.967  0.6086  0.3089 -0.2821
14364TIP3    H143033   6.881   1.883   2.006  1.4556  1.3151 -0.0501
14364TIP3    H243034   6.765   1.973   2.040 -0.1354 -0.5397 -0.4782
14365TIP3   OH243035   0.395   1.141   1.327 -0.1049  0.2178 -0.2200
14365TIP3    H143036   0.307   1.175   1.310  0.6505  2.0586 -0.6236
14365TIP3    H243037   0.392   1.112   1.418 -0.9184  0.9495 -0.0030
14366TIP3   OH243038   8.240   1.711   3.230 -0.0936  0.5309  0.2003
14366TIP3    H143039   8.332   1.690   3.214 -0.3048 -0.8846  0.7841
14366TIP3    H243040   8.236   1.807   3.225  1.0717  0.5153 -1.5938
14367TIP3   OH243041   0.309   2.958   2.901  0.4715 -0.1541 -0.0616
14367TIP3    H143042   0.365   2.997   2.968  1.2969 -0.4011 -0.6058
14367TIP3    H243043   0.316   3.018   2.827 -0.2589 -0.0053 -0.0175
14368TIP3   OH243044   8.423   0.794   1.544 -0.0897  0.0166  0.5676
14368TIP3    H143045   8.394   0.746   1.467  1.5473 -1.1364  0.6452
14368TIP3    H243046   8.342   0.818   1.589 -0.9646 -2.4566  0.3942
14369TIP3   OH243047   0.763   0.166   2.504  0.1419  0.2617  0.2958
14369TIP3    H143048   0.789   0.102   2.569  0.9119 -2.5401 -2.6091
14369TIP3    H243049   0.671   0.184   2.523 -0.1549 -1.9367  1.0346
14370TIP3   OH243050   7.783   3.011   1.380 -0.3781 -0.1363  0.1319
14370TIP3    H143051   7.867   3.023   1.425  0.2784 -1.4088 -0.7414
14370TIP3    H243052   7.782   3.079   1.313 -0.3434  0.2885  0.5566
14371TIP3   OH243053   0.501   2.223   2.220  0.1743 -0.7419  0.1638
14371TIP3    H143054   0.528   2.262   2.137  1.0082  0.5494  1.0321
14371TIP3    H243055   0.432   2.161   2.195 -0.3950  0.4581 -1.3727
14372TIP3   OH243056   0.469   1.328   1.751 -0.7331  0.4102 -0.1790
14372TIP3    H143057   0.508   1.334   1.839 -1.7317 -0.1037  0.3076
14372TIP3    H243058   0.375   1.342   1.765 -0.9801 -0.2713 -1.0775
14373TIP3   OH243059   6.101   7.815   2.270 -0.5093  0.1726 -0.5456
14373TIP3    H143060   6.065   7.737   2.311 -0.4702  0.4099 -0.0473
14373TIP3    H243061   6.168   7.845   2.331  0.4211 -0.1734 -1.3832
14374TIP3   OH243062   8.027   7.943   2.198 -0.0564 -0.5195  0.2834
14374TIP3    H143063   8.025   7.973   2.288 -0.1089 -2.5215  0.9824
14374TIP3    H243064   7.937   7.917   2.178  0.0017 -0.3237 -0.2538
14375TIP3   OH243065   0.584   1.318   2.801 -0.1223  0.1418  0.1872
14375TIP3    H143066   0.578   1.405   2.840 -0.7188 -0.7638  2.1928
14375TIP3    H243067   0.676   1.295   2.808  0.3713  1.3475 -2.0418
14376TIP3   OH243068   7.732   1.540   1.926  0.0852  0.2582  0.3468
14376TIP3    H143069   7.789   1.476   1.967 -2.3722 -0.6813  2.4247
14376TIP3    H243070   7.666   1.560   1.993 -1.5604  1.8784 -1.6855
14377TIP3   OH243071   0.182   0.255   1.221 -0.0979  0.1744  0.5844
14377TIP3    H143072   0.103   0.283   1.266 -0.3254 -2.3518  1.8794
14377TIP3    H243073   0.167   0.162   1.202  1.9336  0.0372 -0.5376
14378TIP3   OH243074   0.655   0.066   2.246 -0.0550  0.3706 -0.3697
14378TIP3    H143075   0.684   0.112   2.325  0.7907 -0.2360 -0.3196
14378TIP3    H243076   0.690  -0.023   2.256  0.1721  0.3325 -1.4957
14379TIP3   OH243077   0.962   0.785   1.700 -0.2014  0.3871  0.0258
14379TIP3    H143078   0.971   0.737   1.782 -0.1465 -1.5281 -1.0764
14379TIP3    H243079   0.879   0.832   1.708 -0.5086 -0.3023  0.9118
14380TIP3   OH243080   8.075   1.712   0.223  0.5858 -0.1738 -0.2508
14380TIP3    H143081   8.122   1.658   0.160 -1.1382 -1.5361 -0.4380
14380TIP3    H243082   8.076   1.660   0.304  0.5225  0.3558  0.0924
14381TIP3   OH243083   2.769   4.756   6.631  0.3559  0.1065  0.2316
14381TIP3    H143084   2.837   4.736   6.567 -0.5757 -2.5127 -0.0202
14381TIP3    H243085   2.687   4.731   6.588 -0.6061  1.5462  1.1915
14382TIP3   OH243086   2.908   1.784   3.199  0.1716  0.5075  0.2340
14382TIP3    H143087   2.999   1.774   3.169 -0.2233 -2.3234 -0.2168
14382TIP3    H243088   2.886   1.875   3.181  2.4876  0.8743 -0.9188
14383TIP3   OH243089   1.060   3.004   2.145 -0.3472  0.1047  0.0920
14383TIP3    H143090   1.135   2.981   2.199  0.0239  0.1717 -0.3919
14383TIP3    H243091   1.083   2.973   2.057 -0.9390  0.0009 -0.0310
14384TIP3   OH243092   3.300   5.535   5.766  0.3248 -0.4454 -0.0826
14384TIP3    H143093   3.383   5.490   5.782  0.8658  0.2900 -0.7380
14384TIP3    H243094   3.322   5.602   5.701 -0.5361  0.5383  0.6292
14385TIP3   OH243095   3.175   5.543   6.113  0.5724 -0.3561 -0.2889
14385TIP3    H143096   3.118   5.614   6.144 -0.2621 -0.5861 -1.2963
14385TIP3    H243097   3.120   5.491   6.056  2.0902  0.0619 -2.1915
14386TIP3   OH243098   3.503   0.855   1.034 -0.0065  0.2059  0.1846
14386TIP3    H143099   3.427   0.822   0.985 -0.0131  1.4195 -0.6332
14386TIP3    H243100   3.573   0.861   0.969  0.4850  0.1711  0.7046
14387TIP3   OH243101   3.107   0.513   0.558  0.3514  0.0246  0.6819
14387TIP3    H143102   3.040   0.577   0.532 -0.3329 -1.0197 -0.1402
14387TIP3    H243103   3.093   0.501   0.651 -1.3608 -1.0393  0.3069
14388TIP3   OH243104   1.080   2.181   0.422 -0.2260 -0.6803 -0.0574
14388TIP3    H143105   1.087   2.091   0.389  0.2555  0.1376 -2.2260
14388TIP3    H243106   0.986   2.196   0.432 -0.2765 -1.7735  1.3867
14389TIP3   OH243107   0.862   1.583   1.753  0.2137  0.1076 -0.2619
14389TIP3    H143108   0.949   1.570   1.792  0.4308  1.3375 -0.3141
14389TIP3    H243109   0.832   1.495   1.730  1.2630 -0.3619  0.1525
14390TIP3   OH243110   5.616   3.176   6.117 -0.0614  0.2658 -0.0198
14390TIP3    H143111   5.562   3.186   6.196  2.1847  1.2557  1.4454
14390TIP3    H243112   5.601   3.085   6.090 -0.6093 -0.2073  1.7684
14391TIP3   OH243113   1.779   0.402   0.748 -0.3196  0.0941 -0.2922
14391TIP3    H143114   1.862   0.429   0.787  1.2614 -1.5065 -2.4196
14391TIP3    H243115   1.753   0.324   0.798 -0.7896  0.8377  0.6465
14392TIP3   OH243116   2.726   1.101   1.026  0.1258  0.1100  0.0429
14392TIP3    H143117   2.724   1.012   0.991  0.6744 -0.4873  1.4872
14392TIP3    H243118   2.682   1.094   1.111 -1.0331  1.4894 -0.4404
14393TIP3   OH243119   2.861   1.621   0.440  0.0229  0.7854 -0.6159
14393TIP3    H143120   2.944   1.611   0.393  1.5451  1.1833  1.8804
14393TIP3    H243121   2.878   1.692   0.503 -2.1364  0.6892  0.1101
14394TIP3   OH243122   1.051   1.587   0.839 -0.6989  0.0747  0.1970
14394TIP3    H143123   1.129   1.533   0.850  0.7889  1.7827 -1.6791
14394TIP3    H243124   1.032   1.621   0.927  1.5186  0.7860  0.4175
14395TIP3   OH243125   2.666   0.376   1.422 -0.2772 -0.4915  0.1346
14395TIP3    H143126   2.734   0.413   1.479 -0.6424 -0.8582  0.8110
14395TIP3    H243127   2.606   0.449   1.406  1.3177  0.3798 -2.0877
14396TIP3   OH243128   6.754   5.033   6.900 -0.2198 -0.7985 -0.3008
14396TIP3    H143129   6.659   5.042   6.913 -0.0356  1.5743 -0.4420
14396TIP3    H243130   6.791   5.052   6.986  0.0845 -3.8834  0.3356
14397TIP3   OH243131   3.605   4.880   6.299 -0.0494 -0.1426  0.3786
14397TIP3    H143132   3.511   4.897   6.309 -0.0475 -0.5410  1.1045
14397TIP3    H243133   3.609   4.804   6.242 -0.1687 -0.1175  0.3359
14398TIP3   OH243134   7.938   7.387   1.212  0.3802  0.0126  0.1856
14398TIP3    H143135   7.953   7.321   1.144  0.9763 -0.4255  0.7363
14398TIP3    H243136   7.846   7.412   1.200  0.6323  0.3596 -1.1462
14399TIP3   OH243137   6.535   7.049   5.631 -0.3553  0.0202  0.2631
14399TIP3    H143138   6.553   7.119   5.693  0.2068  1.4547 -1.4551
14399TIP3    H243139   6.450   7.014   5.657 -0.5245  1.1766  1.3017
14400TIP3   OH243140   3.414   5.366   6.938  0.3143 -0.0270  0.3441
14400TIP3    H143141   3.487   5.415   6.900 -0.0532 -0.0271 -0.3763
14400TIP3    H243142   3.376   5.426   7.002  1.3677 -0.2836  1.2392
14401TIP3   OH243143   4.044   3.138   6.194 -0.1952 -0.1001  0.0487
14401TIP3    H143144   4.101   3.174   6.261  1.3575  0.1914 -1.3969
14401TIP3    H243145   3.970   3.199   6.189  0.6638  0.9571  0.0994
14402TIP3   OH243146   2.616   1.794   3.038  0.1813  0.4092  0.4288
14402TIP3    H143147   2.591   1.747   3.118  0.6751  2.6735  1.9573
14402TIP3    H243148   2.711   1.799   3.041  0.1539  1.2945  0.1922
14403TIP3   OH243149   2.227   0.236   2.739  0.6325  0.2814  0.1159
14403TIP3    H143150   2.213   0.308   2.800 -0.7711  0.3748 -0.2940
14403TIP3    H243151   2.275   0.275   2.667 -0.5336  0.9410 -0.3258
14404TIP3   OH243152   3.465   1.328   0.440  0.3466 -0.0329 -0.5403
14404TIP3    H143153   3.514   1.390   0.494  0.7212 -1.9477  1.4009
14404TIP3    H243154   3.390   1.378   0.408  0.2154  1.2292  1.6135
14405TIP3   OH243155   1.203   7.479   1.057 -0.0288 -0.0855 -0.1352
14405TIP3    H143156   1.267   7.440   1.116 -0.5606 -0.0538  0.4814
14405TIP3    H243157   1.182   7.564   1.097 -0.4123 -0.0717 -0.3542
14406TIP3   OH243158   6.332   2.275   6.848  0.1762 -0.1880 -0.5114
14406TIP3    H143159   6.263   2.223   6.805  0.9551 -1.4956 -0.2060
14406TIP3    H243160   6.293   2.303   6.931 -0.3226 -0.0996 -0.7737
14407TIP3   OH243161   2.956   2.083   0.986  0.0392 -0.1226 -0.0021
14407TIP3    H143162   2.989   2.169   1.011 -3.0570  1.6872 -1.7129
14407TIP3    H243163   2.977   2.075   0.893 -1.9626 -0.0643 -0.4760
14408TIP3   OH243164   2.744   0.057   2.153 -0.0698 -0.5046  0.5684
14408TIP3    H143165   2.744  -0.011   2.085  0.2137 -0.5149  0.5763
14408TIP3    H243166   2.654   0.089   2.155 -0.0652 -0.4609  0.1439
14409TIP3   OH243167   4.038   6.556   6.327 -0.9234 -0.3057 -0.0406
14409TIP3    H143168   3.987   6.485   6.286 -1.9414  0.3943 -0.0023
14409TIP3    H243169   3.972   6.610   6.370 -0.1474  0.7323 -0.1631
14410TIP3   OH243170   1.642   1.232   0.842 -0.4468  0.0502  0.4674
14410TIP3    H143171   1.736   1.248   0.856 -0.5448  2.9255 -1.6501
14410TIP3    H243172   1.638   1.142   0.810  1.2519 -1.1191  3.2887
14411TIP3   OH243173   4.159   0.419   0.494  0.3280  0.1089 -0.5021
14411TIP3    H143174   4.096   0.349   0.512 -0.3243  0.4389 -1.4702
14411TIP3    H243175   4.244   0.375   0.494 -0.2201 -0.9739 -2.6562
14412TIP3   OH243176   1.782   1.044   0.674 -0.1595  0.6657  0.2775
14412TIP3    H143177   1.789   1.051   0.579  1.7541  1.2461  0.4324
14412TIP3    H243178   1.729   0.966   0.689  1.5552 -0.8479 -1.2688
14413TIP3   OH243179   5.594   5.329   6.008  0.4502  0.0992  0.4673
14413TIP3    H143180   5.622   5.267   6.076 -0.3022  0.3912  1.0464
14413TIP3    H243181   5.504   5.304   5.987  0.4443  0.4403  0.0730
14414TIP3   OH243182   0.829   1.648   1.225  0.2269  0.6586 -0.5247
14414TIP3    H143183   0.838   1.734   1.266  0.4418  0.7773 -0.8136
14414TIP3    H243184   0.751   1.610   1.264 -0.5052  1.4368 -1.1993
14415TIP3   OH243185   1.331   5.490   1.986 -0.2233 -0.0497  0.5840
14415TIP3    H143186   1.305   5.398   1.994 -1.1163  0.0975 -0.4859
14415TIP3    H243187   1.426   5.487   1.970 -0.2092 -0.7685  0.7860
14416TIP3   OH243188   4.040   5.910   6.373  0.1105  0.1624 -0.3028
14416TIP3    H143189   4.110   5.882   6.313  0.8693  1.5117 -0.0570
14416TIP3    H243190   3.966   5.855   6.348  1.3859 -1.6683 -0.2205
14417TIP3   OH243191   1.869   6.850   1.021  0.0381  0.1937  0.1958
14417TIP3    H143192   1.912   6.770   1.051  0.8507  1.0507  1.3265
14417TIP3    H243193   1.941   6.905   0.991 -0.4414  0.8846  0.3185
14418TIP3   OH243194   4.087   0.224   1.862  0.1325  0.2317  0.7580
14418TIP3    H143195   4.012   0.245   1.919 -0.8831 -1.6691  0.1958
14418TIP3    H243196   4.070   0.272   1.781  0.7659  1.6964  1.4801
14419TIP3   OH243197   3.595   0.409   1.457  0.8102 -0.3348 -0.0160
14419TIP3    H143198   3.678   0.373   1.426  1.3959  0.2439  0.8454
14419TIP3    H243199   3.528   0.353   1.418  1.6498 -1.5642  0.2949
14420TIP3   OH243200   2.413   2.032   2.050 -0.1660 -0.5077  0.4708
14420TIP3    H143201   2.378   1.992   2.130 -0.5932  0.5433  0.8074
14420TIP3    H243202   2.371   1.984   1.978 -1.3228 -0.0937  0.8687
14421TIP3   OH243203   1.511   1.706   0.366 -0.5378  0.1581 -0.1556
14421TIP3    H143204   1.426   1.694   0.407  0.4710  0.3924  2.1124
14421TIP3    H243205   1.501   1.784   0.311 -1.7142  0.2970  0.2469
14422TIP3   OH243206   4.578   7.504   1.315 -0.1695  0.1545 -0.3672
14422TIP3    H143207   4.659   7.507   1.264 -0.2637  0.6837 -0.4862
14422TIP3    H243208   4.563   7.410   1.329 -0.6879 -0.0508 -2.1802
14423TIP3   OH243209   6.562   5.208   4.117 -0.1819 -0.1241  0.4413
14423TIP3    H143210   6.652   5.236   4.129 -0.5624  1.2039  0.2048
14423TIP3    H243211   6.569   5.114   4.097  1.0998 -0.1446  0.9337
14424TIP3   OH243212   8.084   1.313   4.788  0.0652 -0.2136  0.3131
14424TIP3    H143213   8.056   1.378   4.853  0.0614 -0.2555  0.3527
14424TIP3    H243214   8.045   1.231   4.817  0.6429 -0.3773  0.6460
14425TIP3   OH243215   3.431   6.469   6.746  0.8265  0.6268  0.3874
14425TIP3    H143216   3.373   6.544   6.755 -0.1274 -0.2523  1.5694
14425TIP3    H243217   3.421   6.420   6.828  1.5908 -0.6841 -0.2851
14426TIP3   OH243218   8.305   1.506   1.443 -0.1463 -0.1683  0.4637
14426TIP3    H143219   8.369   1.549   1.387  0.4781 -0.1755  1.1675
14426TIP3    H243220   8.228   1.563   1.439  0.5400  0.8070  1.0848
14427TIP3   OH243221   1.534   2.770   1.405 -0.3996 -0.0304  0.5844
14427TIP3    H143222   1.613   2.811   1.441 -0.3380 -0.6543  1.1779
14427TIP3    H243223   1.560   2.737   1.319  0.1592 -0.7678  1.0296
14428TIP3   OH243224   1.705   0.414   2.853  0.1894 -0.2204 -0.2457
14428TIP3    H143225   1.642   0.350   2.820  0.3741 -0.5909  0.1031
14428TIP3    H243226   1.695   0.490   2.797 -1.4446  0.1902  0.5694
14429TIP3   OH243227   3.034   1.426   2.837  0.3181 -0.4272 -0.3175
14429TIP3    H143228   3.115   1.441   2.789  0.0317 -1.5077 -1.1569
14429TIP3    H243229   2.972   1.397   2.770 -0.2186 -1.4635  0.6219
14430TIP3   OH243230   0.743   7.293   1.763 -0.1419  0.2751 -0.7865
14430TIP3    H143231   0.755   7.218   1.822 -0.8548  0.4883 -0.3637
14430TIP3    H243232   0.831   7.310   1.728  1.1064  2.4900  3.0867
14431TIP3   OH243233   5.545   0.783   0.229 -0.4010  0.1274 -0.9022
14431TIP3    H143234   5.467   0.740   0.194 -0.0238 -0.1887 -1.3579
14431TIP3    H243235   5.595   0.712   0.270  0.7359 -0.0670 -2.5771
14432TIP3   OH243236   2.269   0.785   1.595 -0.4405  0.3578  0.3187
14432TIP3    H143237   2.312   0.844   1.657 -3.1620 -0.8587  3.5429
14432TIP3    H243238   2.185   0.828   1.577 -1.2388 -1.1351  0.4467
14433TIP3   OH243239   2.468   0.554   0.667  0.0431  0.2513  0.1445
14433TIP3    H143240   2.418   0.517   0.595 -0.3967  0.9057  0.1112
14433TIP3    H243241   2.450   0.648   0.663 -0.1708  0.2618  1.2460
14434TIP3   OH243242   3.670   0.988   0.289 -0.0106 -0.8178  0.8661
14434TIP3    H143243   3.652   0.894   0.277 -0.8638 -0.7783  1.7200
14434TIP3    H243244   3.749   1.004   0.237 -0.5566 -1.7431 -0.2883
14435TIP3   OH243245   3.446   1.047   0.477 -0.6958 -0.1168  0.1474
14435TIP3    H143246   3.501   1.020   0.404 -0.2619 -0.0494  0.4415
14435TIP3    H243247   3.442   1.143   0.471  2.2673  0.2324  2.2174
14436TIP3   OH243248   5.732   6.929   6.918  0.2227 -0.1875 -0.1678
14436TIP3    H143249   5.752   6.915   7.011  0.9138 -1.2050 -0.4686
14436TIP3    H243250   5.813   6.908   6.872 -0.4459 -0.7967 -1.0931
14437TIP3   OH243251   1.763   1.975   1.142 -0.1878 -0.5747  0.1234
14437TIP3    H143252   1.818   1.908   1.183  1.7579  1.3641  0.7339
14437TIP3    H243253   1.766   2.049   1.202 -4.1250 -0.6383  0.5719
14438TIP3   OH243254   2.006   2.675   0.127 -0.2354 -0.4440 -0.3816
14438TIP3    H143255   1.979   2.677   0.035  0.9315  0.2929 -0.7186
14438TIP3    H243256   1.926   2.656   0.175 -0.8059 -1.1200 -1.5773
14439TIP3   OH243257   3.386   0.744   0.099 -0.0631 -0.3283 -0.2934
14439TIP3    H143258   3.372   0.797   0.177 -1.3071  0.5291 -1.0881
14439TIP3    H243259   3.303   0.696   0.087  0.0841 -0.3900 -1.1282
14440TIP3   OH243260   6.374   3.413   6.681 -0.1683  0.0904 -0.0867
14440TIP3    H143261   6.372   3.324   6.717  3.6350  0.5105  1.4552
14440TIP3    H243262   6.360   3.469   6.757 -2.6443  0.8713 -1.0721
14441TIP3   OH243263   7.601   6.668   0.487 -0.2881  0.7398 -0.0218
14441TIP3    H143264   7.649   6.705   0.414 -0.4455  0.6475 -0.1731
14441TIP3    H243265   7.516   6.712   0.485 -0.5510  0.2304 -0.3273
14442TIP3   OH243266   3.467   2.215   2.966 -0.1495  0.2612  0.6288
14442TIP3    H143267   3.504   2.138   3.010  1.7407  1.1729  0.6738
14442TIP3    H243268   3.527   2.232   2.894 -0.2576  2.0386  0.9551
14443TIP3   OH243269   3.572   5.233   6.264 -0.1657  0.1964 -0.1544
14443TIP3    H143270   3.571   5.148   6.220  0.8085 -0.1547  0.4904
14443TIP3    H243271   3.510   5.287   6.214 -1.9112 -1.3282  0.3252
14444TIP3   OH243272   5.547   4.683   5.666  0.0393 -0.5012  0.6266
14444TIP3    H143273   5.552   4.592   5.638 -0.5833 -0.6796  1.0876
14444TIP3    H243274   5.454   4.704   5.666  0.2093  0.3037 -0.0016
14445TIP3   OH243275   8.033   6.783   1.960  0.4353  0.0190 -0.4568
14445TIP3    H143276   8.047   6.876   1.976  2.0223 -0.2058 -0.5429
14445TIP3    H243277   8.007   6.747   2.045 -1.9901  0.8429 -0.7850
14446TIP3   OH243278   1.411   6.926   1.342 -0.4357  0.3969  0.0348
14446TIP3    H143279   1.398   6.901   1.434  2.5778  0.5092  0.5483
14446TIP3    H243280   1.365   6.858   1.293 -3.0969  0.9941  1.6256
14447TIP3   OH243281   2.777   1.239   0.806 -0.3752 -0.5511 -0.3620
14447TIP3    H143282   2.746   1.329   0.812  2.0354  0.2511  0.8999
14447TIP3    H243283   2.751   1.199   0.889  0.1045 -0.4903 -0.1809
14448TIP3   OH243284   3.459   0.212   3.462 -0.2731  0.3380 -0.0435
14448TIP3    H143285   3.465   0.184   3.553 -0.6951 -1.4758 -0.5539
14448TIP3    H243286   3.429   0.303   3.466  1.1291  0.7413  1.6590
14449TIP3   OH243287   1.078   6.106   1.894  0.0461  0.1265 -0.3149
14449TIP3    H143288   1.148   6.164   1.925  0.4368  0.2920 -1.4891
14449TIP3    H243289   1.122   6.046   1.834 -1.0410  1.1050 -2.1459
14450TIP3   OH243290   0.202   1.268   1.592 -0.0348  0.5011 -0.0570
14450TIP3    H143291   0.266   1.335   1.568  3.1330 -1.2288  3.0670
14450TIP3    H243292   0.231   1.190   1.544 -0.6520  0.0758  0.2578
14451TIP3   OH243293   5.756   4.164   6.777  0.0951  0.2905 -0.0714
14451TIP3    H143294   5.842   4.185   6.740  0.8314 -0.1889  1.3342
14451TIP3    H243295   5.694   4.186   6.708  1.3638  0.4900 -1.1606
14452TIP3   OH243296   1.236   2.681  -0.024  0.7882 -0.2886 -0.1878
14452TIP3    H143297   1.140   2.684  -0.024  0.8500  2.9061  0.1604
14452TIP3    H243298   1.260   2.680   0.068  1.1059 -0.3837 -0.2728
14453TIP3   OH243299   4.160   4.472   5.785  0.3284  0.0961  0.4784
14453TIP3    H143300   4.239   4.418   5.792  0.6420  0.2400 -1.6766
14453TIP3    H243301   4.105   4.443   5.857  1.4763 -1.4770  0.7469
14454TIP3   OH243302   2.548   3.130   0.802  0.8949  0.0723  0.2704
14454TIP3    H143303   2.483   3.186   0.760  1.1628 -0.0267 -0.2906
14454TIP3    H243304   2.575   3.070   0.732  0.2226 -1.1014  0.9962
14455TIP3   OH243305   1.844   0.094   0.721  0.3746 -0.0456 -0.2593
14455TIP3    H143306   1.852   0.007   0.682  0.7251 -0.2979  0.3525
14455TIP3    H243307   1.750   0.110   0.725  0.3679  1.2255 -3.8438
14456TIP3   OH243308   0.024   0.174   0.297  0.2557 -0.5380  0.0537
14456TIP3    H143309   0.058   0.176   0.207  0.1506 -0.2417  0.0208
14456TIP3    H243310   0.064   0.250   0.339 -1.1187  0.3792 -0.2560
14457TIP3   OH243311   7.991   7.898   0.312  0.3968  0.0157 -0.1606
14457TIP3    H143312   8.032   7.951   0.380 -0.2995 -0.5511  0.6980
14457TIP3    H243313   7.962   7.819   0.356 -2.1703  0.6610 -0.6055
14458TIP3   OH243314   0.645   8.071   0.320 -0.7226 -0.6067 -0.3600
14458TIP3    H143315   0.624   8.124   0.243 -2.2779  0.4026  0.7285
14458TIP3    H243316   0.566   8.019   0.335  0.3347 -2.3115 -0.6589
14459TIP3   OH243317   3.310   6.263   5.736 -0.5600 -0.1039 -0.4830
14459TIP3    H143318   3.369   6.188   5.728  0.0789  0.4959 -1.4159
14459TIP3    H243319   3.238   6.242   5.677 -0.5187 -0.1143 -0.5304
14460TIP3   OH243320   1.694   0.943   1.916  0.4877  0.2020 -0.3716
14460TIP3    H143321   1.632   0.933   1.988 -1.0720  0.2395 -1.6815
14460TIP3    H243322   1.773   0.898   1.946 -0.5708 -0.8931  0.8437
14461TIP3   OH243323   4.074   3.229   6.914 -0.1334 -0.0702 -0.3307
14461TIP3    H143324   3.993   3.275   6.895  0.0288  0.1752 -0.4214
14461TIP3    H243325   4.053   3.136   6.900 -0.5465 -0.0543  0.1588
14462TIP3   OH243326   1.832   0.238   0.293 -0.0038 -0.0988 -0.4359
14462TIP3    H143327   1.823   0.151   0.255  0.8855  0.1613 -1.2730
14462TIP3    H243328   1.802   0.228   0.383  2.2873 -1.8384  0.1959
14463TIP3   OH243329   3.522   0.822   1.502 -0.5121 -0.5590  0.0530
14463TIP3    H143330   3.607   0.781   1.490 -0.0491  0.5984 -0.6946
14463TIP3    H243331   3.535   0.913   1.477 -1.8080 -0.2114  0.5676
14464TIP3   OH243332   5.089   3.744   6.499 -0.3334  0.7328 -0.1971
14464TIP3    H143333   5.146   3.783   6.432  1.3795  0.1657  0.9014
14464TIP3    H243334   5.093   3.805   6.572 -0.7196  0.4123  0.0902
14465TIP3   OH243335   5.341   6.114   6.210  0.2470  0.1685  0.3016
14465TIP3    H143336   5.367   6.200   6.177  2.1453  0.2938  2.0092
14465TIP3    H243337   5.421   6.062   6.208 -0.7257 -1.3281  0.0011
14466TIP3   OH243338   4.083   0.968   0.787  0.0226  0.7032 -0.1482
14466TIP3    H143339   4.029   0.937   0.714  0.1540 -0.3566  0.1855
14466TIP3    H243340   4.019   1.002   0.851 -0.1015  1.4613 -0.6715
14467TIP3   OH243341   0.615   7.837   1.056  0.5766 -0.8767  0.3218
14467TIP3    H143342   0.616   7.908   1.120  0.5791 -0.4378 -0.1660
14467TIP3    H243343   0.602   7.880   0.972  1.2342 -1.3963 -0.0525
14468TIP3   OH243344   0.555   0.284   0.874 -0.1173 -0.9651 -0.2525
14468TIP3    H143345   0.608   0.276   0.953 -0.1268 -0.3100 -0.1839
14468TIP3    H243346   0.592   0.359   0.827 -1.8355  0.3468  0.4495
14469TIP3   OH243347   5.123   4.342   5.692 -0.1416  0.2400  0.4929
14469TIP3    H143348   5.069   4.277   5.645 -0.3101  1.0221 -0.4078
14469TIP3    H243349   5.068   4.420   5.696  0.9397  1.0591 -0.4715
14470TIP3   OH243350   0.928   0.853   0.603  0.0858 -0.6022 -0.1702
14470TIP3    H143351   0.980   0.806   0.668 -0.8239 -0.2039  0.8774
14470TIP3    H243352   0.857   0.891   0.654  0.4930  1.4237 -1.1018
14471TIP3   OH243353   0.499   7.769   2.236  0.1736  0.0790 -0.1492
14471TIP3    H143354   0.529   7.678   2.229 -0.3987 -0.1458  0.3368
14471TIP3    H243355   0.543   7.802   2.314  1.2117  0.5447 -0.9175
14472TIP3   OH243356   2.334   1.116   0.902 -0.3049  0.2611 -0.5359
14472TIP3    H143357   2.273   1.190   0.894 -0.5638 -0.0972 -2.0763
14472TIP3    H243358   2.412   1.154   0.943  0.1951  1.7927 -2.8058
14473TIP3   OH243359   6.110   4.929   6.859 -0.7909  0.0420  0.4633
14473TIP3    H143360   6.102   4.984   6.780 -2.1726  1.6224  1.6644
14473TIP3    H243361   6.082   4.986   6.930 -0.1316 -1.5692  2.0382
14474TIP3   OH243362   1.001   1.536  -0.008 -0.0685  0.1682 -0.4756
14474TIP3    H143363   1.023   1.573   0.077 -4.8680  1.3072  0.4597
14474TIP3    H243364   1.012   1.442   0.003  0.3513  0.3862  1.0805
14475TIP3   OH243365   0.093   7.411   1.904  0.4474  0.1993  0.4281
14475TIP3    H143366   0.166   7.412   1.966 -0.4312 -0.4020  1.4984
14475TIP3    H243367   0.133   7.390   1.820  1.4826 -0.3341  1.0425
14476TIP3   OH243368   7.217   7.238   0.351 -0.2975 -0.1833  0.5312
14476TIP3    H143369   7.298   7.284   0.373  1.0099 -3.0711  2.1016
14476TIP3    H243370   7.186   7.281   0.271  0.7705  3.3731  1.9400
14477TIP3   OH243371   5.824   8.043   0.415 -0.0877 -0.4668  0.4133
14477TIP3    H143372   5.780   8.121   0.382 -0.9839 -1.4281 -0.6715
14477TIP3    H243373   5.903   8.077   0.458  0.2420  0.9242 -1.2455
14478TIP3   OH243374   3.844   4.763   6.843  0.1299  0.1210 -0.2567
14478TIP3    H143375   3.795   4.801   6.770 -0.2254 -1.0457 -0.6324
14478TIP3    H243376   3.815   4.672   6.847  0.1964  0.1478  1.2971
14479TIP3   OH243377   2.207   0.437   2.464 -0.8269 -0.2171 -0.0242
14479TIP3    H143378   2.130   0.494   2.463 -1.0952 -0.5769 -0.2924
14479TIP3    H243379   2.172   0.349   2.450 -0.1995 -0.1653 -2.2569
14480TIP3   OH243380   6.465   5.444   6.985 -0.7146  0.6068  0.6213
14480TIP3    H143381   6.558   5.423   6.987 -0.9255 -0.2998  1.6190
14480TIP3    H243382   6.457   5.524   7.037 -0.6226  0.0619  1.4956
14481TIP3   OH243383   6.286   5.194   6.099  0.4318 -0.0592 -0.2547
14481TIP3    H143384   6.204   5.182   6.051 -0.2762 -0.0895  0.9339
14481TIP3    H243385   6.344   5.239   6.038 -0.6272  0.3611 -0.9588
14482TIP3   OH243386   2.248   1.284   2.188 -0.2121  0.4836  0.3631
14482TIP3    H143387   2.248   1.320   2.099 -2.3544 -0.9517 -0.2695
14482TIP3    H243388   2.259   1.360   2.244 -0.7573  1.6574 -1.0693
14483TIP3   OH243389   2.371   1.097   0.184 -0.0839 -0.7059  0.4175
14483TIP3    H143390   2.438   1.163   0.203  0.2046 -0.8803  0.0211
14483TIP3    H243391   2.392   1.066   0.096 -0.1080 -1.4483  0.6623
14484TIP3   OH243392   6.109   7.660   1.407  0.0864 -0.1392 -0.0617
14484TIP3    H143393   6.161   7.735   1.437  1.0143 -1.2699  1.2169
14484TIP3    H243394   6.087   7.613   1.488 -0.2538 -1.3974 -0.8883
14485TIP3   OH243395   4.351   2.755   6.967  0.0219 -0.4776  0.3575
14485TIP3    H143396   4.394   2.793   6.891  1.8337  0.3075  1.7463
14485TIP3    H243397   4.330   2.829   7.023  0.4837 -1.2151  1.5268
14486TIP3   OH243398   1.941   0.815   2.042 -0.0093  0.7581  0.6506
14486TIP3    H143399   1.978   0.879   1.982  2.1470  0.8931  2.0819
14486TIP3    H243400   1.950   0.855   2.129 -0.1317 -0.7717  1.3940
14487TIP3   OH243401   8.301   7.093   0.763  0.3358 -0.1403 -0.6062
14487TIP3    H143402   8.375   7.122   0.709  0.0867  1.4493 -0.1264
14487TIP3    H243403   8.225   7.138   0.726 -0.4521 -1.9668 -1.2566
14488TIP3   OH243404   4.004   5.618   5.866 -0.3011 -0.0885 -0.6639
14488TIP3    H143405   4.009   5.646   5.774 -0.2594 -1.0925 -0.9792
14488TIP3    H243406   3.940   5.677   5.906  1.1767  1.6935 -0.8261
14489TIP3   OH243407   2.742   0.862   0.921  0.0837 -0.0342 -0.1867
14489TIP3    H143408   2.747   0.847   0.826  1.0914  1.5882 -0.4149
14489TIP3    H243409   2.739   0.774   0.959  0.6124 -0.7211 -1.6801
14490TIP3   OH243410   6.614   3.645   6.730 -0.4176  0.6143  0.7305
14490TIP3    H143411   6.533   3.640   6.781 -1.2377 -1.0409 -0.6844
14490TIP3    H243412   6.632   3.555   6.704  0.5862  1.2699 -0.9366
14491TIP3   OH243413   2.062   0.813   1.351  0.2567  0.0952 -0.1424
14491TIP3    H143414   2.118   0.767   1.289  0.7429  0.2339  0.1910
14491TIP3    H243415   2.009   0.744   1.392  0.9246 -0.1585  0.2950
14492TIP3   OH243416   6.583   4.768   6.578  0.0720  0.3674 -0.0792
14492TIP3    H143417   6.509   4.822   6.550  0.2000 -0.2895 -1.7226
14492TIP3    H243418   6.549   4.717   6.651 -0.3855  1.8191  0.7380
14493TIP3   OH243419   1.383   8.070   0.860 -0.3471  0.1396 -0.4998
14493TIP3    H143420   1.403   8.012   0.787 -2.9278  0.2460 -1.3325
14493TIP3    H243421   1.326   8.018   0.917 -0.5508  0.9822  0.0687
14494TIP3   OH243422   3.768   0.157   0.890  0.3003 -0.0791 -0.7061
14494TIP3    H143423   3.845   0.207   0.916  1.1321 -1.3272 -0.7395
14494TIP3    H243424   3.792   0.118   0.806 -1.3145  1.6054 -1.9818
14495TIP3   OH243425   3.919   0.641   0.689  0.2681 -0.0174  0.2022
14495TIP3    H143426   3.946   0.724   0.650 -0.5638  0.5239  0.7506
14495TIP3    H243427   3.861   0.601   0.624 -0.2553  0.3814  0.4121
14496TIP3   OH243428   3.733   5.433   6.029  0.2447 -0.3517 -0.1612
14496TIP3    H143429   3.819   5.393   6.019  0.5386  0.0882  0.5522
14496TIP3    H243430   3.690   5.381   6.097  0.3888  0.1339  0.3112
14497TIP3   OH243431   4.085   2.936   6.873 -0.0813  0.2246  0.4057
14497TIP3    H143432   4.043   2.869   6.927 -0.8615  0.7919  0.5171
14497TIP3    H243433   4.118   2.889   6.797  0.3246 -0.4521  0.9938
14498TIP3   OH243434   2.503   0.007   3.291 -0.2971 -0.2918 -0.2197
14498TIP3    H143435   2.563   0.032   3.220  0.5638 -1.7540 -0.0349
14498TIP3    H243436   2.427   0.064   3.279  0.7981  1.0658 -0.9373
14499TIP3   OH243437   5.445   4.541   6.518  0.2842  0.1273  0.2499
14499TIP3    H143438   5.355   4.508   6.516  0.4968 -0.5552  1.6875
14499TIP3    H243439   5.436   4.636   6.522 -0.3405  0.2778 -3.2259
14500TIP3   OH243440   2.494   5.956   5.619  0.5127 -0.3175 -0.2979
14500TIP3    H143441   2.443   5.998   5.550 -0.1190 -0.6134 -0.0156
14500TIP3    H243442   2.577   5.934   5.577  1.1412  1.8760 -0.2537
14501TIP3   OH243443   3.263   5.439   4.962 -0.1930  0.1943  0.0865
14501TIP3    H143444   3.187   5.491   4.988 -0.9406 -0.0845 -1.4688
14501TIP3    H243445   3.237   5.399   4.879  1.6785  0.1493 -0.4953
14502TIP3   OH243446   1.036   1.267   0.015 -0.2387  0.9017  0.4202
14502TIP3    H143447   1.007   1.232  -0.069 -1.5459  2.9209 -0.0260
14502TIP3    H243448   0.968   1.239   0.077 -0.7602  1.7827  0.2529
14503TIP3   OH243449   2.817   0.155   0.044  0.0003 -0.3909  0.4162
14503TIP3    H143450   2.857   0.125  -0.038 -0.3032 -0.3180  0.2392
14503TIP3    H243451   2.841   0.088   0.108 -0.1408 -0.6894  0.1616
14504TIP3   OH243452   1.417   1.074   0.708 -0.1812  0.1184  0.2292
14504TIP3    H143453   1.378   1.102   0.791 -1.7197  1.7088 -0.9888
14504TIP3    H243454   1.347   1.027   0.663  0.3669  0.0280 -0.5339
14505TIP3   OH243455   0.781   1.770   6.859 -0.0490 -0.9981 -0.4744
14505TIP3    H143456   0.862   1.769   6.910 -0.6933  0.0310  0.6217
14505TIP3    H243457   0.809   1.768   6.768  1.2157 -0.3373 -0.1137
14506TIP3   OH243458   1.660   2.361   2.762  0.1876  0.3411  0.4654
14506TIP3    H143459   1.568   2.350   2.784  0.3923  0.6901  1.5327
14506TIP3    H243460   1.697   2.410   2.836  1.6129 -1.3674  0.9262
14507TIP3   OH243461   4.311   4.835   6.350 -0.0414  0.0552 -0.3231
14507TIP3    H143462   4.265   4.802   6.272 -0.0133 -1.0254  0.1156
14507TIP3    H243463   4.361   4.910   6.317  0.2480 -0.6042 -1.4236
14508TIP3   OH243464   7.752   7.657   0.164  0.0643 -0.0563  0.2762
14508TIP3    H143465   7.679   7.717   0.149 -0.0719 -0.0928  0.7758
14508TIP3    H243466   7.785   7.637   0.077  0.6164  1.3665  0.1454
14509TIP3   OH243467   5.800   5.635   6.397  0.0860 -0.1741 -0.4241
14509TIP3    H143468   5.752   5.613   6.476  1.3472 -0.7072  0.2197
14509TIP3    H243469   5.742   5.693   6.348 -0.7639  0.0383  0.8200
14510TIP3   OH243470   8.337   1.059   2.239 -0.0796 -0.0828 -0.1206
14510TIP3    H143471   8.246   1.067   2.269  0.2880  0.2313  0.9163
14510TIP3    H243472   8.365   1.149   2.223  0.1387 -0.1628 -0.1817
14511TIP3   OH243473   0.579   1.058   0.535 -0.3128  0.1330  0.4180
14511TIP3    H143474   0.617   1.006   0.464 -1.6642 -1.6244  0.9498
14511TIP3    H243475   0.628   1.032   0.613 -1.5253 -0.9712  0.8261
14512TIP3   OH243476   0.958   0.491   0.619 -0.1826 -0.3889  0.1008
14512TIP3    H143477   1.036   0.545   0.613 -0.1413 -0.3361  1.0135
14512TIP3    H243478   0.971   0.439   0.698 -1.2044 -0.1720  0.4147
14513TIP3   OH243479   6.857   5.211   6.636  0.4847  0.4107  0.1208
14513TIP3    H143480   6.937   5.166   6.663  0.1256  0.8516  1.9663
14513TIP3    H243481   6.788   5.145   6.644  0.7579 -0.2229 -2.2943
14514TIP3   OH243482   3.139   2.019   0.584  0.1297 -0.2515  0.0943
14514TIP3    H143483   3.222   2.042   0.543  0.2613 -2.8446 -1.1689
14514TIP3    H243484   3.157   2.024   0.678  1.2842  0.6069 -0.1561
14515TIP3   OH243485   1.032   1.469   1.969 -0.8577 -0.4528  0.0204
14515TIP3    H143486   1.066   1.520   2.042 -0.5615 -0.3794 -0.1687
14515TIP3    H243487   0.978   1.401   2.011  0.6082 -1.3910  0.4013
14516TIP3   OH243488   4.838   5.374   6.180  0.1783 -0.0454 -0.2226
14516TIP3    H143489   4.754   5.387   6.224  0.6971  0.7960  0.5298
14516TIP3    H243490   4.850   5.453   6.127  1.4583  0.7705  1.2596
14517TIP3   OH243491   1.021   0.818   1.445 -0.9588 -0.4296  0.2126
14517TIP3    H143492   1.011   0.800   1.538 -1.6226  0.4820  0.3228
14517TIP3    H243493   0.933   0.843   1.415 -0.8118 -0.9880 -0.7180
14518TIP3   OH243494   6.282   5.094   5.583  0.4429  0.0691 -0.2776
14518TIP3    H143495   6.348   5.081   5.515 -1.3928 -3.3664 -1.5370
14518TIP3    H243496   6.289   5.017   5.638 -2.9649 -0.7958 -0.9014
14519TIP3   OH243497   6.267   5.424   1.994  0.1757 -0.3375 -0.3242
14519TIP3    H143498   6.302   5.477   1.923 -1.0422  0.7228 -0.1623
14519TIP3    H243499   6.316   5.453   2.071  0.1816 -0.1264 -0.4063
14520TIP3   OH243500   6.841   4.871   6.694 -0.7102 -0.0299  0.0583
14520TIP3    H143501   6.813   4.934   6.760 -0.1078 -1.8136  2.0857
14520TIP3    H243502   6.760   4.838   6.656 -1.1213  0.0901  0.8136
14521TIP3   OH243503   0.658   5.400   0.458  0.0811  0.0953 -0.1559
14521TIP3    H143504   0.747   5.434   0.453  0.2362 -0.3337 -0.3147
14521TIP3    H243505   0.629   5.396   0.367 -0.8112  2.1135  0.0230
14522TIP3   OH243506   7.672   7.565   1.675 -0.8075 -0.2630  0.0634
14522TIP3    H143507   7.763   7.595   1.678  0.0835 -2.8139 -0.4546
14522TIP3    H243508   7.660   7.516   1.756 -1.6010 -0.2678 -0.0545
14523TIP3   OH243509   0.918   0.958   4.369 -0.4380 -0.2544 -0.5318
14523TIP3    H143510   0.887   1.048   4.367  0.1653 -0.0461 -0.2681
14523TIP3    H243511   0.901   0.928   4.458 -1.7431 -0.7854 -0.9467
14524TIP3   OH243512   8.369   7.705   1.403  0.0413  0.2444  0.2307
14524TIP3    H143513   8.361   7.613   1.378 -0.6748  0.1835  0.6655
14524TIP3    H243514   8.459   7.713   1.437 -0.1629 -0.4895  0.9669
14525TIP3   OH243515   8.400   0.823   2.871  0.2493 -0.4090  0.4543
14525TIP3    H143516   8.352   0.796   2.949  1.4858 -1.3557  0.9041
14525TIP3    H243517   8.483   0.859   2.904  1.9654 -3.3000 -0.4876
14526TIP3   OH243518   0.268   7.970   1.166  0.2103  0.6739 -0.2715
14526TIP3    H143519   0.243   7.878   1.161  1.6874  0.3301 -1.5887
14526TIP3    H243520   0.334   7.973   1.236 -0.0287  0.7879 -0.0482
14527TIP3   OH243521   1.599   7.341   0.669  0.0981  0.5086 -0.4308
14527TIP3    H143522   1.514   7.317   0.707  0.6356  2.2841  1.9829
14527TIP3    H243523   1.660   7.335   0.742  1.5683  1.9497 -1.5154
14528TIP3   OH243524   3.433   1.779   3.277 -0.2593  0.2429  0.0723
14528TIP3    H143525   3.485   1.858   3.295  0.1090  0.1588 -0.6113
14528TIP3    H243526   3.457   1.719   3.348  0.3797  0.3082 -0.0782
14529TIP3   OH243527   8.191   1.403   0.917  0.2637 -0.1549 -0.1525
14529TIP3    H143528   8.262   1.350   0.953  1.8718  2.5167  0.8422
14529TIP3    H243529   8.139   1.427   0.993 -0.2012  0.0205 -0.5279
14530TIP3   OH243530   8.080   7.788   3.120  0.4827  1.0805  0.1254
14530TIP3    H143531   8.070   7.708   3.068  1.6901  0.7127  0.4553
14530TIP3    H243532   8.142   7.765   3.188  0.8004  2.2950  0.2577
14531TIP3   OH243533   6.643   2.677   6.542  0.1520  0.0608  0.2055
14531TIP3    H143534   6.644   2.757   6.595  2.1138  0.7371 -0.7949
14531TIP3    H243535   6.648   2.708   6.451 -1.3413 -1.1416 -0.3106
14532TIP3   OH243536   6.319   6.387   5.465  0.2550 -0.5028  0.0286
14532TIP3    H143537   6.317   6.299   5.428 -0.0019 -1.0344  1.3076
14532TIP3    H243538   6.251   6.434   5.417  1.4438 -0.5296 -1.7665
14533TIP3   OH243539   0.568   7.277   0.682  0.3716  0.4237  1.0145
14533TIP3    H143540   0.492   7.220   0.668  0.6090  0.6037 -1.1630
14533TIP3    H243541   0.619   7.233   0.749 -0.4154 -0.9412  0.7310
14534TIP3   OH243542   4.171   6.241   6.859  0.0745 -0.5136 -0.1862
14534TIP3    H143543   4.114   6.255   6.784  0.1754 -0.6203 -0.2835
14534TIP3    H243544   4.185   6.328   6.896  0.6924 -0.3540 -0.7836
14535TIP3   OH243545   2.071   2.437   0.380 -0.0172  0.2524  0.4678
14535TIP3    H143546   2.108   2.415   0.295  0.7746  2.1096  0.3129
14535TIP3    H243547   2.128   2.392   0.443  1.9643  2.2953  0.1853
14536TIP3   OH243548   7.190   6.792   6.917  0.7957 -0.2528 -0.1324
14536TIP3    H143549   7.220   6.846   6.990 -0.5408  1.8741 -1.0773
14536TIP3    H243550   7.266   6.788   6.858  0.7910  0.9738 -0.2378
14537TIP3   OH243551   4.836   0.259   2.773 -0.1960  0.5819 -0.0713
14537TIP3    H143552   4.840   0.265   2.869  0.4112 -2.1116  0.1241
14537TIP3    H243553   4.918   0.217   2.748 -2.1909 -2.8788 -1.2953
14538TIP3   OH243554   2.435   1.931   1.337 -0.0722  0.2036 -0.1935
14538TIP3    H143555   2.492   1.987   1.284  0.5806  1.0938  1.4009
14538TIP3    H243556   2.407   1.862   1.278  0.9138  0.9830 -1.5953
14539TIP3   OH243557   2.851   0.797   0.658  0.5921 -0.2158  0.5635
14539TIP3    H143558   2.856   0.787   0.563  1.3804  0.5771  0.5128
14539TIP3    H243559   2.854   0.708   0.692  1.0638 -0.4617 -0.1218
14540TIP3   OH243560   5.486   4.882   5.342  0.7842  0.1840  0.0597
14540TIP3    H143561   5.576   4.880   5.309  0.4199 -1.1666 -0.8730
14540TIP3    H243562   5.489   4.943   5.416  2.0681  1.6014 -1.1214
14541TIP3   OH243563   2.544   1.291   0.257 -0.2810 -0.2814 -0.2294
14541TIP3    H143564   2.601   1.361   0.228 -1.9495  1.2083  0.0095
14541TIP3    H243565   2.516   1.318   0.345 -2.1099 -0.5043 -0.7296
14542TIP3   OH243566   1.809   2.357   2.155  0.0205  0.0128  0.1388
14542TIP3    H143567   1.725   2.401   2.168 -1.0420 -1.6296 -0.9695
14542TIP3    H243568   1.856   2.370   2.237 -2.0734 -0.6053  1.4781
14543TIP3   OH243569   3.148   0.487   2.583  0.0592 -0.0457  0.2055
14543TIP3    H143570   3.107   0.439   2.511  0.1924 -2.5114  1.7423
14543TIP3    H243571   3.077   0.503   2.645  0.1760  1.1146  0.0561
14544TIP3   OH243572   7.867   6.679   0.999 -0.3562 -0.0172  0.1382
14544TIP3    H143573   7.843   6.666   0.907  0.5755 -0.3976 -0.0538
14544TIP3    H243574   7.797   6.734   1.035 -1.0712 -0.4305 -0.6285
14545TIP3   OH243575   4.656   0.433   2.496 -0.1862  0.6886  0.6779
14545TIP3    H143576   4.662   0.527   2.512 -0.6626  1.0326 -1.0632
14545TIP3    H243577   4.744   0.408   2.468 -0.3893  0.8870 -0.1630
14546TIP3   OH243578   6.997   7.595   1.061  0.0344 -0.7344 -0.0797
14546TIP3    H143579   6.938   7.617   1.133 -1.2512 -0.3115 -1.2310
14546TIP3    H243580   6.948   7.531   1.010  0.1601  0.3466 -1.5858
14547TIP3   OH243581   0.267   7.573   0.769 -0.2853 -0.0977 -0.3418
14547TIP3    H143582   0.201   7.503   0.770  0.1293 -0.5822 -3.4072
14547TIP3    H243583   0.347   7.530   0.799 -0.6365 -0.2578  0.3901
14548TIP3   OH243584   5.168   0.389   1.502 -0.2908 -0.1967  0.5415
14548TIP3    H143585   5.207   0.302   1.500  1.7632  0.6942  0.9966
14548TIP3    H243586   5.212   0.437   1.432 -1.8005  0.3314 -0.0719
14549TIP3   OH243587   7.679   3.056   4.946  0.2219  0.0561 -0.0683
14549TIP3    H143588   7.623   3.075   5.020  0.2557 -0.6555  0.1427
14549TIP3    H243589   7.763   3.032   4.985 -0.0007 -1.1241 -0.3104
14550TIP3   OH243590   6.437   3.976   6.518 -0.0919 -0.1219 -0.2681
14550TIP3    H143591   6.356   3.928   6.531  0.4191 -0.7745  0.5771
14550TIP3    H243592   6.417   4.040   6.449 -1.0162 -0.9804 -0.8026
14551TIP3   OH243593   3.038   0.814   1.038 -0.4531  0.7169 -0.4818
14551TIP3    H143594   2.950   0.808   1.001 -0.6208  0.8643 -0.1122
14551TIP3    H243595   3.096   0.791   0.966 -0.8848 -1.3422 -0.1917
14552TIP3   OH243596   7.508   7.155   6.380  0.5388 -0.2465 -0.4753
14552TIP3    H143597   7.520   7.070   6.337 -0.4665 -0.8076  0.3440
14552TIP3    H243598   7.437   7.197   6.330  0.0987 -0.4588 -0.0318
14553TIP3   OH243599   1.811   0.614   1.758  0.5903  0.2585  0.0523
14553TIP3    H143600   1.859   0.697   1.747  0.3030  0.2076 -1.6446
14553TIP3    H243601   1.874   0.547   1.733  0.6613 -0.0126  0.9495
14554TIP3   OH243602   8.369   7.420   1.353 -0.3527 -0.1384 -0.1642
14554TIP3    H143603   8.291   7.370   1.327 -1.3847  1.9243 -1.1248
14554TIP3    H243604   8.412   7.365   1.418 -3.2700 -0.7608  1.2953
14555TIP3   OH243605   4.117   0.676   0.441 -0.2057  0.9530  0.1052
14555TIP3    H143606   4.104   0.589   0.479 -0.4434  0.7296 -0.4854
14555TIP3    H243607   4.205   0.701   0.468 -0.7259  1.2113  1.6372
14556TIP3   OH243608   1.815   0.572   2.173  0.1608 -0.3487  0.0893
14556TIP3    H143609   1.720   0.569   2.188  0.1559  1.2764  0.4932
14556TIP3    H243610   1.832   0.663   2.147  1.6477 -0.5540  0.2995
14557TIP3   OH243611   6.449   7.162   2.708 -0.1116 -1.1872 -0.3179
14557TIP3    H143612   6.374   7.115   2.744  1.1641 -2.0205  1.3773
14557TIP3    H243613   6.486   7.103   2.642  0.3355 -1.7470  0.4211
14558TIP3   OH243614   4.152   1.885   2.451  0.4063 -0.2168  0.3358
14558TIP3    H143615   4.225   1.825   2.466  0.5209 -0.5856 -1.6370
14558TIP3    H243616   4.074   1.830   2.464  0.5101 -0.7754 -1.3390
14559TIP3   OH243617   0.107   7.898   0.554 -0.1020 -0.6743  0.3619
14559TIP3    H143618   0.182   7.890   0.496 -0.0887  0.8321  0.1448
14559TIP3    H243619   0.033   7.918   0.496 -0.0757  0.9125  0.8440
14560TIP3   OH243620   4.461   4.571   6.689  0.0605  0.1754  0.0401
14560TIP3    H143621   4.504   4.487   6.707 -0.3250 -0.0898 -0.2732
14560TIP3    H243622   4.454   4.574   6.594 -1.8267 -0.3913  0.1519
14561TIP3   OH243623   5.608   4.047   5.426  0.0342 -0.4479 -0.3579
14561TIP3    H143624   5.518   4.034   5.395 -0.0256  0.4510 -0.5784
14561TIP3    H243625   5.661   3.990   5.370 -0.5588 -2.1033  0.7480
14562TIP3   OH243626   6.188   7.825   3.802  0.1606  0.3505  0.1069
14562TIP3    H143627   6.213   7.737   3.832 -0.2489  0.5019  0.9133
14562TIP3    H243628   6.156   7.869   3.881 -1.5324  0.5478 -0.6555
14563TIP3   OH243629   1.173   6.376   3.088  0.1689  0.0872  0.0879
14563TIP3    H143630   1.181   6.463   3.050 -1.4707 -0.5195 -1.7505
14563TIP3    H243631   1.222   6.319   3.029 -0.9826 -0.6097 -0.2262
14564TIP3   OH243632   0.337   1.129   2.732 -0.3450  0.3053  0.1844
14564TIP3    H143633   0.293   1.100   2.812  0.6769  0.9864  1.0223
14564TIP3    H243634   0.406   1.188   2.763  1.5037 -1.1354 -1.0504
14565TIP3   OH243635   7.752   1.344   0.707 -0.5069  0.5335  0.4702
14565TIP3    H143636   7.673   1.295   0.726  1.5500 -3.0640  0.0622
14565TIP3    H243637   7.782   1.376   0.792 -1.4319  0.4229  0.8356
14566TIP3   OH243638   2.674   3.394   0.600 -0.0257 -0.2865 -0.4869
14566TIP3    H143639   2.693   3.338   0.675  1.1009 -0.3250 -0.7989
14566TIP3    H243640   2.750   3.452   0.592 -1.3367  1.5522  0.0488
14567TIP3   OH243641   4.307   0.300   0.026  0.6298  0.0268 -0.5220
14567TIP3    H143642   4.376   0.353  -0.014 -0.9486  0.2991 -2.9714
14567TIP3    H243643   4.281   0.350   0.103  2.3779  0.4689 -0.1896
14568TIP3   OH243644   1.790   1.573   3.188  0.1310  0.3530  0.8239
14568TIP3    H143645   1.733   1.520   3.243 -1.5228  2.4215  1.1558
14568TIP3    H243646   1.786   1.532   3.102 -1.5679  0.2311  0.9418
14569TIP3   OH243647   1.281   1.154   0.933 -0.8873  0.5510  0.7068
14569TIP3    H143648   1.319   1.114   1.011  2.3476 -0.2133 -1.1597
14569TIP3    H243649   1.280   1.248   0.952 -1.8150  0.2048  2.3610
14570TIP3   OH243650   2.201   1.426   2.672  0.0078 -0.3211 -0.0093
14570TIP3    H143651   2.204   1.333   2.649 -1.9655  0.1117 -2.2335
14570TIP3    H243652   2.112   1.454   2.649  0.2482  1.8937  1.5665
14571TIP3   OH243653   1.793   7.917   0.907 -0.1534  0.5340 -0.3832
14571TIP3    H143654   1.743   7.989   0.869 -0.0502  0.5467 -0.4943
14571TIP3    H243655   1.755   7.905   0.994 -0.6151  0.2844 -0.6139
14572TIP3   OH243656   3.843   5.490   5.665  0.3489 -0.7434 -0.4509
14572TIP3    H143657   3.895   5.410   5.658 -0.3353 -1.2593  0.2807
14572TIP3    H243658   3.757   5.466   5.631  0.3169 -0.1539 -0.7856
14573TIP3   OH243659   4.335   4.172   5.047 -0.0896 -0.2784  0.2757
14573TIP3    H143660   4.342   4.189   5.141 -2.6801 -0.0947  0.4769
14573TIP3    H243661   4.400   4.230   5.007  0.5180  0.1827  1.9032
14574TIP3   OH243662   2.601   0.910   3.121  0.2209  0.0486  0.1214
14574TIP3    H143663   2.689   0.898   3.158 -0.2166 -1.0894  0.8047
14574TIP3    H243664   2.602   0.858   3.041 -0.5879 -1.9054  1.3543
14575TIP3   OH243665   4.951   4.370   6.460 -0.2282 -0.0148 -0.0608
14575TIP3    H143666   4.884   4.432   6.431 -0.1773  0.2667  0.4227
14575TIP3    H243667   4.901   4.295   6.493 -0.3153  0.3775  0.7068
14576TIP3   OH243668   6.720   7.631   0.452  0.5145 -0.2783  0.3444
14576TIP3    H143669   6.774   7.605   0.377 -0.2203 -0.4865 -0.1113
14576TIP3    H243670   6.681   7.549   0.483 -0.5546  0.0428 -0.1236
14577TIP3   OH243671   2.051   1.008   0.736  0.1658 -0.0855 -0.3605
14577TIP3    H143672   2.104   1.026   0.658  0.1119  2.2894  0.1236
14577TIP3    H243673   1.961   1.015   0.706  0.1460  0.9991 -0.0430
14578TIP3   OH243674   8.497   7.958   0.391 -0.3171 -0.1372  0.2581
14578TIP3    H143675   8.441   7.900   0.340 -1.4337 -0.0382  1.3683
14578TIP3    H243676   8.475   8.046   0.360 -0.4849 -0.1225  0.4219
14579TIP3   OH243677   8.476   0.822   2.387  0.1411 -0.3795 -0.4793
14579TIP3    H143678   8.527   0.778   2.320 -2.3228 -3.5038 -0.4298
14579TIP3    H243679   8.392   0.841   2.345 -0.2792  0.5670  0.7526
14580TIP3   OH243680   0.952   1.372   1.435 -0.0997  0.2499  0.3441
14580TIP3    H143681   0.869   1.419   1.427 -0.2774  0.3624  2.6659
14580TIP3    H243682   0.934   1.285   1.400 -0.5538  0.9900 -1.3043
14581TIP3   OH243683   8.481   6.610   0.890 -0.0642 -0.0792 -0.1546
14581TIP3    H143684   8.570   6.579   0.909  0.2830  0.7939 -0.3137
14581TIP3    H243685   8.490   6.705   0.885 -1.1448  0.0651  0.5130
14582TIP3   OH243686   5.309   5.284   6.069 -0.0207 -0.0454 -0.3809
14582TIP3    H143687   5.221   5.253   6.090 -0.6784  1.6294 -0.5587
14582TIP3    H243688   5.300   5.320   5.980  1.1815 -1.1483 -0.9543
14583TIP3   OH243689   2.556   0.250   1.112  0.2652  0.8187  0.7033
14583TIP3    H143690   2.604   0.240   1.030  0.8720  1.5362  0.9625
14583TIP3    H243691   2.549   0.161   1.147 -0.7072  0.4157 -0.5262
14584TIP3   OH243692   4.910   6.808   6.857 -0.2801  0.5000  0.6179
14584TIP3    H143693   4.921   6.893   6.900 -0.9192  0.4696  0.8431
14584TIP3    H243694   4.999   6.776   6.845 -0.0562  0.9889  0.9682
14585TIP3   OH243695   7.640   7.997   0.507  0.2545  0.1189 -0.0413
14585TIP3    H143696   7.663   7.904   0.506 -0.8860 -0.1768  0.2056
14585TIP3    H243697   7.638   8.022   0.414 -0.6364 -0.4269 -0.1823
14586TIP3   OH243698   2.263   0.108   1.018  0.0434 -0.6365  0.0168
14586TIP3    H143699   2.312   0.080   1.095 -0.3231 -0.7265  0.2169
14586TIP3    H243700   2.310   0.069   0.944 -0.6173 -1.9895  0.3084
14587TIP3   OH243701   1.076   2.406   1.690  0.9264 -0.6546 -0.2698
14587TIP3    H143702   1.163   2.366   1.687  1.5421  0.5786  0.3108
14587TIP3    H243703   1.026   2.351   1.751  2.5283  0.8478  2.5081
14588TIP3   OH243704   1.567   1.761   0.683 -0.0934 -0.0597  0.4082
14588TIP3    H143705   1.656   1.768   0.649  0.3355 -1.1618  1.2739
14588TIP3    H243706   1.559   1.670   0.711 -1.5512 -0.0158  0.2034
14589TIP3   OH243707   2.804   0.372   3.501  0.0026  0.5114 -0.0379
14589TIP3    H143708   2.792   0.417   3.584 -2.3383  1.5510 -0.8903
14589TIP3    H243709   2.811   0.280   3.524  1.1149  0.9437  1.4295
14590TIP3   OH243710   7.172   3.218   6.348 -0.2422 -0.3387 -0.2239
14590TIP3    H143711   7.210   3.258   6.426  0.4121 -0.8131 -0.2951
14590TIP3    H243712   7.173   3.124   6.366 -3.2425 -0.2602  0.6145
14591TIP3   OH243713   3.344   7.136   6.314 -0.4343 -0.0406 -0.4281
14591TIP3    H143714   3.331   7.222   6.272  0.4091  0.3828  0.1778
14591TIP3    H243715   3.287   7.077   6.264 -0.6054  0.7605 -1.1993
14592TIP3   OH243716   6.693   7.687   2.552 -0.3753 -0.0728 -0.8393
14592TIP3    H143717   6.767   7.637   2.518 -1.0485 -1.5083 -0.2277
14592TIP3    H243718   6.617   7.632   2.536 -1.0598  0.4878  0.3686
14593TIP3   OH243719   2.999   0.718   0.402 -0.2922  0.0422  0.2567
14593TIP3    H143720   3.079   0.738   0.353 -0.0805 -1.9627 -0.2624
14593TIP3    H243721   2.932   0.706   0.335 -0.6527  0.0880  0.6042
14594TIP3   OH243722   4.201   1.370   0.954  0.2366 -0.3281  0.0263
14594TIP3    H143723   4.221   1.451   1.002 -0.4404 -0.4149  0.4534
14594TIP3    H243724   4.105   1.367   0.951  0.2680 -0.7055 -0.6880
14595TIP3   OH243725   8.304   5.259   5.259  0.2027 -0.3257  0.1400
14595TIP3    H143726   8.354   5.279   5.180 -3.8829 -1.5345 -2.9433
14595TIP3    H243727   8.308   5.164   5.267  0.2323 -0.2453  1.1808
14596TIP3   OH243728   7.016   7.950   1.078 -0.3022  0.2332  0.1259
14596TIP3    H143729   7.058   7.970   1.161  0.7017 -0.7271 -0.1417
14596TIP3    H243730   7.019   7.855   1.071 -0.2171  0.3044 -1.0845
14597TIP3   OH243731   4.287   1.064   2.339  0.7252 -0.1135 -0.0224
14597TIP3    H143732   4.211   1.062   2.397  0.3486 -0.0946 -0.5083
14597TIP3    H243733   4.361   1.079   2.397  0.0257  2.9762  0.1271
14598TIP3   OH243734   3.918   2.688   1.632 -0.1270 -0.2088  0.0197
14598TIP3    H143735   3.867   2.764   1.661 -1.3469 -1.1248  0.3028
14598TIP3    H243736   3.889   2.617   1.689  1.3585 -0.7890  0.0717
14599TIP3   OH243737   5.275   4.728   5.038 -0.2039 -0.5098  0.7214
14599TIP3    H143738   5.196   4.748   5.089  0.0103  1.5900  0.2909
14599TIP3    H243739   5.307   4.814   5.009  0.6035 -1.5285 -1.5502
14600TIP3   OH243740   4.783   0.418   0.350  0.1544  0.4763  0.3049
14600TIP3    H143741   4.808   0.437   0.440  0.8164 -1.5532  0.5686
14600TIP3    H243742   4.850   0.359   0.318  1.2566  3.0187 -2.3392
14601TIP3   OH243743   7.165   7.142   5.178  0.2682 -0.2469 -0.0390
14601TIP3    H143744   7.191   7.223   5.133  0.1400 -0.4440 -0.4614
14601TIP3    H243745   7.087   7.166   5.227 -0.3418 -0.3706 -0.9468
14602TIP3   OH243746   5.030   5.417   5.500 -0.0370 -0.2750  0.0451
14602TIP3    H143747   5.094   5.358   5.540  0.1490 -0.9781 -1.2550
14602TIP3    H243748   5.014   5.380   5.413 -2.3069 -0.1910  0.3805
14603TIP3   OH243749   7.427   2.454   5.828  0.5194 -0.1894 -0.0925
14603TIP3    H143750   7.493   2.508   5.869  0.6391 -1.4292  1.3838
14603TIP3    H243751   7.349   2.509   5.826  0.5505 -0.0484  1.6833
14604TIP3   OH243752   2.626   1.907   4.316  0.0079 -0.1194  0.3226
14604TIP3    H143753   2.670   1.989   4.338 -1.7026  1.0345 -0.4981
14604TIP3    H243754   2.697   1.850   4.285  0.9436  1.7547 -1.1307
14605TIP3   OH243755   4.626   0.056   2.579 -0.5593  0.6127  0.1004
14605TIP3    H143756   4.684   0.062   2.503 -0.9730  1.0609 -0.1845
14605TIP3    H243757   4.575   0.136   2.576 -0.5372  0.6567  0.8912
14606TIP3   OH243758   6.565   6.660   6.042 -0.4644 -0.3513 -1.0957
14606TIP3    H143759   6.642   6.605   6.053  0.6214  1.0624 -1.5262
14606TIP3    H243760   6.520   6.623   5.966  1.8010  1.0575 -3.2267
14607TIP3   OH243761   6.428   6.021   6.295 -0.0735 -0.3438 -0.1490
14607TIP3    H143762   6.433   5.950   6.231  0.2597  1.0908 -1.7462
14607TIP3    H243763   6.475   5.988   6.372 -0.4782 -2.0839 -0.6299
14608TIP3   OH243764   6.996   5.078   6.360 -0.1143 -0.4053  0.0234
14608TIP3    H143765   6.907   5.053   6.383  0.3833 -1.7952  0.4842
14608TIP3    H243766   7.047   5.062   6.440  0.8650 -1.3087 -0.7642
14609TIP3   OH243767   2.844   0.556   0.776  0.5757 -0.2896  0.0178
14609TIP3    H143768   2.797   0.567   0.859 -2.8039 -0.7153 -1.7784
14609TIP3    H243769   2.897   0.477   0.790 -1.0753 -1.2106  1.2844
14610TIP3   OH243770   6.064   7.721   6.372 -0.3900  0.4884 -0.0699
14610TIP3    H143771   6.036   7.638   6.411 -1.3556  0.3189 -1.1210
14610TIP3    H243772   6.019   7.788   6.423  2.0314  0.5100  2.1837
14611TIP3   OH243773   3.876   0.560   2.113  0.4844  0.2659 -0.4245
14611TIP3    H143774   3.784   0.586   2.105 -0.2677 -2.6585 -1.9384
14611TIP3    H243775   3.921   0.612   2.046  0.1824  2.5736  1.0984
14612TIP3   OH243776   4.342   0.472   1.392  0.3314 -0.1027  0.0228
14612TIP3    H143777   4.403   0.513   1.453 -0.1981  1.4933 -0.4770
14612TIP3    H243778   4.261   0.463   1.443  0.8316 -1.7746  0.5387
14613TIP3   OH243779   3.816   1.276   2.308  0.0706  0.6492  0.0472
14613TIP3    H143780   3.846   1.187   2.326 -1.5272 -0.2752 -1.7079
14613TIP3    H243781   3.721   1.273   2.324 -0.2506  1.6021 -1.5601
14614TIP3   OH243782   2.454   1.494   1.633  0.2437  0.2173 -0.0733
14614TIP3    H143783   2.505   1.503   1.713 -1.6791 -1.0534  1.3127
14614TIP3    H243784   2.366   1.472   1.662 -1.0622  2.1020 -2.4550
14615TIP3   OH243785   2.578   7.962   0.974 -0.1561  0.0177  0.3122
14615TIP3    H143786   2.670   7.946   0.996  0.8144  1.4193 -2.5382
14615TIP3    H243787   2.546   8.017   1.046  2.7373  3.9074 -1.2099
14616TIP3   OH243788   4.767   0.437   1.012 -0.5117  0.0719  0.1154
14616TIP3    H143789   4.688   0.466   0.965 -0.6862 -1.6317 -0.6538
14616TIP3    H243790   4.749   0.458   1.103 -1.9856 -0.5511 -0.0166
14617TIP3   OH243791   3.688   1.936   0.153  0.0001 -0.0811  0.5218
14617TIP3    H143792   3.691   2.028   0.128 -0.6548  0.3176  1.8348
14617TIP3    H243793   3.767   1.922   0.205  0.4968 -0.4617 -0.3385
14618TIP3   OH243794   6.268   6.032   5.633  0.2232 -0.1213 -0.5137
14618TIP3    H143795   6.297   6.016   5.722 -0.6020 -2.7306 -0.6651
14618TIP3    H243796   6.173   6.042   5.640  0.2174  0.2005 -1.0130
14619TIP3   OH243797   3.268   0.754   0.887  0.1740 -0.0605  0.1946
14619TIP3    H143798   3.266   0.787   0.797 -1.0529 -0.7672 -0.0494
14619TIP3    H243799   3.288   0.661   0.878 -1.2087 -0.4038  0.5639
14620TIP3   OH243800   4.094   0.134   0.258 -0.3293 -0.4109 -0.0913
14620TIP3    H143801   4.055   0.173   0.180 -1.1303 -1.8372 -0.4268
14620TIP3    H243802   4.062   0.189   0.330 -0.2190  0.4432 -0.6840
14621TIP3   OH243803   7.609   7.756   6.597 -0.0660  0.5859 -1.0197
14621TIP3    H143804   7.577   7.843   6.623 -0.8003  0.4958 -1.6126
14621TIP3    H243805   7.595   7.701   6.675  0.7001  1.0663 -0.5317
14622TIP3   OH243806   6.469   5.463   5.665 -0.3667  0.1795 -0.6187
14622TIP3    H143807   6.518   5.392   5.624  0.3158 -0.3574  1.0714
14622TIP3    H243808   6.522   5.541   5.650  0.5556 -0.2396  0.3753
14623TIP3   OH243809   4.192   0.548   0.800 -0.8901 -0.1908  0.1057
14623TIP3    H143810   4.231   0.465   0.773 -0.9437 -0.0617 -0.3692
14623TIP3    H243811   4.135   0.573   0.727 -0.3865  0.5842 -0.0283
14624TIP3   OH243812   5.078   4.431   7.018 -0.0705  0.6627 -0.0412
14624TIP3    H143813   5.089   4.382   6.936 -0.2677  0.1924  0.2173
14624TIP3    H243814   5.024   4.375   7.073 -1.0327  1.5509 -0.0723
14625TIP3   OH243815   7.225   6.464   5.203  0.2698  0.4417 -0.4263
14625TIP3    H143816   7.222   6.403   5.129 -0.5021  1.9306 -1.6273
14625TIP3    H243817   7.154   6.436   5.260  0.1994 -0.0487 -0.7507
14626TIP3   OH243818   4.743   6.646   5.988 -0.2203  0.1011 -0.6363
14626TIP3    H143819   4.668   6.676   6.040  0.6893 -0.6321  1.1465
14626TIP3    H243820   4.752   6.553   6.011 -0.0371 -0.3293 -2.4159
14627TIP3   OH243821   3.711   0.462   0.588 -0.4606  0.5904 -0.6422
14627TIP3    H143822   3.775   0.402   0.625 -0.7759 -0.1655 -1.3003
14627TIP3    H243823   3.633   0.451   0.643  0.0496  1.6861  0.3038
14628TIP3   OH243824   8.328   5.408   5.722  0.3583  0.0226 -0.2631
14628TIP3    H143825   8.318   5.323   5.677  1.1151  0.5278 -1.4159
14628TIP3    H243826   8.293   5.471   5.659 -0.0249  0.5909  0.5195
14629TIP3   OH243827   6.409   3.544   5.972  0.2402 -0.4753  0.0839
14629TIP3    H143828   6.466   3.617   5.998  0.3274  0.0230 -1.4577
14629TIP3    H243829   6.464   3.489   5.917 -0.6211 -0.2165 -1.0698
14630TIP3   OH243830   6.115   1.907   0.450  0.0957  0.6843 -0.1854
14630TIP3    H143831   6.084   1.930   0.362 -1.1373  0.3484  0.1604
14630TIP3    H243832   6.060   1.834   0.476 -0.2295  1.4391  1.2832
14631TIP3   OH243833   2.209   3.156   0.927 -0.4315  0.3060 -0.6390
14631TIP3    H143834   2.196   3.126   1.017 -0.6579 -0.5704 -0.9642
14631TIP3    H243835   2.301   3.139   0.909  0.0222  1.9981 -0.0183
14632TIP3   OH243836   6.444   2.230   6.210 -0.1657  1.0340 -0.5183
14632TIP3    H143837   6.503   2.232   6.134  0.4898  0.3326 -0.0363
14632TIP3    H243838   6.495   2.270   6.281 -0.3382  0.5883 -0.1428
14633TIP3   OH243839   5.590   6.491   6.373  0.8655  0.3464  0.3668
14633TIP3    H143840   5.570   6.430   6.444 -0.3058  0.0041 -0.2522
14633TIP3    H243841   5.528   6.563   6.385  0.5858  0.2366 -0.3590
14634TIP3   OH243842   2.245   1.801   2.895 -0.7009 -0.1578  0.0268
14634TIP3    H143843   2.234   1.815   2.801 -0.9428  0.7815  0.1942
14634TIP3    H243844   2.289   1.880   2.926 -3.3371  0.8945  1.2216
14635TIP3   OH243845   6.742   7.774   5.261 -0.0525 -0.0595  0.2201
14635TIP3    H143846   6.657   7.793   5.300 -0.2513  0.7048 -0.5702
14635TIP3    H243847   6.805   7.786   5.332 -0.3761  1.5783  0.2380
14636TIP3   OH243848   7.110   5.553   6.235  0.2357  0.4546  0.0767
14636TIP3    H143849   7.024   5.556   6.194  0.2741 -1.2325 -0.1601
14636TIP3    H243850   7.092   5.549   6.329  0.0027 -1.8136 -0.0530
14637TIP3   OH243851   3.579   1.404   2.068 -0.2920  0.4505 -0.0490
14637TIP3    H143852   3.584   1.398   1.972  0.8114  0.1472  0.0205
14637TIP3    H243853   3.669   1.388   2.098 -0.7626 -0.1355  1.0760
14638TIP3   OH243854   4.390   2.137   2.714  0.3492 -0.1750  0.0561
14638TIP3    H143855   4.413   2.189   2.791 -1.7314 -0.1517  0.6679
14638TIP3    H243856   4.403   2.046   2.742 -1.2042 -0.1985  0.6949
14639TIP3   OH243857   1.336   7.157   0.322 -0.1480 -0.7033  0.1057
14639TIP3    H143858   1.315   7.079   0.373 -0.6362 -0.9252 -0.4305
14639TIP3    H243859   1.316   7.230   0.381 -0.1791 -0.9677  0.4263
14640TIP3   OH243860   8.010   7.065   6.971 -0.0856  0.4565 -0.2601
14640TIP3    H143861   7.931   7.095   7.016 -1.2265 -0.8556 -1.3704
14640TIP3    H243862   8.076   7.060   7.041 -1.3361  0.2360  0.9290
14641TIP3   OH243863   4.402   2.058   0.215  0.4145 -0.5365 -0.6825
14641TIP3    H143864   4.408   2.081   0.122  1.3020 -0.1314 -0.5295
14641TIP3    H243865   4.468   2.113   0.258 -0.4317 -0.2554  0.2796
14642TIP3   OH243866   4.171   1.669   0.780 -0.1828 -0.4308  0.2104
14642TIP3    H143867   4.083   1.631   0.779 -0.9240  1.2383  0.1848
14642TIP3    H243868   4.205   1.652   0.692 -0.3768 -1.3267  0.3068
14643TIP3   OH243869   2.566   7.840   0.439 -0.1375  0.2073 -0.0579
14643TIP3    H143870   2.480   7.836   0.396 -0.7995 -0.6819  1.3195
14643TIP3    H243871   2.628   7.849   0.367 -1.2877 -0.4438 -1.1567
14644TIP3   OH243872   6.953   5.981   3.004  0.1511 -0.0336  0.6894
14644TIP3    H143873   6.920   6.069   3.024  0.4882  0.3446 -0.3937
14644TIP3    H243874   6.898   5.922   3.056 -0.2603  0.7941  1.2023
14645TIP3   OH243875   0.543   6.097   5.751  0.0987 -0.3132  0.2845
14645TIP3    H143876   0.548   6.192   5.751 -0.5753 -0.2778  0.6340
14645TIP3    H243877   0.490   6.074   5.675 -0.0304 -0.3913  0.3961
14646TIP3   OH243878   6.285   2.288   1.291  0.5505 -0.1362 -0.2601
14646TIP3    H143879   6.372   2.268   1.256  0.4436 -0.0387 -0.5828
14646TIP3    H243880   6.235   2.318   1.215  1.3383  3.5448  0.5447
14647TIP3   OH243881   5.314   6.156   5.135 -0.7678  0.3537 -0.5190
14647TIP3    H143882   5.339   6.236   5.089 -1.2733  0.0767 -1.3000
14647TIP3    H243883   5.316   6.179   5.227  0.0422  0.9908 -0.6886
14648TIP3   OH243884   5.666   3.786   6.866  0.3383 -0.1900 -0.3461
14648TIP3    H143885   5.611   3.845   6.917  1.1970 -0.4762  0.9040
14648TIP3    H243886   5.606   3.718   6.836  0.2197 -1.1805  2.0476
14649TIP3   OH243887   7.351   3.335   6.896 -0.0006 -0.6031  0.0333
14649TIP3    H143888   7.418   3.385   6.942  0.0236  1.6297 -2.3614
14649TIP3    H243889   7.271   3.386   6.908 -0.4641 -1.2165 -0.4239
14650TIP3   OH243890   8.264   6.119   6.387  0.1777  0.1124  0.2534
14650TIP3    H143891   8.282   6.200   6.339  1.1878 -0.3425 -0.1326
14650TIP3    H243892   8.348   6.074   6.392 -0.5460 -1.3411 -0.3195
14651TIP3   OH243893   7.155   3.099   6.062 -0.2736  0.0006  0.5817
14651TIP3    H143894   7.216   3.165   6.096  0.5754 -1.0056  1.0261
14651TIP3    H243895   7.142   3.038   6.135 -1.0928 -0.3057  0.1867
14652TIP3   OH243896   6.524   6.316   4.672 -0.2097  0.1768 -0.6683
14652TIP3    H143897   6.562   6.263   4.603  4.7125  1.6523  0.6750
14652TIP3    H243898   6.589   6.313   4.743 -3.8129  0.8863  2.8767
14653TIP3   OH243899   0.753   7.265   1.209 -0.0137  0.1286  0.1699
14653TIP3    H143900   0.756   7.360   1.218  0.8494  0.1996 -0.7445
14653TIP3    H243901   0.810   7.246   1.134  0.4231 -1.1660  0.8051
14654TIP3   OH243902   7.728   7.403   6.825  0.7526  0.0843 -0.3470
14654TIP3    H143903   7.751   7.371   6.738  0.2326  0.5673 -0.6609
14654TIP3    H243904   7.652   7.350   6.850  0.5215  0.3672 -0.4444
14655TIP3   OH243905   6.803   2.615   6.306 -0.3283 -0.2412 -0.4382
14655TIP3    H143906   6.743   2.565   6.250 -0.3896 -0.6627 -0.0020
14655TIP3    H243907   6.886   2.615   6.259 -0.0967 -1.4840 -0.0484
14656TIP3   OH243908   7.534   3.333   5.307  0.4302  0.8875  0.0903
14656TIP3    H143909   7.617   3.288   5.294  0.0249  0.0772  0.2820
14656TIP3    H243910   7.515   3.320   5.400 -0.9348 -0.7214 -0.3939
14657TIP3   OH243911   3.512   1.530   0.918 -0.2025  0.0099 -0.1304
14657TIP3    H143912   3.575   1.573   0.859 -0.9277  0.6505 -0.4441
14657TIP3    H243913   3.431   1.526   0.867 -0.8376  0.5608  0.8310
14658TIP3   OH243914   3.669   1.754   0.720 -0.0290 -0.5207 -0.2784
14658TIP3    H143915   3.698   1.797   0.639  1.5411 -0.8772  0.0862
14658TIP3    H243916   3.631   1.825   0.772  0.3269 -0.0195 -0.6963
14659TIP3   OH243917   7.448   6.204   6.798 -0.2303 -0.2387  0.0116
14659TIP3    H143918   7.417   6.165   6.717  0.6314  0.4434 -0.6467
14659TIP3    H243919   7.528   6.156   6.819 -0.0288  0.1071  0.0407
14660TIP3   OH243920   5.333   4.725   6.201  0.5989 -0.4187  0.2928
14660TIP3    H143921   5.425   4.697   6.207  0.8100  0.6120  2.0617
14660TIP3    H243922   5.336   4.804   6.147  0.8549  0.0098  0.9242
14661TIP3   OH243923   5.090   0.443   0.710 -0.3112  0.1177  0.0099
14661TIP3    H143924   5.167   0.497   0.728  1.1283 -1.9490  0.2386
14661TIP3    H243925   5.119   0.353   0.725 -2.9385 -0.6797  0.6648
14662TIP3   OH243926   6.075   4.914   5.276 -0.4066 -0.7034 -0.4328
14662TIP3    H143927   6.041   4.898   5.364 -0.2341 -0.6202 -0.3529
14662TIP3    H243928   6.116   5.000   5.281 -0.6073 -0.5945 -0.6552
14663TIP3   OH243929   4.714   5.485   5.880  0.2982 -0.0401 -0.2883
14663TIP3    H143930   4.753   5.431   5.812  1.4186  0.3367  0.0502
14663TIP3    H243931   4.788   5.526   5.925 -0.4269 -0.2552  1.1369
14664TIP3   OH243932   4.747   7.452   6.932  0.0322 -0.0224  0.1709
14664TIP3    H143933   4.787   7.396   6.998  1.3867 -0.9879 -1.4079
14664TIP3    H243934   4.817   7.465   6.867 -0.9465  1.7119 -0.5756
14665TIP3   OH243935   6.950   3.215   6.582  0.2754 -0.2329  0.0284
14665TIP3    H143936   6.914   3.230   6.670  0.2386  2.0900 -0.3597
14665TIP3    H243937   6.905   3.136   6.551 -0.6442 -0.3486  1.5970
14666TIP3   OH243938   6.872   6.203   4.757  0.0703 -0.5187  0.3666
14666TIP3    H143939   6.935   6.141   4.723  0.8171  0.2746  0.2759
14666TIP3    H243940   6.873   6.275   4.693 -1.9693 -1.1337 -0.3869
14667TIP3   OH243941   3.962   1.380   0.816 -0.3933  0.2855 -0.0840
14667TIP3    H143942   3.950   1.473   0.830 -0.1818  0.4978 -1.2445
14667TIP3    H243943   3.873   1.345   0.808 -0.4530  0.6052 -0.9237
14668TIP3   OH243944   2.755   2.441   0.294  0.2173  0.0135 -0.0226
14668TIP3    H143945   2.765   2.462   0.202 -2.0908  0.3852 -0.2104
14668TIP3    H243946   2.798   2.356   0.305  0.6670  0.0664 -1.3695
14669TIP3   OH243947   6.988   5.781   5.976 -0.6460 -0.3661  0.5134
14669TIP3    H143948   7.015   5.704   6.025  1.1005  0.2850  0.5924
14669TIP3    H243949   6.940   5.834   6.040 -0.5861 -0.6973  0.8315
14670TIP3   OH243950   5.147   6.087   5.866  0.7390  0.0583 -1.0131
14670TIP3    H143951   5.233   6.129   5.872  0.9251 -0.3979 -0.3679
14670TIP3    H243952   5.147   6.024   5.938 -1.1000  1.7987  0.5645
14671TIP3   OH243953   7.429   6.160   5.247  0.5345  0.1549  0.1268
14671TIP3    H143954   7.362   6.172   5.179  0.3094  0.0262  0.3228
14671TIP3    H243955   7.406   6.076   5.287 -0.0236  0.7779  1.1318
14672TIP3   OH243956   6.071   6.630   4.878 -0.3483  0.4056  1.0098
14672TIP3    H143957   6.128   6.705   4.868  0.8164 -0.5590  0.2458
14672TIP3    H243958   6.130   6.558   4.902 -1.1143 -0.7907 -0.6005
14673TIP3   OH243959   7.914   5.889   6.914 -0.0048  0.1557 -0.4302
14673TIP3    H143960   7.974   5.955   6.880 -1.0966  1.3286 -0.1228
14673TIP3    H243961   7.873   5.851   6.836  1.1214 -0.6503 -0.6392
14674TIP3   OH243962   1.711   8.073   1.199  0.7607  0.0568 -0.0247
14674TIP3    H143963   1.679   8.116   1.279  1.2665 -1.2948  0.9189
14674TIP3    H243964   1.662   8.115   1.128  0.4548  1.4185  0.9789
14675TIP3   OH243965   7.337   6.862   4.450 -0.0203 -0.5725  0.6624
14675TIP3    H143966   7.410   6.817   4.407 -1.4924 -0.7956 -1.7147
14675TIP3    H243967   7.318   6.808   4.527  2.5252 -0.3034  1.5415
14676TIP3   OH243968   7.303   5.062   6.016  0.8093 -0.7217  0.5138
14676TIP3    H143969   7.368   5.072   6.086 -0.3241 -0.8074  1.5928
14676TIP3    H243970   7.241   5.133   6.030  0.1287 -1.2239  0.0881
14677TIP3   OH243971   5.055   3.931   6.691  0.2749  0.2172 -0.5464
14677TIP3    H143972   4.964   3.907   6.705  0.8057 -2.8689 -1.8873
14677TIP3    H243973   5.099   3.912   6.774  0.2199 -1.0938 -0.8141
14678TIP3   OH243974   1.418   0.161   0.212  0.0993 -0.1074 -0.1523
14678TIP3    H143975   1.490   0.141   0.153  2.3027  0.3232  2.3050
14678TIP3    H243976   1.419   0.256   0.220 -1.7741  0.0453 -1.2881
14679TIP3   OH243977   4.542   0.326   1.285 -0.5844 -0.2157 -0.2112
14679TIP3    H143978   4.481   0.392   1.316 -1.5854 -1.5837  0.7964
14679TIP3    H243979   4.529   0.322   1.191 -0.1774  1.3375 -0.3422
14680TIP3   OH243980   3.139   2.585   1.257  0.5380  0.1536 -0.6556
14680TIP3    H143981   3.215   2.546   1.300  0.9206  1.7148  0.1534
14680TIP3    H243982   3.067   2.525   1.276  1.0891 -0.1289  0.5976
14681TIP3   OH243983   6.814   4.486   6.050  0.4316  0.1881 -0.0582
14681TIP3    H143984   6.809   4.568   6.001 -0.8904 -0.1442 -0.5222
14681TIP3    H243985   6.902   4.484   6.085  1.3608  0.5173 -2.2874
14682TIP3   OH243986   3.096   2.155   0.051  0.0799 -0.2881 -0.1656
14682TIP3    H143987   3.119   2.235   0.097 -2.2100 -0.0599  0.6272
14682TIP3    H243988   3.180   2.111   0.036  1.2464  1.7153  0.3478
14683TIP3   OH243989   0.008   7.609   0.081 -0.4471 -0.6645 -0.0771
14683TIP3    H143990   0.053   7.690   0.058 -1.3501 -0.4646 -1.1687
14683TIP3    H243991   0.022   7.600   0.176 -2.0224  1.8346  0.4348
14684TIP3   OH243992   5.015   1.943   0.970 -0.1156 -0.0471  0.4314
14684TIP3    H143993   5.096   1.991   0.990 -1.7520  2.7025  0.8587
14684TIP3    H243994   4.946   2.005   0.993 -2.3369 -2.1850 -0.3532
14685TIP3   OH243995   5.146   0.092   1.082 -0.5061  0.2365 -0.1200
14685TIP3    H143996   5.185   0.122   1.000  0.0156  0.9211  0.3641
14685TIP3    H243997   5.215   0.039   1.123 -0.6651  0.1245  0.0018
14686TIP3   OH243998   5.874   7.145   6.700  0.0985 -0.6227 -0.2488
14686TIP3    H143999   5.924   7.163   6.779 -0.7713 -0.5457  0.2953
14686TIP3    H244000   5.880   7.226   6.649  1.8818 -1.1749 -0.9472
14687TIP3   OH244001   2.095   7.766   0.535 -0.6432 -0.4007  0.2340
14687TIP3    H144002   2.091   7.673   0.512 -1.9733 -0.1636 -0.5605
14687TIP3    H244003   2.108   7.811   0.452 -0.2390  0.1364  0.5860
14688TIP3   OH244004   6.268   5.387   5.514  0.1358  0.3525  0.7451
14688TIP3    H144005   6.317   5.398   5.596  0.5506  0.6232  0.4588
14688TIP3    H244006   6.281   5.295   5.491 -1.0740 -0.0625  1.6804
14689TIP3   OH244007   3.395   2.628   1.778 -0.0795  0.2342  0.7697
14689TIP3    H144008   3.350   2.704   1.814 -1.7473  0.3700 -1.4787
14689TIP3    H244009   3.461   2.666   1.719 -0.8493 -0.0364 -0.2803
14690TIP3   OH244010   4.633   4.341   6.649 -0.5226 -0.1351  0.7215
14690TIP3    H144011   4.579   4.291   6.588 -1.0945  1.1958  0.1005
14690TIP3    H244012   4.653   4.280   6.720 -3.1055 -0.5853  1.1253
14691TIP3   OH244013   2.814   0.043   1.351 -0.4084  0.0806 -0.2942
14691TIP3    H144014   2.811  -0.034   1.408 -0.7902  0.0011 -0.4178
14691TIP3    H244015   2.737   0.095   1.376  0.4408  0.9495  0.5140
14692TIP3   OH244016   2.021   1.942   1.944  0.0434  0.3997 -0.3383
14692TIP3    H144017   1.952   1.989   1.897 -0.8290 -0.5971 -0.0642
14692TIP3    H244018   2.038   1.995   2.021 -1.7205 -0.2891  0.5431
14693TIP3   OH244019   5.788   5.542   4.887 -0.1383  0.5289 -0.1168
14693TIP3    H144020   5.818   5.539   4.796  0.4703 -1.1495  0.1241
14693TIP3    H244021   5.862   5.581   4.934 -0.1031  0.5740 -0.2088
14694TIP3   OH244022   6.849   5.576   7.028  0.4542  0.3001 -0.0161
14694TIP3    H144023   6.889   5.651   6.984  0.9468 -0.0132 -0.1111
14694TIP3    H244024   6.834   5.513   6.957  0.0219  0.3146  0.0601
14695TIP3   OH244025   2.880   1.810   0.131  0.0629  0.6287 -0.5753
14695TIP3    H144026   2.954   1.795   0.072  0.5547 -0.4106  0.2973
14695TIP3    H244027   2.825   1.872   0.084  0.2585 -0.4709 -2.2928
14696TIP3   OH244028   7.067   4.977   5.871  0.0611 -0.3537 -0.6393
14696TIP3    H144029   7.154   4.956   5.903  1.1847  2.2089 -1.9567
14696TIP3    H244030   7.024   5.020   5.945  0.9151  1.0232 -0.9459
14697TIP3   OH244031   8.255   5.084   6.204 -0.2837  0.3224 -0.5309
14697TIP3    H144032   8.163   5.080   6.180 -0.7392 -1.4476  1.3777
14697TIP3    H244033   8.302   5.058   6.124 -1.5314 -0.5797 -0.9896
14698TIP3   OH244034   0.708   7.589   2.504 -0.4041 -0.1099  0.6153
14698TIP3    H144035   0.678   7.572   2.414  1.3194 -0.8747  0.1760
14698TIP3    H244036   0.709   7.685   2.511 -1.2352 -0.0522  0.0719
14699TIP3   OH244037   3.189   0.411   0.276  0.2955 -0.3307  0.1652
14699TIP3    H144038   3.143   0.328   0.289 -0.4630  0.3270  1.7184
14699TIP3    H244039   3.213   0.439   0.364  0.6028  1.0725 -0.3597
14700TIP3   OH244040   3.351   3.067   1.717  0.0137  0.0597  0.2686
14700TIP3    H144041   3.362   2.972   1.716  0.5316  0.1191 -0.7651
14700TIP3    H244042   3.381   3.094   1.803 -0.6024 -0.7711  0.7437
14701TIP3   OH244043   8.139   5.768   6.081 -0.5065  0.2567 -0.2539
14701TIP3    H144044   8.131   5.694   6.141 -1.3791 -0.0748 -0.7569
14701TIP3    H244045   8.127   5.729   5.994  1.0847  0.6764 -0.6708
14702TIP3   OH244046   6.977   4.013   6.910 -0.1326 -0.0470  0.2708
14702TIP3    H144047   7.071   4.030   6.918  0.0583 -1.4981  1.3494
14702TIP3    H244048   6.961   4.013   6.815  1.0484 -0.2616  0.0583
14703TIP3   OH244049   6.298   6.461   6.188  0.1578  0.3546  0.1412
14703TIP3    H144050   6.298   6.553   6.213 -0.3040  0.7516 -1.2677
14703TIP3    H244051   6.209   6.431   6.205  0.5284 -0.0664  1.3952
14704TIP3   OH244052   5.124   1.061   0.724  0.6208  0.1776  0.5543
14704TIP3    H144053   5.195   1.081   0.785  0.2854 -0.4684  1.1652
14704TIP3    H244054   5.049   1.039   0.780  0.0399  0.5083 -0.0877
14705TIP3   OH244055   4.154   3.476   1.180  0.4009  0.3394  0.0378
14705TIP3    H144056   4.179   3.556   1.226 -2.5894  0.9978  0.6117
14705TIP3    H244057   4.136   3.504   1.090 -0.8032  0.3574  0.2783
14706TIP3   OH244058   3.674   1.042   1.121  0.0216 -0.4423 -0.3417
14706TIP3    H144059   3.637   1.126   1.148  0.5348 -0.3980  0.2570
14706TIP3    H244060   3.599   0.986   1.104 -0.3223  0.0814 -0.5453
14707TIP3   OH244061   3.027   1.655   2.043  0.3213 -0.3092 -0.1915
14707TIP3    H144062   3.027   1.658   2.139 -1.0672  0.4629 -0.1986
14707TIP3    H244063   2.976   1.577   2.021 -2.8572  1.6631 -0.2792
14708TIP3   OH244064   5.920   1.220   2.279  0.2191  0.3636  0.3598
14708TIP3    H144065   5.861   1.292   2.300 -1.1804 -0.4121 -0.8678
14708TIP3    H244066   5.882   1.144   2.323  0.0822 -0.2177 -0.7413
14709TIP3   OH244067   8.076   0.934   6.052  0.0654 -0.4253  0.9169
14709TIP3    H144068   8.080   0.851   6.004  0.9608 -1.5296  2.8459
14709TIP3    H244069   8.167   0.952   6.076 -0.1847  0.8851  0.9301
14710TIP3   OH244070   7.844   6.656   6.663 -0.2426 -0.6803  0.2301
14710TIP3    H144071   7.887   6.733   6.699 -2.3110  0.9675 -0.7685
14710TIP3    H244072   7.917   6.597   6.640  1.3713  1.1467  0.5194
14711TIP3   OH244073   2.938   3.449   0.441 -0.2736 -0.1840 -0.7484
14711TIP3    H144074   2.977   3.533   0.419  0.7481 -1.0403 -2.2708
14711TIP3    H244075   3.004   3.404   0.493 -1.2648  0.3872  1.0411
14712TIP3   OH244076   3.556   1.125   1.690 -0.0654  0.4610  0.8031
14712TIP3    H144077   3.556   1.147   1.597 -1.2727 -0.8735  0.4809
14712TIP3    H244078   3.468   1.147   1.720 -0.2146 -0.7364  1.2449
14713TIP3   OH244079   3.710   1.248   0.775 -0.0313  0.8058  0.2659
14713TIP3    H144080   3.649   1.298   0.829 -1.6755 -1.1831  0.2879
14713TIP3    H244081   3.658   1.177   0.738  1.8592  0.1139 -1.1810
14714TIP3   OH244082   6.487   4.499   4.921  0.0277  0.3246 -0.5842
14714TIP3    H144083   6.491   4.446   4.841  1.6424  1.2047 -1.0963
14714TIP3    H244084   6.404   4.547   4.913 -0.1353 -0.0809 -1.4214
14715TIP3   OH244085   4.503   1.530   0.808  0.1823 -0.0996  0.6603
14715TIP3    H144086   4.492   1.440   0.779  0.1000  0.2471 -0.4152
14715TIP3    H244087   4.416   1.555   0.841 -0.4682  0.3581 -1.3069
14716TIP3   OH244088   4.846   1.721   1.708  0.9642  0.1279 -0.7794
14716TIP3    H144089   4.824   1.666   1.783  3.9085 -2.7801 -1.8751
14716TIP3    H244090   4.851   1.810   1.743 -0.1838 -0.8227  1.9066
14717TIP3   OH244091   4.981   0.992   0.017  0.5886 -0.5313 -0.2886
14717TIP3    H144092   5.035   0.957   0.088 -0.0897 -1.0483 -0.0252
14717TIP3    H244093   5.006   0.939  -0.059  1.4652  0.1596 -0.4894
14718TIP3   OH244094   3.695   3.686   1.893  0.1195  0.2298 -0.2295
14718TIP3    H144095   3.750   3.743   1.839 -0.1882  1.3533  0.6430
14718TIP3    H244096   3.605   3.712   1.872 -0.0205  0.1728  0.2924
14719TIP3   OH244097   0.904   6.754   0.900 -0.2111  0.0495  0.0456
14719TIP3    H144098   0.809   6.762   0.908 -0.3797 -0.3665 -1.3650
14719TIP3    H244099   0.920   6.744   0.806  1.0568 -1.9284  0.4237
14720TIP3   OH244100   7.936   3.050   5.961  0.2354 -0.4579 -0.5653
14720TIP3    H144101   7.945   3.044   6.056  1.6010 -0.5604 -0.6870
14720TIP3    H244102   8.005   3.110   5.934 -0.4202 -0.0958 -1.4569
14721TIP3   OH244103   4.584   2.459   0.495  0.5824 -0.0963  0.6152
14721TIP3    H144104   4.613   2.380   0.448  0.9033  0.2603  0.2051
14721TIP3    H244105   4.653   2.474   0.560  0.1540 -0.5712  1.1879
14722TIP3   OH244106   2.860   2.480   2.058  0.2575  0.3846 -0.4081
14722TIP3    H144107   2.882   2.389   2.035 -0.9946  0.4663 -2.0890
14722TIP3    H244108   2.786   2.501   2.000 -0.2428  2.0790  0.8246
14723TIP3   OH244109   3.245   1.383   1.131  0.2270  0.3917  0.5263
14723TIP3    H144110   3.175   1.349   1.187  2.4287 -2.4049  1.7079
14723TIP3    H244111   3.227   1.346   1.045  0.2947 -0.4330  0.8590
14724TIP3   OH244112   7.285   3.710   5.745 -0.0812 -0.0901 -0.4772
14724TIP3    H144113   7.210   3.650   5.754 -1.6700  1.9834  0.4969
14724TIP3    H244114   7.247   3.797   5.758  2.7030  0.9180  1.0906
14725TIP3   OH244115   6.395   8.056   1.810  0.0571 -0.3971 -0.9340
14725TIP3    H144116   6.345   8.033   1.888 -3.5116  1.4240 -2.5333
14725TIP3    H244117   6.424   8.146   1.826  1.6772 -0.9564 -0.6201
14726TIP3   OH244118   0.255   7.020   1.133  0.1650  0.0714 -0.6547
14726TIP3    H144119   0.216   6.987   1.052  0.7136  1.5021 -1.5269
14726TIP3    H244120   0.347   7.035   1.111  1.2467 -3.2234  1.3554
14727TIP3   OH244121   8.416   3.097   5.522 -0.2504  0.1507  0.3565
14727TIP3    H144122   8.508   3.106   5.495  0.4572  0.5984  2.8127
14727TIP3    H244123   8.373   3.175   5.488  0.6605  0.8049  0.6806
14728TIP3   OH244124   1.780   7.603   1.366 -0.1616 -0.4713  0.1352
14728TIP3    H144125   1.692   7.619   1.333 -0.4299 -1.9123  0.1293
14728TIP3    H244126   1.772   7.609   1.461  0.2382  1.8235  0.0478
14729TIP3   OH244127   5.007   1.254   0.047  0.4733 -0.0629  0.2754
14729TIP3    H144128   5.008   1.158   0.046 -2.7312 -0.1664 -1.2205
14729TIP3    H244129   5.045   1.279  -0.038  2.0677  0.0308  1.0083
14730TIP3   OH244130   6.449   2.252   5.797  0.2176 -0.0783  0.1414
14730TIP3    H144131   6.476   2.223   5.884  0.3061  0.1620  0.1957
14730TIP3    H244132   6.499   2.333   5.782  0.0363  0.0023 -0.0378
14731TIP3   OH244133   4.925   0.027   0.652 -0.2579 -0.2941 -0.6540
14731TIP3    H144134   4.869   0.077   0.712  0.7614  0.2065 -0.1054
14731TIP3    H244135   4.913  -0.064   0.680  1.6665  0.0990  1.5863
14732TIP3   OH244136   6.348   6.294   6.890 -0.4998 -0.1511 -0.0068
14732TIP3    H144137   6.324   6.348   6.815 -2.2379 -0.0828  0.5840
14732TIP3    H244138   6.361   6.207   6.853 -1.1750 -0.0785 -0.4284
14733TIP3   OH244139   2.413   1.888   0.572  0.5771 -0.3787 -0.4821
14733TIP3    H144140   2.501   1.903   0.536  0.0686  1.5912 -0.9952
14733TIP3    H244141   2.402   1.956   0.638 -1.3218  0.7576 -1.8781
14734TIP3   OH244142   2.309   2.383   0.847 -0.1570 -0.1747 -0.2383
14734TIP3    H144143   2.393   2.416   0.816 -0.6311  1.2873 -0.0073
14734TIP3    H244144   2.246   2.414   0.782 -0.7856  0.5395  0.6993
14735TIP3   OH244145   2.479   0.257   0.038 -0.0604  0.0270  0.4316
14735TIP3    H144146   2.426   0.186   0.075 -0.6331  0.1374 -0.1706
14735TIP3    H244147   2.525   0.293   0.113 -1.2085  0.2393  1.0437
14736TIP3   OH244148   4.489   1.242   1.426 -0.1389  0.0151 -0.2209
14736TIP3    H144149   4.461   1.221   1.337  0.7126 -1.4533 -0.1744
14736TIP3    H244150   4.500   1.337   1.427  1.8917 -0.1531 -2.3209
14737TIP3   OH244151   5.352   0.322   1.874 -0.1046 -0.3288 -0.2827
14737TIP3    H144152   5.360   0.242   1.823 -2.3495 -1.1699  0.5714
14737TIP3    H244153   5.312   0.386   1.814  0.6032 -0.2086 -0.6244
14738TIP3   OH244154   5.061   0.889   0.267 -0.5617 -0.3526 -0.4686
14738TIP3    H144155   5.042   0.970   0.315 -0.0770  0.1711 -1.1447
14738TIP3    H244156   5.037   0.819   0.327 -0.3697  0.2982  0.3768
14739TIP3   OH244157   0.518   7.263   1.341  0.4428 -0.0646 -0.1272
14739TIP3    H144158   0.602   7.239   1.303  1.1690 -2.4904  2.8363
14739TIP3    H244159   0.538   7.331   1.405  0.1181 -0.3821  0.3187
14740TIP3   OH244160   0.142   8.081   1.745  0.0963 -0.1007 -0.4998
14740TIP3    H144161   0.085   8.036   1.682  0.7333 -2.3764  0.4805
14740TIP3    H244162   0.209   8.016   1.767  0.5333  1.0362  1.6670
14741TIP3   OH244163   6.957   3.147   5.903  0.2960  0.5132 -0.4334
14741TIP3    H144164   6.988   3.079   5.962  0.2935 -0.1488 -1.1948
14741TIP3    H244165   6.978   3.229   5.948 -1.2101  0.0147  1.2827
14742TIP3   OH244166   2.575   1.918   2.781  0.4277  1.0133 -0.2999
14742TIP3    H144167   2.491   1.961   2.797  0.2580  0.6990 -0.3523
14742TIP3    H244168   2.568   1.834   2.826  0.1464  0.3442 -1.5844
14743TIP3   OH244169   6.322   1.191   1.148  0.2888 -0.5183  0.0518
14743TIP3    H144170   6.248   1.230   1.103 -0.3706 -0.7852  0.8905
14743TIP3    H244171   6.364   1.263   1.195 -0.2049 -0.5837  0.6067
14744TIP3   OH244172   8.432   3.700   6.022  0.4463 -0.2351 -0.5217
14744TIP3    H144173   8.350   3.685   6.070  0.2869 -1.2651 -1.1097
14744TIP3    H244174   8.404   3.734   5.937  0.5690 -1.5732 -1.1096
14745TIP3   OH244175   3.338   1.846   1.366  0.4923  0.2758  0.4543
14745TIP3    H144176   3.339   1.815   1.275  0.0167 -0.0154  0.5463
14745TIP3    H244177   3.282   1.924   1.364  0.7747  0.4790  0.4318
14746TIP3   OH244178   3.455   4.516   6.245 -0.0789 -0.7167  0.3090
14746TIP3    H144179   3.428   4.590   6.300 -1.0590 -0.0266 -1.0592
14746TIP3    H244180   3.506   4.556   6.175 -1.1896 -1.2302 -0.8263
14747TIP3   OH244181   6.757   6.458   6.051  0.0675 -0.1182  0.4516
14747TIP3    H144182   6.794   6.428   6.133 -1.3070  0.2087  1.2102
14747TIP3    H244183   6.675   6.408   6.042 -0.2523  0.5125 -0.2433
14748TIP3   OH244184   6.728   4.699   3.816  0.1121  0.5560  0.0440
14748TIP3    H144185   6.763   4.785   3.839 -0.0504  0.7493 -0.4156
14748TIP3    H244186   6.782   4.637   3.866 -0.7349  0.9942  1.5208
14749TIP3   OH244187   4.419   1.343   0.084  0.1228 -0.2961 -0.1309
14749TIP3    H144188   4.447   1.272   0.026  1.6465  1.9231 -2.2279
14749TIP3    H244189   4.335   1.371   0.048  0.2514 -0.0438 -0.2361
14750TIP3   OH244190   1.407   6.026   2.113 -0.3049 -0.0273  0.0250
14750TIP3    H144191   1.460   5.967   2.060  0.8272  0.3676  0.7071
14750TIP3    H244192   1.444   6.113   2.096  0.3879  0.0388  1.8422
14751TIP3   OH244193   2.720   7.255   0.573  0.0118  0.0497  0.3983
14751TIP3    H144194   2.765   7.309   0.509 -0.0590 -0.8258 -0.3966
14751TIP3    H244195   2.728   7.303   0.656  1.6902  0.2947  0.0961
14752TIP3   OH244196   2.984   6.947   5.794 -0.1841  0.6669 -0.2533
14752TIP3    H144197   2.903   6.998   5.799 -0.3644  0.3292  0.4360
14752TIP3    H244198   2.982   6.907   5.707  0.0228  1.9352 -0.8407
14753TIP3   OH244199   7.160   6.472   6.469  0.4921 -0.1328 -0.0750
14753TIP3    H144200   7.067   6.473   6.494  0.1985  0.4072 -1.1452
14753TIP3    H244201   7.206   6.449   6.549 -0.8051 -3.6726 -0.2591
14754TIP3   OH244202   5.429   3.565   0.637  0.1940 -0.3402  0.3482
14754TIP3    H144203   5.487   3.605   0.701  0.6262 -0.2753 -0.0780
14754TIP3    H244204   5.467   3.589   0.552  0.1991 -1.2580  0.0832
14755TIP3   OH244205   1.222   5.053   5.708  0.1936  0.3261 -0.9158
14755TIP3    H144206   1.261   4.986   5.764  0.2009  1.5889  0.6271
14755TIP3    H244207   1.135   5.020   5.686 -0.1352  0.2051  0.5549
14756TIP3   OH244208   2.506   1.710   0.751  0.6133  0.5868  0.0858
14756TIP3    H144209   2.446   1.694   0.824  0.4365 -1.8562 -0.5648
14756TIP3    H244210   2.455   1.763   0.690 -0.0771  0.5253  0.6028
14757TIP3   OH244211   5.317   0.575   0.749 -0.1924  0.5936 -0.5738
14757TIP3    H144212   5.383   0.534   0.693 -1.2177 -3.6788  1.1600
14757TIP3    H244213   5.362   0.591   0.832 -0.6218  0.1637 -0.2568
14758TIP3   OH244214   0.167   4.692   6.803 -0.8955 -0.1715  0.2742
14758TIP3    H144215   0.153   4.683   6.897  0.9779  1.0475  0.6926
14758TIP3    H244216   0.226   4.767   6.795 -2.6915  1.0532 -1.9945
14759TIP3   OH244217   5.218   1.502   0.605  0.1637  0.1049 -0.4377
14759TIP3    H144218   5.209   1.463   0.691 -2.5714  0.9606 -0.2592
14759TIP3    H244219   5.178   1.438   0.545 -0.5377  0.7450 -0.6706
14760TIP3   OH244220   4.464   1.071   0.013 -0.1101  0.5383  0.3817
14760TIP3    H144221   4.518   0.998   0.045 -0.7478 -0.1234 -0.0417
14760TIP3    H244222   4.386   1.029  -0.023 -0.6370  1.4597  0.4437
14761TIP3   OH244223   3.947   2.236   1.108  0.1017  0.0496  0.4275
14761TIP3    H144224   3.903   2.299   1.165  0.1016  0.2283  0.2293
14761TIP3    H244225   4.004   2.186   1.167  0.0709  0.2074  0.5905
14762TIP3   OH244226   4.966   3.127   0.136 -0.4136  0.0412  0.0082
14762TIP3    H144227   4.872   3.109   0.133 -0.7090  1.5036  0.1501
14762TIP3    H244228   4.977   3.188   0.208  0.6350  0.0124 -0.1150
14763TIP3   OH244229   4.965   1.691   0.857  0.3748 -0.0060 -0.4093
14763TIP3    H144230   5.013   1.670   0.777  2.2846  0.3889  0.5870
14763TIP3    H244231   4.998   1.778   0.882 -1.5186  0.6644 -0.1542
14764TIP3   OH244232   0.790   5.906   6.381  0.5842 -0.0124 -0.1051
14764TIP3    H144233   0.808   5.937   6.292  1.7822 -1.9865 -0.5692
14764TIP3    H244234   0.695   5.912   6.390  0.4489  0.1161 -1.5303
14765TIP3   OH244235   3.694   2.575   0.780 -0.1839 -0.5573 -0.1595
14765TIP3    H144236   3.776   2.546   0.822 -0.5174 -1.7585 -0.3088
14765TIP3    H244237   3.687   2.668   0.802  0.9218 -0.5871  0.3527
14766TIP3   OH244238   6.943   5.945   6.195 -0.1017 -0.1773  0.4988
14766TIP3    H144239   6.930   6.038   6.216  0.0802 -0.3627  1.4621
14766TIP3    H244240   7.034   5.928   6.220 -0.2154 -0.6777  0.5680
14767TIP3   OH244241   8.407   4.797   6.429  0.3565 -1.0066  0.2858
14767TIP3    H144242   8.432   4.780   6.338 -0.5439  1.0794 -0.4012
14767TIP3    H244243   8.488   4.792   6.478  1.5503  1.7726 -1.2787
14768TIP3   OH244244   5.055   5.287   6.637  0.1039 -0.7978  0.1467
14768TIP3    H144245   5.077   5.318   6.725 -0.7339  1.5518 -0.4245
14768TIP3    H244246   4.960   5.271   6.640  0.2346 -1.6439 -0.0700
14769TIP3   OH244247   4.949   2.281   0.395 -0.9036  0.0588 -0.1076
14769TIP3    H144248   4.952   2.216   0.465 -0.2739  1.9692  1.6823
14769TIP3    H244249   5.040   2.287   0.364 -1.0953 -0.4298 -0.7843
14770TIP3   OH244250   4.970   0.172   0.419  0.3502 -0.1779 -0.3160
14770TIP3    H144251   5.039   0.223   0.461 -0.4097  0.4863  0.1375
14770TIP3    H244252   4.943   0.109   0.486  0.5523 -0.4788 -0.5148
14771TIP3   OH244253   0.233   5.543   6.670 -0.2400 -0.0658  0.0836
14771TIP3    H144254   0.165   5.495   6.623 -1.0656 -0.2658  1.4392
14771TIP3    H244255   0.220   5.635   6.646 -1.1642 -0.0739  0.5220
14772TIP3   OH244256   1.765   7.186   0.824  0.2150 -0.1142 -0.0708
14772TIP3    H144257   1.719   7.126   0.882 -0.2130 -0.2684 -0.5678
14772TIP3    H244258   1.739   7.160   0.735  1.7157 -0.5701 -0.3867
14773TIP3   OH244259   5.946   0.334   1.339 -0.3959  0.1882 -0.2205
14773TIP3    H144260   5.859   0.294   1.333  0.1626 -0.8670 -1.5951
14773TIP3    H244261   5.992   0.284   1.406  0.3052 -1.5324 -1.9416
14774TIP3   OH244262   3.572   1.616   0.323 -0.4222 -0.0279  0.0511
14774TIP3    H144263   3.482   1.611   0.291 -0.4374  2.7266 -0.4513
14774TIP3    H244264   3.626   1.611   0.245 -0.2089 -0.0715  0.2004
14775TIP3   OH244265   7.912   5.392   6.612  0.5888  0.1665 -0.0473
14775TIP3    H144266   7.824   5.416   6.642  1.4974  1.6765  1.5007
14775TIP3    H244267   7.965   5.393   6.692  1.6211 -2.6443 -0.6566
14776TIP3   OH244268   7.702   7.022   6.882  0.2084 -0.0801 -0.3725
14776TIP3    H144269   7.776   7.073   6.849 -0.7482  2.2721  0.9976
14776TIP3    H244270   7.635   7.088   6.903 -0.5783 -1.7778  2.6890
14777TIP3   OH244271   1.215   4.398   5.120  0.1305  0.0514  0.1581
14777TIP3    H144272   1.271   4.447   5.181  1.2385  1.0072 -1.5673
14777TIP3    H244273   1.277   4.359   5.057 -1.0277 -0.3529 -0.7525
14778TIP3   OH244274   7.246   4.820   6.908 -0.7305 -0.0839 -0.2178
14778TIP3    H144275   7.279   4.799   6.995 -0.0348 -0.7466 -0.6271
14778TIP3    H244276   7.319   4.799   6.850 -1.4496 -0.3732 -1.0268
14779TIP3   OH244277   4.061   8.110   0.051  0.1105 -0.3241  0.1682
14779TIP3    H144278   4.008   8.030   0.057 -1.2522  0.7444  3.2018
14779TIP3    H244279   4.043   8.144  -0.037  0.5819 -3.2185 -1.1121
14780TIP3   OH244280   3.986   1.647   0.473 -0.3277 -0.2151 -0.1137
14780TIP3    H144281   4.062   1.604   0.514  0.0687  0.4504 -0.1387
14780TIP3    H244282   4.019   1.733   0.447 -1.2854  0.3301  0.4706
14781TIP3   OH244283   8.299   4.927   6.763 -0.1953  0.1691 -0.2395
14781TIP3    H144284   8.282   4.833   6.757 -0.3817  0.1864 -0.0191
14781TIP3    H244285   8.325   4.952   6.675 -0.4448 -0.0335 -0.3739
14782TIP3   OH244286   4.654   1.487   0.036  0.1332  0.3201  0.3151
14782TIP3    H144287   4.715   1.476   0.108 -0.3483 -0.1576  0.6551
14782TIP3    H244288   4.587   1.421   0.051 -0.2442  0.5581 -0.2875
14783TIP3   OH244289   5.083   3.390   0.104  0.2775  0.0383  0.1864
14783TIP3    H144290   5.072   3.308   0.055 -0.3642  0.3526 -0.2050
14783TIP3    H244291   5.059   3.459   0.041  1.1964  0.5485  0.3877
14784TIP3   OH244292   3.893   2.532   0.532 -1.4003 -0.0132  0.1478
14784TIP3    H144293   3.871   2.581   0.610 -0.3137  0.3417  0.2387
14784TIP3    H244294   3.896   2.597   0.462  0.1747  0.0917  0.2925
14785TIP3   OH244295   5.571   2.867   0.070  0.3251  0.1497 -0.0935
14785TIP3    H144296   5.608   2.778   0.070  1.3086  0.5326  1.5053
14785TIP3    H244297   5.577   2.895   0.162 -0.6810  1.5863 -0.4515
14786TIP3   OH244298   8.126   6.436   5.099  0.0319 -0.1712 -0.1583
14786TIP3    H144299   8.187   6.363   5.106 -0.0505 -0.2492 -0.2457
14786TIP3    H244300   8.149   6.478   5.016  0.7112  0.4722  0.3439
14787TIP3   OH244301   1.197   2.061   0.049  0.7135  0.8624 -0.1361
14787TIP3    H144302   1.230   2.106  -0.028  1.4460  1.8833  0.7611
14787TIP3    H244303   1.260   1.992   0.066  0.6267  0.7268 -0.3665
14788TIP3   OH244304   4.392   7.786   1.925 -0.0150 -0.2684 -0.7197
14788TIP3    H144305   4.385   7.724   1.852 -1.8574 -1.0715  0.0983
14788TIP3    H244306   4.304   7.821   1.935  0.7054  1.4467 -0.2512
14789TIP3   OH244307   6.481   2.033   0.617 -0.1978 -0.6770  0.1602
14789TIP3    H144308   6.449   2.024   0.707  0.1373 -1.1791  0.2347
14789TIP3    H244309   6.556   1.972   0.612 -0.7448 -1.2943 -0.7088
14790TIP3   OH244310   0.150   2.784   1.475 -0.2725 -0.3451  0.3759
14790TIP3    H144311   0.125   2.853   1.536  0.3628 -1.0577  1.4607
14790TIP3    H244312   0.207   2.828   1.411 -0.1058  0.1938  0.8904
14791TIP3   OH244313   6.310   3.514   1.571  0.9478  0.0147  0.2287
14791TIP3    H144314   6.241   3.549   1.514 -0.4380  0.5215  2.1560
14791TIP3    H244315   6.325   3.425   1.540  0.3038  0.3250 -0.9921
14792TIP3   OH244316   2.473   6.065   6.810 -0.4021  0.1443 -0.1465
14792TIP3    H144317   2.556   6.023   6.788 -0.4310 -0.5206  0.9651
14792TIP3    H244318   2.450   6.116   6.732  0.1012 -1.1627 -1.1667
14793TIP3   OH244319   0.257   2.121   2.002 -0.0139  0.4078 -0.2321
14793TIP3    H144320   0.278   2.112   1.910 -0.9185  1.4844 -0.5575
14793TIP3    H244321   0.190   2.054   2.019 -1.5417  1.7161 -0.9318
14794TIP3   OH244322   7.709   2.451   1.673  0.2777 -0.2422 -0.6982
14794TIP3    H144323   7.664   2.532   1.649  0.0445  0.0228  0.5740
14794TIP3    H244324   7.801   2.468   1.654  0.4021  0.7909  0.7100
14795TIP3   OH244325   7.358   1.302   1.442 -0.4859 -0.3831 -0.4272
14795TIP3    H144326   7.293   1.293   1.511  1.5375 -0.2955  1.5299
14795TIP3    H244327   7.382   1.212   1.420 -0.7022 -0.3966 -0.6101
14796TIP3   OH244328   1.803   0.552   0.316  0.7955 -0.1177  0.0638
14796TIP3    H144329   1.714   0.580   0.336  0.3260  0.4250 -2.5292
14796TIP3    H244330   1.805   0.459   0.336 -0.6840 -0.3596 -0.8839
14797TIP3   OH244331   8.041   1.979   2.819  0.0823 -0.8950  0.0871
14797TIP3    H144332   7.975   1.943   2.879  0.0838 -0.2077  0.5062
14797TIP3    H244333   8.087   2.045   2.871  0.2614 -0.4879 -0.5868
14798TIP3   OH244334   7.805   2.371   1.011 -0.5308 -0.1196  0.1402
14798TIP3    H144335   7.748   2.447   1.010  1.7728  1.6616  0.1055
14798TIP3    H244336   7.792   2.329   0.926 -1.0646  0.8226 -0.2449
14799TIP3   OH244337   7.171   3.232   0.955 -0.0040  0.1355 -0.5038
14799TIP3    H144338   7.176   3.280   0.873 -1.2220  0.3645 -0.4490
14799TIP3    H244339   7.132   3.148   0.931 -1.1166  0.5113 -0.0304
14800TIP3   OH244340   1.409   5.763   6.893  0.2235  0.2156 -0.0302
14800TIP3    H144341   1.393   5.680   6.936  1.1156  0.4119  0.6900
14800TIP3    H244342   1.325   5.787   6.855  0.2789 -1.6729 -1.4166
14801TIP3   OH244343   6.318   2.481   1.719 -0.2853  0.2991  0.0667
14801TIP3    H144344   6.308   2.571   1.749 -0.3093  0.5722 -0.7491
14801TIP3    H244345   6.411   2.462   1.726  0.0087  1.0437 -1.5844
14802TIP3   OH244346   7.633   3.251   2.851  0.3425  0.1063 -0.1064
14802TIP3    H144347   7.554   3.240   2.799 -0.2265 -0.5005  0.8539
14802TIP3    H244348   7.674   3.330   2.818 -1.0519  0.8257 -0.1339
14803TIP3   OH244349   2.683   7.186   6.724 -0.0699  0.1212 -0.4844
14803TIP3    H144350   2.633   7.159   6.647 -0.7295  0.2316 -0.0970
14803TIP3    H244351   2.759   7.127   6.725  0.3631  0.6513 -1.6680
14804TIP3   OH244352   1.534   6.568   6.707  0.1873  0.6522 -0.2024
14804TIP3    H144353   1.441   6.589   6.717 -0.4576 -0.0438 -4.0828
14804TIP3    H244354   1.574   6.650   6.681  0.1507  0.3233 -1.3097
14805TIP3   OH244355   7.241   1.237   0.655 -0.3962  0.0433 -0.1842
14805TIP3    H144356   7.189   1.205   0.729  2.0218 -0.4741  1.3445
14805TIP3    H244357   7.310   1.290   0.695  0.4163  0.5025 -2.1362
14806TIP3   OH244358   8.491   1.747   2.930 -0.2256  0.7994  0.4743
14806TIP3    H144359   8.539   1.829   2.933  1.6345 -0.1011 -2.3014
14806TIP3    H244360   8.419   1.763   2.869 -0.0815  0.5047  0.2221
14807TIP3   OH244361   6.075   0.123   1.890 -0.0156  0.1680 -0.2706
14807TIP3    H144362   6.023   0.140   1.969 -0.1943  0.3468 -0.4245
14807TIP3    H244363   6.052   0.034   1.865  0.5653 -0.1345  0.2740
14808TIP3   OH244364   0.005  -0.022   2.918 -0.0998  0.3225 -0.0580
14808TIP3    H144365   0.060   0.028   2.978  0.1395  0.1396 -0.1259
14808TIP3    H244366   0.005   0.029   2.837 -0.3546  0.5264  0.0701
14809TIP3   OH244367   7.905   0.835   1.843 -0.2297 -0.1143 -0.6269
14809TIP3    H144368   7.895   0.913   1.789  0.8497  0.0535 -0.5932
14809TIP3    H244369   7.877   0.763   1.787  2.4395 -0.1323 -2.0073
14810TIP3   OH244370   7.133   2.325   0.319  0.4442 -0.1138 -0.8013
14810TIP3    H144371   7.163   2.281   0.399  1.9830  1.1700 -0.6347
14810TIP3    H244372   7.193   2.295   0.251  0.9592  1.0099 -0.8627
14811TIP3   OH244373   6.600   4.284   2.065  0.2621 -0.5621 -0.2573
14811TIP3    H144374   6.601   4.351   1.997 -0.4627 -0.6577 -0.3638
14811TIP3    H244375   6.614   4.202   2.018  1.1508 -0.4969 -0.1267
14812TIP3   OH244376   8.321   1.694   1.210 -0.3253 -0.2781 -0.1996
14812TIP3    H144377   8.389   1.658   1.153 -0.6243 -0.1751 -0.6233
14812TIP3    H244378   8.354   1.780   1.237 -0.8233  0.2955 -1.3825
14813TIP3   OH244379   1.707   7.806   6.813 -0.7297 -0.2791 -0.0484
14813TIP3    H144380   1.613   7.817   6.799 -0.6590 -0.2796 -0.5426
14813TIP3    H244381   1.729   7.726   6.764 -0.7320 -1.0645  1.2172
14814TIP3   OH244382   7.276   1.270   1.082  0.3666  0.1010  0.3727
14814TIP3    H144383   7.364   1.236   1.064  0.7319  0.6596  1.0843
14814TIP3    H244384   7.291   1.358   1.115 -0.5286  0.6036 -0.5410
14815TIP3   OH244385   0.235   4.173   0.199  0.2162  0.6485 -0.5414
14815TIP3    H144386   0.284   4.245   0.159 -1.9119  2.1051 -0.6477
14815TIP3    H244387   0.207   4.119   0.125  0.2937  0.7264 -0.6276
14816TIP3   OH244388   7.868   3.610   0.274  0.6655  0.7806  0.0374
14816TIP3    H144389   7.821   3.591   0.193  0.0294  0.2728  0.5170
14816TIP3    H244390   7.799   3.631   0.337  1.0887  0.0578  0.7399
14817TIP3   OH244391   1.303   2.114   2.210 -0.1647 -0.0077 -0.5769
14817TIP3    H144392   1.260   2.093   2.293 -0.4031  1.0164 -0.4401
14817TIP3    H244393   1.277   2.042   2.152 -1.3696  0.1408 -0.2467
14818TIP3   OH244394   7.551   2.904   1.449  0.2076  0.4344  0.0680
14818TIP3    H144395   7.485   2.971   1.429 -1.2088 -0.3933  1.7924
14818TIP3    H244396   7.634   2.952   1.451 -0.4708  1.6997 -1.0364
14819TIP3   OH244397   7.721   1.906   2.141  0.5102  0.2780  1.0325
14819TIP3    H144398   7.719   1.952   2.224 -0.4910 -1.1736  1.8397
14819TIP3    H244399   7.801   1.854   2.143 -0.0028 -0.5098  1.5273
14820TIP3   OH244400   3.622   7.099   6.315  0.1808  0.2853  0.2323
14820TIP3    H144401   3.647   7.182   6.275 -0.3829  1.1077  1.5391
14820TIP3    H244402   3.527   7.102   6.320  0.1705 -0.3555  0.4598
14821TIP3   OH244403   1.463   0.764   2.036 -0.4125  0.1347 -0.0198
14821TIP3    H144404   1.482   0.733   1.947 -1.6952 -0.8914  0.0595
14821TIP3    H244405   1.496   0.695   2.093 -3.3522 -1.1958  0.1546
14822TIP3   OH244406   8.065   2.348   1.051 -0.1117 -0.3496  0.6426
14822TIP3    H144407   8.068   2.262   1.093 -0.0701 -0.1345  1.0848
14822TIP3    H244408   7.972   2.361   1.031 -0.0007 -0.9222 -0.3313
14823TIP3   OH244409   3.198   7.126   5.885  0.0593  0.6449 -0.2250
14823TIP3    H144410   3.226   7.135   5.794 -2.2604  0.1407 -1.0210
14823TIP3    H244411   3.120   7.070   5.881 -0.4876  1.1882  1.9874
14824TIP3   OH244412   8.164   2.637   0.832 -0.2689 -0.3165 -0.4295
14824TIP3    H144413   8.190   2.550   0.801  0.5766 -0.0047 -0.6178
14824TIP3    H244414   8.175   2.633   0.927  2.5090  0.4503 -0.6770
14825TIP3   OH244415   7.290   1.555   0.406  0.4443  0.6844 -0.4492
14825TIP3    H144416   7.196   1.547   0.422  0.8679 -2.5617  0.8534
14825TIP3    H244417   7.326   1.586   0.489  0.8938 -1.5771  0.2411
14826TIP3   OH244418   7.128   1.430   2.925 -0.4855 -0.8279  0.1652
14826TIP3    H144419   7.133   1.394   3.013 -0.1193 -1.2089 -0.0120
14826TIP3    H244420   7.189   1.504   2.925 -2.4219  0.8131  1.0080
14827TIP3   OH244421   5.812   0.122   1.507 -0.1500  0.3543  0.2375
14827TIP3    H144422   5.789   0.031   1.527  0.0591  0.0483 -0.8555
14827TIP3    H244423   5.833   0.161   1.591 -2.6787  0.0653  1.0376
14828TIP3   OH244424   1.039   6.831   6.978 -0.2867 -0.7195 -0.1272
14828TIP3    H144425   1.076   6.888   7.045  1.0248 -1.8204  0.0960
14828TIP3    H244426   1.081   6.860   6.897  0.2893 -1.2839 -0.0321
14829TIP3   OH244427   5.806   0.678   1.527  0.5199 -0.1207  0.1310
14829TIP3    H144428   5.752   0.652   1.453  1.3454  1.8892 -1.2275
14829TIP3    H244429   5.896   0.677   1.493  0.9081  0.8703  1.0867
14830TIP3   OH244430   1.538   1.644   1.322  0.2892 -0.3728  0.6926
14830TIP3    H144431   1.468   1.579   1.329  0.7097 -0.9663 -0.5166
14830TIP3    H244432   1.557   1.649   1.228  1.9983 -0.3705  1.0239
14831TIP3   OH244433   4.059   4.185   2.692  0.0144 -0.0480 -0.6101
14831TIP3    H144434   4.046   4.090   2.682  0.4361 -0.4861  2.5358
14831TIP3    H244435   3.972   4.223   2.679 -0.5291 -1.0600 -0.0053
14832TIP3   OH244436   8.435   2.762   1.665  0.5865 -0.0547  0.1478
14832TIP3    H144437   8.387   2.690   1.707 -1.2699  0.0880 -1.6163
14832TIP3    H244438   8.447   2.733   1.574  1.3188  1.1450 -0.1486
14833TIP3   OH244439   2.142   0.610   1.937 -0.1821  0.4638 -0.0659
14833TIP3    H144440   2.173   0.600   2.027  0.7838 -0.1133 -0.4550
14833TIP3    H244441   2.051   0.639   1.946  0.9785  4.0430  1.1264
14834TIP3   OH244442   1.936   1.781   1.277  0.2362 -0.4949 -0.4170
14834TIP3    H144443   1.974   1.814   1.358  1.5296 -0.6825 -0.9274
14834TIP3    H244444   1.934   1.686   1.288  2.6665 -0.7149 -1.5216
14835TIP3   OH244445   1.222   7.103   6.725  0.5124  0.0191 -0.2540
14835TIP3    H144446   1.272   7.055   6.791  0.5007  1.3300  0.7420
14835TIP3    H244447   1.137   7.059   6.723  0.1445  0.5911  1.3945
14836TIP3   OH244448   0.227   1.900   0.962 -0.4341  0.1239  0.1667
14836TIP3    H144449   0.249   1.846   0.886  0.3307 -0.8225  1.0543
14836TIP3    H244450   0.131   1.906   0.960 -0.3439  1.5414 -1.8421
14837TIP3   OH244451   1.711   2.106   2.308  0.4772  0.1466  0.3567
14837TIP3    H144452   1.726   2.151   2.391 -1.3964  0.7085  0.4118
14837TIP3    H244453   1.726   2.173   2.242 -0.8241  0.4471  0.3692
14838TIP3   OH244454   0.770   2.635   1.547 -0.0395 -0.8953  0.0728
14838TIP3    H144455   0.683   2.677   1.547  0.3147 -0.1582 -0.6914
14838TIP3    H244456   0.778   2.599   1.635  1.2730  4.0535  2.1438
14839TIP3   OH244457   0.465   0.739   0.653 -0.2374 -0.1383 -0.1718
14839TIP3    H144458   0.533   0.757   0.588 -2.5199 -1.7137 -3.1006
14839TIP3    H244459   0.513   0.729   0.735  2.6658  2.5678 -1.4445
14840TIP3   OH244460   0.366   0.080   2.181 -0.6395  0.6403 -0.0041
14840TIP3    H144461   0.325   0.126   2.255 -1.5694 -0.2379  0.0350
14840TIP3    H244462   0.447   0.129   2.164 -1.0346  1.5843  0.7965
14841TIP3   OH244463   1.131   2.746   2.346 -0.6199  0.0703  0.5606
14841TIP3    H144464   1.188   2.823   2.346 -1.6240  0.8415  1.9834
14841TIP3    H244465   1.182   2.677   2.387  0.6810 -0.3635 -1.6800
14842TIP3   OH244466   7.639   1.223   1.756 -0.1703 -0.0703 -0.4464
14842TIP3    H144467   7.615   1.311   1.725 -1.0252  0.0535  0.5479
14842TIP3    H244468   7.590   1.163   1.699 -1.0668  0.1353  0.1153
14843TIP3   OH244469   0.675   3.929   1.772 -0.0662  0.4376 -0.0559
14843TIP3    H144470   0.762   3.938   1.733 -0.4406  1.5000 -0.6630
14843TIP3    H244471   0.621   3.993   1.726 -0.4463  1.9589  2.4384
14844TIP3   OH244472   1.887   3.747   2.481 -0.1391  0.2306  0.0554
14844TIP3    H144473   1.890   3.703   2.397  0.3225 -1.7301  1.0746
14844TIP3    H244474   1.967   3.721   2.526 -0.1537  1.6193  0.9410
14845TIP3   OH244475   7.605   3.418   1.735  0.4390 -0.1905 -0.1219
14845TIP3    H144476   7.627   3.403   1.643 -0.0305 -0.4375 -0.1936
14845TIP3    H244477   7.509   3.419   1.737  0.4380  1.3727  0.1060
14846TIP3   OH244478   5.096   7.392   6.871 -0.3279  0.1792  0.5954
14846TIP3    H144479   5.166   7.335   6.903  1.1456  0.9773 -1.1028
14846TIP3    H244480   5.058   7.344   6.798 -0.1511  0.6568  0.1872
14847TIP3   OH244481   1.749   1.842   3.227 -0.0408 -0.3747 -0.4167
14847TIP3    H144482   1.661   1.865   3.195 -1.1134 -2.2180  1.1100
14847TIP3    H244483   1.755   1.748   3.214  0.9990 -0.5488  1.2329
14848TIP3   OH244484   6.882  -0.011   5.913 -0.5800  0.2983  0.0371
14848TIP3    H144485   6.942   0.050   5.870 -0.7167 -0.2427 -0.9336
14848TIP3    H244486   6.797   0.032   5.908 -0.8666 -0.3967 -1.5629
14849TIP3   OH244487   0.261   3.677   1.692 -0.7296 -0.2963  0.0198
14849TIP3    H144488   0.277   3.770   1.680 -2.6096  0.0032 -0.3312
14849TIP3    H244489   0.245   3.643   1.604  1.1366 -1.1901  0.0120
14850TIP3   OH244490   0.920   7.371   6.512 -0.4738  0.2813  0.1572
14850TIP3    H144491   0.869   7.354   6.592 -1.3951 -1.0789 -0.7042
14850TIP3    H244492   0.858   7.354   6.441  0.6993  0.3126 -0.8710
14851TIP3   OH244493   0.852   2.413   2.073  0.7341  0.5333 -0.0186
14851TIP3    H144494   0.770   2.459   2.086 -0.2640 -1.4627  0.9641
14851TIP3    H244495   0.920   2.476   2.097 -0.6285  1.0733  2.4763
14852TIP3   OH244496   1.526   0.315   1.472  0.7636  0.3002 -0.0604
14852TIP3    H144497   1.617   0.287   1.458  0.6182 -1.5087  2.4069
14852TIP3    H244498   1.486   0.243   1.521 -2.2397  0.7399 -1.7550
14853TIP3   OH244499   6.866   3.056   0.474  0.2295  0.0144 -0.3769
14853TIP3    H144500   6.774   3.044   0.453  0.0871  0.8289 -0.2284
14853TIP3    H244501   6.901   2.967   0.482 -0.2649 -0.2946 -1.6187
14854TIP3   OH244502   4.875   7.319   5.764  0.6246  0.4614 -0.5707
14854TIP3    H144503   4.907   7.386   5.704  2.5009  0.6486  0.6078
14854TIP3    H244504   4.934   7.245   5.751 -1.2170 -0.8698 -1.6119
14855TIP3   OH244505   1.516   2.650   0.726 -0.5566 -0.5669 -0.1058
14855TIP3    H144506   1.522   2.558   0.703  0.2315 -0.8057  1.0099
14855TIP3    H244507   1.474   2.650   0.813 -1.1811  0.1660 -0.3974
14856TIP3   OH244508   1.678   1.931   4.235  0.2765 -0.1859 -0.2996
14856TIP3    H144509   1.610   1.898   4.293  2.1662 -1.1659  1.3776
14856TIP3    H244510   1.662   1.887   4.151 -0.7707 -0.8570  0.2517
14857TIP3   OH244511   3.321   4.996   6.323  0.2109  0.2802 -0.1224
14857TIP3    H144512   3.332   5.085   6.357  0.4476 -0.1158  0.8573
14857TIP3    H244513   3.277   5.008   6.239 -1.2356  1.2277  0.7441
14858TIP3   OH244514   3.556   7.772   4.060 -0.1161 -0.2764 -0.2207
14858TIP3    H144515   3.636   7.810   4.025 -0.2845 -0.6020 -0.9755
14858TIP3    H244516   3.585   7.715   4.131  0.2961 -0.2211 -0.3453
14859TIP3   OH244517   2.553   2.900   2.055 -0.4612 -0.6310 -0.0520
14859TIP3    H144518   2.564   2.926   1.964 -0.5291  0.1537  0.1530
14859TIP3    H244519   2.630   2.848   2.075  0.6376  0.9868  0.0540
14860TIP3   OH244520   8.034   2.065   2.040  0.3035  0.1881 -0.4948
14860TIP3    H144521   8.061   2.099   1.955 -0.8936 -1.3865 -1.5260
14860TIP3    H244522   8.036   2.142   2.098  0.8963  1.3183 -1.9834
14861TIP3   OH244523   1.912   0.433   3.827  0.3340 -0.5497 -0.0268
14861TIP3    H144524   2.003   0.412   3.806  0.7502 -0.3157  1.4492
14861TIP3    H244525   1.898   0.392   3.913 -0.5505  0.5236  0.3397
14862TIP3   OH244526   5.570   7.790   6.274  0.0091 -0.3123 -0.1564
14862TIP3    H144527   5.504   7.844   6.317 -0.8762 -3.0667  2.1245
14862TIP3    H244528   5.546   7.792   6.182 -2.9431 -0.7262  0.5383
14863TIP3   OH244529   0.424   4.357   0.100  0.3462  0.6839  0.0987
14863TIP3    H144530   0.377   4.419   0.045 -0.3375 -0.0996 -0.2116
14863TIP3    H244531   0.462   4.411   0.170 -1.6640  1.2322  0.8001
14864TIP3   OH244532   7.823   3.169   1.067  0.4492  0.2197  0.2337
14864TIP3    H144533   7.797   3.258   1.092  2.0020  0.7426  0.0341
14864TIP3    H244534   7.914   3.177   1.037  1.4643 -1.7935  2.4919
14865TIP3   OH244535   0.614   3.038   0.503  0.2339 -0.1367 -0.4320
14865TIP3    H144536   0.664   3.088   0.438 -0.4574 -1.5409 -2.1014
14865TIP3    H244537   0.537   3.091   0.520  0.7874  0.5920 -0.2182
14866TIP3   OH244538   0.521   0.512   1.108  0.1979 -0.0955  0.4411
14866TIP3    H144539   0.526   0.607   1.100 -0.5322 -0.0755  0.1541
14866TIP3    H244540   0.612   0.483   1.106  0.2980  0.3092 -3.0531
14867TIP3   OH244541   7.946   3.070   1.833 -0.2613  0.2364  0.0884
14867TIP3    H144542   8.014   3.045   1.897 -0.7806 -0.6687  0.2970
14867TIP3    H244543   7.949   3.000   1.767 -0.9327  0.2335  0.0603
14868TIP3   OH244544   2.678   4.895   6.848  0.2174 -0.4720  0.1070
14868TIP3    H144545   2.698   4.854   6.763 -0.7788 -0.4534 -0.1391
14868TIP3    H244546   2.635   4.977   6.826 -0.3776 -0.6414  0.6445
14869TIP3   OH244547   2.600   6.920   6.519 -1.0832  0.0082 -0.0505
14869TIP3    H144548   2.625   6.895   6.608  0.5062  1.7281  0.0047
14869TIP3    H244549   2.512   6.958   6.528 -0.3390  1.5148  1.0252
14870TIP3   OH244550   0.746   1.441   0.298  0.1317 -0.1596 -0.2720
14870TIP3    H144551   0.771   1.373   0.234 -2.4625 -0.4685 -1.0052
14870TIP3    H244552   0.767   1.523   0.254  1.9426 -0.4319  0.0392
14871TIP3   OH244553   2.087   2.114   2.456  0.4416 -0.1971 -0.1727
14871TIP3    H144554   2.180   2.125   2.478  0.3412  0.6891 -0.1652
14871TIP3    H244555   2.051   2.062   2.529  1.1365 -1.4205 -0.6820
14872TIP3   OH244556   1.207   2.628   1.482  0.6145 -0.2104  0.3523
14872TIP3    H144557   1.280   2.613   1.422  1.5288 -0.9044  1.6300
14872TIP3    H244558   1.142   2.562   1.458  0.4301  0.3325 -0.7056
14873TIP3   OH244559   6.197   0.871   5.635 -0.4481 -0.1020 -0.2064
14873TIP3    H144560   6.155   0.806   5.692  0.3271 -0.0418  0.4432
14873TIP3    H244561   6.192   0.953   5.684  0.4238 -0.0948 -0.1263
14874TIP3   OH244562   6.567   2.320   2.888  0.1958  0.1955 -0.0169
14874TIP3    H144563   6.514   2.381   2.938  0.1957  1.3767 -1.4248
14874TIP3    H244564   6.538   2.233   2.917 -2.4335  0.8110 -0.6732
14875TIP3   OH244565  -0.017   2.043   2.970  0.1693 -0.0533 -0.2792
14875TIP3    H144566  -0.025   2.023   3.063  0.0475  0.2467 -0.2265
14875TIP3    H244567   0.077   2.049   2.955  0.2196 -0.9403 -0.3516
14876TIP3   OH244568   0.456   2.283   2.533  0.0385  0.3251  0.5369
14876TIP3    H144569   0.372   2.244   2.558 -1.3431  1.7517 -1.6598
14876TIP3    H244570   0.476   2.345   2.603  0.9565 -2.3661  2.7406
14877TIP3   OH244571   0.271   2.076   2.361 -0.7636  0.0682 -0.3896
14877TIP3    H144572   0.195   2.039   2.314 -1.1869  1.3116 -0.7063
14877TIP3    H244573   0.241   2.084   2.451  0.0272 -2.2618  0.0996
14878TIP3   OH244574   0.087   1.381   1.033  0.7574  0.3824  0.1295
14878TIP3    H144575   0.099   1.339   0.948 -1.3826 -0.8368  0.4112
14878TIP3    H244576   0.163   1.352   1.084  1.4077  0.1179 -0.9733
14879TIP3   OH244577   3.198   7.014   5.307 -0.4463 -0.0578  0.1654
14879TIP3    H144578   3.133   7.036   5.241  0.0955  0.5255 -0.1778
14879TIP3    H244579   3.167   7.058   5.386  0.1417  1.1816 -0.2896
14880TIP3   OH244580   7.499   2.070   2.026 -0.0086  0.5575  0.2390
14880TIP3    H144581   7.580   2.025   2.051 -0.4955 -0.6524 -0.3168
14880TIP3    H244582   7.521   2.163   2.030  1.8126  0.2225 -1.2205
14881TIP3   OH244583   0.776   1.485   3.186  0.1480 -0.1803 -0.3702
14881TIP3    H144584   0.804   1.511   3.274 -0.7512 -0.3902 -0.0264
14881TIP3    H244585   0.761   1.391   3.192 -0.6858 -0.0563 -0.5468
14882TIP3   OH244586   3.290   7.498   6.962 -0.4210  0.0613 -0.2150
14882TIP3    H144587   3.292   7.560   6.890 -1.7033  0.7120  0.2919
14882TIP3    H244588   3.346   7.537   7.030  0.0941 -0.1358 -0.5262
14883TIP3   OH244589   0.350   3.029   1.145 -0.0741  0.2297 -0.2897
14883TIP3    H144590   0.392   2.944   1.141 -0.3778  0.1000 -0.7191
14883TIP3    H244591   0.410   3.087   1.097 -1.5047 -0.4184 -2.9105
14884TIP3   OH244592   3.173   2.207   2.909  0.5540 -0.5750  0.4210
14884TIP3    H144593   3.174   2.298   2.881  0.7951 -0.8153 -0.3938
14884TIP3    H244594   3.257   2.194   2.952  0.1467 -0.1771  1.3319
14885TIP3   OH244595   8.505   3.735   1.163 -0.3008 -0.1819  0.0328
14885TIP3    H144596   8.566   3.759   1.093 -1.0568 -1.3988 -1.0515
14885TIP3    H244597   8.523   3.643   1.181 -0.5275 -0.0383  1.0338
14886TIP3   OH244598   3.241   5.909   6.544  0.3291 -0.6064  0.6387
14886TIP3    H144599   3.190   5.851   6.488  0.2741 -0.5978  0.6796
14886TIP3    H244600   3.217   5.884   6.633 -0.2202 -0.0436  0.6474
14887TIP3   OH244601   6.551   2.195   1.217  0.5129  0.1291  0.1794
14887TIP3    H144602   6.591   2.183   1.303  2.2604 -0.0136 -0.6206
14887TIP3    H244603   6.625   2.203   1.157 -0.6726  0.2344 -1.3185
14888TIP3   OH244604   5.956   5.440   6.753  0.5098  0.0463  0.2976
14888TIP3    H144605   6.035   5.484   6.784  0.8119 -0.9139  0.9115
14888TIP3    H244606   5.928   5.386   6.827 -0.5878  0.2079  0.0074
14889TIP3   OH244607   7.766   1.168   2.950  0.0976  0.2879 -0.2515
14889TIP3    H144608   7.703   1.237   2.968  0.0931  0.0795  0.5455
14889TIP3    H244609   7.850   1.204   2.977  0.1310  0.0671 -0.0623
14890TIP3   OH244610   7.592   1.861   2.771 -0.0541 -0.1373 -0.0398
14890TIP3    H144611   7.568   1.827   2.685  1.4668 -1.8126  0.1661
14890TIP3    H244612   7.511   1.896   2.807 -0.8914 -0.2815 -1.7630
14891TIP3   OH244613   4.820   2.666   6.506 -0.4377 -1.0793 -0.3917
14891TIP3    H144614   4.772   2.748   6.497  0.1874 -0.4355  1.7902
14891TIP3    H244615   4.903   2.682   6.460  0.7692  0.4758  2.2031
14892TIP3   OH244616   1.810   8.077   6.034  0.3846  0.1353 -0.1953
14892TIP3    H144617   1.798   8.031   5.951  1.8145 -1.9245  0.6938
14892TIP3    H244618   1.905   8.090   6.040  0.2269  0.8204  0.8278
14893TIP3   OH244619   7.592   1.653   2.143  0.1730 -0.2201  0.4228
14893TIP3    H144620   7.609   1.745   2.126  0.6705 -0.3151  0.3763
14893TIP3    H244621   7.670   1.623   2.190  1.2332 -1.2625 -1.9110
14894TIP3   OH244622   3.658   6.619   6.707 -0.1438 -0.1659 -0.4655
14894TIP3    H144623   3.633   6.701   6.664 -0.0137 -0.5937 -1.3797
14894TIP3    H244624   3.577   6.567   6.706 -0.7328  0.6538  1.8118
14895TIP3   OH244625   0.335   2.665   1.130 -0.5051  0.1359 -0.2125
14895TIP3    H144626   0.338   2.608   1.207 -2.1730 -1.9817 -1.6420
14895TIP3    H244627   0.308   2.607   1.058  0.7617  2.0984 -2.3590
14896TIP3   OH244628   3.022   6.302   6.953 -0.1626  0.6362  0.4361
14896TIP3    H144629   3.010   6.358   7.029  1.2886  0.0681  1.0914
14896TIP3    H244630   2.982   6.218   6.978  1.8113 -0.0978  1.2480
14897TIP3   OH244631   1.410   2.258   2.885 -0.0233  0.0462 -0.2343
14897TIP3    H144632   1.406   2.165   2.865 -0.9574  0.1737 -0.6804
14897TIP3    H244633   1.465   2.264   2.963  0.1225 -0.8675 -0.2687
14898TIP3   OH244634   3.449   7.996   6.757  0.0919 -0.1897  0.1493
14898TIP3    H144635   3.418   7.990   6.847  0.8620  1.2703  0.5348
14898TIP3    H244636   3.376   8.037   6.709 -0.5518 -1.5309 -0.0215
14899TIP3   OH244637   0.615   3.468   0.485  0.4135  0.3540 -0.4957
14899TIP3    H144638   0.608   3.550   0.535  1.8490  0.0703  0.1952
14899TIP3    H244639   0.661   3.408   0.544  0.3246 -0.6143 -1.4098
14900TIP3   OH244640   5.570   7.368  -0.000  0.6166 -0.1265 -0.7110
14900TIP3    H144641   5.628   7.308   0.048 -0.5014  0.5753  1.5439
14900TIP3    H244642   5.482   7.338   0.020  0.1111 -0.0033 -2.6059
14901TIP3   OH244643   1.316   0.990   1.968 -0.5276 -0.3898 -0.7388
14901TIP3    H144644   1.281   0.950   1.888 -0.4309 -0.9738 -0.4899
14901TIP3    H244645   1.370   0.922   2.008  0.3202  0.2709 -0.7452
14902TIP3   OH244646   8.509   3.468   1.533 -0.0117 -0.0786  0.1546
14902TIP3    H144647   8.540   3.453   1.622  0.0032 -1.6931 -0.1194
14902TIP3    H244648   8.433   3.411   1.524 -0.0525  0.1271 -0.8505
14903TIP3   OH244649   0.355   3.535   3.634 -0.1236 -0.5034  0.7885
14903TIP3    H144650   0.410   3.460   3.654 -0.2876 -0.3682  1.7305
14903TIP3    H244651   0.307   3.553   3.714 -0.7106  0.0874  0.3160
14904TIP3   OH244652   1.806   2.794   1.480  0.6968  0.0573 -0.5833
14904TIP3    H144653   1.849   2.879   1.476  0.0756  0.2943 -2.9205
14904TIP3    H244654   1.826   2.761   1.568  0.8550  2.6369  0.4004
14905TIP3   OH244655   2.145   2.490   1.256 -0.6349 -0.6612  0.0106
14905TIP3    H144656   2.192   2.566   1.222 -0.4842 -0.7670 -0.0161
14905TIP3    H244657   2.210   2.441   1.306 -1.1150  0.0569  1.3631
14906TIP3   OH244658   1.856   2.667   1.013 -0.1316 -0.2776 -0.4245
14906TIP3    H144659   1.803   2.595   0.979 -1.8056  0.2731  0.9049
14906TIP3    H244660   1.858   2.653   1.107 -1.5962  2.0897  0.0061
14907TIP3   OH244661   1.162   7.728   1.208 -0.0716 -0.3284 -0.7799
14907TIP3    H144662   1.205   7.756   1.288 -0.2524 -0.4076 -0.6522
14907TIP3    H244663   1.070   7.715   1.233 -0.2877  0.3959 -1.1840
14908TIP3   OH244664   0.938   6.071   4.795 -0.0580 -0.2240 -0.3306
14908TIP3    H144665   1.023   6.034   4.819 -1.1830 -2.5963  0.0512
14908TIP3    H244666   0.956   6.124   4.717  2.3235  1.8441  1.5163
14909TIP3   OH244667   1.166   5.842   6.780 -0.1214  0.3698 -0.2125
14909TIP3    H144668   1.088   5.891   6.756  0.0145  0.6154 -0.1609
14909TIP3    H244669   1.183   5.784   6.706 -1.3829 -0.9762  0.5228
14910TIP3   OH244670   3.580   6.791   6.978 -0.4604  0.1821  0.4575
14910TIP3    H144671   3.541   6.875   6.954 -0.1467  0.1748 -0.0923
14910TIP3    H244672   3.577   6.740   6.897 -2.1065 -0.9154  1.1676
14911TIP3   OH244673   0.928   1.633   2.914 -0.2178  0.0587 -0.3624
14911TIP3    H144674   0.852   1.586   2.879  0.0120 -0.1896 -0.5315
14911TIP3    H244675   0.982   1.566   2.955 -0.9176  0.4761  1.2751
14912TIP3   OH244676   1.462   2.343   3.983  0.1556  0.6845  0.1196
14912TIP3    H144677   1.520   2.267   3.973 -0.2346  0.5639 -1.3530
14912TIP3    H244678   1.492   2.405   3.916 -0.2782  1.3405  0.5282
14913TIP3   OH244679   1.153   1.990   2.446  0.1137 -0.5226 -0.0166
14913TIP3    H144680   1.114   1.933   2.513  0.5827 -0.2452  0.4995
14913TIP3    H244681   1.199   2.057   2.496  1.5152 -1.0202 -0.6130
14914TIP3   OH244682   1.818   7.275   6.935  0.7664  0.4848  0.6716
14914TIP3    H144683   1.837   7.232   6.852 -0.9902  1.0820 -0.0651
14914TIP3    H244684   1.903   7.283   6.978  1.4785 -1.2843 -0.3521
14915TIP3   OH244685   6.647   2.177   2.026 -0.0851  0.0700  0.0713
14915TIP3    H144686   6.669   2.177   1.933  0.4983  0.8495  0.2096
14915TIP3    H244687   6.551   2.179   2.028 -0.0806  2.9868 -0.5159
14916TIP3   OH244688   0.306   0.513   2.095 -0.3147 -0.4787  0.3478
14916TIP3    H144689   0.334   0.446   2.032 -0.5088 -0.8094  0.6129
14916TIP3    H244690   0.370   0.506   2.166 -0.3551 -0.4070  0.3902
14917TIP3   OH244691   0.678   2.592   1.087 -0.7856 -0.0901 -0.5135
14917TIP3    H144692   0.736   2.664   1.112  1.0744 -1.4830 -0.7518
14917TIP3    H244693   0.634   2.622   1.008  1.7059 -0.1356 -1.9316
14918TIP3   OH244694   7.236   3.319   1.197 -0.3657  0.2331  0.3977
14918TIP3    H144695   7.214   3.282   1.112 -0.5084  1.4705 -0.1226
14918TIP3    H244696   7.261   3.410   1.178 -0.2715  0.4848  1.6546
14919TIP3   OH244697   3.469   7.036   6.908  0.3293 -0.8423 -0.1325
14919TIP3    H144698   3.403   7.105   6.904  1.6199  0.5048  1.2552
14919TIP3    H244699   3.523   7.051   6.830 -0.9873 -1.9864 -1.3074
14920TIP3   OH244700   0.627   2.797   2.775  0.9218 -0.3087 -0.0297
14920TIP3    H144701   0.645   2.727   2.711 -2.0365 -0.8154 -0.3606
14920TIP3    H244702   0.626   2.752   2.859 -2.3990 -0.9954 -0.3762
14921TIP3   OH244703   0.735   1.583   2.175  0.4201  0.6322 -0.7331
14921TIP3    H144704   0.828   1.560   2.168  0.2628 -0.1091 -0.3922
14921TIP3    H244705   0.716   1.579   2.268 -0.5047 -1.4642 -0.9727
14922TIP3   OH244706   8.301   0.627   1.383 -0.6246 -0.0997 -0.0300
14922TIP3    H144707   8.332   0.626   1.293 -0.5238 -0.2950  0.0061
14922TIP3    H244708   8.280   0.535   1.402 -0.3813 -0.1017  0.2368
14923TIP3   OH244709   3.215   2.086   2.398  0.2053  0.1610  0.5729
14923TIP3    H144710   3.308   2.110   2.389  0.4883 -0.5339  1.6720
14923TIP3    H244711   3.208   2.001   2.355 -0.0411  0.4747 -0.0106
14924TIP3   OH244712   8.571   1.095   2.132 -0.1852 -0.2702  0.5569
14924TIP3    H144713   8.532   1.035   2.196  0.2178 -2.6419 -1.3152
14924TIP3    H244714   8.620   1.037   2.073 -0.7456  1.7940 -2.0211
14925TIP3   OH244715   0.273   3.949   1.669 -0.0217 -0.3816  0.0089
14925TIP3    H144716   0.241   4.024   1.618 -0.6236 -0.6345  0.0109
14925TIP3    H244717   0.304   3.987   1.751 -3.3629 -0.4727  1.3905
14926TIP3   OH244718   3.423   7.270   4.668  0.4295 -0.2315 -0.1756
14926TIP3    H144719   3.410   7.273   4.763  0.3765 -0.1941 -0.1841
14926TIP3    H244720   3.436   7.177   4.648 -1.2903 -0.4536 -0.3579
14927TIP3   OH244721   1.575   2.115   1.392 -0.0136  0.3696 -0.1740
14927TIP3    H144722   1.502   2.155   1.440 -0.0294 -1.9850  1.8777
14927TIP3    H244723   1.539   2.098   1.304 -1.1230  1.4791  0.0507
14928TIP3   OH244724   7.818   3.400   1.310  0.9353  0.0322  0.0556
14928TIP3    H144725   7.731   3.358   1.305  1.1825 -0.3864 -0.8380
14928TIP3    H244726   7.805   3.487   1.273  1.0565 -0.2886 -0.7382
14929TIP3   OH244727   2.204   3.132   0.184  0.0060 -0.0460 -0.5438
14929TIP3    H144728   2.299   3.127   0.171 -0.1556 -0.7769 -1.4432
14929TIP3    H244729   2.193   3.128   0.279  0.8286 -0.7926 -0.4735
14930TIP3   OH244730   7.353   1.477   2.173 -0.6199  0.6200  0.3117
14930TIP3    H144731   7.263   1.501   2.150 -0.8759  0.4928  1.1836
14930TIP3    H244732   7.398   1.561   2.181 -0.9275  0.7288  0.9460
14931TIP3   OH244733   2.377   2.326   2.185 -0.7664  0.1130  0.5918
14931TIP3    H144734   2.305   2.338   2.122 -3.4130 -0.5129  3.4003
14931TIP3    H244735   2.414   2.241   2.161  0.7587  1.5430 -2.4641
14932TIP3   OH244736   8.116   0.254   3.054 -0.6408  0.8789  0.0766
14932TIP3    H144737   8.058   0.197   3.104 -0.4068 -0.5284 -1.2226
14932TIP3    H244738   8.186   0.197   3.023  0.6827  2.2688  0.3982
14933TIP3   OH244739   0.737   1.958   1.485  0.4044 -0.9224 -0.2341
14933TIP3    H144740   0.710   2.020   1.554  1.0009 -3.0304  1.9590
14933TIP3    H244741   0.654   1.929   1.447  0.0739  0.4573 -0.6210
14934TIP3   OH244742   8.534   4.688   0.586  0.6024 -0.5104  0.2403
14934TIP3    H144743   8.599   4.727   0.644  1.0966 -2.0569  0.7476
14934TIP3    H244744   8.495   4.617   0.637 -0.9681 -0.0861 -0.3282
14935TIP3   OH244745   6.428   1.010   6.027 -0.4828 -0.4442 -0.5545
14935TIP3    H144746   6.500   0.981   5.971  0.4422 -0.5659  0.6627
14935TIP3    H244747   6.439   1.104   6.035  0.9489 -0.7506  1.5022
14936TIP3   OH244748   6.300   0.501   6.860  0.1679 -0.1202  0.5710
14936TIP3    H144749   6.279   0.561   6.932  2.4124  2.6504 -0.9898
14936TIP3    H244750   6.278   0.550   6.781  1.8368 -1.4301 -0.7256
14937TIP3   OH244751   0.474   1.555   0.954  0.5182  0.5621 -0.0749
14937TIP3    H144752   0.541   1.553   0.886 -1.3243  0.9541 -1.9689
14937TIP3    H244753   0.496   1.631   1.008  2.0063  0.2346 -0.2038
14938TIP3   OH244754   0.115   2.022   3.255  0.6392  0.3448  0.5704
14938TIP3    H144755   0.071   2.083   3.314  0.5565 -0.1992  1.0763
14938TIP3    H244756   0.144   1.951   3.312 -1.4735 -1.3354 -0.3817
14939TIP3   OH244757   0.891   0.167   0.087 -0.3908 -0.5131 -0.3940
14939TIP3    H144758   0.806   0.134   0.113  0.0289  0.2061  1.9992
14939TIP3    H244759   0.907   0.241   0.146  1.2894  0.2022 -1.7043
14940TIP3   OH244760   6.469   1.406   2.724 -0.3140 -0.3348  0.4406
14940TIP3    H144761   6.425   1.323   2.704  0.1875 -0.8410  1.4181
14940TIP3    H244762   6.461   1.457   2.643 -1.6525 -0.8761  0.2156
14941TIP3   OH244763   1.675   8.074   6.944 -0.3914 -0.0764 -0.1320
14941TIP3    H144764   1.731   8.151   6.937 -0.3973 -0.0745 -0.1558
14941TIP3    H244765   1.735   8.000   6.931 -0.3207 -0.0891  0.2727
14942TIP3   OH244766   0.984   0.523   5.665 -0.0262  0.0835 -0.0149
14942TIP3    H144767   0.913   0.461   5.648  0.0010  0.0011  0.1804
14942TIP3    H244768   1.051   0.500   5.601  0.4719 -0.8506  0.8338
14943TIP3   OH244769   0.917   2.751   2.506  0.3458 -1.3097  0.1993
14943TIP3    H144770   0.977   2.774   2.436  1.3037 -1.3242  1.0023
14943TIP3    H244771   0.935   2.814   2.576 -1.7935 -0.1997 -0.1921
14944TIP3   OH244772   4.738   7.095   6.698 -0.4536 -0.8486 -0.4620
14944TIP3    H144773   4.756   7.008   6.662 -0.4424 -1.5368  1.1597
14944TIP3    H244774   4.716   7.079   6.790  0.4363  0.9446  0.0895
14945TIP3   OH244775   7.869   1.838   1.414 -0.1201  0.2153 -0.2353
14945TIP3    H144776   7.809   1.856   1.486  1.1575  1.5229  0.5256
14945TIP3    H244777   7.862   1.915   1.357 -0.9836 -0.7247 -1.4361
14946TIP3   OH244778   8.023   3.364   1.909  0.3428  0.0328  0.6620
14946TIP3    H144779   7.961   3.291   1.911  1.4355 -0.9621 -0.7842
14946TIP3    H244780   7.969   3.442   1.895 -0.6445 -0.7373  0.1725
14947TIP3   OH244781   4.733   6.690   6.292 -0.2054 -0.1365  0.0401
14947TIP3    H144782   4.695   6.756   6.235 -1.4600 -2.2511 -1.6451
14947TIP3    H244783   4.664   6.624   6.303  2.0481 -2.7837 -0.9868
14948TIP3   OH244784   5.517   8.087   1.584  0.3402  0.4744 -0.5864
14948TIP3    H144785   5.572   8.152   1.629  0.3375 -0.0730  0.2086
14948TIP3    H244786   5.474   8.039   1.654 -0.7545  0.5421 -1.1950
14949TIP3   OH244787   8.518   1.179   3.487 -0.4236  0.4584  0.4671
14949TIP3    H144788   8.555   1.261   3.521  1.5175  0.4725 -1.5658
14949TIP3    H244789   8.496   1.129   3.566  1.9128  1.3914  1.7738
14950TIP3   OH244790   8.057   3.136   2.403  0.0386 -0.2517  0.3794
14950TIP3    H144791   8.021   3.129   2.492  0.1892  1.5708  0.6159
14950TIP3    H244792   8.019   3.062   2.355 -0.8376 -0.6683  1.6970
14951TIP3   OH244793   6.424   7.702   3.334  0.3407  0.2183 -0.2012
14951TIP3    H144794   6.357   7.771   3.324 -0.3469 -0.2883  0.8234
14951TIP3    H244795   6.411   7.669   3.422 -0.9284 -2.8766 -1.4689
14952TIP3   OH244796   0.775   2.037   1.990  0.1572 -0.0603  0.7042
14952TIP3    H144797   0.776   2.030   2.085 -1.0912 -0.0884  0.7226
14952TIP3    H244798   0.748   1.950   1.960 -1.6396  0.5775  0.4180
14953TIP3   OH244799   1.797   2.421   1.876  0.3083  0.3924  0.2388
14953TIP3    H144800   1.822   2.415   1.968 -0.1978 -1.9212  0.2562
14953TIP3    H244801   1.834   2.343   1.835 -1.7656 -0.0191 -0.9521
14954TIP3   OH244802   7.716   0.883   1.008 -0.3506 -0.2417 -0.1919
14954TIP3    H144803   7.750   0.936   0.937  0.9553  0.3694  0.8628
14954TIP3    H244804   7.646   0.831   0.968 -0.8650  1.4131 -1.4835
14955TIP3   OH244805   0.031   1.897   2.005 -0.3667 -0.1076  0.1256
14955TIP3    H144806   0.038   1.881   1.911  1.5616 -2.1685  0.5741
14955TIP3    H244807  -0.060   1.878   2.027 -0.8112  0.3304 -1.2948
14956TIP3   OH244808   3.008   2.812   2.649  0.0476 -0.1277 -0.0233
14956TIP3    H144809   2.952   2.755   2.702  1.0334 -1.5438 -0.4607
14956TIP3    H244810   2.965   2.897   2.651 -2.2810 -1.2479 -0.5988
14957TIP3   OH244811   0.917   1.794   5.040  0.2272  0.2212  0.3623
14957TIP3    H144812   0.913   1.783   4.945  0.1319  0.4992  0.3365
14957TIP3    H244813   0.978   1.867   5.053 -1.1792  1.3952  0.4514
14958TIP3   OH244814   1.678   1.480   1.715  0.2560  0.3614  0.2143
14958TIP3    H144815   1.750   1.462   1.775 -2.0719  0.3882  3.1067
14958TIP3    H244816   1.610   1.519   1.770 -1.2744  2.1162 -2.7980
14959TIP3   OH244817   0.696   2.649   2.999 -0.5255  0.0154  0.4039
14959TIP3    H144818   0.646   2.638   3.080  1.4151  1.2577  1.8134
14959TIP3    H244819   0.734   2.563   2.982 -3.3112 -1.0422 -0.8689
14960TIP3   OH244820   8.569   4.689   3.679 -0.6236  0.6383  0.1168
14960TIP3    H144821   8.577   4.640   3.761  0.4167  1.8701  0.7709
14960TIP3    H244822   8.651   4.737   3.672 -1.7699  2.5914 -0.2959
14961TIP3   OH244823   2.897   2.616   3.810 -0.4242  0.3838 -0.1737
14961TIP3    H144824   2.868   2.609   3.719  2.1953  1.1753 -1.0985
14961TIP3    H244825   2.872   2.705   3.835  0.0346  0.6228 -0.5532
14962TIP3   OH244826   1.405   0.738   1.196  0.0064 -0.5521  0.7213
14962TIP3    H144827   1.487   0.689   1.204  0.7560  0.9709  2.9609
14962TIP3    H244828   1.433   0.829   1.186 -1.4026 -0.2252 -0.3658
14963TIP3   OH244829   6.946   7.715   2.010  0.3666  0.0162  0.2857
14963TIP3    H144830   6.865   7.752   2.046  0.1006  0.2293 -0.5046
14963TIP3    H244831   6.950   7.750   1.921  0.1457 -1.8099 -0.4705
14964TIP3   OH244832   0.060   3.133   0.167 -0.0550  0.0404  0.7890
14964TIP3    H144833   0.067   3.038   0.155  1.0189  0.3289 -1.1178
14964TIP3    H244834   0.093   3.148   0.256  0.8507 -1.2686  0.6981
14965TIP3   OH244835   1.778   1.786   2.465 -0.0860 -0.0351 -0.2515
14965TIP3    H144836   1.781   1.800   2.560 -0.1893  2.7173 -0.6008
14965TIP3    H244837   1.854   1.833   2.431 -0.6242 -0.1048 -1.6088
14966TIP3   OH244838   1.629   0.595   2.669 -0.5584 -0.1228  0.1778
14966TIP3    H144839   1.641   0.643   2.587 -0.6942 -1.4006 -0.6066
14966TIP3    H244840   1.543   0.622   2.701 -0.6593  0.0973 -0.2878
14967TIP3   OH244841   2.355   2.990   4.853 -0.5862 -0.2090  0.4502
14967TIP3    H144842   2.347   2.914   4.796  0.2639 -0.2737  0.4087
14967TIP3    H244843   2.301   2.969   4.930 -1.2249 -0.3841 -0.0415
14968TIP3   OH244844   4.043   7.119   6.293 -0.3571  0.1387 -0.5176
14968TIP3    H144845   4.136   7.140   6.281  0.1340  0.2151  2.9638
14968TIP3    H244846   4.043   7.033   6.335 -1.8295  0.6442  0.5316
14969TIP3   OH244847   8.046   1.520   0.721  0.0436  0.1080  0.3532
14969TIP3    H144848   8.111   1.482   0.779 -0.1902  1.0514  1.2430
14969TIP3    H244849   7.972   1.459   0.725  0.3107 -0.2125  0.4622
14970TIP3   OH244850   6.275   1.345   2.180 -0.1239  0.3934 -0.5318
14970TIP3    H144851   6.251   1.433   2.154  0.0828  0.5351 -0.2459
14970TIP3    H244852   6.205   1.317   2.239  1.7512  1.8407  2.5131
14971TIP3   OH244853   3.171   0.767   1.837 -0.1850 -0.3041  0.4997
14971TIP3    H144854   3.079   0.792   1.835  0.2057  1.1971  0.7872
14971TIP3    H244855   3.179   0.710   1.913 -0.2261  2.2142  2.4277
14972TIP3   OH244856   2.256   6.231   6.428  0.2200 -0.1242  0.3968
14972TIP3    H144857   2.321   6.251   6.361 -0.3120 -2.5548 -0.9025
14972TIP3    H244858   2.192   6.303   6.422  0.8582  0.3491 -0.8117
14973TIP3   OH244859   6.722   2.053   2.673  0.3412 -0.0489  0.3786
14973TIP3    H144860   6.709   2.145   2.694 -0.9127 -0.3373  0.8764
14973TIP3    H244861   6.768   2.054   2.589  0.0138  1.0213  0.2059
14974TIP3   OH244862   0.769   4.334   1.468 -0.2562 -0.2637  0.1617
14974TIP3    H144863   0.679   4.340   1.500  0.0309 -0.1137  0.9621
14974TIP3    H244864   0.822   4.363   1.542  0.3243  2.3556 -1.2247
14975TIP3   OH244865   0.803   2.206   0.341  0.0468 -0.4655 -0.1769
14975TIP3    H144866   0.710   2.184   0.340 -0.8846  3.0586  0.3470
14975TIP3    H244867   0.823   2.231   0.251  0.0529  0.3113  0.0325
14976TIP3   OH244868   0.907   3.673   2.846 -0.6015  0.1196 -0.0825
14976TIP3    H144869   0.900   3.618   2.768 -2.3205 -0.2816  0.3517
14976TIP3    H244870   0.822   3.715   2.855 -0.3742  0.2964  1.4849
14977TIP3   OH244871   2.158   0.371   1.163 -0.6829  0.6383  0.3633
14977TIP3    H144872   2.129   0.323   1.085 -0.5761  0.8648  0.1819
14977TIP3    H244873   2.253   0.359   1.165 -0.9745 -1.8261  2.1084
14978TIP3   OH244874   1.462   3.033   1.937  0.6188 -0.4689  0.2850
14978TIP3    H144875   1.503   3.009   1.853 -0.0406 -2.3612  0.4827
14978TIP3    H244876   1.382   2.981   1.940  0.4107 -0.0759  1.9020
14979TIP3   OH244877   6.149   1.241   2.414  0.3298 -0.2220  0.1844
14979TIP3    H144878   6.061   1.244   2.378 -1.4162  0.9515  4.2618
14979TIP3    H244879   6.153   1.160   2.464  1.5891 -0.2543  0.0677
14980TIP3   OH244880   1.090   1.760   1.065  0.6339 -0.3018 -0.3443
14980TIP3    H144881   1.030   1.701   1.110 -1.7753  3.2024  1.3009
14980TIP3    H244882   1.034   1.811   1.006  3.1773 -2.1325 -4.6176
14981TIP3   OH244883   0.381   1.142   0.716 -0.1741 -0.2273  0.6588
14981TIP3    H144884   0.426   1.098   0.644 -0.3186  1.1648 -0.2901
14981TIP3    H244885   0.452   1.168   0.776  0.2526  1.3958 -0.5202
14982TIP3   OH244886   1.963   2.174   2.898 -0.7546 -0.2303  0.0009
14982TIP3    H144887   2.017   2.221   2.834 -0.3982 -1.4159 -0.5847
14982TIP3    H244888   1.902   2.240   2.931  1.8736  1.5034  1.6479
14983TIP3   OH244889   1.997   1.170   1.280  0.2178 -0.3749 -0.5154
14983TIP3    H144890   1.936   1.184   1.208 -1.7460 -0.8603  1.0261
14983TIP3    H244891   1.983   1.244   1.339  1.2264 -0.4002 -0.2331
14984TIP3   OH244892   8.115   3.246   0.577  0.3892 -0.2870  0.3802
14984TIP3    H144893   8.057   3.317   0.602  1.2532 -0.2048  2.2778
14984TIP3    H244894   8.171   3.232   0.654  1.9041 -1.3245 -0.8614
14985TIP3   OH244895   7.656   1.429   3.062  0.5857  0.2864  0.8870
14985TIP3    H144896   7.594   1.396   3.126 -1.4849  0.4945 -0.9457
14985TIP3    H244897   7.611   1.502   3.020  1.2499 -0.8181 -1.8781
14986TIP3   OH244898   0.514   4.673   0.347 -0.4070  0.4064  0.3972
14986TIP3    H144899   0.510   4.723   0.265  1.9547 -0.2706 -0.1616
14986TIP3    H244900   0.600   4.694   0.384 -1.4343  0.7207  2.7553
14987TIP3   OH244901   4.248   6.360   6.259  0.0846 -0.0880 -0.1901
14987TIP3    H144902   4.317   6.347   6.324 -0.1451 -0.6071 -0.0426
14987TIP3    H244903   4.189   6.425   6.299  0.6607  0.6015 -0.4580
14988TIP3   OH244904   8.312   2.751   1.397 -0.3789  0.2841 -0.0928
14988TIP3    H144905   8.377   2.759   1.327  0.9228 -1.5675  0.8594
14988TIP3    H244906   8.232   2.722   1.353  0.0788  0.3348 -0.9579
14989TIP3   OH244907   7.493   2.899   0.730  0.7631 -0.0231  0.2409
14989TIP3    H144908   7.415   2.881   0.783  0.0791 -0.5160 -0.9224
14989TIP3    H244909   7.544   2.818   0.734  1.6354  0.5620  1.6600
14990TIP3   OH244910   1.171   1.421   4.493  0.1077  0.8589  0.1230
14990TIP3    H144911   1.088   1.391   4.530  1.2623 -1.0317  1.2627
14990TIP3    H244912   1.181   1.510   4.527 -2.1150  1.6549 -1.1818
14991TIP3   OH244913   8.214   2.574   0.114  0.2825  0.1940 -0.2592
14991TIP3    H144914   8.230   2.651   0.169  0.8114  0.0442 -0.1990
14991TIP3    H244915   8.125   2.586   0.082  0.0806  0.4448  0.3772
14992TIP3   OH244916   4.446   6.410   6.733 -0.0903  0.0515 -0.2314
14992TIP3    H144917   4.433   6.342   6.666  1.1520 -0.8247  0.3820
14992TIP3    H244918   4.474   6.361   6.810  0.2896  1.2229  0.3806
14993TIP3   OH244919   1.542   2.670   1.120 -0.1471  0.1669 -0.0160
14993TIP3    H144920   1.472   2.633   1.066 -0.9809  0.4661  0.8447
14993TIP3    H244921   1.554   2.758   1.085 -0.9921  0.5185  0.5402
14994TIP3   OH244922   6.081   5.638   6.480  0.0436  0.1995  0.2418
14994TIP3    H144923   6.149   5.619   6.416  0.1208 -1.0139  0.6729
14994TIP3    H244924   5.999   5.635   6.431  0.1834  0.2217  0.0091
14995TIP3   OH244925   1.616   3.670   0.525  0.3164  0.2857  0.5434
14995TIP3    H144926   1.555   3.596   0.517  0.7702 -0.2239  1.7669
14995TIP3    H244927   1.630   3.680   0.619  0.2963  1.9080  0.3861
14996TIP3   OH244928   8.338   2.062   1.953 -0.0444  0.1801 -0.2339
14996TIP3    H144929   8.396   2.114   1.898  0.8108 -1.7525 -1.2196
14996TIP3    H244930   8.312   2.121   2.024  0.5710  2.0389 -1.5266
14997TIP3   OH244931   1.752   2.374   1.481 -0.3612  0.0273 -0.0430
14997TIP3    H144932   1.716   2.286   1.473 -0.3091 -0.1020  1.1503
14997TIP3    H244933   1.778   2.397   1.391 -1.0841 -0.8610 -0.4921
14998TIP3   OH244934   4.825   7.433   6.033 -0.1366 -0.9283 -0.3353
14998TIP3    H144935   4.835   7.371   5.961 -0.1279 -1.0950 -0.1920
14998TIP3    H244936   4.860   7.515   5.999  0.2659 -1.1131 -0.3736
14999TIP3   OH244937   2.591   1.884   1.564 -0.3960 -0.1313  0.4412
14999TIP3    H144938   2.534   1.844   1.630 -0.9565 -1.0083 -0.5625
14999TIP3    H244939   2.533   1.898   1.488  0.4785 -0.0394 -0.2129
15000TIP3   OH244940   3.374   3.259   0.831  0.4310  0.4474 -0.3081
15000TIP3    H144941   3.388   3.207   0.910 -0.8452  1.0982  0.3766
15000TIP3    H244942   3.335   3.199   0.768  1.3712 -0.0515 -0.4212
15001TIP3   OH244943   5.595   6.971   6.403 -0.6158 -0.4056 -0.1611
15001TIP3    H144944   5.649   6.937   6.333  1.7565 -0.0512  1.4458
15001TIP3    H244945   5.640   6.946   6.484 -0.1076  4.1844  1.1281
15002TIP3   OH244946   6.178   5.610   6.745 -0.3219  0.1796  0.3226
15002TIP3    H144947   6.121   5.617   6.669 -1.4133 -2.3176  0.8768
15002TIP3    H244948   6.261   5.650   6.716 -1.0120  0.0988 -1.8531
15003TIP3   OH244949   5.429   5.418   6.285  0.0205 -0.3389 -0.2362
15003TIP3    H144950   5.419   5.374   6.201 -0.5885  0.9528 -0.8461
15003TIP3    H244951   5.374   5.366   6.345 -0.4866 -0.5664 -0.8889
15004TIP3   OH244952   1.897   2.658   2.280 -0.3411 -0.1831 -0.0443
15004TIP3    H144953   1.825   2.660   2.216 -0.4287  0.2069  0.0635
15004TIP3    H244954   1.949   2.582   2.255 -1.0771 -0.7799  0.1855
15005TIP3   OH244955   4.828   7.749   6.741 -0.2957 -0.2984  0.4026
15005TIP3    H144956   4.872   7.800   6.673 -0.1466 -0.9839 -0.0109
15005TIP3    H244957   4.786   7.815   6.797  1.1897  0.3527  0.7681
15006TIP3   OH244958   0.629   0.748   0.923  0.1638  0.2257  0.1910
15006TIP3    H144959   0.724   0.750   0.935 -0.1387  0.1927  2.8281
15006TIP3    H244960   0.593   0.787   1.002 -2.0207  1.2723 -1.2436
15007TIP3   OH244961   2.818   2.514   0.033  0.3898 -0.2925 -0.4336
15007TIP3    H144962   2.792   2.513  -0.059 -1.6462  1.7948  0.0552
15007TIP3    H244963   2.889   2.578   0.037 -0.7774  1.0178 -0.2835
15008TIP3   OH244964   1.717   2.394   0.005 -0.5296 -0.2719 -0.9406
15008TIP3    H144965   1.736   2.487  -0.009  0.8485 -0.3650  0.2099
15008TIP3    H244966   1.633   2.394   0.050  0.3321  0.5170  0.7083
15009TIP3   OH244967   2.490   3.360   0.263  0.4575  0.0614  0.6082
15009TIP3    H144968   2.516   3.387   0.175 -0.5972 -0.4579  0.1297
15009TIP3    H244969   2.465   3.442   0.306 -2.6751 -0.1053 -0.8163
15010TIP3   OH244970   4.053   6.718   5.987 -0.4885  0.0896 -0.3845
15010TIP3    H144971   4.024   6.655   5.922 -0.9999 -0.9337  0.8131
15010TIP3    H244972   4.080   6.665   6.062 -2.2051  1.3028  1.1447
15011TIP3   OH244973   0.438   1.404   3.726  0.5002 -0.1597  0.2605
15011TIP3    H144974   0.388   1.452   3.791 -0.4185  0.1642 -0.6704
15011TIP3    H244975   0.455   1.318   3.766  1.8830  0.8174  1.8046
15012TIP3   OH244976   5.401   6.378   6.130 -0.0273  0.2031 -0.3698
15012TIP3    H144977   5.325   6.435   6.128  0.1000  0.3464 -1.6792
15012TIP3    H244978   5.466   6.426   6.181  0.4614  1.7514 -2.3911
15013TIP3   OH244979   6.634   8.041   3.800 -0.5403  1.0633  0.1741
15013TIP3    H144980   6.586   8.012   3.723  0.0041 -0.9793  0.5808
15013TIP3    H244981   6.634   7.965   3.859  3.1313  1.0031  0.1924
15014TIP3   OH244982   5.163   6.503   6.564  0.2918 -0.3431 -0.1845
15014TIP3    H144983   5.216   6.430   6.597 -0.2900 -0.6011  0.1899
15014TIP3    H244984   5.157   6.488   6.470  0.0240 -0.8810 -0.0851
15015TIP3   OH244985   0.789   7.638   0.824  0.6827 -0.0474  0.4393
15015TIP3    H144986   0.749   7.617   0.908  1.1615  0.3518  0.7699
15015TIP3    H244987   0.717   7.634   0.761  0.4501 -0.9876  0.7660
15016TIP3   OH244988   6.133   7.563   6.167 -0.3087  0.1466 -0.6580
15016TIP3    H144989   6.168   7.623   6.101 -1.3958 -0.0702 -1.4493
15016TIP3    H244990   6.111   7.620   6.241  0.1470  0.5109 -0.7975
15017TIP3   OH244991   6.954   7.383   5.669 -0.2808  0.5208  0.0150
15017TIP3    H144992   6.946   7.467   5.714 -0.8799 -0.5496  2.0110
15017TIP3    H244993   6.919   7.319   5.732  0.9459 -1.3177 -1.1087
15018TIP3   OH244994   0.233   0.067   6.619  0.5749 -0.1386  0.5793
15018TIP3    H144995   0.317   0.025   6.638  0.4020 -0.3114  0.9755
15018TIP3    H244996   0.175   0.037   6.689  0.6851  1.4705  1.3930
15019TIP3   OH244997   5.273   7.201   6.958 -0.4990 -0.0905 -0.1561
15019TIP3    H144998   5.352   7.174   7.004 -0.9252  1.2462  1.4141
15019TIP3    H244999   5.258   7.132   6.894  3.1766  0.6893 -2.0099
15020TIP3   OH245000   4.487   6.510   6.241 -0.1524  0.3074 -0.1072
15020TIP3    H145001   4.448   6.483   6.158  0.2835 -0.3853 -0.0982
15020TIP3    H245002   4.422   6.567   6.281 -0.3489  0.6819 -0.9448
15021TIP3   OH245003   4.895   6.850   5.588  0.4594  0.1424  0.1355
15021TIP3    H145004   4.825   6.805   5.634 -0.1976  1.3948  0.3629
15021TIP3    H245005   4.914   6.793   5.513 -2.3099  0.8656 -1.1718
15022TIP3   OH245006   1.586   3.194   2.486 -0.4252  0.2761  0.0510
15022TIP3    H145007   1.491   3.189   2.501 -0.6125  1.0818 -0.8101
15022TIP3    H245008   1.608   3.109   2.448 -1.2039  0.9031 -1.8461
15023TIP3   OH245009   2.846   3.241   2.404  0.3306 -0.2510 -0.8497
15023TIP3    H145010   2.780   3.285   2.350 -0.3866 -0.1213  0.1127
15023TIP3    H245011   2.900   3.312   2.438  0.7055 -0.3226 -1.2918
15024TIP3   OH245012   0.885   3.049   0.553  0.1353 -0.1479 -0.3553
15024TIP3    H145013   0.805   3.007   0.583 -0.5792  0.1831 -1.7606
15024TIP3    H245014   0.857   3.135   0.522  1.2531  0.5247  0.4425
15025TIP3   OH245015   5.372   6.926   6.689 -0.2827 -0.1441 -0.1294
15025TIP3    H145016   5.431   7.000   6.700 -1.6148  0.7676  0.9204
15025TIP3    H245017   5.377   6.878   6.772  0.1390 -0.9295 -0.5971
15026TIP3   OH245018   2.110   2.726   0.912  0.1534  0.3442 -0.0483
15026TIP3    H145019   2.015   2.726   0.920  0.0897  0.9233 -0.7252
15026TIP3    H245020   2.142   2.719   1.002 -0.5237 -0.7109  0.1278
15027TIP3   OH245021   3.881   5.062   1.436  0.6671 -0.4391 -0.9353
15027TIP3    H145022   3.927   5.099   1.360  2.1097  1.9511  1.0464
15027TIP3    H245023   3.951   5.031   1.493 -0.0332  3.4641  2.2546
15028TIP3   OH245024   2.902   3.676   0.708  0.2631 -0.3940  0.2124
15028TIP3    H145025   2.902   3.678   0.612  0.8741 -0.2875  0.2094
15028TIP3    H245026   2.982   3.723   0.733  1.0184 -1.9167  0.7297
15029TIP3   OH245027   1.801   3.012   3.686  0.1173  0.2038  0.0200
15029TIP3    H145028   1.784   2.941   3.748  0.1586 -0.2322 -0.4637
15029TIP3    H245029   1.848   2.971   3.614  0.2549  0.7491 -0.2072
15030TIP3   OH245030   1.416   6.378   5.417  0.6963  0.5892  0.6527
15030TIP3    H145031   1.477   6.330   5.472  1.2792 -2.1204 -2.1605
15030TIP3    H245032   1.454   6.465   5.408  1.3722  0.5849  3.1755
15031TIP3   OH245033   0.684   1.760   1.924 -0.8341  0.1885  0.2333
15031TIP3    H145034   0.713   1.720   1.842  0.9114  0.9845  0.4436
15031TIP3    H245035   0.703   1.695   1.991  2.5512  1.4779  0.6556
15032TIP3   OH245036   2.388   2.058   0.798  0.1364 -0.6546  0.2930
15032TIP3    H145037   2.295   2.054   0.821  0.1893  0.2843  0.6738
15032TIP3    H245038   2.415   2.146   0.821  0.4259  0.0286 -2.4268
15033TIP3   OH245039   5.555   7.247   6.448 -0.5665 -0.8174  0.2081
15033TIP3    H145040   5.597   7.293   6.376  0.2167  0.2903  1.3600
15033TIP3    H245041   5.575   7.155   6.433 -1.6429 -0.7470 -1.7803
15034TIP3   OH245042   0.500   0.020   5.262  0.2137 -0.6188  0.1770
15034TIP3    H145043   0.444  -0.044   5.220 -0.7851  0.8833 -0.8103
15034TIP3    H245044   0.451   0.102   5.258  2.2113  0.6040 -0.1936
15035TIP3   OH245045   1.250   2.535   2.561  0.0919 -0.1296  0.0069
15035TIP3    H145046   1.231   2.461   2.619  1.5900 -0.6097 -0.0744
15035TIP3    H245047   1.258   2.610   2.619 -2.7110  0.2278 -0.0418
15036TIP3   OH245048   1.949   7.365   5.587 -0.6408 -0.0768 -0.1157
15036TIP3    H145049   1.958   7.460   5.582  0.5018  0.0728  3.4034
15036TIP3    H245050   2.034   7.331   5.562  0.2399  0.0285  2.6482
15037TIP3   OH245051   0.588   4.247   0.497 -0.5318  0.6248  0.1490
15037TIP3    H145052   0.609   4.179   0.433 -0.7080  1.9104 -1.3214
15037TIP3    H245053   0.659   4.243   0.561 -0.4888 -0.8508  0.0079
15038TIP3   OH245054   1.188   5.575   0.572 -0.1606 -0.7132  0.0461
15038TIP3    H145055   1.210   5.607   0.660 -3.0991 -1.9741  1.2890
15038TIP3    H245056   1.263   5.521   0.547  1.3232  0.7376  1.1762
15039TIP3   OH245057   2.663   7.133   4.903  0.2812 -0.1441 -0.1226
15039TIP3    H145058   2.616   7.060   4.943 -0.0562  0.0211 -0.2182
15039TIP3    H245059   2.744   7.094   4.870  0.1078 -0.4736 -0.1614
15040TIP3   OH245060   3.940   7.190   6.031  0.3460 -0.1155  0.0975
15040TIP3    H145061   4.002   7.164   5.962  0.2973 -0.6959  0.2676
15040TIP3    H245062   3.974   7.148   6.110  0.6362  0.8976  0.5146
15041TIP3   OH245063   1.246   2.811   3.341 -0.3882 -0.5139 -0.1600
15041TIP3    H145064   1.236   2.760   3.422 -0.5699  0.7262  0.6141
15041TIP3    H245065   1.162   2.803   3.296 -0.4986 -0.6902  0.0763
15042TIP3   OH245066   4.697   6.425   6.550 -0.3734  0.2536 -0.0400
15042TIP3    H145067   4.606   6.425   6.520  0.1187 -1.5746 -1.6479
15042TIP3    H245068   4.692   6.391   6.639 -1.1209 -1.4871 -0.7181
15043TIP3   OH245069   2.178   1.513   1.085 -0.0471 -0.5390  0.3541
15043TIP3    H145070   2.203   1.424   1.108  0.8953 -0.8037 -1.5846
15043TIP3    H245071   2.085   1.507   1.062 -0.0566 -0.9627  0.5039
15044TIP3   OH245072   1.897   0.859   1.683  0.0831  0.5788  0.2365
15044TIP3    H145073   1.956   0.921   1.639  2.3384  0.5615  3.1361
15044TIP3    H245074   1.812   0.904   1.683  0.9520  2.2964 -0.5556
15045TIP3   OH245075   6.796   7.534   4.254 -0.4037 -0.1416 -0.0882
15045TIP3    H145076   6.747   7.614   4.235  0.9581  0.4839 -1.0211
15045TIP3    H245077   6.823   7.544   4.346 -1.4779 -0.2191  0.2485
15046TIP3   OH245078   2.743   6.285   4.612 -0.3628  0.1404  0.1214
15046TIP3    H145079   2.697   6.267   4.694 -1.1446  0.6334 -0.2037
15046TIP3    H245080   2.674   6.289   4.546  0.2201  0.1805 -0.4903
15047TIP3   OH245081   1.025   1.989   3.131  0.1556  0.5417 -0.2355
15047TIP3    H145082   1.084   1.984   3.206  0.2900  1.0274 -0.3090
15047TIP3    H245083   1.022   2.082   3.109 -1.0403  0.5797  0.0871
15048TIP3   OH245084   4.724   6.344   6.121  0.8933  0.0825  0.0253
15048TIP3    H145085   4.726   6.369   6.213  2.8976  1.1887 -0.2986
15048TIP3    H245086   4.780   6.267   6.115  1.5026  0.5581 -0.4241
15049TIP3   OH245087   3.731   6.366   6.596  0.0834  0.3765 -0.7985
15049TIP3    H145088   3.721   6.378   6.501  2.4065  0.8298 -1.0096
15049TIP3    H245089   3.738   6.455   6.630  2.0166  0.1521 -0.5483
15050TIP3   OH245090   1.809   2.308   0.550 -0.3265 -0.0549  0.1476
15050TIP3    H145091   1.895   2.294   0.589 -0.2286 -1.2412 -0.4825
15050TIP3    H245092   1.813   2.264   0.465 -1.5529 -0.1554  0.1278
15051TIP3   OH245093   2.604   1.871   3.643 -0.1421  0.4821  0.8076
15051TIP3    H145094   2.639   1.933   3.707  1.0280 -0.1335  0.7620
15051TIP3    H245095   2.664   1.875   3.569  0.2988 -1.1827  1.0688
15052TIP3   OH245096   2.605   3.017   1.770  0.1319  0.0887 -0.0121
15052TIP3    H145097   2.562   2.979   1.693  1.1583  0.1339 -0.6180
15052TIP3    H245098   2.692   3.041   1.739  0.3829  0.5567  1.0467
15053TIP3   OH245099   5.393   6.838   4.830  0.2705 -1.2084  0.2917
15053TIP3    H145100   5.340   6.775   4.879 -0.9355 -2.0441 -1.9963
15053TIP3    H245101   5.465   6.787   4.794  0.5886 -0.8096  0.3547
15054TIP3   OH245102   5.435   5.682   6.282  0.0265 -0.0011 -0.0987
15054TIP3    H145103   5.412   5.590   6.269  2.0995 -0.1857 -2.9489
15054TIP3    H245104   5.423   5.722   6.196 -0.1727  2.2414  0.9471
15055TIP3   OH245105   1.553   2.406   0.616  0.3322 -0.4777  0.2006
15055TIP3    H145106   1.480   2.393   0.556  1.0269 -0.4650 -0.6695
15055TIP3    H245107   1.627   2.364   0.572  0.5454 -1.7351  1.7149
15056TIP3   OH245108   2.960   1.024   1.194  0.2259 -0.4742  0.2113
15056TIP3    H145109   2.896   1.059   1.133  1.3261 -0.0909 -0.7457
15056TIP3    H245110   2.993   0.944   1.152  0.9515 -0.2362  0.3176
15057TIP3   OH245111   1.560   1.270   1.094 -0.5725  0.2555 -0.4906
15057TIP3    H145112   1.608   1.208   1.149  1.0900  2.0898  0.1772
15057TIP3    H245113   1.583   1.246   1.004  2.5375  1.7433 -0.1808
15058TIP3   OH245114   6.055   7.173   6.421 -0.1591 -0.5619 -0.3819
15058TIP3    H145115   6.030   7.082   6.409 -0.3763 -0.2599 -2.4832
15058TIP3    H245116   6.060   7.208   6.332 -0.5783  1.6049  0.4176
15059TIP3   OH245117   4.464   6.933   4.371 -0.2224  0.0485  0.0504
15059TIP3    H145118   4.460   6.955   4.278  1.1909 -0.0498 -0.0407
15059TIP3    H245119   4.400   6.863   4.381  0.3114 -0.6190 -1.0534
15060TIP3   OH245120   1.077   0.976   0.878  0.3726  0.3633 -0.1573
15060TIP3    H145121   1.024   1.020   0.811 -0.3072  0.1717  0.2545
15060TIP3    H245122   1.155   1.031   0.886 -1.0597  2.2493  1.3008
15061TIP3   OH245123   0.519   1.752   0.063  0.1454  0.9438  0.2823
15061TIP3    H145124   0.432   1.792   0.069 -1.5531 -2.3715 -0.7530
15061TIP3    H245125   0.552   1.781  -0.022 -0.6442  0.9380 -0.0351
15062TIP3   OH245126   1.787   3.379   2.528  0.0602  0.7414 -0.3552
15062TIP3    H145127   1.826   3.418   2.450  1.4851 -0.9400 -0.5117
15062TIP3    H245128   1.710   3.332   2.495  0.3019  0.5529 -0.6488
15063TIP3   OH245129   1.850   1.013   0.386  0.0534 -0.8256 -0.0173
15063TIP3    H145130   1.942   0.988   0.387  0.4084  0.4491  0.5244
15063TIP3    H245131   1.823   1.004   0.295  0.0619 -3.4714  0.2211
15064TIP3   OH245132   1.978   1.201   2.289 -0.0811  0.2981  0.2639
15064TIP3    H145133   1.927   1.280   2.272 -0.8759 -0.5434 -1.4286
15064TIP3    H245134   2.065   1.222   2.254  0.0764  0.8960  1.0130
15065TIP3   OH245135   4.019   6.004   4.605  0.2497 -0.3130 -0.1686
15065TIP3    H145136   4.063   5.977   4.525  0.3360 -0.8417  0.0526
15065TIP3    H245137   3.972   5.926   4.634 -0.3099  0.0575 -0.0536
15066TIP3   OH245138   4.298   6.176   4.493 -0.3185  0.1048  0.7110
15066TIP3    H145139   4.343   6.123   4.559  0.9421  0.4893  0.1699
15066TIP3    H245140   4.295   6.120   4.415 -0.6694  0.1296  0.7031
15067TIP3   OH245141   5.859   6.945   5.646 -0.2938 -0.1618 -1.1271
15067TIP3    H145142   5.811   6.868   5.676 -2.3001  0.7159 -1.9783
15067TIP3    H245143   5.905   6.977   5.723 -1.2700 -0.8966 -0.2349
15068TIP3   OH245144   5.796   6.683   6.302  0.0849  0.3711  0.0368
15068TIP3    H145145   5.775   6.743   6.231 -0.2513  0.1153 -0.0810
15068TIP3    H245146   5.712   6.643   6.325  0.2471  0.2140  0.3569
15069TIP3   OH245147   2.477   3.554   0.004  0.8091 -0.1066  0.0597
15069TIP3    H145148   2.384   3.570  -0.015  0.7811 -0.3006  0.0353
15069TIP3    H245149   2.503   3.630   0.057  0.6269 -0.0675  0.0962
15070TIP3   OH245150   5.350   5.531   3.877  0.1285  0.4110  0.3628
15070TIP3    H145151   5.327   5.624   3.874  2.1898  0.9289 -0.3117
15070TIP3    H245152   5.356   5.510   3.970  2.0482  1.6040  0.5363
15071TIP3   OH245153   4.568   7.140   6.370  0.0044  0.4953 -0.0787
15071TIP3    H145154   4.527   7.223   6.394  0.1126  0.8911 -1.2202
15071TIP3    H245155   4.567   7.088   6.450 -2.7691  0.4939 -0.0724
15072TIP3   OH245156   2.459   3.815   1.081 -0.9786  0.1828  0.1619
15072TIP3    H145157   2.408   3.752   1.030 -2.9099  1.2800  0.7134
15072TIP3    H245158   2.404   3.893   1.086  0.4918  1.1798  1.3111
15073TIP3   OH245159   1.377   1.366   1.576  0.3410 -0.0089 -0.0624
15073TIP3    H145160   1.425   1.383   1.494 -0.3777 -3.0193 -1.1633
15073TIP3    H245161   1.291   1.403   1.561 -0.2331 -1.7624 -1.2488
15074TIP3   OH245162   0.628   2.037   1.121  0.2587 -0.5068  0.0915
15074TIP3    H145163   0.675   2.116   1.093  3.0434 -2.1228  0.0690
15074TIP3    H245164   0.543   2.069   1.151  1.5344  2.5705  0.5906
15075TIP3   OH245165   3.170   6.673   5.343  0.2478 -0.0428  0.4266
15075TIP3    H145166   3.144   6.620   5.419  0.6752 -0.4182  0.3074
15075TIP3    H245167   3.223   6.744   5.381  0.3640 -0.1629  0.4879
15076TIP3   OH245168   5.925   4.691   5.893 -0.1175  0.3091 -0.2501
15076TIP3    H145169   5.907   4.622   5.956 -0.0819  1.0227  0.5412
15076TIP3    H245170   6.021   4.694   5.888 -0.1086  0.8369  0.2987
15077TIP3   OH245171   1.943   3.119   0.880  0.2046 -0.0285  0.1214
15077TIP3    H145172   1.947   3.048   0.943  0.6601 -4.2359 -4.3474
15077TIP3    H245173   2.033   3.149   0.871  0.1433  0.5541  1.3954
15078TIP3   OH245174   1.552   4.891   0.081 -0.6345  0.0458  0.2811
15078TIP3    H145175   1.581   4.962   0.024 -0.0902  1.1180  1.8453
15078TIP3    H245176   1.458   4.903   0.088 -0.4369  1.2408  1.2937
15079TIP3   OH245177   3.528   5.737   6.124  0.6640 -0.0589  0.0427
15079TIP3    H145178   3.489   5.652   6.148  1.8937 -0.7527 -0.4134
15079TIP3    H245179   3.560   5.725   6.035  2.5564  0.2850  0.6598
15080TIP3   OH245180   6.034   6.890   5.921  0.1713  0.1669 -0.4131
15080TIP3    H145181   6.023   6.798   5.896 -1.0327 -0.2113  1.4336
15080TIP3    H245182   5.998   6.895   6.009  0.6837  2.3226 -0.3114
15081TIP3   OH245183   2.119   3.813   1.219  0.1592  0.3877  0.0733
15081TIP3    H145184   2.155   3.829   1.307  0.6994 -0.8699  0.0902
15081TIP3    H245185   2.033   3.774   1.235  0.4229 -0.2071  0.0478
15082TIP3   OH245186   3.715   5.992   5.469 -0.3815  0.6361 -0.7752
15082TIP3    H145187   3.707   5.958   5.380  1.6950 -1.5962 -0.1808
15082TIP3    H245188   3.806   6.020   5.476 -0.3320  0.1388  0.8389
15083TIP3   OH245189   1.304   4.708   2.158  0.3809  0.1659  0.2525
15083TIP3    H145190   1.243   4.697   2.085  0.7223 -0.1895  0.0161
15083TIP3    H245191   1.363   4.633   2.151  0.6930  0.3742  0.6282
15084TIP3   OH245192   5.613   6.646   5.015  0.3111  0.4391  0.3566
15084TIP3    H145193   5.577   6.726   5.053 -0.2695  1.4262 -2.1764
15084TIP3    H245194   5.538   6.606   4.970  0.7244 -1.2648  1.1544
15085TIP3   OH245195   2.622   2.599   0.479 -0.2304 -0.2706  0.6964
15085TIP3    H145196   2.569   2.658   0.425  0.0935 -0.1427  0.5146
15085TIP3    H245197   2.685   2.560   0.418  1.4436  1.3716  1.3048
15086TIP3   OH245198   0.447   1.892   2.622  0.0384 -0.4880 -1.0162
15086TIP3    H145199   0.523   1.949   2.607  0.9034 -1.7017 -1.3378
15086TIP3    H245200   0.408   1.881   2.536 -1.5422  1.5289 -0.5926
15087TIP3   OH245201   3.443   5.407   3.897  0.4506  0.5798  0.1121
15087TIP3    H145202   3.471   5.496   3.918  1.4515 -0.1108  1.8305
15087TIP3    H245203   3.400   5.376   3.976 -0.2245 -0.3437 -0.6089
15088TIP3   OH245204   1.819   2.815   2.477  0.0305  0.1259 -0.2811
15088TIP3    H145205   1.875   2.763   2.420 -1.8494 -0.8812 -1.2519
15088TIP3    H245206   1.832   2.778   2.564  1.0472  0.0559 -0.4662
15089TIP3   OH245207   3.426   5.653   6.438 -0.3642 -0.0815  0.1218
15089TIP3    H145208   3.521   5.642   6.437 -0.5904 -2.3443  0.9869
15089TIP3    H245209   3.407   5.692   6.523 -0.1548  1.2425 -0.4180
15090TIP3   OH245210   1.533   1.902   2.058 -0.1781  0.2928 -0.5775
15090TIP3    H145211   1.560   1.895   2.150 -2.0792  2.8292  0.2611
15090TIP3    H245212   1.437   1.894   2.061 -0.1914 -0.3456 -2.4249
15091TIP3   OH245213   5.539   7.044   5.699 -0.3534  0.1705  0.2372
15091TIP3    H145214   5.569   7.041   5.790  0.5363  0.6161 -0.0287
15091TIP3    H245215   5.484   7.122   5.694 -0.6264 -0.0090  0.4580
15092TIP3   OH245216   2.590   3.970   0.838  0.0981 -0.0064 -0.3107
15092TIP3    H145217   2.563   3.882   0.811 -3.5604  0.8084  0.3970
15092TIP3    H245218   2.607   3.961   0.932  1.6313 -0.3715 -0.6204
15093TIP3   OH245219   5.359   5.437   6.985  0.1580 -0.1417  0.0919
15093TIP3    H145220   5.407   5.455   6.905 -0.0586  0.4824  0.1016
15093TIP3    H245221   5.415   5.470   7.056  0.6120 -1.2149  0.2415
15094TIP3   OH245222   8.105   2.630   0.529  0.0177  0.4150  0.2047
15094TIP3    H145223   8.112   2.656   0.621  0.4473  0.4696  0.1540
15094TIP3    H245224   8.012   2.611   0.517  0.3529 -1.9560  1.2745
15095TIP3   OH245225   4.286   6.939   6.384  0.4083  0.1544  0.2216
15095TIP3    H145226   4.367   6.947   6.434 -0.5062  0.5119  1.6925
15095TIP3    H245227   4.272   6.845   6.373  0.0336  0.0404  1.6321
15096TIP3   OH245228   2.882   2.592   0.629  0.2908  0.3228 -0.2196
15096TIP3    H145229   2.906   2.684   0.644  2.0284 -0.4194  1.6891
15096TIP3    H245230   2.794   2.597   0.591 -0.2612  2.6984  1.2431
15097TIP3   OH245231   1.474   2.182   0.297  0.1659  0.6595 -0.4390
15097TIP3    H145232   1.477   2.094   0.259  1.7247  0.5235 -0.0075
15097TIP3    H245233   1.423   2.171   0.377  0.0346  0.2336 -0.5771
15098TIP3   OH245234   3.033   5.879   5.646 -0.0104 -0.4741 -0.4851
15098TIP3    H145235   3.094   5.872   5.720 -1.7491  2.2903  1.2804
15098TIP3    H245236   3.084   5.920   5.577  0.1341  2.1571  1.0985
15099TIP3   OH245237   0.130   0.608   0.134  0.3099 -0.2325  0.0420
15099TIP3    H145238   0.207   0.572   0.178  0.3003 -1.0792 -0.6191
15099TIP3    H245239   0.165   0.654   0.058  0.3824  1.8003  1.2557
15100TIP3   OH245240   8.260   1.739   6.514  0.3135 -0.0785 -0.1506
15100TIP3    H145241   8.174   1.777   6.498 -0.3961 -1.8587 -0.6973
15100TIP3    H245242   8.260   1.716   6.607  0.2259 -0.0417 -0.1422
15101TIP3   OH245243   0.306   0.070   4.769 -0.1862 -0.4704  0.3159
15101TIP3    H145244   0.281  -0.016   4.802 -0.3080 -0.8084 -0.6610
15101TIP3    H245245   0.395   0.058   4.734  0.1976  0.0395  1.0910
15102TIP3   OH245246   3.563   7.452   3.911 -0.3438  0.3317  0.6115
15102TIP3    H145247   3.638   7.401   3.942 -0.0702  0.5406  0.2986
15102TIP3    H245248   3.602   7.532   3.874 -0.5123 -0.7963 -2.1056
15103TIP3   OH245249   3.997   5.354   5.941 -0.6139 -0.0370  0.0164
15103TIP3    H145250   4.088   5.341   5.967 -0.3934 -2.1709 -1.6279
15103TIP3    H245251   3.990   5.448   5.924  1.1742  0.2072  0.5411
15104TIP3   OH245252   1.570   3.007   2.218  0.5734  0.3353 -0.4154
15104TIP3    H145253   1.660   3.024   2.191  0.9413 -1.2294 -0.2244
15104TIP3    H245254   1.523   2.991   2.136  0.9994 -1.2325 -0.3686
15105TIP3   OH245255   2.441   3.553   1.418  0.3137  0.1703 -0.9701
15105TIP3    H145256   2.394   3.609   1.355 -2.5992 -0.2430  0.7403
15105TIP3    H245257   2.411   3.464   1.398  1.8361 -0.3410 -1.0442
15106TIP3   OH245258   2.201   4.132   0.832 -0.3027  0.1836  0.0590
15106TIP3    H145259   2.235   4.094   0.913  1.8650  1.2090 -0.3479
15106TIP3    H245260   2.184   4.224   0.853  2.0770  0.9228 -1.1422
15107TIP3   OH245261   5.825   7.185   6.141 -0.1116  0.3092 -0.5358
15107TIP3    H145262   5.912   7.225   6.151 -0.5905  1.2460 -0.0517
15107TIP3    H245263   5.765   7.250   6.176 -0.8052 -1.5063  1.7794
15108TIP3   OH245264   1.394   4.155   2.439 -1.0509  0.9141  0.3827
15108TIP3    H145265   1.347   4.109   2.508  0.9853 -0.4890  0.8901
15108TIP3    H245266   1.362   4.117   2.358  0.5471 -1.4030  0.7960
15109TIP3   OH245267   0.311   0.371   4.850  0.2780  0.6893  0.2885
15109TIP3    H145268   0.323   0.276   4.848  2.2471  0.9534 -1.5561
15109TIP3    H245269   0.243   0.385   4.916  0.1903 -1.9712  0.8074
15110TIP3   OH245270   3.615   4.517   0.170 -0.1018  0.2714 -0.3753
15110TIP3    H145271   3.631   4.473   0.086  1.6638  1.6201 -0.7516
15110TIP3    H245272   3.544   4.579   0.151  0.4339  0.7209 -0.9251
15111TIP3   OH245273   5.731   7.681   5.739  0.3178  0.2059  0.0606
15111TIP3    H145274   5.775   7.662   5.656 -0.8838  1.6777 -0.9412
15111TIP3    H245275   5.701   7.596   5.771  2.6957 -0.6461  0.0924
15112TIP3   OH245276   8.257   4.239   4.762 -0.3180 -0.3154  0.0067
15112TIP3    H145277   8.271   4.161   4.708  0.2339 -0.0555 -0.2329
15112TIP3    H245278   8.340   4.252   4.807  0.0927  1.0038 -1.0994
15113TIP3   OH245279   2.617   7.298   6.450  0.4864  0.1751  0.6169
15113TIP3    H145280   2.617   7.365   6.518  0.4989  1.2462 -0.4200
15113TIP3    H245281   2.701   7.308   6.405 -0.4593  1.0085 -1.0216
15114TIP3   OH245282   8.428   1.384   2.087  0.0550 -0.7801 -0.6788
15114TIP3    H145283   8.509   1.348   2.051 -0.4511 -1.2725 -1.3462
15114TIP3    H245284   8.456   1.440   2.159  0.9123 -1.8919 -0.1341
15115TIP3   OH245285   6.759   5.460   6.542  0.0560 -0.1785  0.2104
15115TIP3    H145286   6.673   5.495   6.566 -0.2764 -1.0468  0.2945
15115TIP3    H245287   6.763   5.375   6.585  2.1297  1.0429  2.5642
15116TIP3   OH245288   3.415   6.972   5.996 -0.3799  0.7476 -0.1081
15116TIP3    H145289   3.371   7.049   5.958 -1.7107  0.4783  0.8714
15116TIP3    H245290   3.504   7.002   6.012 -1.0049  2.2547  0.6933
15117TIP3   OH245291   3.432   1.802   1.830 -0.0594 -0.0396  0.2345
15117TIP3    H145292   3.471   1.730   1.781  0.3469 -0.2129  0.8045
15117TIP3    H245293   3.396   1.860   1.763  0.4333 -0.3029 -0.2639
15118TIP3   OH245294   1.037   2.805   0.126  0.0698  0.3906  0.1098
15118TIP3    H145295   1.005   2.718   0.149 -0.1583  0.2232 -0.7990
15118TIP3    H245296   1.096   2.829   0.197 -0.7038 -0.0561  0.8975
15119TIP3   OH245297   5.520   6.646   6.113 -0.1038 -0.9087  0.2619
15119TIP3    H145298   5.447   6.642   6.175  1.2615  1.5683  2.0994
15119TIP3    H245299   5.496   6.715   6.051 -0.1344 -1.3566 -0.2328
15120TIP3   OH245300   1.006   1.873   3.520  0.2326  0.1384  0.7030
15120TIP3    H145301   1.011   1.798   3.460  0.8327  0.2954  0.5498
15120TIP3    H245302   1.096   1.886   3.550  0.1499  0.8430  0.6702
15121TIP3   OH245303   2.047   2.794   0.391  0.2230  0.2420  0.5090
15121TIP3    H145304   2.140   2.791   0.415 -0.1230  0.2479  1.8571
15121TIP3    H245305   2.043   2.748   0.307  1.3531 -0.3122  0.7534
15122TIP3   OH245306   1.250   1.301   1.917  0.2930 -0.0423  0.3738
15122TIP3    H145307   1.320   1.358   1.887  0.1375 -0.8375 -1.5679
15122TIP3    H245308   1.171   1.356   1.916  0.3387  0.0093 -0.4430
15123TIP3   OH245309   3.355   2.747   2.747  0.3561 -0.1068 -0.3833
15123TIP3    H145310   3.369   2.659   2.782 -1.0513  0.0251  0.5562
15123TIP3    H245311   3.296   2.735   2.672 -1.8250  0.2555  1.2260
15124TIP3   OH245312   1.657   2.140   4.006  0.4681  0.1812  0.2904
15124TIP3    H145313   1.688   2.166   4.093  3.5086 -0.6874 -0.4778
15124TIP3    H245314   1.649   2.045   4.012  1.9345 -0.0263 -0.7205
15125TIP3   OH245315   3.223   0.423   1.485  0.6098  0.2827 -0.4534
15125TIP3    H145316   3.266   0.504   1.514  1.7120  0.1741 -1.6953
15125TIP3    H245317   3.296   0.362   1.469 -0.2011 -0.9057  0.2943
15126TIP3   OH245318   2.004   3.038   2.814 -0.2529  0.0078  0.6454
15126TIP3    H145319   2.061   3.097   2.863  0.9127  0.9288 -1.7357
15126TIP3    H245320   1.949   3.095   2.761  0.3851 -0.9993 -1.1434
15127TIP3   OH245321   8.237   3.839   1.142  0.8254  0.1887  0.4978
15127TIP3    H145322   8.220   3.848   1.235  0.0439 -0.6419  0.4376
15127TIP3    H245323   8.310   3.777   1.137 -0.2932 -1.1467  0.4907
15128TIP3   OH245324   7.978   3.866   0.259  0.1615 -0.4368  0.1636
15128TIP3    H145325   7.891   3.906   0.270  0.2640  0.6981 -2.6600
15128TIP3    H245326   7.962   3.772   0.267 -1.0537 -0.1631  1.1928
15129TIP3   OH245327   0.024   1.100   6.784  0.2928  0.3377 -0.0525
15129TIP3    H145328   0.098   1.077   6.840  0.6702  0.8527 -0.3339
15129TIP3    H245329   0.057   1.172   6.730  0.2024 -0.6824 -1.5040
15130TIP3   OH245330   8.506   2.728   2.441  0.4971  0.2356  0.5431
15130TIP3    H145331   8.499   2.633   2.447  1.8006  0.2282  2.2143
15130TIP3    H245332   8.489   2.748   2.348 -0.7849 -1.5087  0.3804
15131TIP3   OH245333   4.625   5.777   6.075 -0.1838  0.1538 -0.0878
15131TIP3    H145334   4.545   5.781   6.023 -0.3367  1.6366  0.2544
15131TIP3    H245335   4.595   5.768   6.165  0.0233  1.0081  0.0705
15132TIP3   OH245336   2.231   7.935   6.626  0.4735  0.0991 -0.4768
15132TIP3    H145337   2.197   7.898   6.545  0.5147 -2.3304  0.5667
15132TIP3    H245338   2.157   7.930   6.687  0.0866  2.9608 -0.6330
15133TIP3   OH245339   6.494   6.682   4.884 -0.5282  1.1731  0.0583
15133TIP3    H145340   6.476   6.666   4.792 -1.7590 -0.0444  0.4955
15133TIP3    H245341   6.587   6.707   4.887  0.1522 -1.0997 -1.2457
15134TIP3   OH245342   1.285   1.607   0.456  0.1260  0.1660 -0.1070
15134TIP3    H145343   1.203   1.629   0.501 -0.5113 -2.1542 -0.1146
15134TIP3    H245344   1.304   1.517   0.481  2.5136  0.5413 -0.3934
15135TIP3   OH245345   4.253   6.406   5.994 -0.2705 -0.4726  0.2086
15135TIP3    H145346   4.167   6.384   5.959 -0.6087  0.8156  0.2050
15135TIP3    H245347   4.258   6.359   6.077 -0.8647 -0.7735  0.0735
15136TIP3   OH245348   2.727   1.462   0.166 -0.1317  0.3911 -0.5193
15136TIP3    H145349   2.740   1.526   0.236  2.3239 -2.3745  1.6703
15136TIP3    H245350   2.802   1.474   0.108 -0.3700  0.3593 -0.8375
15137TIP3   OH245351   6.400   7.425   6.221 -0.4897  0.2777 -0.1199
15137TIP3    H145352   6.320   7.478   6.227 -0.7954 -0.1444 -0.3781
15137TIP3    H245353   6.376   7.353   6.164 -0.0310 -0.0611  0.1099
15138TIP3   OH245354   2.135   2.066   0.919 -0.1710  0.4845  0.2225
15138TIP3    H145355   2.097   2.141   0.964 -1.9161  0.2835 -0.8934
15138TIP3    H245356   2.095   1.990   0.961  0.2257  0.2200  0.1240
15139TIP3   OH245357   5.326   6.223   5.395 -0.7993 -1.2073  0.2513
15139TIP3    H145358   5.364   6.307   5.422  1.7965 -2.3146  0.0736
15139TIP3    H245359   5.324   6.171   5.475  1.3362 -2.3862 -0.4500
15140TIP3   OH245360   1.374   2.333   1.698  0.2890 -0.0234  0.3862
15140TIP3    H145361   1.411   2.413   1.662  2.2408 -0.5088  1.2962
15140TIP3    H245362   1.405   2.329   1.788 -1.2346 -0.9135  0.9081
15141TIP3   OH245363   1.054   2.685   2.101 -0.2977 -0.1355  0.5749
15141TIP3    H145364   1.119   2.729   2.047  0.2786 -3.3857 -1.5083
15141TIP3    H245365   1.078   2.709   2.191  2.6278  0.2342 -0.2452
15142TIP3   OH245366   1.150   0.868   0.270 -0.6299 -0.6956 -0.7887
15142TIP3    H145367   1.104   0.790   0.239  0.7221 -1.3995 -1.0439
15142TIP3    H245368   1.205   0.894   0.196  0.4914 -0.7282  0.0351
15143TIP3   OH245369   4.996   6.662   6.323  0.5465 -0.0987 -0.5182
15143TIP3    H145370   4.906   6.682   6.297  0.0477  0.8715  1.8379
15143TIP3    H245371   5.034   6.748   6.342  1.6734 -0.5952 -0.5418
15144TIP3   OH245372   7.946   1.358   0.320 -0.0450  0.2129 -0.1454
15144TIP3    H145373   7.987   1.429   0.370  0.8640 -0.1684 -0.3453
15144TIP3    H245374   7.965   1.379   0.229 -2.0359  1.1138 -0.3791
15145TIP3   OH245375   4.166   3.564   1.557 -0.0115 -0.0340 -0.7402
15145TIP3    H145376   4.250   3.539   1.596 -0.5637  2.2700  2.1907
15145TIP3    H245377   4.188   3.599   1.471  2.0438  0.3123 -0.1042
15146TIP3   OH245378   4.684   7.073   3.960  0.6407 -0.0074 -0.5238
15146TIP3    H145379   4.649   6.995   3.918  0.5030 -0.6975  0.8395
15146TIP3    H245380   4.747   7.040   4.024  0.6374  0.9996  0.0122
15147TIP3   OH245381   3.851   4.265   0.768  0.0544 -0.5258  0.3119
15147TIP3    H145382   3.781   4.207   0.800  0.7901 -0.4227  2.2078
15147TIP3    H245383   3.928   4.208   0.762 -0.2934 -0.7682 -2.3080
15148TIP3   OH245384   0.450   0.541   1.520 -0.4547  0.3992  0.0650
15148TIP3    H145385   0.541   0.516   1.535  0.4006  1.9429 -2.3199
15148TIP3    H245386   0.415   0.472   1.463  0.1499  1.4121 -1.5613
15149TIP3   OH245387   1.160   2.024   0.836 -0.2452 -0.2069 -0.4866
15149TIP3    H145388   1.208   1.967   0.775  0.4012  0.1446 -0.3135
15149TIP3    H245389   1.083   1.973   0.860  1.6161 -2.1107  1.6920
15150TIP3   OH245390   0.237   3.222   2.433  0.3144  0.2697  0.2203
15150TIP3    H145391   0.157   3.245   2.479  1.7577  1.2250  2.2938
15150TIP3    H245392   0.235   3.276   2.354 -1.9363 -1.0389 -0.6882
15151TIP3   OH245393   6.195   5.467   7.028 -0.1523  1.1542 -0.4313
15151TIP3    H145394   6.285   5.456   6.998 -0.3761 -0.0707 -0.6683
15151TIP3    H245395   6.161   5.540   6.976  0.6506  1.5374 -0.4313
15152TIP3   OH245396   1.797   1.592   4.144  0.0008 -0.6030  0.6273
15152TIP3    H145397   1.794   1.595   4.239  1.8560  0.1734  0.6881
15152TIP3    H245398   1.890   1.577   4.123 -0.6952 -2.8977 -1.0160
15153TIP3   OH245399   1.417   3.761   1.378  0.4441 -0.0704  0.3632
15153TIP3    H145400   1.349   3.807   1.428 -0.0784 -0.3362 -0.0934
15153TIP3    H245401   1.405   3.669   1.400 -1.2612 -0.4639 -1.9347
15154TIP3   OH245402   1.998   5.918   1.622  0.3345 -0.8728 -0.3541
15154TIP3    H145403   2.050   5.860   1.678  0.5379  2.1406  2.7109
15154TIP3    H245404   2.061   5.983   1.590 -0.3627 -0.8502 -1.7135
15155TIP3   OH245405   1.570   4.903   0.415  0.4893  0.0832  0.1729
15155TIP3    H145406   1.553   4.923   0.323  2.9324 -0.3966 -0.4029
15155TIP3    H245407   1.564   4.987   0.460 -0.7644  0.3090 -0.3950
15156TIP3   OH245408   1.968   2.606   0.572  0.2652  0.2067 -0.0547
15156TIP3    H145409   1.978   2.553   0.492  1.5233  0.3781 -0.0269
15156TIP3    H245410   1.965   2.696   0.541 -0.2525  0.2170  0.0210
15157TIP3   OH245411   5.514   6.946   5.078  0.6418 -0.0026  0.0708
15157TIP3    H145412   5.507   6.926   4.985  1.4312 -1.0550  0.2295
15157TIP3    H245413   5.426   6.932   5.113  0.9298 -2.2083 -0.0203
15158TIP3   OH245414   6.738   6.010   5.466 -0.7423 -0.1868 -0.9252
15158TIP3    H145415   6.764   6.067   5.538 -0.4358 -0.2252 -1.0064
15158TIP3    H245416   6.731   5.923   5.507  2.3304 -0.7760 -1.5318
15159TIP3   OH245417   4.794   6.815   6.558 -0.2931 -1.0223 -0.1947
15159TIP3    H145418   4.824   6.746   6.617 -0.9157 -1.2931 -0.1936
15159TIP3    H245419   4.775   6.769   6.476  0.7982 -0.6138 -0.6934
15160TIP3   OH245420   6.677   7.150   5.387 -0.1520 -0.0199 -0.4212
15160TIP3    H145421   6.659   7.082   5.323  0.7725 -1.2831  0.6253
15160TIP3    H245422   6.648   7.113   5.470  0.4220  0.8230  0.1715
15161TIP3   OH245423   8.040   0.689   0.857  0.3335 -0.1633  0.3477
15161TIP3    H145424   8.043   0.749   0.932 -0.0051 -0.5826  0.6994
15161TIP3    H245425   7.983   0.733   0.793  0.4702  0.1068  0.4106
15162TIP3   OH245426   0.005   1.678   0.803 -0.0705  0.1468 -0.9006
15162TIP3    H145427  -0.065   1.632   0.756 -0.1218  1.7059 -2.3839
15162TIP3    H245428   0.085   1.630   0.780 -0.5665 -1.3579  0.4303
15163TIP3   OH245429   5.095   5.349   6.930  0.2555  0.2480 -0.4864
15163TIP3    H145430   5.047   5.398   6.997  1.0427  0.7092 -0.2536
15163TIP3    H245431   5.186   5.375   6.943  0.6228 -0.9480 -0.6521
15164TIP3   OH245432   5.511   6.245   4.930  0.3391  0.4802  0.5890
15164TIP3    H145433   5.527   6.153   4.954  0.8564  0.3464 -0.2384
15164TIP3    H245434   5.598   6.286   4.933  0.2101  0.7789  0.2881
15165TIP3   OH245435   6.155   6.807   6.559  0.5682  0.0449  0.2998
15165TIP3    H145436   6.171   6.883   6.615 -1.0833  1.3536 -0.9914
15165TIP3    H245437   6.148   6.734   6.621  1.1156  1.0869  1.6297
15166TIP3   OH245438   2.994   6.411   6.576  0.4119  0.3473  0.7332
15166TIP3    H145439   2.985   6.470   6.501  1.3642  1.1157  1.2088
15166TIP3    H245440   3.074   6.361   6.558  0.8443  0.7937  1.4102
15167TIP3   OH245441   3.365   7.254   4.931  0.7470  0.7607  0.0234
15167TIP3    H145442   3.408   7.280   5.013  1.6591 -0.8670  0.0900
15167TIP3    H245443   3.347   7.160   4.943  1.7714  0.2796 -2.0087
15168TIP3   OH245444   4.867   4.566   5.345  0.4249 -0.1748  0.5633
15168TIP3    H145445   4.841   4.629   5.278 -0.1184 -1.2336 -0.2482
15168TIP3    H245446   4.940   4.607   5.390 -0.2945  1.2707  0.4239
15169TIP3   OH245447   3.596   6.469   6.369  0.6679 -0.1334  0.2007
15169TIP3    H145448   3.574   6.387   6.325  0.9024 -0.5687  0.8936
15169TIP3    H245449   3.516   6.494   6.415 -0.0385  1.0885 -1.6515
15170TIP3   OH245450   1.977   3.300   0.142  0.1298  0.0207  0.1051
15170TIP3    H145451   1.991   3.395   0.150 -2.2558  0.5773 -1.4092
15170TIP3    H245452   2.058   3.260   0.173  1.7047  2.6155 -0.5149
15171TIP3   OH245453   1.650   1.711   1.921 -0.0016 -0.2883 -0.2171
15171TIP3    H145454   1.583   1.726   1.854  2.0223  1.8129 -1.8638
15171TIP3    H245455   1.639   1.783   1.983  0.1862 -0.4055 -0.0478
15172TIP3   OH245456   3.954   6.180   6.426 -0.3894  0.1913 -0.2482
15172TIP3    H145457   3.913   6.208   6.344 -0.6445 -1.1346 -0.5920
15172TIP3    H245458   3.961   6.085   6.417 -0.2088  0.0682  1.1724
15173TIP3   OH245459   1.258   6.582   6.725  0.2937 -0.3822 -0.0841
15173TIP3    H145460   1.204   6.654   6.694  1.1457  0.0297 -0.6239
15173TIP3    H245461   1.209   6.545   6.799 -0.0210  0.9203  0.3688
15174TIP3   OH245462   2.930   2.199   2.037  0.4028 -0.5144 -0.6417
15174TIP3    H145463   3.012   2.155   2.061 -0.0597  0.0173  2.1332
15174TIP3    H245464   2.865   2.129   2.034  0.3718 -0.5221  0.1772
15175TIP3   OH245465   7.052   4.668   6.677 -0.2475  0.1969 -0.1547
15175TIP3    H145466   6.981   4.731   6.688 -0.9939 -0.6576 -0.0086
15175TIP3    H245467   7.028   4.595   6.734 -0.6100 -1.2554 -2.0874
15176TIP3   OH245468   5.844   6.590   6.000 -0.3955  0.3621  0.4564
15176TIP3    H145469   5.797   6.534   6.062 -1.2500 -2.0213 -2.2837
15176TIP3    H245470   5.928   6.547   5.987  0.3512  1.6247  1.0216
15177TIP3   OH245471   8.435   0.391   6.889 -0.3647  0.3298  0.0325
15177TIP3    H145472   8.500   0.462   6.885  0.4361 -0.4967 -2.3315
15177TIP3    H245473   8.480   0.315   6.852 -1.7808 -0.9975  0.9703
15178TIP3   OH245474   6.829   8.103   4.973 -0.1170  0.4743 -0.2018
15178TIP3    H145475   6.789   8.032   5.022 -1.8534  1.3110 -0.3790
15178TIP3    H245476   6.795   8.094   4.884 -2.1602  2.8230  0.2790
15179TIP3   OH245477   5.508   6.679   5.772 -0.5465 -0.9153  0.3141
15179TIP3    H145478   5.459   6.725   5.841 -1.2587  0.8249 -1.3088
15179TIP3    H245479   5.441   6.636   5.720 -0.1546 -0.6788 -0.3890
15180TIP3   OH245480   1.277   3.423   0.242 -0.0689  0.2681  0.1619
15180TIP3    H145481   1.328   3.451   0.318  0.6300 -2.3855  0.7429
15180TIP3    H245482   1.323   3.344   0.211 -2.4171 -0.7670 -0.7813
15181TIP3   OH245483   4.626   1.628   2.395  0.4460  0.8250  0.2038
15181TIP3    H145484   4.718   1.618   2.420  0.3808  0.0544  0.1669
15181TIP3    H245485   4.596   1.538   2.378  0.0804  1.2040 -1.1752
15182TIP3   OH245486   0.723   1.079   6.814 -0.1308 -0.1958 -0.5069
15182TIP3    H145487   0.773   1.067   6.733 -3.1458  0.5603 -2.5796
15182TIP3    H245488   0.753   1.163   6.849 -0.8413  0.8991 -2.4422
15183TIP3   OH245489   8.037   0.039   6.582 -0.1578 -0.4068  0.3985
15183TIP3    H145490   7.996   0.069   6.501  0.2505  0.1988  0.4141
15183TIP3    H245491   7.997  -0.047   6.598 -0.9605 -0.1038  0.0812
15184TIP3   OH245492   7.381   6.647   5.323 -0.1733 -0.2034 -0.2749
15184TIP3    H145493   7.330   6.582   5.274  0.8502 -1.6567  0.5305
15184TIP3    H245494   7.341   6.731   5.302 -3.0508 -1.3305  0.5450
15185TIP3   OH245495   5.028   6.736   4.827 -0.4319 -0.7692 -0.2803
15185TIP3    H145496   5.082   6.660   4.805 -1.1222 -0.7741 -2.0877
15185TIP3    H245497   5.065   6.807   4.775 -0.6296 -0.1850  0.3661
15186TIP3   OH245498   7.226   4.008   6.037 -0.0182  0.5498  0.0951
15186TIP3    H145499   7.138   3.974   6.024  0.5488 -0.9041 -0.1144
15186TIP3    H245500   7.214   4.094   6.076 -1.5262  0.3839  0.0076
15187TIP3   OH245501   5.762   7.488   6.005  0.4752  0.1675  0.3355
15187TIP3    H145502   5.785   7.571   6.047  0.5982 -0.5315  1.6833
15187TIP3    H245503   5.830   7.475   5.938  0.9207  0.7465  0.6763
15188TIP3   OH245504   5.138   5.640   6.133 -0.2515 -0.0254  0.0009
15188TIP3    H145505   5.049   5.649   6.098  1.2957  0.6694 -3.9493
15188TIP3    H245506   5.127   5.585   6.211 -4.1048 -0.1478 -0.5343
15189TIP3   OH245507   0.695   0.072   4.854  0.2623 -0.2701  0.3090
15189TIP3    H145508   0.755   0.005   4.822 -0.5376 -0.0079 -1.8002
15189TIP3    H245509   0.622   0.023   4.891  0.5497 -0.5736  0.4794
15190TIP3   OH245510   6.118   5.631   5.492  0.6063  0.2702 -0.4491
15190TIP3    H145511   6.192   5.685   5.519  1.0835 -0.9945  0.8406
15190TIP3    H245512   6.149   5.541   5.504 -0.6687 -0.2700 -1.2040
15191TIP3   OH245513   6.501   6.837   4.244  0.4942 -0.0171  0.2955
15191TIP3    H145514   6.444   6.799   4.310 -0.8155  1.1835 -0.1104
15191TIP3    H245515   6.585   6.793   4.255 -0.8688 -2.7329  0.0411
15192TIP3   OH245516   4.152   2.861   0.214  0.0772  0.6457  0.5515
15192TIP3    H145517   4.090   2.876   0.286  0.1200  1.8161  0.3549
15192TIP3    H245518   4.228   2.915   0.235  1.3573 -1.3429  1.1584
15193TIP3   OH245519   5.900   5.822   4.107  0.0208  0.1590 -0.9452
15193TIP3    H145520   5.925   5.874   4.183  0.5716  0.0146 -1.0250
15193TIP3    H245521   5.980   5.776   4.082 -1.1632 -3.0344  0.9110
15194TIP3   OH245522   4.315   4.704   4.605 -0.3333 -0.7689  0.0012
15194TIP3    H145523   4.256   4.716   4.531  0.3848 -1.7783 -0.7449
15194TIP3    H245524   4.263   4.654   4.669 -1.3050  1.0284  0.6350
15195TIP3   OH245525   5.865   6.254   5.168 -0.3007 -0.4362 -0.1002
15195TIP3    H145526   5.826   6.268   5.254 -0.3480  0.0362 -0.1963
15195TIP3    H245527   5.911   6.336   5.149  1.7256 -1.3884  0.5176
15196TIP3   OH245528   1.030   0.841   6.103 -0.1195  0.2919 -0.2619
15196TIP3    H145529   1.075   0.757   6.110 -1.1731 -0.4528 -2.0291
15196TIP3    H245530   1.099   0.905   6.086  0.5405 -0.4296 -0.3075
15197TIP3   OH245531   1.330   0.023   6.781 -0.3277 -0.0906  0.3316
15197TIP3    H145532   1.349   0.108   6.820 -2.4033 -0.6379  2.6879
15197TIP3    H245533   1.246   0.035   6.736  0.5921 -0.2616 -1.4698
15198TIP3   OH245534   6.875   6.831   5.701  0.5749 -0.0639 -0.2985
15198TIP3    H145535   6.820   6.813   5.624 -0.0923  1.5196 -0.2127
15198TIP3    H245536   6.900   6.744   5.733  0.6625 -0.7549 -2.1522
15199TIP3   OH245537   7.104   6.491   3.624 -0.0942 -0.1417  0.1566
15199TIP3    H145538   7.083   6.549   3.551 -1.4383 -0.3563  0.3474
15199TIP3    H245539   7.047   6.415   3.610  0.3657 -0.6195  0.8765
15200TIP3   OH245540   1.750   2.837   0.154 -0.3231  0.2641 -0.5008
15200TIP3    H145541   1.755   2.741   0.150 -0.8094  0.2210 -0.0778
15200TIP3    H245542   1.819   2.862   0.216 -0.6196  0.1411 -0.1171
15201TIP3   OH245543   8.135   5.464   5.309 -0.5347  0.3377 -0.3295
15201TIP3    H145544   8.134   5.494   5.400 -1.3222  0.9020 -0.5223
15201TIP3    H245545   8.197   5.391   5.309  1.3084  1.8596  0.1635
15202TIP3   OH245546   5.754   7.890   5.309 -0.3876 -0.2951  0.0246
15202TIP3    H145547   5.763   7.797   5.286 -0.9243  0.2037 -2.3428
15202TIP3    H245548   5.677   7.893   5.365 -1.0469 -1.1417 -0.8074
15203TIP3   OH245549   5.652   6.001   5.867 -0.2627 -0.2415 -0.7703
15203TIP3    H145550   5.736   6.028   5.830  0.7832 -0.4666  1.3383
15203TIP3    H245551   5.628   5.923   5.817  1.3789 -0.8584 -0.6422
15204TIP3   OH245552   6.875   7.816   4.814 -0.3078 -0.0776  0.0597
15204TIP3    H145553   6.803   7.861   4.769 -3.5228 -0.3969  4.5442
15204TIP3    H245554   6.841   7.730   4.835  1.8091 -0.6687  1.2575
15205TIP3   OH245555   4.215   6.111   6.119  0.4507  0.6665  0.3041
15205TIP3    H145556   4.272   6.142   6.049  1.4870 -0.6029  0.5809
15205TIP3    H245557   4.208   6.186   6.179 -0.4709  1.7732 -1.1446
15206TIP3   OH245558   6.997   7.703   6.673  0.7526 -0.7095 -0.1334
15206TIP3    H145559   7.080   7.664   6.648  1.0079 -1.3073  1.5938
15206TIP3    H245560   6.931   7.649   6.630  1.1490 -2.2831  1.1993
15207TIP3   OH245561   2.900   3.980   0.152 -0.1083  0.4089  0.3952
15207TIP3    H145562   2.879   3.890   0.127  1.2675  0.5791 -1.4821
15207TIP3    H245563   2.849   4.034   0.091  0.2079  0.8893  0.5525
15208TIP3   OH245564   5.521   7.142   5.976 -0.3380  0.2296  0.7820
15208TIP3    H145565   5.442   7.194   5.962  0.4496  0.7696 -2.0888
15208TIP3    H245566   5.592   7.200   5.948  1.0523 -0.3436  3.0742
15209TIP3   OH245567   6.064   6.455   5.961 -0.4369  0.4792  0.0386
15209TIP3    H145568   6.044   6.373   6.006 -2.9991  1.4131  0.7018
15209TIP3    H245569   6.138   6.434   5.904 -0.9079 -2.2327  0.3568
15210TIP3   OH245570   3.356   2.305   0.090  0.5518 -0.0559 -0.2200
15210TIP3    H145571   3.436   2.332   0.136  0.3916 -0.4348  0.2769
15210TIP3    H245572   3.384   2.291  -0.001  1.1666 -0.7483  0.0768
15211TIP3   OH245573   1.327   0.279   3.982  0.4969  0.0615 -0.0030
15211TIP3    H145574   1.327   0.223   3.904  0.1072  1.2087 -0.8363
15211TIP3    H245575   1.235   0.283   4.008  0.4193  0.8873 -0.3756
15212TIP3   OH245576   1.494   1.453   0.272 -0.6020 -0.0337  0.5227
15212TIP3    H145577   1.510   1.498   0.189 -2.2848 -1.5107 -0.6335
15212TIP3    H245578   1.490   1.523   0.337 -0.9647  1.2820 -0.8946
15213TIP3   OH245579   0.153   1.969   5.040 -0.0395 -0.4359 -0.1515
15213TIP3    H145580   0.135   1.898   4.978 -0.2334 -1.1524  0.7123
15213TIP3    H245581   0.212   1.930   5.104  2.0757  0.9911 -1.1782
15214TIP3   OH245582   2.296   3.109   0.453 -0.6473 -0.1989  0.0855
15214TIP3    H145583   2.365   3.156   0.499  0.2023 -0.6076 -0.7493
15214TIP3    H245584   2.219   3.166   0.459 -0.3857  0.0162  1.4771
15215TIP3   OH245585   6.579   6.237   3.389  0.2087 -0.0642  0.0481
15215TIP3    H145586   6.635   6.196   3.455  0.2466 -0.4879 -0.2493
15215TIP3    H245587   6.561   6.168   3.326  0.4369  0.4250 -0.5588
15216TIP3   OH245588   4.490   5.697   4.595 -0.5754  0.0314 -0.0649
15216TIP3    H145589   4.508   5.713   4.688  0.1167 -0.6285 -0.0813
15216TIP3    H245590   4.456   5.607   4.592  3.0378 -1.3843 -0.8810
15217TIP3   OH245591   4.362   1.265   0.776 -0.0354  0.5816 -0.1748
15217TIP3    H145592   4.322   1.310   0.850  1.4180  1.5729  0.0272
15217TIP3    H245593   4.290   1.252   0.714 -0.5867  2.7277 -0.0073
15218TIP3   OH245594   6.316   7.166   6.182 -0.6539 -0.2438  0.4971
15218TIP3    H145595   6.340   7.107   6.254  0.9716  0.1205  0.2795
15218TIP3    H245596   6.324   7.112   6.104 -1.2937 -0.3247  0.4875
15219TIP3   OH245597   7.599   6.526   2.652 -0.5620 -0.1863 -0.2398
15219TIP3    H145598   7.555   6.607   2.678  0.9385  0.8665 -0.9033
15219TIP3    H245599   7.533   6.458   2.664 -1.0503  0.7488  2.8089
15220TIP3   OH245600   5.758   7.667   6.418  0.2928 -0.2775 -0.4413
15220TIP3    H145601   5.822   7.730   6.451  0.9670 -1.2455  0.1381
15220TIP3    H245602   5.692   7.721   6.374  0.6186  0.8677  0.4346
15221TIP3   OH245603   6.742   6.948   4.105 -0.3057  0.2716 -0.8257
15221TIP3    H145604   6.815   6.950   4.167 -0.1495  1.7946 -1.0274
15221TIP3    H245605   6.667   6.919   4.156  0.1695 -0.0328 -0.3034
15222TIP3   OH245606   8.438   7.459   3.824  0.2255 -0.3046 -0.0977
15222TIP3    H145607   8.366   7.465   3.761  0.0603  0.2099  0.1377
15222TIP3    H245608   8.406   7.400   3.892 -0.2130  0.4148  0.3225
15223TIP3   OH245609   0.185   0.756   6.061 -0.0184  0.5400  0.3684
15223TIP3    H145610   0.192   0.783   5.969 -0.9781 -1.4404 -0.3048
15223TIP3    H245611   0.091   0.744   6.076  0.0825  1.3740  1.7780
15224TIP3   OH245612   6.944   7.272   2.605 -0.3531 -0.7545 -0.1442
15224TIP3    H145613   6.925   7.180   2.621  0.1648 -0.7862  0.3242
15224TIP3    H245614   6.871   7.319   2.645 -0.5224 -0.9567 -0.2163
15225TIP3   OH245615   4.627   6.949   6.147 -0.1187 -0.0013  0.3339
15225TIP3    H145616   4.592   7.005   6.216  0.1080 -0.3475  0.7341
15225TIP3    H245617   4.551   6.925   6.094 -0.3438  0.0172  0.6455
15226TIP3   OH245618   6.029   7.324   5.419  0.3528  0.2775 -0.3307
15226TIP3    H145619   5.935   7.308   5.420  0.2895  0.5851 -1.1308
15226TIP3    H245620   6.061   7.280   5.340  0.9645 -0.2956  0.2313
15227TIP3   OH245621   4.373   7.721   6.109 -0.5205 -0.1991 -0.4196
15227TIP3    H145622   4.451   7.665   6.116 -1.9153 -2.2064 -0.2867
15227TIP3    H245623   4.316   7.674   6.048 -1.9996  0.7566  0.2106
15228TIP3   OH245624   4.987   6.762   5.294 -0.3268 -0.3147 -0.2241
15228TIP3    H145625   5.029   6.821   5.231  0.9835 -2.0326 -1.0170
15228TIP3    H245626   4.893   6.768   5.274 -0.1486  1.0326 -0.6830
15229TIP3   OH245627   3.143   0.640   0.116 -0.0306  0.1441 -0.4709
15229TIP3    H145628   3.055   0.675   0.129  0.7984  1.7334  1.1991
15229TIP3    H245629   3.145   0.560   0.169 -0.7990 -0.5100 -1.4050
15230TIP3   OH245630   6.616   6.937   5.215 -0.2691  0.0364  0.5949
15230TIP3    H145631   6.667   6.882   5.156 -1.8704  0.4768 -1.2793
15230TIP3    H245632   6.593   6.880   5.288  1.7417 -0.5269  0.8138
15231TIP3   OH245633   4.122   3.284   0.208  0.2896 -0.1357 -0.2458
15231TIP3    H145634   4.172   3.301   0.287 -2.1396  2.5174  0.8226
15231TIP3    H245635   4.140   3.360   0.152 -1.3399  0.1218 -0.4404
15232TIP3   OH245636   2.649   1.074   1.773  0.1084  0.1872 -0.1909
15232TIP3    H145637   2.587   1.093   1.844  0.5201  1.0639 -0.0699
15232TIP3    H245638   2.714   1.016   1.813 -0.6178 -0.7333 -0.3155
15233TIP3   OH245639   5.863   5.857   4.934 -0.2190 -0.1433  0.3469
15233TIP3    H145640   5.937   5.798   4.950 -0.9464 -0.3445  3.0358
15233TIP3    H245641   5.893   5.942   4.965 -1.5382 -0.4772  2.6007
15234TIP3   OH245642   7.272   6.223   5.039  0.0687 -0.1675 -0.2593
15234TIP3    H145643   7.326   6.211   4.961  0.2556 -1.5054  0.0766
15234TIP3    H245644   7.182   6.229   5.005  0.2262  0.0802 -0.6398
15235TIP3   OH245645   4.822   5.926   5.992 -0.2355  0.1770 -0.0552
15235TIP3    H145646   4.740   5.893   6.029 -0.3012  0.2242 -0.1591
15235TIP3    H245647   4.837   6.010   6.036 -0.4277  0.3368 -0.2986
15236TIP3   OH245648   2.035   1.623   0.481  0.0105  0.1864  0.5321
15236TIP3    H145649   1.946   1.635   0.448 -0.6553  0.8183  2.4990
15236TIP3    H245650   2.026   1.560   0.552  0.9679  1.0422  1.4209
15237TIP3   OH245651   0.358   0.657   4.789  0.0258  0.1858 -0.0021
15237TIP3    H145652   0.347   0.564   4.809  0.4558  0.4557  1.5564
15237TIP3    H245653   0.308   0.702   4.857 -0.1251  1.0998 -0.7128
15238TIP3   OH245654   4.186   6.906   5.861 -0.2214  0.2849 -0.3092
15238TIP3    H145655   4.170   6.863   5.777 -1.2003  0.1189 -0.0412
15238TIP3    H245656   4.129   6.860   5.922  0.0231  0.8238  0.3202
15239TIP3   OH245657   4.147   6.659   5.073  0.0044  0.0874 -0.0660
15239TIP3    H145658   4.100   6.582   5.041  0.7176 -0.0739 -0.7206
15239TIP3    H245659   4.080   6.709   5.120 -0.6962 -0.4223 -0.5031
15240TIP3   OH245660   6.875   4.875   5.376  0.0297  0.4352  0.4218
15240TIP3    H145661   6.865   4.907   5.287  1.7307 -1.2992 -0.4288
15240TIP3    H245662   6.901   4.783   5.366 -0.9201 -0.1242  2.7131
15241TIP3   OH245663   4.382   7.444   5.060 -0.0858  0.2370  0.1810
15241TIP3    H145664   4.400   7.419   4.969  0.3610 -0.0932  0.3586
15241TIP3    H245665   4.435   7.384   5.112 -0.8709 -0.0144  0.6846
15242TIP3   OH245666   7.661   5.152   5.644  0.6228 -0.2456  0.3245
15242TIP3    H145667   7.657   5.207   5.566  1.1531 -0.9264 -0.1957
15242TIP3    H245668   7.571   5.152   5.678  0.0921 -0.9427 -1.0016
15243TIP3   OH245669   5.729   6.460   4.831 -0.1544  0.0713  0.5147
15243TIP3    H145670   5.794   6.507   4.779  0.1876 -0.5235  0.3948
15243TIP3    H245671   5.694   6.525   4.892  1.1600  0.2063  1.1507
15244TIP3   OH245672   1.076   1.340   5.604 -0.0322 -0.2921 -0.0215
15244TIP3    H145673   1.078   1.307   5.514  0.6960  2.6206 -1.1610
15244TIP3    H245674   1.060   1.434   5.593 -1.0183 -0.0791  2.9645
15245TIP3   OH245675   8.504   4.766   6.160  0.5835 -0.0653  0.3615
15245TIP3    H145676   8.544   4.843   6.119 -1.3223  0.6450 -0.2645
15245TIP3    H245677   8.447   4.730   6.091 -1.5631  0.2946  1.9028
15246TIP3   OH245678   7.246   7.120   4.363 -0.0816  0.4714 -0.0289
15246TIP3    H145679   7.273   7.048   4.419  0.2361  0.8571  0.3090
15246TIP3    H245680   7.328   7.158   4.331 -0.2544  0.4297 -0.5312
15247TIP3   OH245681   2.206   3.502   1.210 -0.1537  0.1352 -0.2165
15247TIP3    H145682   2.178   3.593   1.197 -0.4313 -0.1775 -2.0354
15247TIP3    H245683   2.126   3.456   1.237  0.2694  0.6704  1.9660
15248TIP3   OH245684   1.257   3.931   1.007 -0.2966 -0.3442  0.2731
15248TIP3    H145685   1.174   3.928   1.055  0.0421  0.6653  0.9536
15248TIP3    H245686   1.264   4.021   0.977  0.7678 -0.3018  0.6244
15249TIP3   OH245687   1.927   3.317   0.666  0.1481  0.2704 -0.1090
15249TIP3    H145688   1.915   3.231   0.707  0.2395 -0.0159 -0.6712
15249TIP3    H245689   1.849   3.366   0.689 -0.3862 -0.3215 -0.6538
15250TIP3   OH245690   3.437   1.798   2.621  0.6523 -0.4033 -0.2427
15250TIP3    H145691   3.419   1.888   2.651  1.7678 -0.1612 -0.2719
15250TIP3    H245692   3.469   1.809   2.532 -1.0742 -0.9997 -0.9540
15251TIP3   OH245693   3.757   7.319   6.226  0.8192 -0.7772 -0.1502
15251TIP3    H145694   3.826   7.276   6.174  0.0371 -0.9285 -1.0742
15251TIP3    H245695   3.761   7.411   6.199  1.0803 -0.6616  0.2711
15252TIP3   OH245696   4.215   7.296   6.558  0.1221  0.2059  0.2283
15252TIP3    H145697   4.140   7.334   6.513 -0.9777 -0.9962  1.0142
15252TIP3    H245698   4.213   7.334   6.646  0.8280  0.6774  0.0452
15253TIP3   OH245699   5.334   2.726   0.242 -0.0174 -0.4411 -0.3557
15253TIP3    H145700   5.343   2.809   0.195  1.6713 -1.8131 -2.5430
15253TIP3    H245701   5.295   2.667   0.178  0.7995 -1.9202  0.5030
15254TIP3   OH245702   5.215   7.355   5.110  0.2291 -0.1021 -0.0214
15254TIP3    H145703   5.277   7.362   5.037  0.2974 -0.5843 -0.0124
15254TIP3    H245704   5.186   7.264   5.108  0.4538 -0.1958  0.7274
15255TIP3   OH245705   3.257   7.210   6.878  0.9441  0.3772  0.0122
15255TIP3    H145706   3.260   7.305   6.890  2.2195  0.2687  0.6245
15255TIP3    H245707   3.247   7.198   6.783 -0.0109  1.1203  0.0077
15256TIP3   OH245708   1.434   3.442   0.993  0.1993  0.6409 -0.0767
15256TIP3    H145709   1.461   3.507   0.927 -0.9711 -0.0486 -1.2578
15256TIP3    H245710   1.470   3.475   1.075  0.6846  2.1333 -0.8690
15257TIP3   OH245711   2.914   2.451   1.324  0.1610 -0.1795  0.0234
15257TIP3    H145712   2.822   2.466   1.344  1.0828  1.9133  3.0436
15257TIP3    H245713   2.928   2.359   1.345 -1.4882 -0.8385 -1.6206
15258TIP3   OH245714   2.228   7.357   6.687  0.2442  0.2471 -0.0579
15258TIP3    H145715   2.197   7.266   6.682 -1.7963  0.8792  0.4798
15258TIP3    H245716   2.308   7.352   6.738  0.2742 -1.2826 -0.2175
15259TIP3   OH245717   3.030   8.086   6.990 -0.6083 -0.2127 -0.3725
15259TIP3    H145718   3.026   8.147   6.917 -1.2035  1.0366  0.6808
15259TIP3    H245719   2.939   8.074   7.016 -0.4157 -0.8129  0.0466
15260TIP3   OH245720   3.713   7.769   4.877  0.5726  0.2804 -0.1758
15260TIP3    H145721   3.631   7.752   4.924  1.5176  0.3514  1.5549
15260TIP3    H245722   3.688   7.825   4.804 -0.7863  1.0011  0.8274
15261TIP3   OH245723   1.254   4.468   1.060 -0.3790 -0.5239  0.5640
15261TIP3    H145724   1.244   4.508   0.974 -0.5262 -0.4585  0.6107
15261TIP3    H245725   1.187   4.511   1.114 -0.5950 -0.8893  0.5908
15262TIP3   OH245726   7.864   1.200   1.101  0.4933  0.0618  0.3574
15262TIP3    H145727   7.949   1.160   1.120  1.2149  2.2963  2.0015
15262TIP3    H245728   7.829   1.223   1.187 -0.4224  1.8822 -0.4955
15263TIP3   OH245729   0.104   2.676   0.322  0.3610  0.1066 -0.1280
15263TIP3    H145730   0.140   2.640   0.403  2.0234  0.7800 -0.5354
15263TIP3    H245731   0.057   2.603   0.281  2.0651 -1.0812 -0.0211
15264TIP3   OH245732   8.174   3.890   1.427 -0.0327  0.0568  0.0463
15264TIP3    H145733   8.105   3.952   1.449 -0.7699 -0.6448 -0.2891
15264TIP3    H245734   8.167   3.821   1.493  2.0394  1.2621  1.6206
15265TIP3   OH245735   4.159   7.006   6.926 -0.2491  0.4205  0.1189
15265TIP3    H145736   4.185   7.020   6.835 -0.3821  3.5199  0.4958
15265TIP3    H245737   4.144   6.912   6.933  0.5651  0.0346 -2.8442
15266TIP3   OH245738   1.136   5.587   4.290 -0.0898 -0.5462  0.1109
15266TIP3    H145739   1.198   5.648   4.328 -1.5846 -0.0678  1.8309
15266TIP3    H245740   1.176   5.561   4.207  2.0871  0.2330  0.8887
15267TIP3   OH245741   7.121   1.768   1.947  0.3124 -0.2953  0.8556
15267TIP3    H145742   7.106   1.698   2.010  0.6456  0.0062  1.2679
15267TIP3    H245743   7.142   1.844   2.000  0.8836 -0.1155  0.3702
15268TIP3   OH245744   1.506   2.921   1.037  0.6626 -0.0600  0.1075
15268TIP3    H145745   1.442   2.973   1.086 -2.8136 -3.7386 -0.2632
15268TIP3    H245746   1.471   2.917   0.948  1.4744 -1.9859 -0.1558
15269TIP3   OH245747   0.295   3.688   1.214  0.2078  0.0415 -0.2998
15269TIP3    H145748   0.230   3.655   1.152 -0.2536  1.4303 -0.5782
15269TIP3    H245749   0.249   3.689   1.298  0.3072 -0.2764 -0.2413
15270TIP3   OH245750   7.331   2.749   2.460  0.2058 -0.0731 -0.0335
15270TIP3    H145751   7.340   2.719   2.550  1.0990  0.8976  0.2228
15270TIP3    H245752   7.245   2.791   2.457 -0.3831 -1.2629  0.0093
15271TIP3   OH245753   0.136   3.620   1.013  0.5164 -0.5937  0.3653
15271TIP3    H145754   0.143   3.533   0.974  1.9624 -0.5276  0.4432
15271TIP3    H245755   0.144   3.680   0.938 -1.0007 -0.5279  0.2461
15272TIP3   OH245756   0.929   6.690   5.819 -0.1815  0.3055  0.0512
15272TIP3    H145757   0.957   6.782   5.821  0.0821  0.2505 -0.7439
15272TIP3    H245758   0.873   6.684   5.741 -1.0359  0.0254  0.6860
15273TIP3   OH245759   6.675   5.472   0.520  0.5564  0.0161  0.3540
15273TIP3    H145760   6.736   5.513   0.582 -0.3328 -2.3640  2.8564
15273TIP3    H245761   6.591   5.513   0.539  0.7762  1.1786 -1.1066
15274TIP3   OH245762   0.926   2.276   1.865 -0.2484  0.0507 -0.1380
15274TIP3    H145763   0.945   2.186   1.893  0.6865 -0.0194 -0.9649
15274TIP3    H245764   0.883   2.316   1.940  0.4667 -0.7122  0.6918
15275TIP3   OH245765   6.350   7.359   5.437  0.0984 -0.8753 -0.0695
15275TIP3    H145766   6.337   7.271   5.472 -1.0893 -0.5148  0.4168
15275TIP3    H245767   6.262   7.391   5.419  0.5974 -0.2664 -1.4618
15276TIP3   OH245768   0.091   5.482   1.313 -0.0018  0.0625 -0.0225
15276TIP3    H145769   0.156   5.544   1.279 -0.1625  0.1236 -0.2227
15276TIP3    H245770   0.065   5.519   1.397  0.8855 -0.4425  0.4715
15277TIP3   OH245771   3.295   4.909   0.507  0.0766  0.3789 -0.5045
15277TIP3    H145772   3.388   4.887   0.503 -0.5501 -2.5427  0.1242
15277TIP3    H245773   3.265   4.903   0.416 -0.0871 -1.5988 -0.3512
15278TIP3   OH245774   3.998   6.703   6.651 -0.0432 -0.0247 -0.0928
15278TIP3    H145775   3.929   6.693   6.585  1.8075  1.6114 -2.3780
15278TIP3    H245776   3.970   6.777   6.705 -0.1239  0.6363 -1.0193
15279TIP3   OH245777   1.906   3.876   1.489 -0.9098  0.3648  0.4343
15279TIP3    H145778   1.879   3.836   1.406 -0.4871 -0.2600  0.5975
15279TIP3    H245779   1.862   3.825   1.556  2.4955 -2.2530  0.8487
15280TIP3   OH245780   3.043   4.047   0.541 -0.4320  0.2803  0.1493
15280TIP3    H145781   3.030   4.068   0.448 -0.4312  0.1149  0.1106
15280TIP3    H245782   2.956   4.051   0.579 -0.5017 -0.1346  0.0378
15281TIP3   OH245783   2.185   4.474   1.230  0.0967  0.3329  0.2476
15281TIP3    H145784   2.241   4.455   1.154  0.1490 -0.3368  0.4516
15281TIP3    H245785   2.244   4.515   1.294  0.6739 -1.6614  1.0124
15282TIP3   OH245786   2.174   2.315   1.999  0.2988  0.1061  0.1757
15282TIP3    H145787   2.154   2.294   1.907 -5.0385  1.9237  0.7127
15282TIP3    H245788   2.130   2.246   2.049  0.1740  1.0639  1.3993
15283TIP3   OH245789   2.631   4.351   1.448 -0.2788  0.3445 -0.0272
15283TIP3    H145790   2.671   4.293   1.383  2.2972  0.9359  0.9702
15283TIP3    H245791   2.588   4.291   1.510  0.3834 -0.3879 -0.2698
15284TIP3   OH245792   5.303   7.305   6.376 -0.4123  0.1111  0.0650
15284TIP3    H145793   5.389   7.294   6.414 -0.1173  1.4280 -0.1929
15284TIP3    H245794   5.257   7.363   6.436 -0.5732  0.6944 -0.6130
15285TIP3   OH245795   5.608   8.007   4.983  0.0318 -0.1116 -0.3349
15285TIP3    H145796   5.641   7.917   4.972 -1.1803 -0.2230 -3.6077
15285TIP3    H245797   5.662   8.043   5.053  2.2136 -2.6235 -0.6097
15286TIP3   OH245798   1.786   3.833   1.880  0.1716 -0.4302 -0.1089
15286TIP3    H145799   1.745   3.807   1.797 -0.0270 -0.6314  0.0516
15286TIP3    H245800   1.873   3.864   1.855  0.4255 -1.2894 -0.2976
15287TIP3   OH245801   5.164   6.928   6.062  0.0001  0.4131  0.0933
15287TIP3    H145802   5.199   6.975   6.138  0.9799 -0.3853  0.1408
15287TIP3    H245803   5.078   6.897   6.091  0.5836 -0.3195  1.0473
15288TIP3   OH245804   4.945   7.972   6.900 -0.0008 -0.0421 -0.6900
15288TIP3    H145805   4.881   8.037   6.872 -0.4068 -0.6770 -1.2595
15288TIP3    H245806   4.986   7.943   6.819 -1.9367 -2.6813 -0.8049
15289TIP3   OH245807   1.889   6.952   6.486 -0.0900 -0.0171  0.0228
15289TIP3    H145808   1.826   6.884   6.463 -1.2767  0.4947  1.6862
15289TIP3    H245809   1.897   7.005   6.406 -0.1489 -1.3139 -0.8651
15290TIP3   OH245810   4.913   6.126   6.170 -0.4614 -0.8089  0.5732
15290TIP3    H145811   4.986   6.065   6.180 -0.0862 -0.4889 -0.1253
15290TIP3    H245812   4.949   6.210   6.198 -0.4067 -0.5573 -0.2426
15291TIP3   OH245813   2.464   4.688   1.624 -0.4077  0.1720 -0.4479
15291TIP3    H145814   2.434   4.630   1.693  0.0801 -0.4418 -0.7457
15291TIP3    H245815   2.549   4.720   1.655 -1.4252  2.0824  0.5010
15292TIP3   OH245816   0.813   2.278   0.052  0.2055  0.2199  0.0975
15292TIP3    H145817   0.878   2.345   0.032  0.0597  0.5855  0.8117
15292TIP3    H245818   0.826   2.211  -0.015  2.1761 -0.3087  0.9707
15293TIP3   OH245819   8.425   1.710   6.974  0.2032  0.0273  0.1468
15293TIP3    H145820   8.345   1.711   6.921  0.9054  1.3388 -0.8968
15293TIP3    H245821   8.422   1.793   7.022  0.5870 -0.2532  0.6619
15294TIP3   OH245822   4.270   6.159   5.445  0.2062  0.0228 -0.4437
15294TIP3    H145823   4.259   6.219   5.372  1.1227  0.2491 -0.4024
15294TIP3    H245824   4.263   6.213   5.523 -0.6337 -0.1971 -0.3610
15295TIP3   OH245825   2.595   3.680   2.397 -0.4240  0.1461  0.1182
15295TIP3    H145826   2.537   3.757   2.396  0.3160  0.7054  0.2173
15295TIP3    H245827   2.669   3.705   2.342 -0.4062 -0.6786 -0.2417
15296TIP3   OH245828   2.075   4.279   1.807 -0.2657 -0.2225  0.6252
15296TIP3    H145829   2.065   4.354   1.749 -2.3960 -0.6192  0.4280
15296TIP3    H245830   2.114   4.211   1.751  0.7238  0.4172  0.5351
15297TIP3   OH245831   7.202   0.403   4.910 -0.1611  0.2617  0.1863
15297TIP3    H145832   7.155   0.359   4.981  0.1784 -1.0019 -0.3593
15297TIP3    H245833   7.151   0.383   4.832 -0.8763  2.1622  0.1350
15298TIP3   OH245834   1.947   7.194   5.802 -0.7958  0.8994  0.8354
15298TIP3    H145835   2.043   7.196   5.810 -0.8454  0.9379  1.5043
15298TIP3    H245836   1.927   7.268   5.745 -0.3428  0.1242 -0.3508
15299TIP3   OH245837   0.933   3.634   1.078 -0.2070  0.2950 -0.3067
15299TIP3    H145838   0.848   3.626   1.120 -0.1382  0.5402 -0.1184
15299TIP3    H245839   0.961   3.544   1.064 -1.0022  0.2128 -1.4014
15300TIP3   OH245840   1.062   3.302   0.401  0.2947  0.4828  0.2052
15300TIP3    H145841   1.142   3.338   0.362  0.4324 -0.2455 -0.1811
15300TIP3    H245842   0.993   3.321   0.338  0.2808  0.5062  0.2274
15301TIP3   OH245843   1.153   4.105   1.988  0.1269 -0.0451 -0.0477
15301TIP3    H145844   1.188   4.022   2.021  2.7075  0.7747 -0.6337
15301TIP3    H245845   1.158   4.165   2.063 -0.1197  0.0406 -0.0994
15302TIP3   OH245846   2.735   4.776   1.215  0.1529 -0.9329 -0.2161
15302TIP3    H145847   2.757   4.842   1.280 -1.7222  0.8138 -1.2988
15302TIP3    H245848   2.643   4.756   1.230 -0.7559  0.6220 -3.2092
15303TIP3   OH245849   5.364   6.426   5.678  0.3946 -0.3696 -0.4503
15303TIP3    H145850   5.415   6.445   5.599 -0.9502  0.0382 -1.2316
15303TIP3    H245851   5.278   6.400   5.646  0.1911 -1.3508  0.8464
15304TIP3   OH245852   3.841   7.086   6.979  0.2934 -0.0182  0.3488
15304TIP3    H145853   3.912   7.146   6.999  0.2556  0.4673 -0.9692
15304TIP3    H245854   3.852   7.014   7.042  1.2894  0.5710  0.8591
15305TIP3   OH245855   5.415   7.380   4.729 -0.1965 -0.1944 -0.3477
15305TIP3    H145856   5.445   7.375   4.820  0.0975 -2.2979 -0.5249
15305TIP3    H245857   5.323   7.405   4.735 -0.0535  0.1295  0.5207
15306TIP3   OH245858   4.010   5.811   5.336 -0.4928  0.0442 -0.1582
15306TIP3    H145859   4.079   5.774   5.281 -0.0086 -0.7268  0.9585
15306TIP3    H245860   3.950   5.738   5.352 -0.6531  0.2739  0.2913
15307TIP3   OH245861   1.129   3.357   1.316 -0.9927 -0.4383  0.3075
15307TIP3    H145862   1.107   3.298   1.243 -0.1771  0.1553 -0.4306
15307TIP3    H245863   1.045   3.375   1.358 -1.7072  0.5150 -1.4918
15308TIP3   OH245864   8.536   3.423   0.088  0.2717 -0.3815 -0.3672
15308TIP3    H145865   8.612   3.465   0.129  0.7072 -1.6516  0.1371
15308TIP3    H245866   8.463   3.480   0.112  1.0156  0.7007 -0.6273
15309TIP3   OH245867   5.904   6.650   5.538  0.0519  0.0836  0.8187
15309TIP3    H145868   5.917   6.715   5.469  0.9602  0.4401  1.3260
15309TIP3    H245869   5.850   6.695   5.604  0.2415  0.1488  0.9280
15310TIP3   OH245870   2.680   0.759   6.903 -0.1684  0.4042 -0.6044
15310TIP3    H145871   2.677   0.666   6.925 -0.9956  0.9189  1.6679
15310TIP3    H245872   2.650   0.803   6.983  0.8413  2.6540 -1.4219
15311TIP3   OH245873   0.355   3.833   0.894  0.0012 -0.2162  0.5452
15311TIP3    H145874   0.343   3.839   0.989 -0.5966 -0.4305  0.4847
15311TIP3    H245875   0.387   3.919   0.868  1.2020 -0.4745  1.0869
15312TIP3   OH245876   8.494   6.293   0.488 -0.6513  0.5452  0.2354
15312TIP3    H145877   8.494   6.377   0.534 -0.0177  1.1709 -0.8803
15312TIP3    H245878   8.505   6.228   0.557  1.1387  1.5215  0.9155
15313TIP3   OH245879   4.168   7.422   6.800  0.2297  0.3642 -0.2415
15313TIP3    H145880   4.236   7.453   6.860 -0.0968 -0.0193  0.3323
15313TIP3    H245881   4.102   7.382   6.857 -0.1419  0.1070 -0.8459
15314TIP3   OH245882   6.567   6.611   6.331 -0.4008  0.0948  0.4156
15314TIP3    H145883   6.573   6.624   6.237 -1.9915 -1.5856  0.0627
15314TIP3    H245884   6.542   6.697   6.366  1.0587  0.9471 -0.5644
15315TIP3   OH245885   0.540   3.687   0.050  0.1784 -0.1453 -0.1791
15315TIP3    H145886   0.477   3.758   0.038  0.3498  0.0414  0.0206
15315TIP3    H245887   0.604   3.700  -0.020 -0.1082 -0.4470 -0.4974
15316TIP3   OH245888   6.624   7.271   6.261 -0.2720  0.1156 -0.0687
15316TIP3    H145889   6.561   7.322   6.311  1.0801  3.0090 -1.2111
15316TIP3    H245890   6.592   7.275   6.171  0.4022 -0.1885 -0.3249
15317TIP3   OH245891   6.311   7.586   3.882  0.9215  0.1834  0.3304
15317TIP3    H145892   6.330   7.492   3.876  2.0320  0.4068  0.1654
15317TIP3    H245893   6.357   7.615   3.961  0.8827  0.6556  0.1833
15318TIP3   OH245894   0.540   0.349   6.800 -0.1184  0.0937  0.0633
15318TIP3    H145895   0.491   0.371   6.720  0.7282  0.1503 -0.4421
15318TIP3    H245896   0.602   0.282   6.772 -0.0223 -0.0951  0.7422
15319TIP3   OH245897   3.210   1.727   0.504 -0.9007  0.1289  0.3603
15319TIP3    H145898   3.216   1.766   0.417  0.3467  0.8246  0.7356
15319TIP3    H245899   3.199   1.802   0.563 -3.3304 -0.4427  0.6801
15320TIP3   OH245900   2.956   7.318   6.916  0.4016  0.1426 -0.8496
15320TIP3    H145901   3.010   7.377   6.864  1.6079 -0.5009 -0.3469
15320TIP3    H245902   2.985   7.231   6.890 -0.0931 -0.2016 -0.2428
15321TIP3   OH245903   0.136   3.615   1.459  1.1629  0.2989 -0.1577
15321TIP3    H145904   0.078   3.691   1.455  0.6876 -0.1094 -1.4061
15321TIP3    H245905   0.077   3.540   1.464  1.6012 -0.0607 -0.3625
15322TIP3   OH245906   3.078   8.003   6.256 -0.1037  0.1860 -1.3601
15322TIP3    H145907   3.079   8.076   6.195 -1.0264  1.2946 -0.0856
15322TIP3    H245908   3.157   8.015   6.309 -0.1780  0.1886 -1.2488
15323TIP3   OH245909   5.579   1.827   6.541  0.5957  0.1941 -0.4238
15323TIP3    H145910   5.536   1.886   6.603  0.5660  0.8469 -1.0602
15323TIP3    H245911   5.667   1.862   6.532  0.9150 -0.4747 -0.0083
15324TIP3   OH245912   2.045   2.195   0.119 -0.1888 -0.3487  0.4494
15324TIP3    H145913   2.108   2.126   0.138  0.4748 -0.3415 -1.6511
15324TIP3    H245914   2.098   2.272   0.102 -0.7745 -0.2032 -0.7647
15325TIP3   OH245915   7.323   0.540   6.972  0.1062 -0.0272  0.0609
15325TIP3    H145916   7.280   0.587   7.043  1.2737  0.2419  0.6039
15325TIP3    H245917   7.334   0.451   7.005 -1.4233 -0.5045 -0.6768
15326TIP3   OH245918   5.004   0.321   6.502  0.2483 -0.2532  0.0883
15326TIP3    H145919   4.967   0.369   6.577  0.9465  0.7813 -0.2097
15326TIP3    H245920   5.054   0.250   6.541  1.3780  0.8307  0.6677
15327TIP3   OH245921   1.727   4.890   0.777 -0.9186 -0.6218 -0.0821
15327TIP3    H145922   1.820   4.873   0.788 -1.1259 -2.3438 -0.8562
15327TIP3    H245923   1.711   4.970   0.828  0.8565 -0.6272  0.5130
15328TIP3   OH245924   5.393   0.611   5.855 -0.0189  0.0498 -0.2025
15328TIP3    H145925   5.471   0.564   5.827 -0.9206 -0.5925 -1.6603
15328TIP3    H245926   5.418   0.704   5.851  1.4402 -0.2115  1.7241
15329TIP3   OH245927   1.416   2.961   0.498 -0.1744  0.2310  0.8000
15329TIP3    H145928   1.434   2.955   0.405 -0.3631 -2.9341  0.9207
15329TIP3    H245929   1.375   3.047   0.509  0.5812  0.9741 -1.8808
15330TIP3   OH245930   2.349   4.493   3.067  0.0726  0.3781  0.7215
15330TIP3    H145931   2.285   4.444   3.118  0.4017  1.1629  1.9232
15330TIP3    H245932   2.297   4.552   3.012 -0.2588  0.3454  1.0002
15331TIP3   OH245933   3.073   5.452   0.266 -0.4491 -0.0358 -0.1982
15331TIP3    H145934   3.098   5.382   0.206  0.8271 -0.3004  0.6016
15331TIP3    H245935   3.142   5.518   0.256 -1.3257  0.8340 -0.5165
15332TIP3   OH245936   8.329   3.254   1.446 -0.4281  0.0257  0.0573
15332TIP3    H145937   8.242   3.252   1.407 -0.2680  0.5523 -0.3382
15332TIP3    H245938   8.327   3.187   1.514 -1.3900  0.5731  0.5752
15333TIP3   OH245939   3.377   4.693   0.057 -0.5745  0.1574  0.5699
15333TIP3    H145940   3.310   4.720   0.119 -1.3092 -1.3497  0.4590
15333TIP3    H245941   3.450   4.752   0.073 -1.5644  1.1898  1.3637
15334TIP3   OH245942   8.591   1.684   6.764 -0.4102 -0.0891 -0.0166
15334TIP3    H145943   8.554   1.703   6.850  0.7036  0.0977  0.4359
15334TIP3    H245944   8.571   1.591   6.750 -1.4599  0.1335  0.0048
15335TIP3   OH245945   3.745   7.998   6.965 -0.3883  0.0147  0.2480
15335TIP3    H145946   3.780   8.082   6.936  0.1812  0.2263  1.5110
15335TIP3    H245947   3.712   7.957   6.886 -0.9398  1.5642 -0.3406
15336TIP3   OH245948   0.021   0.033   5.176 -0.4445 -0.6964 -0.1724
15336TIP3    H145949   0.025  -0.055   5.215 -1.6091  0.5199  2.8480
15336TIP3    H245950   0.094   0.080   5.217 -2.0834  0.8131  1.0516
15337TIP3   OH245951   4.594   7.719   5.501  0.0030 -0.1282 -0.4562
15337TIP3    H145952   4.620   7.631   5.471  2.1124  0.2556  0.1291
15337TIP3    H245953   4.558   7.761   5.423  0.3704 -1.0078 -1.1108
15338TIP3   OH245954   2.191   6.297   6.970 -0.3408 -0.4564 -0.2942
15338TIP3    H145955   2.176   6.204   6.951  0.1055 -0.9109  1.4659
15338TIP3    H245956   2.284   6.301   6.995 -0.8879  0.0770  1.7520
15339TIP3   OH245957   2.492   7.900   6.584 -0.1149  0.1651 -0.5674
15339TIP3    H145958   2.484   7.906   6.489  0.3097  0.9108 -0.5573
15339TIP3    H245959   2.402   7.900   6.616 -0.2349  1.4681 -0.8816
15340TIP3   OH245960   2.642   2.427   1.403  0.1226  0.1813  0.1037
15340TIP3    H145961   2.636   2.342   1.448  2.4475  0.2335  0.5298
15340TIP3    H245962   2.580   2.418   1.330 -0.9883 -1.2256  1.1701
15341TIP3   OH245963   3.400   5.887   5.205 -0.1044  0.2152  0.8655
15341TIP3    H145964   3.403   5.797   5.173 -0.6471 -0.2926  2.1939
15341TIP3    H245965   3.435   5.939   5.133  1.4615 -1.1841  0.5699
15342TIP3   OH245966   5.880   6.634   4.682  0.3857  0.0451  0.3116
15342TIP3    H145967   5.924   6.692   4.620  1.2262 -1.3122 -0.3742
15342TIP3    H245968   5.932   6.641   4.762  0.8379 -0.2256  0.0425
15343TIP3   OH245969   4.088   7.250   5.588  0.5600 -0.1671  0.0749
15343TIP3    H145970   4.179   7.276   5.572  0.6236 -0.4538 -0.0254
15343TIP3    H245971   4.084   7.235   5.682  0.6917 -0.4403  0.0391
15344TIP3   OH245972   2.185   3.861   0.781  0.4687  0.0454 -0.1743
15344TIP3    H145973   2.160   3.952   0.768 -0.3343 -0.1568 -0.0969
15344TIP3    H245974   2.104   3.817   0.808  0.7044 -0.8086 -0.8066
15345TIP3   OH245975   5.445   6.877   5.989  0.2123 -0.0574  0.6414
15345TIP3    H145976   5.354   6.886   6.019 -0.2579 -0.0598 -0.7452
15345TIP3    H245977   5.482   6.965   5.998  0.0435 -0.0343  1.1183
15346TIP3   OH245978   5.816   0.711   5.845 -0.2768 -0.1781 -0.0588
15346TIP3    H145979   5.771   0.628   5.857  0.0607 -0.3794 -0.1984
15346TIP3    H245980   5.909   0.690   5.853 -0.0137 -0.3041 -2.9159
15347TIP3   OH245981   6.020   7.484   5.094  0.1835  0.2527  0.1423
15347TIP3    H145982   6.012   7.392   5.067 -0.3708  0.0215  1.0697
15347TIP3    H245983   5.942   7.500   5.147 -0.1384  1.5053 -0.7036
15348TIP3   OH245984   4.918   7.913   4.283 -0.3444 -0.2010 -0.3172
15348TIP3    H145985   4.824   7.893   4.288 -0.2795 -0.0132  2.6363
15348TIP3    H245986   4.926   7.998   4.325  1.0144  0.3535 -1.6758
15349TIP3   OH245987   4.185   5.460   6.241 -0.0029 -0.4575  0.1145
15349TIP3    H145988   4.111   5.453   6.301 -1.5819 -1.3711 -1.8833
15349TIP3    H245989   4.195   5.555   6.227 -2.1240 -0.3846 -1.1492
15350TIP3   OH245990   4.587   7.535   6.112 -0.2984  0.2402 -0.1078
15350TIP3    H145991   4.587   7.478   6.189  0.7867 -1.8077 -1.5610
15350TIP3    H245992   4.678   7.561   6.101 -0.6290  1.4331 -0.0565
15351TIP3   OH245993   1.320  -0.014   3.554  0.8771  0.4304 -0.1017
15351TIP3    H145994   1.311   0.040   3.476  1.7666  0.2118 -0.3682
15351TIP3    H245995   1.234  -0.012   3.595  0.4783  0.7768 -0.9401
15352TIP3   OH245996   4.756   6.275   5.128  0.3605  0.0621  0.0694
15352TIP3    H145997   4.753   6.371   5.129 -0.8232  0.0542  2.3739
15352TIP3    H245998   4.666   6.248   5.106  0.0173 -0.4756  1.9942
15353TIP3   OH245999   2.195   4.223   0.017  0.5294  0.0121  0.9700
15353TIP3    H146000   2.216   4.134  -0.011 -0.5657 -0.4005  1.4336
15353TIP3    H246001   2.178   4.216   0.111  0.8947  0.7982  1.1038
15354TIP3   OH246002   0.887   1.261   6.241  0.2426 -0.3435 -0.1696
15354TIP3    H146003   0.865   1.348   6.275  0.7180 -0.0726 -0.5503
15354TIP3    H246004   0.891   1.272   6.146 -0.7377 -1.0224 -0.2971
15355TIP3   OH246005   0.328   0.664   5.602  0.1829  0.0698  0.0955
15355TIP3    H146006   0.401   0.700   5.652 -0.1602  0.4598  0.3217
15355TIP3    H246007   0.260   0.731   5.606 -0.7652 -0.9254  1.2137
15356TIP3   OH246008   2.526   3.632   0.386  0.0355 -0.0994  0.4826
15356TIP3    H146009   2.492   3.718   0.362 -0.9202 -0.8204 -0.8073
15356TIP3    H246010   2.496   3.620   0.477 -2.0274 -0.1320 -0.1751
15357TIP3   OH246011   6.431   7.962   6.126 -0.1209  0.3083 -0.2864
15357TIP3    H146012   6.512   7.920   6.099 -1.2339 -0.1972 -3.0074
15357TIP3    H246013   6.425   7.944   6.220  0.9790 -2.9935 -0.7744
15358TIP3   OH246014   0.365   1.092   5.342 -0.1128  0.0184  0.1843
15358TIP3    H146015   0.367   0.997   5.356  1.6688 -0.0308 -0.3200
15358TIP3    H246016   0.337   1.127   5.426 -0.5706 -0.9301  0.4453
15359TIP3   OH246017   0.421   0.244   6.172 -0.3989  0.3954 -0.3341
15359TIP3    H146018   0.433   0.314   6.235  1.3563 -0.0043 -0.1991
15359TIP3    H246019   0.384   0.286   6.095  0.4604  1.4333 -0.1849
15360TIP3   OH246020   5.376   3.274   6.835 -0.2401  0.0163  0.1450
15360TIP3    H146021   5.458   3.261   6.883 -0.9877 -0.9229  1.1745
15360TIP3    H246022   5.404   3.293   6.745  1.1005 -0.4298  0.4571
15361TIP3   OH246023   7.820   0.014   0.806  0.1431  0.3077 -0.2150
15361TIP3    H146024   7.799   0.100   0.770  0.4373 -0.1070 -1.4231
15361TIP3    H246025   7.908  -0.005   0.773  0.0083 -0.5311 -0.1152
15362TIP3   OH246026   2.998   7.403   2.043  0.0485  0.0282  0.1279
15362TIP3    H146027   3.003   7.416   1.948  0.6483  1.0728  0.3003
15362TIP3    H246028   3.088   7.384   2.069  0.0978  0.9863  0.6648
15363TIP3   OH246029   0.230   7.471   2.793 -0.2926 -0.8008 -0.1801
15363TIP3    H146030   0.219   7.404   2.726  2.2757 -1.2638 -0.1881
15363TIP3    H246031   0.313   7.514   2.771 -0.4915  0.4661  1.4561
15364TIP3   OH246032   1.896   1.533   1.088  0.1830  0.4559 -0.2694
15364TIP3    H146033   1.911   1.589   1.012 -1.1880 -0.8695 -1.5477
15364TIP3    H246034   1.801   1.525   1.094  0.3232 -0.9034  0.4943
15365TIP3   OH246035   1.877   0.729   3.238  0.1661  0.1490  0.3771
15365TIP3    H146036   1.969   0.748   3.255  0.1169 -0.5912  1.4877
15365TIP3    H246037   1.878   0.648   3.187  0.1709  0.7060 -0.5175
15366TIP3   OH246038   3.882   1.115   1.876 -0.7373 -0.0001  0.4884
15366TIP3    H146039   3.959   1.117   1.820 -1.6571  1.2150 -0.7812
15366TIP3    H246040   3.880   1.026   1.912  0.1152 -0.6679 -1.0675
15367TIP3   OH246041   2.660   3.938   2.653  0.2956 -0.1718  0.4445
15367TIP3    H146042   2.608   3.952   2.573  1.0983  1.1222  0.1443
15367TIP3    H246043   2.597   3.951   2.724 -0.7122 -2.5010  0.0370
15368TIP3   OH246044   2.779   1.995   1.306 -0.1388  0.3970 -0.7539
15368TIP3    H146045   2.743   1.927   1.363 -0.6848  1.9692  0.8244
15368TIP3    H246046   2.846   1.951   1.254  0.6550 -0.9799  1.4176
15369TIP3   OH246047   3.783   2.658   1.984  0.3748  0.5062  0.3553
15369TIP3    H146048   3.812   2.575   1.946 -0.1826  0.4751 -0.0057
15369TIP3    H246049   3.687   2.655   1.979  0.2578  0.3368  2.0886
15370TIP3   OH246050   1.744   2.722   2.044 -0.0374  0.0565 -0.1867
15370TIP3    H146051   1.685   2.693   1.975  2.4638  0.2644 -2.5234
15370TIP3    H246052   1.761   2.814   2.024  0.1904  0.3120  1.1096
15371TIP3   OH246053   5.792   5.588   7.033  0.7221  0.2149 -0.0319
15371TIP3    H146054   5.825   5.517   6.978 -0.6659 -1.6911  1.5337
15371TIP3    H246055   5.794   5.665   6.976 -0.4233 -1.6305 -2.6737
   8.60000   8.10816   7.02187   0.00000   0.00000  -2.86667   0.00000  -2.86667  -4.05408
